Membrane in water
40344
    1TMC1    C1    1   0.632   4.193  11.581 -0.3110 -0.1939  0.5438
    1TMC1    C2    2   0.724   4.274  11.634 -0.1148 -0.2541 -0.2921
    1TMC1    C3    3   0.818   4.329  11.556  0.8604 -0.0327 -0.3932
    1TMC1    C4    4   0.656   4.143  11.460 -0.0819  0.2195 -0.7903
    1TMC1    C5    5   0.765   4.185  11.388 -0.6258 -0.4396  0.3441
    1TMC1    C6    6   0.843   4.290  11.432 -0.1332 -0.1912 -0.4213
    1TMC1     C    7   0.525   4.151  11.676  0.5447  0.5377 -0.7849
    1TMC1     O    8   0.497   4.227  11.766  0.6768 -0.0392  0.0671
    1TMC1     H    9   0.718   4.315  11.734 -0.5695 -2.5291  0.6092
    1TMC1    H1   10   0.596   4.063  11.419  0.9936 -0.7874 -0.3985
    1TMC1    H2   11   0.927   4.321  11.370  2.1142 -1.7989  1.8034
    1TMC1    C7   12   0.786   4.114  11.261  0.3334 -0.2489 -0.7735
    1TMC1    C8   13   0.918   4.406  11.620 -0.6017 -0.4262  0.0419
    1TMC1    O1   14   0.698   4.075  11.185  0.4183  0.0162  0.2625
    1TMC1    O2   15   0.946   4.389  11.737 -0.4285 -0.3524  0.0162
    1TMC1    O3   16   0.922   4.106  11.253 -0.3635  0.1625  0.4558
    1TMC1    H3   17   0.961   4.083  11.340  0.6338  2.2125  0.5383
    1TMC1    O5   18   0.975   4.494  11.536  0.1900 -0.1487  0.5083
    1TMC1    H5   19   0.939   4.497  11.445  0.5782  0.4022  0.3695
    2MPD2     C   20   0.204   3.778  11.826  0.5839  0.1922 -0.9861
    2MPD2    C1   21   0.214   3.910  11.876 -0.2394 -0.0670  1.0519
    2MPD2    C2   22   0.312   3.994  11.820 -0.3966  0.2554 -0.1985
    2MPD2    C3   23   0.391   3.948  11.717 -0.5017  0.2386  0.4135
    2MPD2    C4   24   0.386   3.815  11.679  0.5080 -0.2364 -0.3138
    2MPD2    C5   25   0.294   3.731  11.739 -0.2358 -0.0015  0.5960
    2MPD2     H   26   0.325   4.096  11.853 -0.5729  0.6608 -1.3842
    2MPD2    H1   27   0.450   3.765  11.607 -0.4355 -1.4224 -0.3307
    2MPD2    H2   28   0.128   3.705  11.850  1.1498 -0.2382 -0.5226
    2MPD2    H3   29   0.290   3.625  11.714 -2.0445  0.0619  0.5989
    2MPD2     N   30   0.484   4.024  11.647 -0.6402  0.4617  0.1630
    2MPD2    H5   31   0.534   3.981  11.569  0.7756  1.5842  0.4431
    2MPD2    N1   32   0.130   3.968  11.970 -0.7041  0.9612  0.4498
    2MPD2    H7   33   0.137   4.066  11.998  0.0992  1.0206  0.0354
    3TMC1    C1   34   4.561   0.556  11.561  0.9505  0.0531 -0.1700
    3TMC1    C2   35   4.640   0.638  11.488  0.1337 -0.3653  0.2716
    3TMC1    C3   36   0.039   0.607  11.487 -0.6839 -0.4508 -0.0088
    3TMC1    C4   37   4.602   0.446  11.623 -0.6934  0.9329 -0.1078
    3TMC1    C5   38   0.002   0.425  11.618 -0.4204 -0.3643 -0.7544
    3TMC1    C6   39   0.087   0.501  11.550 -0.1245 -0.6318  0.2692
    3TMC1     C   40   4.417   0.575  11.545  0.4098 -0.6370 -0.2254
    3TMC1     O   41   4.351   0.523  11.634 -0.4296 -0.0648  0.2317
    3TMC1     H   42   4.608   0.731  11.443  1.3147 -0.8387 -1.5671
    3TMC1    H1   43   4.541   0.386  11.689 -0.7278  1.2548  0.1487
    3TMC1    H2   44   0.187   0.464  11.533  0.6983  1.4286  0.6410
    3TMC1    C7   45   0.049   0.314  11.698 -0.5093  0.7088  0.7040
    3TMC1    C8   46   0.119   0.665  11.387 -0.0705 -0.7354 -0.0163
    3TMC1    O1   47   4.711   0.221  11.727 -0.1194 -0.9337 -0.1578
    3TMC1    O2   48   0.074   0.729  11.292  0.4990 -0.0311  0.4385
    3TMC1    O3   49   0.168   0.353  11.761 -0.2311 -0.4030  0.2853
    3TMC1    H3   50   0.196   0.441  11.728  0.4937 -0.9596 -0.5675
    3TMC1    O5   51   0.241   0.695  11.437  1.2836  0.6193  0.7721
    3TMC1    H5   52   0.265   0.653  11.521  1.1634 -0.8526  0.0637
    4MPD2     C   53   3.983   0.798  11.377  0.5863 -0.0186 -0.4642
    4MPD2    C1   54   4.089   0.849  11.299  0.1706 -0.6523 -0.4206
    4MPD2    C2   55   4.216   0.803  11.328 -0.5430  0.5914 -0.6056
    4MPD2    C3   56   4.239   0.712  11.433  0.0719 -0.0005  0.0392
    4MPD2    C4   57   4.135   0.673  11.511 -0.9428 -0.2221  0.0091
    4MPD2    C5   58   4.005   0.713  11.477  0.5422  0.9222  0.0599
    4MPD2     H   59   4.302   0.839  11.272 -1.3867  1.9801 -1.0344
    4MPD2    H1   60   4.140   0.609  11.598 -0.0273 -0.7333 -0.4303
    4MPD2    H2   61   3.881   0.824  11.353  0.2877 -0.6050  0.1786
    4MPD2    H3   62   3.922   0.667  11.529 -0.5445  2.0390 -0.6926
    4MPD2     N   63   4.371   0.662  11.448 -0.4931  0.5561 -0.2354
    4MPD2    H5   64   4.435   0.705  11.382  0.6353  0.1589  0.5858
    4MPD2    N1   65   4.069   0.929  11.188  0.0639 -0.0653  0.2081
    4MPD2    H7   66   4.139   0.940  11.116  0.3588  0.0796  0.5111
    5TCq1    O1   67   0.698   1.830  12.425 -0.2572  0.0642 -0.3509
    5TCq1    C1   68   0.662   1.724  12.349 -0.2095 -0.1204 -0.1070
    5TCq1    O2   69   0.738   1.687  12.259  0.0401 -0.1940  0.0713
    5TCq1    C2   70   0.517   1.741  12.335  0.6224  0.4632  0.0908
    5TCq1    C3   71   0.448   1.783  12.446 -0.2765  0.3645  0.7583
    5TCq1    C4   72   0.330   1.847  12.432  0.6638  0.3184  0.1311
    5TCq1    C5   73   0.278   1.857  12.304  0.2408 -0.1354  0.4335
    5TCq1    C6   74   0.356   1.813  12.195 -0.4319 -0.2901  0.2318
    5TCq1    C7   75   0.475   1.752  12.210 -0.1746 -0.1418  0.6050
    5TCq1    C8   76   0.317   1.848  12.059 -0.2977 -0.3390 -0.0640
    5TCq1    O4   77   0.368   1.774  11.975 -0.2137 -0.4074 -0.2919
    5TCq1    C9   78   0.257   1.908  12.538 -0.8115 -0.4233  0.4184
    5TCq1    O5   79   0.309   1.906  12.654  0.1389 -0.2723  0.6623
    5TCq1    O6   80   0.185   2.009  12.501 -0.0863 -0.2046 -0.0936
    5TCq1    H1   81   0.631   1.869  12.485  0.8465 -1.8796  2.1601
    5TCq1    H2   82   0.499   1.772  12.541  1.7215  1.9309 -0.1464
    5TCq1    H3   83   0.182   1.904  12.288  0.1242 -1.3406 -2.4564
    5TCq1    H4   84   0.522   1.714  12.120  0.6671 -0.6074  1.2448
    6MPD2     C   85   0.074   2.091  11.937  0.0954 -0.5176  0.5148
    6MPD2    C1   86   0.159   1.989  11.928 -0.5950 -0.0274 -0.0150
    6MPD2    C2   87   0.165   1.912  11.811 -0.4081 -0.3388 -0.3457
    6MPD2    C3   88   0.097   1.948  11.699 -0.2969  0.1224  0.6213
    6MPD2    C4   89   0.009   2.053  11.710 -0.2740 -0.5723 -0.2241
    6MPD2    C5   90   0.006   2.134  11.823 -0.7824 -0.2327  0.0854
    6MPD2     H   91   0.224   1.822  11.801 -2.0643 -1.7186  2.3106
    6MPD2    H1   92   4.685   2.085  11.627 -1.8439 -2.8333  0.1126
    6MPD2    H2   93   0.056   2.143  12.031  0.7856  0.2652  0.2171
    6MPD2    H3   94   4.669   2.212  11.822 -1.2486 -0.5984  3.7426
    6MPD2     N   95   0.132   1.893  11.571  0.2523  0.6307 -0.0514
    6MPD2    H5   96   0.184   1.805  11.573  1.7296  1.5151  0.7311
    6MPD2    N1   97   0.226   1.950  12.044 -0.7188  0.3577 -0.1102
    6MPD2    H7   98   0.215   2.008  12.126  1.5058  1.0576 -0.3255
    7TCq1    O1   99   2.024   1.334  12.676  0.1081 -0.2381 -0.0519
    7TCq1    C1  100   2.131   1.292  12.746  0.0109  0.5103  0.2043
    7TCq1    O2  101   2.235   1.244  12.705 -0.4460 -0.2327  0.0331
    7TCq1    C2  102   2.112   1.309  12.892 -0.0308  0.0805  0.9321
    7TCq1    C3  103   2.018   1.398  12.943  0.5392 -0.4985  0.2000
    7TCq1    C4  104   2.022   1.427  13.075 -0.1053 -0.1795  0.1172
    7TCq1    C5  105   2.125   1.372  13.153  0.1045  0.2007  0.2353
    7TCq1    C6  106   2.201   1.272  13.103  0.4735 -0.1183  0.0914
    7TCq1    C7  107   2.193   1.241  12.975 -0.1918  0.5835  0.5643
    7TCq1    C8  108   2.298   1.207  13.189  0.8813 -0.2759  0.7186
    7TCq1    O4  109   2.328   1.097  13.152  0.7187  0.1418 -0.7453
    7TCq1    C9  110   1.927   1.518  13.135 -0.8790  0.5160 -0.6435
    7TCq1    O5  111   1.855   1.583  13.053 -0.4717 -0.8979  0.7404
    7TCq1    O6  112   1.918   1.518  13.264  0.0838 -0.6150  0.4195
    7TCq1    H1  113   1.961   1.372  12.741 -0.0227  0.9723 -0.8875
    7TCq1    H2  114   1.944   1.448  12.880  1.3613  3.1285  2.0674
    7TCq1    H3  115   2.129   1.400  13.258  0.9032 -2.8767  1.0270
    7TCq1    H4  116   2.274   1.183  12.932  2.0218  2.5174  2.0519
    8MPD2     C  117   2.621   1.131  13.592  0.0581 -0.0763  0.1858
    8MPD2    C1  118   2.612   1.066  13.470 -0.6301  0.1124 -0.2387
    8MPD2    C2  119   2.527   1.105  13.373 -0.2761 -0.1470 -0.0217
    8MPD2    C3  120   2.440   1.210  13.403 -0.5522  0.4352  0.5811
    8MPD2    C4  121   2.454   1.280  13.520  0.3860  0.1437  0.4526
    8MPD2    C5  122   2.537   1.242  13.618  0.0467  0.0089  0.1574
    8MPD2     H  123   2.528   1.066  13.272  1.1528 -1.6558  0.5855
    8MPD2    H1  124   2.384   1.362  13.531 -0.0139 -0.0944 -0.2763
    8MPD2    H2  125   2.685   1.094  13.672  0.6114 -0.8509 -0.6232
    8MPD2    H3  126   2.539   1.293  13.714  0.0128  1.7539 -0.7695
    8MPD2     N  127   2.348   1.264  13.305 -0.4412 -0.5730  0.1296
    8MPD2    H5  128   2.304   1.353  13.326  0.6790 -0.4972  2.1388
    8MPD2    N1  129   2.708   0.960  13.456  0.4299 -0.5131 -0.0282
    8MPD2    H7  130   2.780   0.946  13.526  0.5758  0.4847  0.0248
    9TMC1    C1  131   0.251   1.241  11.633 -0.4056  0.1456 -0.4250
    9TMC1    C2  132   0.330   1.179  11.540  0.9586  0.7803 -0.0676
    9TMC1    C3  133   0.417   1.257  11.467 -0.6933 -0.3351 -0.7822
    9TMC1    C4  134   0.243   1.379  11.647 -0.2926 -0.3271 -0.2556
    9TMC1    C5  135   0.338   1.444  11.572  0.3428  0.2483  0.2235
    9TMC1    C6  136   0.411   1.393  11.472 -0.5620 -0.4683 -0.5316
    9TMC1     C  137   0.134   1.169  11.688  0.5038 -0.2436  0.6348
    9TMC1     O  138   0.029   1.230  11.708 -0.0566 -0.0790 -0.4535
    9TMC1     H  139   0.347   1.072  11.550  0.4643  0.8315  1.3603
    9TMC1    H1  140   0.177   1.417  11.724 -0.8696  2.1583 -2.0124
    9TMC1    H2  141   0.484   1.457  11.423  0.0412 -2.3847 -2.1573
    9TMC1    C7  142   0.325   1.590  11.557 -0.3284  1.2023  0.7078
    9TMC1    C8  143   0.541   1.190  11.430 -0.3211 -0.0539  0.1089
    9TMC1    O1  144   0.331   1.653  11.456  0.0815 -0.1073  0.1845
    9TMC1    O2  145   0.600   1.122  11.508  0.1292  0.8061 -0.0811
    9TMC1    O3  146   0.253   1.629  11.664 -0.0090  0.4367  1.2028
    9TMC1    H3  147   0.271   1.567  11.737 -0.8840 -0.0991  0.9665
    9TMC1    O5  148   0.611   1.271  11.342  0.3434  0.0812  0.3955
    9TMC1    H5  149   0.561   1.321  11.274  0.6228 -0.2945 -0.0873
   10MPD2     C  150   4.677   0.962  11.734  0.3315 -0.1498 -0.1140
   10MPD2    C1  151   0.071   0.946  11.767  1.4008 -0.3024  0.3602
   10MPD2    C2  152   0.111   0.832  11.834  0.2073  0.5471 -0.7618
   10MPD2    C3  153   0.021   0.740  11.879 -0.2750  0.7135  0.9828
   10MPD2    C4  154   4.623   0.755  11.853  0.0287  0.3509  0.2109
   10MPD2    C5  155   4.590   0.868  11.783 -0.2597 -1.0966  0.3371
   10MPD2     H  156   0.215   0.834  11.863 -0.3054 -1.1831  1.1572
   10MPD2    H1  157   4.544   0.690  11.888 -0.3628  1.4736  1.4417
   10MPD2    H2  158   4.635   1.044  11.677 -1.2164  0.5535  2.0384
   10MPD2    H3  159   4.490   0.885  11.742  0.5239  2.3642 -0.1677
   10MPD2     N  160   0.054   0.628  11.961  0.4520  0.1041 -0.5011
   10MPD2    H5  161   4.722   0.557  11.982 -1.6676  1.3086 -3.4736
   10MPD2    N1  162   0.166   1.038  11.725  0.2563 -0.0346  0.2447
   10MPD2    H7  163   0.256   1.003  11.696  0.5087 -0.0945  1.1040
   11TCq1    O1  164   0.884   0.350  14.046 -0.1458  0.1129 -0.2282
   11TCq1    C1  165   0.752   0.352  14.065  0.7148  0.4951  0.6111
   11TCq1    O2  166   0.689   0.437  14.128 -0.3624 -0.1659  0.3049
   11TCq1    C2  167   0.710   0.207  14.047 -0.1122 -1.1963  0.1687
   11TCq1    C3  168   0.775   0.130  13.955 -0.2112  0.2281  0.1240
   11TCq1    C4  169   0.729   4.737  13.958 -0.0639 -0.5950 -0.2288
   11TCq1    C5  170   0.643   4.687  14.047  0.2615  0.0921  0.2410
   11TCq1    C6  171   0.582   0.038  14.134  0.1046 -1.0942  0.1174
   11TCq1    C7  172   0.610   0.171  14.131  0.6307  0.4356  0.2023
   11TCq1    C8  173   0.472   4.731  14.215  0.4350  0.2830  0.3286
   11TCq1    O4  174   0.389   0.077  14.252 -0.6984 -0.4419 -0.0638
   11TCq1    C9  175   0.790   4.644  13.867 -0.0760  0.1401  0.1208
   11TCq1    O5  176   0.712   4.549  13.835  0.0409  0.4969 -0.3227
   11TCq1    O6  177   0.902   4.673  13.822  0.0913  0.1432  0.0921
   11TCq1    H1  178   0.923   0.260  14.043  2.4816  1.2871 -1.6198
   11TCq1    H2  179   0.852   0.164  13.887  2.3460 -2.5282  1.5815
   11TCq1    H3  180   0.607   4.585  14.037 -1.0034  0.5792 -0.1716
   11TCq1    H4  181   0.555   0.247  14.185  3.2491  2.2079  0.3881
   12MPD2     C  182   0.214   4.579  14.267 -0.3294 -0.0730  0.1019
   12MPD2    C1  183   0.340   4.521  14.258  0.8084  1.1241  0.2788
   12MPD2    C2  184   0.346   4.381  14.261 -1.1209 -0.1688  0.1523
   12MPD2    C3  185   0.230   4.306  14.267 -0.2939 -0.2915  0.3730
   12MPD2    C4  186   0.104   4.366  14.268 -0.2848  0.0595 -0.1828
   12MPD2    C5  187   0.099   4.503  14.269  0.1171 -0.4987 -0.1812
   12MPD2     H  188   0.445   4.335  14.260 -1.6545 -1.2630 -1.9737
   12MPD2    H1  189   0.016   4.303  14.274  0.0457 -0.4413 -0.5501
   12MPD2    H2  190   0.200   4.687  14.271  0.8453 -0.0099  2.8007
   12MPD2    H3  191   0.002   4.551  14.283 -0.1919 -0.9821 -0.6429
   12MPD2     N  192   0.232   4.162  14.250  0.2523 -0.7922  0.2555
   12MPD2    H5  193   0.145   4.129  14.209  0.1260 -0.9720  0.6651
   12MPD2    N1  194   0.459   4.593  14.231 -0.4727  0.6909 -0.1532
   12MPD2    H7  195   0.546   4.544  14.212  0.9129  3.1054 -0.0148
   13TCq1    O1  196   0.708   0.374  10.517 -0.6702 -0.4287 -0.0055
   13TCq1    C1  197   0.637   0.385  10.405  0.0785 -0.5333 -0.0111
   13TCq1    O2  198   0.678   0.395  10.289  0.0965  0.6313  0.5743
   13TCq1    C2  199   0.499   0.352  10.438  0.2954 -1.2209  0.4200
   13TCq1    C3  200   0.411   0.406  10.341  0.9702  0.0797 -0.0071
   13TCq1    C4  201   0.283   0.362  10.347 -0.0723 -0.4362 -0.5382
   13TCq1    C5  202   0.249   0.248  10.416 -0.5969  0.5109  0.0466
   13TCq1    C6  203   0.343   0.177  10.485  0.3614 -0.0200 -0.3843
   13TCq1    C7  204   0.468   0.232  10.501  0.1046  0.3996  0.5024
   13TCq1    C8  205   0.307   0.064  10.569  1.0382 -0.2251 -0.0555
   13TCq1    O4  206   0.190   0.056  10.600  0.4239 -0.7868  0.2193
   13TCq1    C9  207   0.186   0.418  10.251  0.5816 -0.6072  0.1526
   13TCq1    O5  208   0.210   0.537  10.209 -0.0792 -0.3754 -0.4155
   13TCq1    O6  209   0.096   0.344  10.200 -0.0303 -0.0724 -0.1708
   13TCq1    H1  210   0.655   0.355  10.597 -0.2982  2.2240  0.8860
   13TCq1    H2  211   0.454   0.468  10.264  2.1432 -0.6844  0.0334
   13TCq1    H3  212   0.150   0.204  10.409 -0.0025 -0.9240  0.8316
   13TCq1    H4  213   0.536   0.185  10.570  0.6403  1.1197  0.4716
   14MPD2     C  214   0.540   4.559  10.740  0.0598  0.1415 -0.1119
   14MPD2    C1  215   0.425   4.635  10.719 -0.4252  0.6326 -0.1582
   14MPD2    C2  216   0.325   4.630  10.816  0.1365  0.0189 -0.2505
   14MPD2    C3  217   0.322   4.538  10.916 -0.3525 -0.4416 -0.0821
   14MPD2    C4  218   0.418   4.441  10.922  0.6186  0.2542  0.2315
   14MPD2    C5  219   0.524   4.459  10.836 -0.3186 -0.2780 -0.5011
   14MPD2     H  220   0.245   4.703  10.816 -0.7301 -0.9379  0.9901
   14MPD2    H1  221   0.421   4.360  10.994  0.3777  1.8934  2.0830
   14MPD2    H2  222   0.627   4.568  10.676  1.8054 -1.0537  2.0898
   14MPD2    H3  223   0.603   4.388  10.854  0.6613  0.9894  0.2605
   14MPD2     N  224   0.215   4.547  11.005 -0.3502 -0.0640 -0.4450
   14MPD2    H5  225   0.157   4.630  11.002 -1.5770 -1.0156 -2.5571
   14MPD2    N1  226   0.416   4.726  10.609 -0.0172  0.8697  0.1405
   14MPD2    H7  227   0.501   4.727  10.555 -0.7007 -1.0845 -0.9636
   15TCq1    O1  228   1.090   4.190   0.668  0.2348 -0.4998  0.3956
   15TCq1    C1  229   1.174   4.137   0.576  0.6587 -0.3343  0.5576
   15TCq1    O2  230   1.151   4.147   0.456 -0.7107 -0.3364  0.6807
   15TCq1    C2  231   1.292   4.090   0.639 -0.0427  0.3326  0.3273
   15TCq1    C3  232   1.341   4.168   0.741 -0.2408 -0.2030  0.6953
   15TCq1    C4  233   1.425   4.110   0.834  0.5739  0.3642  0.4197
   15TCq1    C5  234   1.456   3.975   0.834  0.4031 -0.4172 -0.0608
   15TCq1    C6  235   1.405   3.900   0.724 -0.3438 -0.5065  0.6108
   15TCq1    C7  236   1.328   3.958   0.628 -0.0309  0.5173 -0.4297
   15TCq1    C8  237   1.433   3.759   0.699  1.0279  0.3791  0.0250
   15TCq1    O4  238   1.380   3.703   0.601  0.7121  0.4148 -0.5149
   15TCq1    C9  239   1.478   4.198   0.930 -1.1948 -0.3943  0.1294
   15TCq1    O5  240   1.500   4.321   0.893 -0.8363  0.0992 -0.3105
   15TCq1    O6  241   1.503   4.145   1.044 -0.3906  0.4521 -0.5227
   15TCq1    H1  242   1.116   4.162   0.758  0.1192  0.4107  0.7160
   15TCq1    H2  243   1.328   4.276   0.742 -1.0989 -0.3041  0.4509
   15TCq1    H3  244   1.526   3.927   0.901  0.0217  0.0315  0.6526
   15TCq1    H4  245   1.277   3.896   0.555 -1.1942 -0.5919  1.3223
   16MPD2     C  246   1.482   3.466   0.728  0.4070 -0.4503  0.4319
   16MPD2    C1  247   1.567   3.566   0.778  0.5977 -0.0594 -0.5594
   16MPD2    C2  248   1.690   3.531   0.814  0.6810  0.0379 -0.3775
   16MPD2    C3  249   1.739   3.407   0.800 -0.6207 -0.1701 -0.1084
   16MPD2    C4  250   1.655   3.303   0.762 -0.7147  0.3518 -0.3565
   16MPD2    C5  251   1.528   3.337   0.719 -0.6633 -0.3436  0.0075
   16MPD2     H  252   1.759   3.609   0.844  1.5948 -0.2855 -1.6540
   16MPD2    H1  253   1.682   3.199   0.762  0.0596  0.5301  3.7671
   16MPD2    H2  254   1.376   3.485   0.713  0.5178  0.4712  0.8038
   16MPD2    H3  255   1.461   3.257   0.689 -1.3022 -0.5978  2.0879
   16MPD2     N  256   1.872   3.388   0.843 -0.0808  0.5194 -0.3334
   16MPD2    H5  257   1.918   3.461   0.895 -1.4251  0.1056  1.4432
   16MPD2    N1  258   1.538   3.705   0.776  0.4950 -0.4009  0.5842
   16MPD2    H7  259   1.600   3.765   0.829  0.6409  0.3660 -0.4605
   17TMC1    C1  260   4.272   4.288  11.204  0.8370 -0.1715 -0.0180
   17TMC1    C2  261   4.352   4.183  11.232  0.1569 -0.2797  0.5581
   17TMC1    C3  262   4.290   4.083  11.299  0.5742 -0.0558  0.2048
   17TMC1    C4  263   4.140   4.291  11.225 -0.1480  0.3323  0.3629
   17TMC1    C5  264   4.079   4.197  11.301 -0.4017 -0.2674 -0.0958
   17TMC1    C6  265   4.154   4.081  11.327  0.3415  0.3792  0.0838
   17TMC1     C  266   4.326   4.400  11.128  0.9283  0.1782  0.4286
   17TMC1     O  267   4.271   4.511  11.132 -0.0231  0.5371  0.2753
   17TMC1     H  268   4.457   4.190  11.205 -0.9130  0.1580 -3.4937
   17TMC1    H1  269   4.091   4.383  11.194 -0.1504  0.3588  0.4457
   17TMC1    H2  270   4.125   3.987  11.372 -0.6963  0.6067 -0.0931
   17TMC1    C7  271   3.942   4.184  11.273 -0.1723 -0.5675 -0.4419
   17TMC1    C8  272   4.364   3.967  11.330 -0.4136  0.2755 -0.0231
   17TMC1    O1  273   3.898   4.212  11.162  0.0368 -0.1125  0.0957
   17TMC1    O2  274   4.307   3.855  11.336  0.2015 -1.0491  0.0780
   17TMC1    O3  275   3.892   4.093  11.363  0.3260  0.1560 -0.3075
   17TMC1    H3  276   3.949   4.100  11.442 -0.7913  1.5561  0.3543
   17TMC1    O5  277   4.478   4.004  11.391  0.0469  0.4459  0.3610
   17TMC1    H5  278   4.505   4.099  11.386 -0.3316  0.5522  0.3724
   18MPD2     C  279   4.498   4.579  10.979  0.5981  0.2134 -0.3565
   18MPD2    C1  280   4.507   4.439  10.973  0.0171 -0.2575  0.3944
   18MPD2    C2  281   4.598   4.383  10.893  0.3262 -0.4296  0.6558
   18MPD2    C3  282   4.682   4.459  10.817  0.0795 -0.4422  1.1818
   18MPD2    C4  283   4.672   4.593  10.821  0.5072 -0.2442  0.5189
   18MPD2    C5  284   4.579   4.655  10.899 -0.7619  0.7675 -0.2553
   18MPD2     H  285   4.601   4.275  10.885  1.2290 -0.2489 -1.3974
   18MPD2    H1  286   0.002   4.653  10.761 -0.3583 -0.6273 -0.8453
   18MPD2    H2  287   4.432   4.636  11.043 -0.4718 -0.5670 -0.7703
   18MPD2    H3  288   4.574   0.024  10.891 -0.7874  0.9099  1.7453
   18MPD2     N  289   0.043   4.411  10.728 -0.1116 -0.7557 -0.4550
   18MPD2    H5  290   0.096   4.479  10.675 -0.4593 -0.4899 -0.4577
   18MPD2    N1  291   4.432   4.357  11.051  0.0548  0.3457 -0.1690
   18MPD2    H7  292   4.444   4.257  11.035  2.5303  0.4697  0.9972
   19TMC2    C1  293   1.395   0.038  13.657 -1.3897  0.8189  0.6847
   19TMC2    C2  294   1.285   0.105  13.609  0.9698  0.5126  0.3877
   19TMC2    C3  295   1.166   0.045  13.606 -0.4167  0.0581 -0.1408
   19TMC2    C4  296   1.387   4.645  13.696  0.0845 -0.2184 -0.6201
   19TMC2    C5  297   1.264   4.589  13.689 -0.3034  0.2091  0.0281
   19TMC2    C6  298   1.146   4.653  13.646 -0.5181 -0.0887  0.0878
   19TMC2     C  299   1.517   0.114  13.671  1.2295 -0.2386  0.0109
   19TMC2     O  300   1.536   0.212  13.601 -0.7458 -0.7622  0.4822
   19TMC2     H  301   1.298   0.204  13.566  0.8128 -0.1559 -1.2251
   19TMC2    H1  302   1.468   4.578  13.723  2.2036  2.5370 -0.2465
   19TMC2    H2  303   1.052   4.604  13.624  0.2564 -2.2311  1.5967
   19TMC2    C7  304   1.242   4.450  13.713 -0.0830  0.3333  0.4586
   19TMC2    C8  305   1.058   0.126  13.560  0.0069  0.2688 -0.0306
   19TMC2    O1  306   1.338   4.375  13.720  0.4684  0.1612  0.1900
   19TMC2    O2  307   1.079   0.223  13.489  0.1271 -0.6395 -0.6308
   19TMC2    O5  308   0.974   0.142  13.670  0.3062  0.0623 -0.0001
   19TMC2    H5  309   0.946   0.065  13.724 -1.6545  0.3036 -0.6895
   20MPD2     C  310   1.784   0.214  13.754  0.2530  0.0420  0.5533
   20MPD2    C1  311   1.701   0.135  13.831  0.5824 -0.5769  0.5154
   20MPD2    C2  312   1.742   0.113  13.963 -0.3797 -0.1012 -0.4422
   20MPD2    C3  313   1.859   0.172  14.012  0.3442  0.2479  0.6549
   20MPD2    C4  314   1.918   0.266  13.934  0.6163  0.1777 -0.4745
   20MPD2    C5  315   1.891   0.283  13.803 -0.1113  0.7429 -0.0770
   20MPD2     H  316   1.672   0.058  14.026  0.0556  0.0820  0.2077
   20MPD2    H1  317   1.997   0.329  13.975  0.9310 -0.6462  0.1747
   20MPD2    H2  318   1.756   0.232  13.651  1.9975  1.3399  0.3255
   20MPD2    H3  319   1.941   0.355  13.740 -0.5633  0.2336 -1.0028
   20MPD2     N  320   1.911   0.159  14.145 -0.3156 -0.5297 -0.8661
   20MPD2    H5  321   1.998   0.205  14.169 -0.5851 -0.8113  0.6311
   20MPD2    N1  322   1.584   0.071  13.779 -0.2285  0.1702  0.0585
   20MPD2    H7  323   1.529   0.017  13.845 -1.3968  0.5144 -0.6271
   21TMC2    C1  324   4.098   0.244  14.671 -0.2475 -0.4104 -0.0508
   21TMC2    C2  325   4.062   0.131  14.742  0.6386  0.7619  0.1983
   21TMC2    C3  326   3.930   0.118  14.764  0.7264 -0.3665 -0.4003
   21TMC2    C4  327   4.013   0.333  14.620  0.0001 -0.0403  0.2590
   21TMC2    C5  328   3.884   0.323  14.655  0.3796 -0.2390  0.0927
   21TMC2    C6  329   3.842   0.210  14.713 -0.3687  0.6445  0.6997
   21TMC2     C  330   4.236   0.276  14.655  0.3067 -0.2859  0.4562
   21TMC2     O  331   4.278   0.320  14.549  0.1145  0.0687 -0.0423
   21TMC2     H  332   4.138   0.066  14.783  1.0190  0.5223 -0.8859
   21TMC2    H1  333   4.051   0.420  14.568 -0.0832  0.1467  0.5086
   21TMC2    H2  334   3.752   0.227  14.771  0.0583 -0.3539  1.6536
   21TMC2    C7  335   3.813   0.443  14.660 -0.9350  0.4552 -0.1153
   21TMC2    C8  336   3.890   0.019  14.864 -0.2787  0.6746  0.3282
   21TMC2    O1  337   3.717   0.444  14.736  0.5483  0.1694 -0.4857
   21TMC2    O2  338   3.975   4.730  14.950 -0.1734 -0.2265 -0.0219
   21TMC2    O5  339   3.813   4.670  14.797  0.6053  0.4815  0.3107
   21TMC2    H5  340   3.737   4.711  14.751  1.1419  1.0131 -0.1158
   22MPD2     C  341   4.674   0.415  14.892  0.9968 -0.2013 -0.1052
   22MPD2    C1  342   4.595   0.357  14.988 -0.2582 -0.0102  0.1857
   22MPD2    C2  343   4.472   0.306  14.944 -0.6498  0.6568 -0.2492
   22MPD2    C3  344   4.431   0.316  14.809 -0.4511  0.5902 -0.0364
   22MPD2    C4  345   4.512   0.383  14.725 -0.5977  0.5820 -0.2965
   22MPD2    C5  346   4.633   0.427  14.762 -0.4762 -0.1865 -0.1330
   22MPD2     H  347   4.413   0.257  15.021  1.0743 -1.1654 -0.0930
   22MPD2    H1  348   4.485   0.392  14.620 -2.1202 -0.8473 -0.0254
   22MPD2    H2  349   0.032   0.459  14.916  1.2392 -0.4384 -0.6467
   22MPD2    H3  350   4.694   0.489  14.698  0.0135 -0.8637 -0.3291
   22MPD2     N  351   4.299   0.273  14.776 -0.3430 -0.2982 -0.1024
   22MPD2    H5  352   4.247   0.245  14.858 -0.0949 -1.5050 -0.3501
   22MPD2    N1  353   4.635   0.332  15.120  0.0930  0.6359 -0.2536
   22MPD2    H7  354   4.573   0.290  15.188  0.8579  1.4014  0.9186
   23TMC2    C1  355   0.523   1.121  14.639 -0.4714  0.3090 -0.5294
   23TMC2    C2  356   0.564   1.160  14.512  0.1781  0.0548 -0.0460
   23TMC2    C3  357   0.478   1.137  14.407  0.0425  0.4601  1.0342
   23TMC2    C4  358   0.396   1.073  14.657  0.2170 -0.2749 -0.5415
   23TMC2    C5  359   0.309   1.077  14.550  0.2675  0.0018 -0.5268
   23TMC2    C6  360   0.346   1.101  14.422 -0.1418 -0.5674  0.1892
   23TMC2     C  361   0.578   1.194  14.750  0.8154  0.0884 -0.1440
   23TMC2     O  362   0.578   1.144  14.862 -0.1143  0.2381 -0.4905
   23TMC2     H  363   0.659   1.206  14.490  0.5813 -0.2754  0.9839
   23TMC2    H1  364   0.364   1.046  14.757 -2.1797  1.6225 -0.8168
   23TMC2    H2  365   0.283   1.110  14.335 -0.9962 -1.4992  0.7213
   23TMC2    C7  366   0.169   1.034  14.590  0.6000  0.2074 -0.2531
   23TMC2    C8  367   0.500   1.189  14.281 -0.0468  0.3395 -0.6441
   23TMC2    O1  368   0.153   1.012  14.709  0.0622  0.5120 -0.0927
   23TMC2    O2  369   0.511   1.310  14.261 -0.5436  0.1802  0.2707
   23TMC2    O5  370   0.463   1.090  14.198 -0.6344  0.2362  0.0614
   23TMC2    H5  371   0.486   1.003  14.237 -0.8279  0.0644 -0.2035
   24MPD2     C  372   0.697   1.625  14.996  0.5281 -0.3662 -0.1747
   24MPD2    C1  373   0.742   1.495  15.021  0.7534  0.0368 -0.4094
   24MPD2    C2  374   0.709   1.393  14.933 -0.1420 -0.3093 -0.1500
   24MPD2    C3  375   0.635   1.423  14.822  0.3600 -0.1162 -0.1713
   24MPD2    C4  376   0.602   1.554  14.799 -0.4592  0.5281 -0.5876
   24MPD2    C5  377   0.631   1.656  14.888 -0.2469  0.3615  0.3768
   24MPD2     H  378   0.735   1.289  14.949  1.8214  0.1329 -0.4754
   24MPD2    H1  379   0.556   1.587  14.707  0.1221  0.3892 -0.9298
   24MPD2    H2  380   0.710   1.706  15.067  3.1386 -1.0106  0.1039
   24MPD2    H3  381   0.607   1.756  14.854  1.0907  0.3998 -0.4506
   24MPD2     N  382   0.592   1.329  14.726  0.9620 -0.2530  0.7676
   24MPD2    H5  383   0.556   1.365  14.638  0.9831 -0.4523  0.6774
   24MPD2    N1  384   0.804   1.445  15.135 -0.0146 -0.3796  0.3891
   24MPD2    H7  385   0.815   1.345  15.135  1.3902 -0.2194 -2.0062
   25TMC2    C1  386   0.056   3.813  11.490 -0.3218 -0.2121 -1.4738
   25TMC2    C2  387   0.151   3.908  11.469 -0.6670 -0.0274  0.5672
   25TMC2    C3  388   0.135   4.027  11.523 -0.5422  0.5282 -0.0318
   25TMC2    C4  389   4.690   3.834  11.578 -0.6912 -0.5806  0.1180
   25TMC2    C5  390   4.688   3.960  11.633 -0.0519  0.3361  0.9297
   25TMC2    C6  391   0.038   4.059  11.605 -0.1099 -0.6773 -0.0837
   25TMC2     C  392   0.071   3.688  11.429 -0.8382  0.5209 -0.2248
   25TMC2     O  393   0.182   3.670  11.376  0.1183  0.4828  0.2036
   25TMC2     H  394   0.235   3.892  11.402  0.4261 -3.4293  2.7487
   25TMC2    H1  395   4.610   3.770  11.613  0.0661 -0.0993  2.7027
   25TMC2    H2  396   0.036   4.164  11.632  2.4764 -0.6966  0.1739
   25TMC2    C7  397   4.580   3.990  11.724  0.2527 -0.3471  1.0498
   25TMC2    C8  398   0.214   4.143  11.468  0.2554  0.4555 -0.4605
   25TMC2    O1  399   4.512   3.900  11.760 -0.5286  0.0473 -0.4356
   25TMC2    O2  400   0.246   4.245  11.529 -1.0195  0.0786 -0.3086
   25TMC2    O5  401   0.232   4.112  11.337 -0.1403 -0.4256 -0.4242
   25TMC2    H5  402   0.199   4.027  11.301 -1.5420  0.4153 -1.1208
   26MPD2     C  403   0.017   3.208  11.352 -0.0569 -0.4716  0.4097
   26MPD2    C1  404   4.632   3.263  11.318  0.1034 -0.0118  0.0236
   26MPD2    C2  405   4.601   3.398  11.353  0.1599 -0.6550 -0.1093
   26MPD2    C3  406   4.705   3.474  11.408  0.1887  0.3597  0.0523
   26MPD2    C4  407   0.091   3.414  11.432 -0.1302 -0.6246  0.0456
   26MPD2    C5  408   0.114   3.281  11.412  0.1162  0.0292 -0.4966
   26MPD2     H  409   4.510   3.445  11.319 -0.9500 -2.4708  0.3145
   26MPD2    H1  410   0.172   3.466  11.482  0.0503  0.1947 -1.1211
   26MPD2    H2  411   0.031   3.100  11.345  0.9882 -0.3230  0.1123
   26MPD2    H3  412   0.201   3.227  11.449 -0.5656 -1.0108 -0.4372
   26MPD2     N  413   4.700   3.608  11.443  0.4038 -0.1107 -0.2993
   26MPD2    H5  414   4.604   3.641  11.453  0.5965  0.5067 -0.4560
   26MPD2    N1  415   4.543   3.180  11.247 -0.5063  0.1795 -0.8418
   26MPD2    H7  416   4.447   3.211  11.233 -1.3831 -2.3739 -0.3599
   27TMC2    C1  417   3.427   0.934  11.601 -0.2234  0.5057  0.0552
   27TMC2    C2  418   3.390   1.055  11.550 -0.1854 -0.1837 -0.0280
   27TMC2    C3  419   3.478   1.097  11.458 -0.8262  0.9127 -0.0424
   27TMC2    C4  420   3.533   0.858  11.571  0.0222 -0.0366  0.1371
   27TMC2    C5  421   3.631   0.911  11.490 -0.0970  0.5317  0.2738
   27TMC2    C6  422   3.596   1.031  11.424 -0.2917  0.1825 -0.5603
   27TMC2     C  423   3.330   0.892  11.700 -0.1099 -0.2843  0.0315
   27TMC2     O  424   3.264   0.979  11.752 -0.0582 -0.2576  0.2742
   27TMC2     H  425   3.300   1.111  11.572  0.5616  0.2941  1.8204
   27TMC2    H1  426   3.551   0.767  11.626  0.0540 -0.4168 -0.4957
   27TMC2    H2  427   3.640   1.071  11.333 -0.8463 -1.5790 -1.5977
   27TMC2    C7  428   3.744   0.941  11.572 -0.1251 -0.0879  0.5100
   27TMC2    C8  429   3.396   1.167  11.360 -0.1047 -0.2890 -0.0051
   27TMC2    O1  430   3.748   0.894  11.686 -0.3002 -0.1009  0.3082
   27TMC2    O2  431   3.276   1.150  11.344 -0.3132 -0.0649  0.4568
   27TMC2    O5  432   3.482   1.233  11.272 -0.1563  0.6136  0.0858
   27TMC2    H5  433   3.560   1.266  11.321  0.0776 -2.3155  1.7020
   28MPD2     C  434   2.998   0.547  11.875  0.2120  0.2980  0.0482
   28MPD2    C1  435   2.997   0.681  11.883  0.1794  0.0418 -0.1840
   28MPD2    C2  436   3.101   0.758  11.846  0.8782  0.1393  0.1963
   28MPD2    C3  437   3.206   0.694  11.778 -0.5796 -0.2062 -0.4050
   28MPD2    C4  438   3.207   0.555  11.773  0.1020 -0.5410  0.5017
   28MPD2    C5  439   3.103   0.481  11.824 -0.0333 -0.0121  0.0772
   28MPD2     H  440   3.092   0.866  11.839 -2.7219 -0.1424  0.4603
   28MPD2    H1  441   3.283   0.498  11.721  0.6888 -0.2847  1.0869
   28MPD2    H2  442   2.917   0.486  11.915 -0.4377  0.9947 -0.2058
   28MPD2    H3  443   3.111   0.374  11.817 -0.2125  0.0195 -0.6287
   28MPD2     N  444   3.312   0.756  11.703  0.4308 -0.4354 -0.2360
   28MPD2    H5  445   3.375   0.705  11.642  0.6900 -0.3182 -0.0644
   28MPD2    N1  446   2.879   0.747  11.934 -1.2532  0.5678 -0.5282
   28MPD2    H7  447   2.800   0.684  11.939 -1.1644  0.4813 -0.2368
   29TMC2    C1  448   2.979   3.362  14.231  0.3823 -0.9606 -0.1731
   29TMC2    C2  449   2.915   3.406  14.343  0.4878  0.1089 -0.3193
   29TMC2    C3  450   2.990   3.497  14.418 -0.6899  0.0808  0.3613
   29TMC2    C4  451   3.092   3.408  14.181 -0.4371  0.5085  0.5724
   29TMC2    C5  452   3.143   3.519  14.247  0.6824  0.2413 -0.0801
   29TMC2    C6  453   3.105   3.554  14.374  0.0074  0.3051  0.3012
   29TMC2     C  454   2.921   3.249  14.165 -0.4478  0.2981 -0.2983
   29TMC2     O  455   2.999   3.194  14.091  0.3460  0.4662 -0.1557
   29TMC2     H  456   2.817   3.371  14.375 -0.0573  1.2939 -0.6787
   29TMC2    H1  457   3.133   3.376  14.086  0.4167 -0.4290  1.2582
   29TMC2    H2  458   3.156   3.622  14.441  1.1190 -0.7069  0.4765
   29TMC2    C7  459   3.227   3.608  14.175  0.0576  1.0326 -0.2761
   29TMC2    C8  460   2.941   3.546  14.544  0.4861  0.5851 -0.1762
   29TMC2    O1  461   3.255   3.576  14.060 -0.1965  0.3879  0.3357
   29TMC2    O2  462   2.962   3.657  14.591  0.0187  0.2352 -0.7906
   29TMC2    O5  463   2.856   3.451  14.592 -0.0021 -0.0423  0.2975
   29TMC2    H5  464   2.871   3.364  14.548 -0.2774 -0.6903  1.4847
   30MPD2     C  465   2.510   2.963  14.083  0.2913  0.6739 -0.6883
   30MPD2    C1  466   2.644   2.926  14.077  0.0784  0.0844  0.7670
   30MPD2    C2  467   2.741   3.023  14.090  0.0296  0.8591  0.9298
   30MPD2    C3  468   2.694   3.147  14.127 -0.6953  0.0084  0.6608
   30MPD2    C4  469   2.562   3.180  14.138  0.0018  0.5480 -0.3769
   30MPD2    C5  470   2.470   3.093  14.106  0.4866 -0.3098  0.2730
   30MPD2     H  471   2.847   3.001  14.088 -0.2535 -0.0524 -2.5664
   30MPD2    H1  472   2.537   3.282  14.163 -0.3089  0.3646  0.0701
   30MPD2    H2  473   2.423   2.898  14.079  0.4061  0.3100  3.4815
   30MPD2    H3  474   2.365   3.120  14.108  0.7295  0.7453 -1.5429
   30MPD2     N  475   2.785   3.248  14.172  0.0670 -0.4059 -0.5599
   30MPD2    H5  476   2.749   3.326  14.225 -0.5311 -1.0084 -0.0790
   30MPD2    N1  477   2.682   2.792  14.057 -0.6550  1.3868  0.2256
   30MPD2    H7  478   2.782   2.780  14.062 -1.1670 -2.8534  0.6718
   31TMC2    C1  479   0.183   2.019  15.747  0.2825 -0.0083  0.8383
   31TMC2    C2  480   0.045   2.002  15.761 -0.0934 -0.4111 -0.1556
   31TMC2    C3  481   4.737   1.937  15.868  0.0203  0.4470  0.0898
   31TMC2    C4  482   0.279   1.980  15.843 -0.0146  0.2489  0.5744
   31TMC2    C5  483   0.216   1.926  15.952 -0.2549 -0.7014  0.6300
   31TMC2    C6  484   0.082   1.903  15.973  0.2408 -0.5594  0.3752
   31TMC2     C  485   0.237   2.055  15.617  0.3478 -0.2521 -0.1504
   31TMC2     O  486   0.166   2.108  15.538 -0.1395 -0.5108  0.5903
   31TMC2     H  487   4.716   2.021  15.677 -0.2937  1.1116  0.3529
   31TMC2    H1  488   0.380   2.019  15.848  0.3425 -0.6023 -0.0692
   31TMC2    H2  489   0.038   1.854  16.058 -0.8420 -1.1915 -0.5441
   31TMC2    C7  490   0.289   1.882  16.063  0.2735 -0.0929  0.6056
   31TMC2    C8  491   4.600   1.878  15.867  0.7668  0.5611 -0.3072
   31TMC2    O1  492   0.280   1.769  16.100 -0.7542  0.0696 -0.1349
   31TMC2    O2  493   4.578   1.778  15.938 -0.3252 -0.0656  0.2072
   31TMC2    O5  494   4.510   1.983  15.846  0.6702  0.1209  0.7546
   31TMC2    H5  495   4.544   2.068  15.811  1.5224 -0.4356  0.2364
   32MPD2     C  496   0.627   2.031  15.273 -0.2008 -0.1452 -0.2016
   32MPD2    C1  497   0.520   2.124  15.279  0.5031 -0.1413  0.0344
   32MPD2    C2  498   0.423   2.115  15.383 -0.1118  0.1436 -0.0361
   32MPD2    C3  499   0.436   2.015  15.482 -0.0644  0.4815 -0.0144
   32MPD2    C4  500   0.550   1.937  15.477  0.8005  0.3752  0.5031
   32MPD2    C5  501   0.640   1.939  15.378  0.1307 -0.1568 -0.2876
   32MPD2     H  502   0.338   2.182  15.387 -0.0021  0.2245  0.7910
   32MPD2    H1  503   0.563   1.861  15.554 -2.1800 -0.2582  0.4065
   32MPD2    H2  504   0.691   2.028  15.186 -1.7443 -2.1498 -1.2735
   32MPD2    H3  505   0.732   1.882  15.388 -0.3810 -1.3103 -2.2951
   32MPD2     N  506   0.360   1.998  15.598  0.3424  0.1152 -0.0116
   32MPD2    H5  507   0.397   1.935  15.668  2.0079 -1.1014 -1.9904
   32MPD2    N1  508   0.518   2.219  15.177 -0.4218  0.1051  0.3714
   32MPD2    H7  509   0.596   2.208  15.114 -0.5256  0.0316  0.2548
   33TMC2    C1  510   0.367   0.278  10.000  0.5476 -0.4314 -0.2381
   33TMC2    C2  511   0.243   0.276   9.952 -0.0167 -0.1377  0.0861
   33TMC2    C3  512   0.200   0.397   9.906 -0.2871  0.4441 -0.4305
   33TMC2    C4  513   0.446   0.391  10.003 -0.3309 -0.2126  0.4805
   33TMC2    C5  514   0.396   0.509   9.962 -0.3634  0.6475 -0.1492
   33TMC2    C6  515   0.269   0.512   9.907 -0.0768 -0.2533 -0.3601
   33TMC2     C  516   0.419   0.152  10.062 -0.0938 -0.0050  0.0174
   33TMC2     O  517   0.351   0.051  10.046 -0.5084 -0.7503 -0.3140
   33TMC2     H  518   0.181   0.188   9.943  0.5942 -0.6695  1.1716
   33TMC2    H1  519   0.545   0.400  10.046 -0.3706 -1.1455  0.7595
   33TMC2    H2  520   0.222   0.592   9.850 -1.2097 -2.8191 -3.0048
   33TMC2    C7  521   0.483   0.615   9.921 -0.5002  0.4172  0.7312
   33TMC2    C8  522   0.067   0.402   9.863 -0.1206  0.3716  0.3120
   33TMC2    O1  523   0.596   0.620   9.970  0.4939 -0.1786  0.2670
   33TMC2    O2  524   0.041   0.464   9.763 -0.3745  0.0426 -0.1573
   33TMC2    O5  525   0.005   0.411   9.978 -0.4176 -0.1974 -0.1501
   33TMC2    H5  526   0.054   0.379  10.057  1.0497 -1.5343 -1.6115
   34MPD2     C  527   0.706   4.625  10.390 -0.2543  0.0347 -0.3559
   34MPD2    C1  528   0.578   4.611  10.353 -0.5028  0.5563 -0.6152
   34MPD2    C2  529   0.524   4.693  10.259  0.6867 -0.8677 -0.1602
   34MPD2    C3  530   0.598   0.072  10.219 -0.2828 -0.1737 -0.6772
   34MPD2    C4  531   0.730   0.087  10.260  0.3409  0.6689  0.6339
   34MPD2    C5  532   0.784   4.725  10.340 -0.6467  0.2845  0.5603
   34MPD2     H  533   0.425   4.672  10.219 -0.7591  2.0667  1.9211
   34MPD2    H1  534   0.798   0.165  10.232  0.7660  0.3613  0.8098
   34MPD2    H2  535   0.741   4.550  10.460  0.4786 -1.0955 -1.9420
   34MPD2    H3  536   0.883   4.724  10.383 -0.0370 -0.6333 -0.8756
   34MPD2     N  537   0.536   0.168  10.131 -0.6309  0.7926 -0.4874
   34MPD2    H5  538   0.587   0.255  10.118  1.5786 -0.5177 -0.5542
   34MPD2    N1  539   0.507   4.505  10.407  0.1978 -0.0996 -0.2613
   34MPD2    H7  540   0.556   4.442  10.469  0.7928  1.8948  1.3216
   35TMC2    C1  541   1.771   0.699  10.917 -0.3326  0.0304  0.0394
   35TMC2    C2  542   1.697   0.689  10.801  0.4438  0.0144 -0.2416
   35TMC2    C3  543   1.561   0.686  10.808 -0.2082  0.2299 -0.5543
   35TMC2    C4  544   1.705   0.687  11.035  0.3263 -0.2823  0.0040
   35TMC2    C5  545   1.568   0.669  11.037  0.1472 -0.1435 -0.1436
   35TMC2    C6  546   1.497   0.655  10.924 -0.6467  0.4882 -0.7692
   35TMC2     C  547   1.895   0.775  10.909  0.0842  0.3102  0.2740
   35TMC2     O  548   1.926   0.828  10.801  0.2885 -0.6188 -0.3149
   35TMC2     H  549   1.755   0.713  10.713  1.3845 -0.2289  0.3114
   35TMC2    H1  550   1.758   0.709  11.127  1.1540  0.6583 -0.6968
   35TMC2    H2  551   1.392   0.628  10.934 -0.8843  2.0418  0.9940
   35TMC2    C7  552   1.518   0.602  11.154  0.0298  0.2905 -0.0061
   35TMC2    C8  553   1.488   0.646  10.686 -0.3304 -0.6759  0.0165
   35TMC2    O1  554   1.593   0.542  11.230 -0.4179 -0.0077  0.7158
   35TMC2    O2  555   1.370   0.683  10.669 -0.3509 -0.2387  1.1579
   35TMC2    O5  556   1.553   0.536  10.635 -0.2048  0.6637 -0.0307
   35TMC2    H5  557   1.637   0.519  10.682 -0.3266  0.6331  0.1750
   36MPD2     C  558   2.304   0.977  11.157 -0.4268 -0.4126 -0.6877
   36MPD2    C1  559   2.246   0.879  11.238 -0.2916  0.1273  0.2729
   36MPD2    C2  560   2.148   0.800  11.186  0.2781  0.2315 -0.6306
   36MPD2    C3  561   2.088   0.823  11.056  0.1303 -0.1786 -0.7603
   36MPD2    C4  562   2.146   0.918  10.978  0.2998  0.2484 -0.2631
   36MPD2    C5  563   2.260   0.990  11.026  0.3332 -0.1630 -0.2413
   36MPD2     H  564   2.106   0.725  11.251 -0.8272  2.8308  1.6458
   36MPD2    H1  565   2.109   0.950  10.881  0.4458  2.5665  0.4333
   36MPD2    H2  566   2.378   1.048  11.193 -0.2681 -1.6283  1.3425
   36MPD2    H3  567   2.303   1.067  10.963  1.0995 -0.1997  0.2476
   36MPD2     N  568   1.974   0.743  11.019 -0.1933  0.4248 -0.0021
   36MPD2    H5  569   1.946   0.677  11.091  1.6557  0.6233  0.9217
   36MPD2    N1  570   2.290   0.877  11.379  0.2672  0.3341 -0.2360
   36MPD2    H7  571   2.338   0.960  11.410 -1.8044  1.2022  0.6853
   37TMC2    C1  572   4.345   1.078  12.617  0.1651  0.7686 -0.0155
   37TMC2    C2  573   4.269   0.986  12.672  0.1234  0.6179 -0.3081
   37TMC2    C3  574   4.183   0.923  12.599  0.1679 -0.4760 -1.0216
   37TMC2    C4  575   4.337   1.111  12.484 -0.6522 -0.3353  0.6272
   37TMC2    C5  576   4.243   1.041  12.409  0.3276 -0.0102 -0.6378
   37TMC2    C6  577   4.165   0.945  12.465 -0.0648  0.2651  0.2844
   37TMC2     C  578   4.423   1.166  12.698 -0.1934 -0.0746  0.4292
   37TMC2     O  579   4.441   1.285  12.676 -0.2085 -0.0740  0.3511
   37TMC2     H  580   4.270   0.974  12.780  1.4255  1.3107 -0.2395
   37TMC2    H1  581   4.404   1.186  12.445 -1.7696 -0.1995 -1.0206
   37TMC2    H2  582   4.105   0.876  12.407  0.3524  0.6708 -0.6289
   37TMC2    C7  583   4.243   1.055  12.267  0.6167 -0.6795  0.6064
   37TMC2    C8  584   4.143   0.789  12.640 -0.0289 -0.4411 -0.4129
   37TMC2    O1  585   4.298   1.162  12.241  0.5935 -0.1729 -0.0504
   37TMC2    O2  586   4.191   0.715  12.723  0.4088  0.1193 -0.3097
   37TMC2    O5  587   4.011   0.777  12.612  0.5208  0.0450 -0.1286
   37TMC2    H5  588   3.955   0.849  12.575  0.0250  1.0975  2.6931
   38MPD2     C  589   0.012   1.233  13.087  0.2080  0.5929 -0.3006
   38MPD2    C1  590   0.004   1.101  13.056  0.1682 -0.1326  0.5009
   38MPD2    C2  591   4.648   1.055  12.962  0.4753  0.2979  0.0220
   38MPD2    C3  592   4.579   1.142  12.886  0.3260 -0.4924  0.0808
   38MPD2    C4  593   4.588   1.280  12.916  0.3061  0.2646 -0.0342
   38MPD2    C5  594   4.674   1.320  13.017 -0.1744  0.6164 -0.5124
   38MPD2     H  595   4.630   0.950  12.941  1.3845  0.0261  0.6243
   38MPD2    H1  596   4.531   1.360  12.869  1.7620  0.8309 -0.8319
   38MPD2    H2  597   0.078   1.281  13.158  0.0479 -1.4003  1.2198
   38MPD2    H3  598   4.677   1.426  13.042  0.4065 -0.2213  2.9103
   38MPD2     N  599   4.486   1.089  12.791  0.5583 -0.0872  0.6771
   38MPD2    H5  600   4.480   0.988  12.786 -0.7175 -0.0363  1.1077
   38MPD2    N1  601   0.071   1.000  13.130  0.1386 -0.6143 -0.5537
   38MPD2    H7  602   0.052   0.903  13.106  2.6381 -1.8507  2.5771
   39TMC2    C1  603   2.633   3.295   1.532  0.1580  0.1545  0.2800
   39TMC2    C2  604   2.578   3.359   1.639  0.5697 -0.1845  0.6473
   39TMC2    C3  605   2.660   3.417   1.730 -0.0843  0.0028 -0.7027
   39TMC2    C4  606   2.771   3.291   1.518  0.1589  0.4248 -0.3469
   39TMC2    C5  607   2.843   3.358   1.606  0.1410 -0.2212 -0.0433
   39TMC2    C6  608   2.794   3.418   1.716  0.2712 -0.3256  0.0359
   39TMC2     C  609   2.544   3.222   1.441  0.1961  0.4114 -0.1509
   39TMC2     O  610   2.426   3.255   1.436 -0.4946 -0.3109 -0.2152
   39TMC2     H  611   2.470   3.369   1.643  0.5675 -0.2385  0.7517
   39TMC2    H1  612   2.816   3.262   1.423 -0.0239 -0.3202 -0.2068
   39TMC2    H2  613   2.854   3.477   1.785 -0.0871  0.6096 -0.4687
   39TMC2    C7  614   2.977   3.396   1.570 -0.6194 -0.1358  0.4666
   39TMC2    C8  615   2.592   3.519   1.806 -0.4058  0.8921  0.2786
   39TMC2    O1  616   3.035   3.318   1.493  0.0971  0.2716  0.5998
   39TMC2    O2  617   2.506   3.591   1.765 -0.9700 -0.3138  1.0399
   39TMC2    O5  618   2.668   3.529   1.924  0.8600 -0.2803 -0.4300
   39TMC2    H5  619   2.717   3.445   1.939 -0.7308 -1.2447 -0.7008
   40MPD2     C  620   2.636   2.972   1.193 -0.2216  0.0525  0.1352
   40MPD2    C1  621   2.544   3.054   1.259  0.6601  0.1503 -0.2794
   40MPD2    C2  622   2.410   3.056   1.238  0.3039  0.1821 -0.2263
   40MPD2    C3  623   2.355   2.965   1.146 -0.2220 -0.0297 -0.4506
   40MPD2    C4  624   2.439   2.879   1.083 -0.2544  0.6762  0.2826
   40MPD2    C5  625   2.577   2.882   1.103  0.0100  0.1936  0.2747
   40MPD2     H  626   2.343   3.117   1.296 -1.8690 -0.8797 -1.6130
   40MPD2    H1  627   2.400   2.822   1.000 -2.2029  1.3935  0.7101
   40MPD2    H2  628   2.741   2.985   1.213 -0.4254  0.9518  0.6312
   40MPD2    H3  629   2.634   2.807   1.050  2.5538  2.1204  0.2763
   40MPD2     N  630   2.215   2.959   1.113  0.1297 -0.5716  0.8103
   40MPD2    H5  631   2.192   2.879   1.055 -1.6901 -0.5124  1.4243
   40MPD2    N1  632   2.609   3.130   1.362  0.3726  0.1226  0.3415
   40MPD2    H7  633   2.706   3.103   1.373  0.2050 -0.8642 -0.5671
   41TMC2    C1  634   2.160   1.176  14.238 -0.2726 -0.1380  0.1376
   41TMC2    C2  635   2.278   1.201  14.169  0.4809 -0.2650  0.5679
   41TMC2    C3  636   2.290   1.137  14.049 -0.5047 -0.5932 -0.1677
   41TMC2    C4  637   2.058   1.106  14.185  0.3837 -0.5805  0.4997
   41TMC2    C5  638   2.069   1.070  14.054  0.9208  0.3824 -0.3330
   41TMC2    C6  639   2.186   1.081  13.985  0.3123 -0.0668 -0.2359
   41TMC2     C  640   2.165   1.211  14.374  0.2858  0.0794  0.5475
   41TMC2     O  641   2.268   1.186  14.436 -0.6267  0.3029  0.1898
   41TMC2     H  642   2.362   1.250  14.216 -0.5289  2.6380 -0.6534
   41TMC2    H1  643   1.974   1.089  14.252  0.6255 -1.0207  0.6935
   41TMC2    H2  644   2.191   1.030  13.889  0.5796 -0.9445  0.2477
   41TMC2    C7  645   1.956   1.004  13.989  0.4427 -0.2725  0.3927
   41TMC2    C8  646   2.421   1.111  13.997  0.2384 -0.6817 -0.8840
   41TMC2    O1  647   1.921   0.902  14.044 -0.0204 -0.5687 -0.0649
   41TMC2    O2  648   2.422   1.077  13.879 -0.5618 -0.1367 -0.0408
   41TMC2    O5  649   2.480   1.045  14.101 -0.3616 -0.2396 -0.4946
   41TMC2    H5  650   2.419   1.042  14.178 -1.2183 -2.8901 -1.2726
   42MPD2     C  651   2.068   1.259  14.652  0.4319 -0.1779  0.7710
   42MPD2    C1  652   1.990   1.270  14.539 -1.6223 -0.0801 -0.5461
   42MPD2    C2  653   1.857   1.289  14.557 -0.4853 -0.7308  0.1618
   42MPD2    C3  654   1.798   1.289  14.680  0.6339 -0.2010  0.0291
   42MPD2    C4  655   1.870   1.277  14.794 -0.4952 -0.5035 -0.1858
   42MPD2    C5  656   2.005   1.271  14.774  0.3710 -0.1223 -0.4773
   42MPD2     H  657   1.784   1.314  14.481  1.2090  0.2771 -1.1199
   42MPD2    H1  658   1.835   1.299  14.894 -0.8199  0.0324 -0.4184
   42MPD2    H2  659   2.176   1.260  14.646  0.3855  1.5764  0.0449
   42MPD2    H3  660   2.072   1.276  14.859  0.6379 -1.4033 -0.6083
   42MPD2     N  661   1.662   1.318  14.685  0.2146  0.4157 -0.0346
   42MPD2    H5  662   1.613   1.357  14.605  0.2066 -1.0132 -0.7246
   42MPD2    N1  663   2.034   1.246  14.409  0.0981 -0.2583  1.0539
   42MPD2    H7  664   1.966   1.260  14.336 -3.2569 -4.4565  3.3994
   43TMC2    C1  665   2.531   4.664   0.829 -0.0808 -0.3167 -0.2061
   43TMC2    C2  666   2.417   4.605   0.878 -0.6331 -0.0198  0.1990
   43TMC2    C3  667   2.394   4.610   1.013 -0.6074  0.4608  0.5018
   43TMC2    C4  668   2.617   4.725   0.918  0.5133  0.4579  0.6039
   43TMC2    C5  669   2.595   4.716   1.051 -0.3217 -0.2614 -0.3357
   43TMC2    C6  670   2.483   4.669   1.103  0.6389 -0.0185 -0.0818
   43TMC2     C  671   2.612   4.598   0.724 -0.0862  0.0700  0.4657
   43TMC2     O  672   2.731   4.609   0.730  0.1220 -0.0578 -0.4078
   43TMC2     H  673   2.354   4.544   0.814  0.2043 -0.0872 -0.5631
   43TMC2    H1  674   2.709   0.034   0.884  1.1147 -2.4711 -1.8229
   43TMC2    H2  675   2.449   4.692   1.203  0.1961 -1.6078  0.1381
   43TMC2    C7  676   2.718   0.000   1.124 -0.7003 -0.3890  0.5124
   43TMC2    C8  677   2.266   4.580   1.072 -0.3333 -0.1620  0.6188
   43TMC2    O1  678   2.789   0.094   1.088 -0.8136 -0.2371  0.7955
   43TMC2    O2  679   2.265   4.560   1.191  0.2510  0.1581  0.3877
   43TMC2    O5  680   2.195   4.505   0.979 -0.0030 -0.7462  0.0192
   43TMC2    H5  681   2.210   4.521   0.883 -0.3144 -0.5426  0.0062
   44MPD2     C  682   2.653   4.300   0.313  0.0925  1.1016  0.0363
   44MPD2    C1  683   2.751   4.335   0.406 -0.3243  0.2853  0.2899
   44MPD2    C2  684   2.715   4.412   0.517  0.9842  0.2097 -0.1030
   44MPD2    C3  685   2.577   4.442   0.536 -1.0345 -0.0069 -0.2987
   44MPD2    C4  686   2.484   4.409   0.446  0.1141  0.3972  0.4783
   44MPD2    C5  687   2.520   4.339   0.333 -0.2073  0.5596 -0.2595
   44MPD2     H  688   2.791   4.441   0.589 -0.3032  2.1394  0.4576
   44MPD2    H1  689   2.384   4.449   0.452 -1.0680 -2.0740 -2.9159
   44MPD2    H2  690   2.668   4.238   0.226 -1.2559  1.0529 -0.1635
   44MPD2    H3  691   2.442   4.323   0.260 -0.3535 -2.2735  0.5365
   44MPD2     N  692   2.533   4.516   0.643  0.3283  0.4833 -0.3081
   44MPD2    H5  693   2.432   4.515   0.659  0.2019 -2.2692 -1.2537
   44MPD2    N1  694   2.886   4.295   0.397 -0.1481 -0.1172 -0.1749
   44MPD2    H7  695   2.940   4.332   0.474 -2.4360  1.4333  0.6916
   45TMC2    C1  696   4.144   1.052   9.660  0.0550  0.1153 -0.3936
   45TMC2    C2  697   4.252   0.973   9.608  0.6244 -0.1307  0.2831
   45TMC2    C3  698   4.377   1.028   9.616 -0.4032  0.2744  0.3045
   45TMC2    C4  699   4.163   1.175   9.718  0.4240  0.2070 -0.7710
   45TMC2    C5  700   4.290   1.222   9.722  0.3717  0.5180  0.2480
   45TMC2    C6  701   4.394   1.159   9.662 -0.3462 -0.0323  0.1235
   45TMC2     C  702   4.025   0.969   9.692 -0.0825 -0.8082  0.9126
   45TMC2     O  703   4.049   0.847   9.704 -0.1897  0.2598  0.5159
   45TMC2     H  704   4.238   0.872   9.572  0.9941  0.0135 -0.2770
   45TMC2    H1  705   4.076   1.224   9.761  0.9566  0.4340  0.0451
   45TMC2    H2  706   4.495   1.197   9.649 -0.3385  0.4825  1.6190
   45TMC2    C7  707   4.321   1.338   9.792 -0.6741  0.2445  0.2698
   45TMC2    C8  708   4.488   0.953   9.545 -0.1195  0.0272 -0.0566
   45TMC2    O1  709   4.231   1.414   9.795 -0.0270 -0.9479  0.0883
   45TMC2    O2  710   4.463   0.867   9.462  0.1821  0.0386 -0.0502
   45TMC2    O5  711   4.615   0.978   9.587  0.0278 -0.1972  0.3878
   45TMC2    H5  712   4.625   1.026   9.671  2.3334 -0.6543  0.3608
   46MPD2     C  713   3.755   0.851   9.658  0.5255  0.5365  0.2430
   46MPD2    C1  714   3.786   0.982   9.699  0.0497 -0.5052  0.6348
   46MPD2    C2  715   3.682   1.071   9.697  0.6708 -0.9545 -0.6494
   46MPD2    C3  716   3.551   1.039   9.673 -0.7642 -1.0334 -1.0321
   46MPD2    C4  717   3.524   0.912   9.627  0.3956 -0.2560 -0.0031
   46MPD2    C5  718   3.627   0.821   9.618 -0.2985  0.0153 -0.0572
   46MPD2     H  719   3.703   1.176   9.713 -0.4776 -1.0042  1.1407
   46MPD2    H1  720   3.428   0.889   9.583 -0.5956  0.0461  1.9921
   46MPD2    H2  721   3.829   0.771   9.655 -0.4584 -0.3952  0.7911
   46MPD2    H3  722   3.602   0.723   9.579 -0.8628 -1.6527  4.4792
   46MPD2     N  723   3.454   1.147   9.689 -0.5020 -0.1053  0.2918
   46MPD2    H5  724   3.496   1.239   9.702 -0.3917 -0.0665 -0.3311
   46MPD2    N1  725   3.910   1.035   9.714 -0.2602 -0.3970 -0.2811
   46MPD2    H7  726   3.920   1.135   9.729 -0.1297 -0.1413 -2.0981
   47TMC2    C1  727   0.692   1.792   9.268  0.3121  0.2273 -0.6425
   47TMC2    C2  728   0.756   1.707   9.181  0.3846 -0.0442  0.2362
   47TMC2    C3  729   0.682   1.609   9.127 -0.0797  0.0933 -0.7503
   47TMC2    C4  730   0.563   1.765   9.312  0.0812 -0.3741  0.0612
   47TMC2    C5  731   0.490   1.672   9.243  0.3390 -0.5875  0.2964
   47TMC2    C6  732   0.548   1.588   9.147  0.7337  0.0683 -1.1457
   47TMC2     C  733   0.765   1.884   9.344 -0.0420 -0.1592 -0.1606
   47TMC2     O  734   0.698   1.945   9.426  0.2580  0.2791  0.5516
   47TMC2     H  735   0.858   1.726   9.150  0.5637 -0.9289  0.2696
   47TMC2    H1  736   0.509   1.838   9.371 -0.2061 -1.6374  1.3527
   47TMC2    H2  737   0.497   1.498   9.112 -1.0411  0.7396 -0.3085
   47TMC2    C7  738   0.365   1.631   9.305 -1.1341 -0.5151  0.2828
   47TMC2    C8  739   0.747   1.508   9.051 -0.2382  0.0341  0.1479
   47TMC2    O1  740   0.288   1.577   9.229 -0.6355 -0.5049 -0.5465
   47TMC2    O2  741   0.703   1.463   8.948  0.1629  0.0303  0.1497
   47TMC2    O5  742   0.815   1.449   9.148 -0.2777 -0.6216 -0.4323
   47TMC2    H5  743   0.826   1.490   9.236 -1.1367  0.6621 -0.9363
   48MPD2     C  744   0.913   2.139   9.397 -0.2839  0.4386  0.1953
   48MPD2    C1  745   0.971   2.018   9.351  0.1018 -0.3214  0.9680
   48MPD2    C2  746   1.109   2.018   9.340 -0.0608 -0.6419  0.3420
   48MPD2    C3  747   1.180   2.121   9.392 -0.1220  0.4201 -0.3705
   48MPD2    C4  748   1.116   2.230   9.447 -0.6173  0.1896 -0.6897
   48MPD2    C5  749   0.982   2.245   9.441  0.1073  0.6484 -0.7283
   48MPD2     H  750   1.159   1.933   9.294 -2.7234 -2.7385  1.3657
   48MPD2    H1  751   1.177   2.311   9.484 -0.3354 -0.2688 -0.1676
   48MPD2    H2  752   0.805   2.146   9.393 -0.3325 -0.9321 -0.9164
   48MPD2    H3  753   0.935   2.341   9.464 -0.5631  0.4239 -1.1754
   48MPD2     N  754   1.321   2.105   9.387  0.0401 -0.2083  0.4816
   48MPD2    H5  755   1.363   2.033   9.329 -1.1538 -1.1498  0.8142
   48MPD2    N1  756   0.898   1.902   9.314  0.3305  0.5712  0.4261
   48MPD2    H7  757   0.941   1.831   9.256  0.1366  0.7246  0.0971
   49TMC2    C1  758   4.581   0.511  10.356  0.3348  0.3540 -0.1641
   49TMC2    C2  759   4.662   0.617  10.323  0.6426  0.0028  0.4158
   49TMC2    C3  760   4.643   0.673  10.200  0.0377  0.6899 -0.4373
   49TMC2    C4  761   4.479   0.463  10.272 -0.5886 -0.0866  0.3310
   49TMC2    C5  762   4.481   0.513  10.145  0.3662  0.6010  0.2670
   49TMC2    C6  763   4.555   0.628  10.110 -0.1871 -1.0017 -0.0106
   49TMC2     C  764   4.576   0.479  10.501  0.3174 -1.2481  0.1437
   49TMC2     O  765   4.647   0.543  10.578 -0.5080  0.3039 -0.0751
   49TMC2     H  766   0.001   0.658  10.386 -0.1980  0.4442  1.1665
   49TMC2    H1  767   4.405   0.389  10.302 -1.8407  0.4372 -1.5074
   49TMC2    H2  768   4.567   0.674  10.012 -1.3986 -0.0843  0.2732
   49TMC2    C7  769   4.422   0.445  10.038 -0.1685  0.4231  0.4535
   49TMC2    C8  770   4.713   0.788  10.163 -0.8064  0.0272  0.3346
   49TMC2    O1  771   4.407   0.509   9.931  0.5080  0.1666  0.3864
   49TMC2    O2  772   4.648   0.879  10.116  0.3862 -0.4437 -0.0242
   49TMC2    O5  773   0.109   0.764  10.135 -0.2062 -0.3559 -0.0384
   49TMC2    H5  774   0.142   0.676  10.163 -1.2817 -0.0235  2.2651
   50MPD2     C  775   4.517   0.354  10.771 -0.1979 -1.0121 -0.5022
   50MPD2    C1  776   4.477   0.297  10.652  0.0459 -0.1198 -0.3489
   50MPD2    C2  777   4.397   0.178  10.658 -0.2358  0.5684 -0.6359
   50MPD2    C3  778   4.351   0.127  10.775  0.5878 -0.0665  0.9604
   50MPD2    C4  779   4.394   0.185  10.889  0.2189 -0.4288 -0.6201
   50MPD2    C5  780   4.486   0.290  10.887 -0.0267 -0.1946  0.0607
   50MPD2     H  781   4.370   0.136  10.562 -0.6427  1.6379 -0.9924
   50MPD2    H1  782   4.369   0.145  10.987  1.2830 -3.8164 -1.7039
   50MPD2    H2  783   4.577   0.444  10.765  2.1758 -2.4912  0.7290
   50MPD2    H3  784   4.504   0.335  10.984 -0.3274  2.3355 -1.0512
   50MPD2     N  785   4.263   0.022  10.793 -0.4946  0.3067 -0.0604
   50MPD2    H5  786   4.228   0.004  10.886  0.6392  0.3473  0.3834
   50MPD2    N1  787   4.508   0.361  10.532  0.0584 -0.0878 -0.1451
   50MPD2    H7  788   4.481   0.311  10.448 -1.3653 -0.1285  0.3451
   51TMC2    C1  789   4.143   2.262   0.617 -0.7404 -1.0983 -0.2336
   51TMC2    C2  790   4.081   2.304   0.501  0.1576 -0.8241 -0.7858
   51TMC2    C3  791   4.043   2.434   0.495 -0.7072 -0.0675 -0.7356
   51TMC2    C4  792   4.157   2.348   0.726 -0.0745  0.0022 -0.6414
   51TMC2    C5  793   4.127   2.480   0.709 -0.4584  0.2281  0.0130
   51TMC2    C6  794   4.059   2.524   0.594 -0.0844 -0.0200 -0.5061
   51TMC2     C  795   4.179   2.123   0.643 -0.1540  0.0911 -0.4773
   51TMC2     O  796   4.166   2.092   0.760 -0.7658 -0.5176 -0.2857
   51TMC2     H  797   4.063   2.234   0.419  1.3024  0.1138 -1.8309
   51TMC2    H1  798   4.219   2.309   0.806  2.0225  0.5571 -2.0072
   51TMC2    H2  799   4.041   2.629   0.573 -0.9984 -0.3820 -1.4954
   51TMC2    C7  800   4.216   2.589   0.779  0.4304 -0.1307 -0.4809
   51TMC2    C8  801   3.954   2.466   0.380  0.0676 -0.5828 -0.4963
   51TMC2    O1  802   4.201   2.701   0.739  0.0030 -0.4775  0.4174
   51TMC2    O2  803   3.951   2.393   0.283 -0.8428  0.0124  0.2226
   51TMC2    O5  804   3.842   2.507   0.450  0.4323  1.1134 -0.5051
   51TMC2    H5  805   3.860   2.552   0.535  0.8669 -1.8163  0.9467
   52MPD2     C  806   4.314   1.629   0.572 -0.1587  0.0711  0.1103
   52MPD2    C1  807   4.345   1.723   0.677 -0.1697 -0.5885  0.2251
   52MPD2    C2  808   4.303   1.853   0.666 -1.0625  0.5734  0.4284
   52MPD2    C3  809   4.242   1.903   0.549  0.1480  0.0826 -0.4961
   52MPD2    C4  810   4.220   1.813   0.445 -0.5848  0.7868 -0.0816
   52MPD2    C5  811   4.254   1.681   0.464 -0.8442 -0.0727  0.3575
   52MPD2     H  812   4.309   1.922   0.750 -1.3594  0.1857  0.7708
   52MPD2    H1  813   4.168   1.839   0.354 -0.3091  0.5035 -0.3207
   52MPD2    H2  814   4.332   1.523   0.585  0.2399 -0.0317 -1.2845
   52MPD2    H3  815   4.214   1.612   0.390  1.4720  0.3989 -1.3222
   52MPD2     N  816   4.208   2.041   0.535  0.1358  0.2376 -0.2487
   52MPD2    H5  817   4.188   2.085   0.446 -0.5340  1.9377  0.7516
   52MPD2    N1  818   4.406   1.698   0.799 -0.1295 -0.7547 -0.1175
   52MPD2    H7  819   4.431   1.778   0.856  0.3286 -0.1537 -1.1552
   53TMC2    C1  820   4.400   1.224  11.557  0.1523  0.3990  0.2333
   53TMC2    C2  821   4.380   1.255  11.423 -0.4160  0.2086 -1.0422
   53TMC2    C3  822   4.407   1.376  11.377 -0.1632  0.0310 -0.0321
   53TMC2    C4  823   4.473   1.303  11.644 -0.2955  0.1752  0.6009
   53TMC2    C5  824   4.503   1.422  11.583  0.3152 -0.0788 -1.4668
   53TMC2    C6  825   4.459   1.476  11.461 -0.4494 -0.0589 -0.2326
   53TMC2     C  826   4.329   1.117  11.615 -0.4606 -0.5816  1.1036
   53TMC2     O  827   4.318   1.026  11.536  0.3696  0.3422 -0.0686
   53TMC2     H  828   4.324   1.192  11.354  0.7264 -0.8195 -1.0443
   53TMC2    H1  829   4.508   1.267  11.740 -1.2326  0.4529  1.0529
   53TMC2    H2  830   4.479   1.576  11.426 -0.0571  0.5239  1.7028
   53TMC2    C7  831   4.570   1.528  11.658  0.5265  0.2272  0.4796
   53TMC2    C8  832   4.374   1.406  11.237  0.0977  0.0376 -0.0753
   53TMC2    O1  833   4.542   1.644  11.629  0.2459 -0.1493  0.2536
   53TMC2    O2  834   4.272   1.369  11.181  0.1075 -0.1220 -0.7044
   53TMC2    O5  835   4.462   1.484  11.179 -0.0386 -0.2089  0.0564
   53TMC2    H5  836   4.550   1.490  11.221  0.7739 -0.5621 -1.5659
   54MPD2     C  837   4.200   0.906  11.780  0.2301  0.5081 -0.6146
   54MPD2    C1  838   4.245   1.025  11.827 -0.2933  0.1525 -0.2120
   54MPD2    C2  839   4.248   1.046  11.970 -0.2615  0.3974  0.0388
   54MPD2    C3  840   4.205   0.943  12.051  0.3406  0.0674 -0.4566
   54MPD2    C4  841   4.171   0.825  11.998  0.2595  0.4981  0.4600
   54MPD2    C5  842   4.149   0.814  11.867 -0.1280 -0.2358 -0.0414
   54MPD2     H  843   4.281   1.136  12.020 -1.0102  0.1684  0.9476
   54MPD2    H1  844   4.134   0.746  12.063  0.3372  1.0746  1.2120
   54MPD2    H2  845   4.184   0.894  11.673  1.4896 -0.6806 -0.6734
   54MPD2    H3  846   4.095   0.726  11.833 -0.4789 -0.2176  0.4767
   54MPD2     N  847   4.199   0.946  12.192 -0.1494  0.3716  0.1712
   54MPD2    H5  848   4.167   0.863  12.239  0.5532  0.0412  0.0643
   54MPD2    N1  849   4.308   1.129  11.749  0.2591  0.5478 -0.6397
   54MPD2    H7  850   4.325   1.219  11.794  1.9984  0.5471 -1.2752
   55TMC2    C1  851   0.863   3.954  17.705  0.3064  0.3498 -0.8615
   55TMC2    C2  852   0.823   3.916  17.581 -0.1312 -0.0564  0.0994
   55TMC2    C3  853   0.785   3.786  17.562  0.5274 -0.2049 -0.4482
   55TMC2    C4  854   0.854   3.865   0.063  0.0691 -0.7248 -0.4589
   55TMC2    C5  855   0.811   3.738   0.040  0.0525 -0.1080 -0.1932
   55TMC2    C6  856   0.784   3.693  17.660  0.6716  0.0250  0.5899
   55TMC2     C  857   0.894   4.096  17.742  0.5431  0.5450  0.3883
   55TMC2     O  858   0.892   4.123   0.112  1.0154  0.2208  0.0949
   55TMC2     H  859   0.802   3.987  17.502  2.2093  0.8917  0.3473
   55TMC2    H1  860   0.896   3.894   0.159 -1.6147  0.6208 -0.1067
   55TMC2    H2  861   0.741   3.597  17.634  0.4003  0.7486 -1.6543
   55TMC2    C7  862   0.774   3.653   0.149  0.6559 -0.2669  0.9319
   55TMC2    C8  863   0.725   3.749  17.433  0.3787 -0.2340  0.1164
   55TMC2    O1  864   0.748   3.536   0.119  0.8083 -0.3442  0.1756
   55TMC2    O2  865   0.733   3.823  17.343 -0.4574  0.0233  0.1587
   55TMC2    O5  866   0.641   3.647  17.450  0.2445 -0.4973 -0.5325
   55TMC2    H5  867   0.620   3.638  17.546  2.9313  1.6171  0.2483
   56MPD2     C  868   0.942   4.398  17.535 -0.0682 -0.8614  0.1194
   56MPD2    C1  869   0.910   4.324  17.641  0.2162 -0.3572  0.1136
   56MPD2    C2  870   0.858   4.385   0.001  0.1580 -0.5336 -0.5144
   56MPD2    C3  871   0.850   4.523   0.012  0.0300 -0.2842  0.2831
   56MPD2    C4  872   0.899   4.602  17.657 -0.1816 -1.2894 -0.1700
   56MPD2    C5  873   0.952   4.531  17.546 -0.2267  0.2127  0.1862
   56MPD2     H  874   0.813   4.327   0.081 -0.7736  0.4996 -0.2919
   56MPD2    H1  875   0.875   4.708  17.649  0.0807 -1.3558 -1.6968
   56MPD2    H2  876   0.995   4.352  17.452 -0.4964 -1.8446  0.3958
   56MPD2    H3  877   0.977   4.585  17.456 -1.3568  1.0034  0.3430
   56MPD2     N  878   0.792   4.579   0.130 -0.3090  0.3206 -0.2191
   56MPD2    H5  879   0.763   4.507   0.196  1.1189  0.1896  0.2510
   56MPD2    N1  880   0.907   4.185  17.629  0.2259 -0.0304 -0.2760
   56MPD2    H7  881   0.926   4.144  17.538 -1.5381  0.8906 -1.0604
   57TMC2    C1  882   0.013   4.578  13.837  0.0819  0.3435 -0.2815
   57TMC2    C2  883   0.042   4.458  13.898 -0.5706  0.4197  0.1692
   57TMC2    C3  884   0.119   4.368  13.822  0.1943 -0.1301 -0.3461
   57TMC2    C4  885   0.065   4.619  13.716 -0.2704  0.1065  0.4368
   57TMC2    C5  886   0.154   4.533  13.660  0.0100  0.5453 -0.0235
   57TMC2    C6  887   0.191   4.413  13.712 -0.2291 -0.1402  0.0169
   57TMC2     C  888   4.653   4.669  13.893 -0.3915 -0.5272 -0.1958
   57TMC2     O  889   4.670   0.045  13.854 -0.3249 -0.6002  0.4920
   57TMC2     H  890   4.737   4.433  13.994 -0.0569  1.1813  0.6058
   57TMC2    H1  891   0.042   4.711  13.664  0.8329  1.3751  2.1908
   57TMC2    H2  892   0.262   4.343  13.671  1.1199  0.8408  0.6569
   57TMC2    C7  893   0.216   4.583  13.534  0.1381  0.2084 -0.2893
   57TMC2    C8  894   0.182   4.261  13.893  0.6132 -0.5350 -0.4329
   57TMC2    O1  895   0.187   4.698  13.495 -0.0974 -0.2954 -0.1274
   57TMC2    O2  896   0.299   4.232  13.895  0.0368  0.3243  0.1326
   57TMC2    O5  897   0.081   4.180  13.925 -0.3182 -0.2254  0.1227
   57TMC2    H5  898   4.730   4.218  13.908 -0.0981  0.8665  1.4285
   58MPD2     C  899   4.212   0.004  14.145  0.1534 -0.5822  0.1934
   58MPD2    C1  900   4.302   0.095  14.091  0.3035 -0.0229 -0.2919
   58MPD2    C2  901   4.418   0.053  14.033 -0.6060 -0.1947  0.1143
   58MPD2    C3  902   4.443   4.655  14.026  0.0107 -0.0926 -0.0199
   58MPD2    C4  903   4.353   4.566  14.078 -0.0524 -0.3674  0.1339
   58MPD2    C5  904   4.246   4.608  14.146  0.9044  0.0509 -0.2295
   58MPD2     H  905   4.488   0.125  13.994 -1.5833 -0.3401 -1.8798
   58MPD2    H1  906   4.369   4.459  14.073 -0.1900 -0.4786  2.1550
   58MPD2    H2  907   4.138   0.036  14.217  0.6586 -2.8820  1.7522
   58MPD2    H3  908   4.184   4.531  14.192  0.5918 -0.0087 -0.7436
   58MPD2     N  909   4.553   4.593  13.959  0.0068 -0.1353 -0.2901
   58MPD2    H5  910   4.568   4.493  13.950  0.7269  0.1899 -2.7896
   58MPD2    N1  911   4.276   0.234  14.101 -0.8524  0.1236  0.2687
   58MPD2    H7  912   4.345   0.302  14.069  0.2741 -1.2311 -0.1818
   59TMC2    C1  913   2.716   0.137  12.472 -0.1891 -0.1584  0.4440
   59TMC2    C2  914   2.692   0.092  12.602  0.2283  0.5556 -0.4513
   59TMC2    C3  915   2.574   0.025  12.617 -0.5181  0.2250 -0.2243
   59TMC2    C4  916   2.626   0.135  12.370 -0.1027 -0.3600 -0.3147
   59TMC2    C5  917   2.513   0.065  12.391 -0.4926 -0.0544 -0.7056
   59TMC2    C6  918   2.489   0.010  12.516  0.3766 -0.7456  0.2019
   59TMC2     C  919   2.854   0.151  12.436 -0.3813 -0.3875 -0.4814
   59TMC2     O  920   2.892   0.094  12.335 -0.4381 -0.3953  0.4024
   59TMC2     H  921   2.769   0.080  12.677  0.8693  0.2520 -1.1547
   59TMC2    H1  922   2.647   0.182  12.275  0.5033 -0.7458 -0.3655
   59TMC2    H2  923   2.391   4.708  12.539  0.8471 -1.3722  1.1064
   59TMC2    C7  924   2.415   0.062  12.283 -0.3091  0.5285 -0.3305
   59TMC2    C8  925   2.567   4.668  12.733  0.2279  0.1142  0.1668
   59TMC2    O1  926   2.343   4.701  12.270 -0.1673  0.0215  0.3476
   59TMC2    O2  927   2.621   4.709  12.834 -0.1814  0.2653 -0.4964
   59TMC2    O5  928   2.500   4.549  12.703 -0.2660  0.2201  0.0410
   59TMC2    H5  929   2.504   4.538  12.606  0.8509  1.2958 -0.0365
   60MPD2     C  930   3.131   0.227  12.425  0.0922 -0.1054 -0.0980
   60MPD2    C1  931   3.045   0.273  12.527  0.5073  0.1216  0.6574
   60MPD2    C2  932   3.088   0.372  12.612  0.2773  0.1405 -0.0682
   60MPD2    C3  933   3.216   0.421  12.599 -0.2525  0.2656 -0.1199
   60MPD2    C4  934   3.299   0.377  12.502 -0.2858 -0.3381 -0.3956
   60MPD2    C5  935   3.251   0.289  12.411  0.0681 -0.7342 -0.0523
   60MPD2     H  936   3.021   0.421  12.682  1.0400  1.6898 -0.4084
   60MPD2    H1  937   3.402   0.410  12.500 -0.6936  1.0021  1.7185
   60MPD2    H2  938   3.104   0.145  12.359  0.7019  0.3101 -0.8720
   60MPD2    H3  939   3.309   0.258  12.326 -1.3974 -1.7899 -0.6629
   60MPD2     N  940   3.261   0.518  12.690 -0.1681 -0.3312  0.1713
   60MPD2    H5  941   3.362   0.520  12.690 -0.1786  0.1944 -1.7583
   60MPD2    N1  942   2.912   0.230  12.532  0.0920  0.1945  0.4298
   60MPD2    H7  943   2.855   0.265  12.609  0.9826  1.5224  0.4862
   61TMC2    C1  944   1.789   2.014  15.917 -0.4636  0.1071  0.0292
   61TMC2    C2  945   1.705   1.977  16.012  0.6530  0.3803 -0.2327
   61TMC2    C3  946   1.608   2.068  16.044 -0.3957  0.2571 -0.4155
   61TMC2    C4  947   1.795   2.137  15.856  0.1522  0.7523 -0.1201
   61TMC2    C5  948   1.699   2.225  15.894  0.2117 -0.1815 -0.4462
   61TMC2    C6  949   1.611   2.196  15.995 -0.1090  0.2606  0.5973
   61TMC2     C  950   1.861   1.897  15.859 -0.2752 -0.6777 -0.2662
   61TMC2     O  951   1.866   1.792  15.929  0.1486  0.0419 -0.2514
   61TMC2     H  952   1.709   1.881  16.062 -0.3844  0.2027 -0.4914
   61TMC2    H1  953   1.852   2.163  15.767 -0.3689  3.8904  0.4371
   61TMC2    H2  954   1.544   2.267  16.042 -0.0787 -0.8844  2.3562
   61TMC2    C7  955   1.715   2.362  15.854 -0.6653 -0.5254  0.4321
   61TMC2    C8  956   1.523   2.049  16.159  0.4351 -0.2453 -1.1196
   61TMC2    O1  957   1.820   2.383  15.796  0.1855 -0.0921  0.5404
   61TMC2    O2  958   1.501   2.131  16.249  0.2984  0.4489 -0.4987
   61TMC2    O5  959   1.476   1.924  16.146  0.2112 -0.4164 -0.5815
   61TMC2    H5  960   1.490   1.893  16.054 -0.0817  0.3245 -0.8785
   62MPD2     C  961   2.004   1.696  15.673  0.4389  0.1252 -0.0097
   62MPD2    C1  962   1.958   1.821  15.635  0.5467  0.0501  0.0422
   62MPD2    C2  963   1.986   1.859  15.507  0.7535 -0.2435 -0.0292
   62MPD2    C3  964   2.049   1.776  15.419 -0.3639 -0.2017  0.5040
   62MPD2    C4  965   2.069   1.640  15.455  0.7011 -0.0013  0.0537
   62MPD2    C5  966   2.046   1.604  15.585 -0.2021  0.7447  0.4393
   62MPD2     H  967   1.954   1.955  15.470 -0.9089 -0.4195  0.9305
   62MPD2    H1  968   2.111   1.563  15.390 -0.9736 -0.9774  0.0984
   62MPD2    H2  969   1.990   1.659  15.774 -0.4589  1.2779  0.2850
   62MPD2    H3  970   2.070   1.503  15.616 -1.3399  0.5350  0.6614
   62MPD2     N  971   2.093   1.814  15.291 -0.3161  0.2653 -0.2885
   62MPD2    H5  972   2.125   1.735  15.237 -0.5780  0.6885 -1.0626
   62MPD2    N1  973   1.895   1.916  15.724 -0.3714  0.0233  0.2289
   62MPD2    H7  974   1.885   2.005  15.678 -1.8938  0.0787  0.6720
   63TMC2    C1  975   1.885   1.839  10.797  0.1859 -0.4334  0.1653
   63TMC2    C2  976   1.960   1.932  10.854 -0.0263 -0.9491 -0.3404
   63TMC2    C3  977   2.034   2.010  10.772  0.0545 -0.0393  0.4939
   63TMC2    C4  978   1.876   1.826  10.663  0.5477  0.2665  0.5405
   63TMC2    C5  979   1.943   1.922  10.582  0.5747  0.7041 -0.1131
   63TMC2    C6  980   2.027   2.012  10.634  0.4606  0.0990 -0.2519
   63TMC2     C  981   1.822   1.746  10.888  0.2333  0.3433 -0.2583
   63TMC2     O  982   1.871   1.726  10.998  0.7688 -0.0924 -0.0400
   63TMC2     H  983   1.953   1.944  10.961  0.7443  1.3147 -0.5322
   63TMC2    H1  984   1.806   1.762  10.610 -0.4082  1.7615  0.0124
   63TMC2    H2  985   2.112   2.058  10.585 -0.2582  0.7338 -0.8918
   63TMC2    C7  986   1.865   1.953  10.461  0.5428  0.3293 -0.0705
   63TMC2    C8  987   2.131   2.096  10.839  0.8007 -0.3467  0.0859
   63TMC2    O1  988   1.806   1.863  10.403 -0.1829  0.2752 -0.1697
   63TMC2    O2  989   2.145   2.090  10.962 -0.2613  0.3658  0.5340
   63TMC2    O5  990   2.090   2.209  10.776  0.6616  0.4003 -0.8803
   63TMC2    H5  991   2.066   2.184  10.684 -3.2671 -0.0882  0.2636
   64MPD2     C  992   1.497   1.336  10.959 -0.9463  0.5486 -0.2029
   64MPD2    C1  993   1.516   1.365  10.823 -0.1241  0.4336  0.2780
   64MPD2    C2  994   1.591   1.472  10.779  0.7128 -0.9432  0.3865
   64MPD2    C3  995   1.647   1.556  10.876 -0.3974  0.3398 -0.9340
   64MPD2    C4  996   1.649   1.520  11.010 -0.2375 -0.1169 -0.3724
   64MPD2    C5  997   1.558   1.427  11.050 -0.3844  0.5428  0.5349
   64MPD2     H  998   1.594   1.497  10.674 -0.0736  2.6152  1.2080
   64MPD2    H1  999   1.710   1.583  11.074  1.0089 -0.4635 -1.2291
   64MPD2    H2 1000   1.452   1.245  10.996 -0.8221 -0.8517 -3.5390
   64MPD2    H3 1001   1.547   1.397  11.153 -0.4960 -0.7330  0.1512
   64MPD2     N 1002   1.725   1.658  10.822  0.1414 -0.3419 -0.3658
   64MPD2    H5 1003   1.692   1.694  10.733  0.9555  1.2250 -0.0140
   64MPD2    N1 1004   1.458   1.281  10.719 -0.2436  0.5083 -0.7103
   64MPD2    H7 1005   1.474   1.301  10.621  4.4060  1.2271  0.1622
   65TMC2    C1 1006   2.852   1.843  15.332 -0.5771 -0.6198 -0.3305
   65TMC2    C2 1007   2.934   1.843  15.221  0.1130 -0.1732  0.1620
   65TMC2    C3 1008   2.994   1.963  15.206  0.3214 -0.1725 -0.3420
   65TMC2    C4 1009   2.811   1.955  15.404 -0.6598 -0.1237  0.3415
   65TMC2    C5 1010   2.859   2.074  15.355  0.1095  0.2063  0.6876
   65TMC2    C6 1011   2.963   2.077  15.270 -0.2093  0.0342  0.5109
   65TMC2     C 1012   2.814   1.701  15.375  0.0482 -0.8300 -0.1783
   65TMC2     O 1013   2.804   1.615  15.290 -0.3307  0.3585 -0.4116
   65TMC2     H 1014   2.969   1.751  15.176 -1.4900 -0.8545  0.3107
   65TMC2    H1 1015   2.747   1.945  15.491  1.0717 -1.4410  1.4993
   65TMC2    H2 1016   2.999   2.166  15.219 -0.8853  0.0256  0.0097
   65TMC2    C7 1017   2.818   2.199  15.414 -0.6950  0.1037 -0.3822
   65TMC2    C8 1018   3.098   1.957  15.100  0.1595 -0.5480  0.4953
   65TMC2    O1 1019   2.893   2.294  15.402 -0.1823 -0.2671 -0.5147
   65TMC2    O2 1020   3.117   1.871  15.016  0.1505 -0.0232 -0.5761
   65TMC2    O5 1021   3.176   2.066  15.104  0.2686 -0.8620  0.1653
   65TMC2    H5 1022   3.176   2.124  15.183  0.0116  0.6427 -0.9310
   66MPD2     C 1023   2.761   1.577  15.726  0.4955 -0.1183 -0.1892
   66MPD2    C1 1024   2.772   1.565  15.590 -0.8598 -0.0053  0.5084
   66MPD2    C2 1025   2.748   1.442  15.527  0.8366  0.6476 -0.1348
   66MPD2    C3 1026   2.706   1.336  15.605  0.5591 -0.2279  0.4204
   66MPD2    C4 1027   2.698   1.343  15.739  0.3599  0.2189 -0.2503
   66MPD2    C5 1028   2.721   1.467  15.797  0.3310  0.3321  0.7559
   66MPD2     H 1029   2.734   1.435  15.419 -0.0256 -1.5548  0.1170
   66MPD2    H1 1030   2.656   1.267  15.804  0.8223 -0.1751 -0.4144
   66MPD2    H2 1031   2.790   1.669  15.773  0.3718  0.5753 -1.4629
   66MPD2    H3 1032   2.710   1.461  15.905  0.5257 -2.8372  0.5923
   66MPD2     N 1033   2.657   1.214  15.546  0.6437  0.2186 -0.4828
   66MPD2    H5 1034   2.607   1.149  15.606  1.0039  1.0050  0.6530
   66MPD2    N1 1035   2.799   1.689  15.515 -0.4882 -0.0276 -0.0040
   66MPD2    H7 1036   2.826   1.772  15.566 -0.6906 -0.5337  0.9257
   67TMC2    C1 1037   3.038   0.779  14.195 -0.7909 -0.4568  0.1280
   67TMC2    C2 1038   2.970   0.896  14.209 -0.2899 -0.3954 -0.2747
   67TMC2    C3 1039   3.011   0.974  14.308 -0.3370 -0.4321 -0.7637
   67TMC2    C4 1040   3.135   0.733  14.279 -0.7187  0.4210  0.3609
   67TMC2    C5 1041   3.167   0.826  14.377 -0.6171 -0.0452  0.8141
   67TMC2    C6 1042   3.106   0.945  14.396  0.2661  0.1066 -0.0420
   67TMC2     C 1043   2.996   0.689  14.086  0.2512 -0.5156  0.5849
   67TMC2     O 1044   3.076   0.598  14.060 -0.3347  0.1490  0.1286
   67TMC2     H 1045   2.904   0.928  14.129 -0.0003  0.6688 -0.0878
   67TMC2    H1 1046   3.184   0.638  14.258 -2.2669 -0.2938  0.0154
   67TMC2    H2 1047   3.131   1.017  14.474 -1.0842  0.2802  0.2316
   67TMC2    C7 1048   3.277   0.784  14.469 -0.0261 -0.1649 -0.2564
   67TMC2    C8 1049   2.947   1.099  14.341  0.4463 -0.4119 -0.5942
   67TMC2    O1 1050   3.345   0.690  14.421 -0.3984 -0.1132 -0.5756
   67TMC2    O2 1051   2.988   1.186  14.417 -0.0128  0.4927 -0.2795
   67TMC2    O5 1052   2.850   1.114  14.250 -0.2900  0.3965 -0.0619
   67TMC2    H5 1053   2.832   1.023  14.216 -0.4721  1.2106 -2.1285
   68MPD2     C 1054   2.858   0.573  13.835  0.0299 -1.0695  0.1867
   68MPD2    C1 1055   2.796   0.641  13.943  0.6594 -0.5154  1.2357
   68MPD2    C2 1056   2.657   0.662  13.945 -0.0041  0.3613  0.0043
   68MPD2    C3 1057   2.585   0.613  13.837  0.7042  0.2906 -0.1563
   68MPD2    C4 1058   2.649   0.553  13.731  0.2384  0.5708  0.0382
   68MPD2    C5 1059   2.783   0.529  13.723 -0.2539  0.1421  0.6608
   68MPD2     H 1060   2.610   0.717  14.025  0.2755 -1.6300  1.5284
   68MPD2    H1 1061   2.583   0.521  13.651 -0.3317 -0.5880  0.9638
   68MPD2    H2 1062   2.966   0.572  13.841  0.0646 -0.5337 -0.4836
   68MPD2    H3 1063   2.832   0.484  13.638 -0.2266 -1.3668  1.4717
   68MPD2     N 1064   2.445   0.606  13.840 -0.6509  0.5338  0.0779
   68MPD2    H5 1065   2.384   0.571  13.767  2.1944  0.1380 -2.1041
   68MPD2    N1 1066   2.869   0.708  14.045  0.0396 -0.5419  0.2735
   68MPD2    H7 1067   2.811   0.762  14.108 -1.7611 -2.2746  0.1143
   69TMC2    C1 1068   0.076   1.628  12.773 -0.0188 -0.5600 -0.1222
   69TMC2    C2 1069   4.707   1.679  12.712  0.1008  0.2186  0.0481
   69TMC2    C3 1070   4.685   1.657  12.582  0.2870 -0.3291  0.1825
   69TMC2    C4 1071   0.168   1.554  12.703  0.3301  0.0724 -0.0557
   69TMC2    C5 1072   0.145   1.537  12.568 -0.0498 -0.1713  0.1413
   69TMC2    C6 1073   0.033   1.592  12.504 -0.6465 -0.5628  0.3403
   69TMC2     C 1074   0.090   1.655  12.917 -0.0424  0.2296  0.8039
   69TMC2     O 1075   4.734   1.714  12.971  1.1764 -0.0165 -0.3366
   69TMC2     H 1076   4.629   1.727  12.768 -0.6055 -1.1524  0.2378
   69TMC2    H1 1077   0.264   1.527  12.747  1.2488  3.1301 -0.1549
   69TMC2    H2 1078   0.030   1.581  12.396 -0.8773 -4.6699  0.7865
   69TMC2    C7 1079   0.246   1.482  12.483 -0.4099  0.2415 -0.8048
   69TMC2    C8 1080   4.544   1.642  12.535  0.0704  0.0050  0.2069
   69TMC2    O1 1081   0.252   1.524  12.368 -0.1860 -0.0339 -0.8085
   69TMC2    O2 1082   4.463   1.585  12.607 -0.4223  0.9389  0.3596
   69TMC2    O5 1083   4.550   1.620  12.402  0.0761 -0.1510 -0.4927
   69TMC2    H5 1084   4.616   1.681  12.363  0.2007  0.4734  0.6841
   70MPD2     C 1085   0.370   1.609  13.135 -0.1735  0.3164 -0.9693
   70MPD2    C1 1086   0.244   1.604  13.100 -0.9914  0.0246 -0.1575
   70MPD2    C2 1087   0.147   1.564  13.190  0.8481  0.7627  0.3627
   70MPD2    C3 1088   0.180   1.513  13.310 -0.8817 -0.0512 -0.4912
   70MPD2    C4 1089   0.310   1.509  13.336  0.3284  0.3602  0.5605
   70MPD2    C5 1090   0.403   1.561  13.258 -0.2380 -0.1833  0.2001
   70MPD2     H 1091   0.043   1.568  13.160  0.5192 -0.4344  1.3534
   70MPD2    H1 1092   0.339   1.473  13.434  0.1470  1.3727  0.9884
   70MPD2    H2 1093   0.445   1.652  13.069 -0.5969 -0.4627 -1.9546
   70MPD2    H3 1094   0.506   1.568  13.292 -0.1794 -1.8349  0.3473
   70MPD2     N 1095   0.095   1.457  13.403 -0.6472  0.2691 -0.7297
   70MPD2    H5 1096   0.140   1.400  13.474 -0.7574 -0.0642 -0.9258
   70MPD2    N1 1097   0.212   1.630  12.968 -0.0179  0.1531  0.7509
   70MPD2    H7 1098   0.283   1.625  12.895 -1.0099  5.4372 -0.6025
   71TMC2    C1 1099   2.434   1.668   1.536  1.0073 -0.3631  0.8283
   71TMC2    C2 1100   2.534   1.644   1.631 -0.3448  0.3387 -0.8019
   71TMC2    C3 1101   2.529   1.528   1.701  0.4372 -0.7577  0.1372
   71TMC2    C4 1102   2.331   1.579   1.515  0.6158 -0.5713 -0.0948
   71TMC2    C5 1103   2.328   1.471   1.593 -0.3649 -0.0493 -0.1146
   71TMC2    C6 1104   2.423   1.443   1.690  0.3199 -0.5016 -0.7099
   71TMC2     C 1105   2.475   1.756   1.424  0.0740  0.5087  0.1641
   71TMC2     O 1106   2.383   1.795   1.347  0.5435  0.1134  0.0828
   71TMC2     H 1107   2.620   1.707   1.647 -0.1986 -0.0282 -0.1104
   71TMC2    H1 1108   2.261   1.607   1.437  2.1916  2.1956 -0.4988
   71TMC2    H2 1109   2.408   1.364   1.763 -0.7481  0.0136 -0.3724
   71TMC2    C7 1110   2.223   1.373   1.582  0.1806  0.4137 -0.4963
   71TMC2    C8 1111   2.633   1.495   1.798 -0.2087 -0.0307  0.2051
   71TMC2    O1 1112   2.250   1.261   1.625  0.4472 -0.0390  0.0934
   71TMC2    O2 1113   2.712   1.575   1.844  0.0016  0.0127  0.6737
   71TMC2    O5 1114   2.650   1.356   1.792 -0.0289  0.3947 -0.6527
   71TMC2    H5 1115   2.593   1.310   1.728 -0.1279  0.3325 -0.5206
   72MPD2     C 1116   2.824   2.051   1.178  0.0511 -0.5444 -0.9347
   72MPD2    C1 1117   2.686   2.043   1.164 -0.4301 -0.0789  0.2785
   72MPD2    C2 1118   2.615   1.958   1.251  0.6791 -0.7249 -0.5475
   72MPD2    C3 1119   2.678   1.877   1.338 -0.0734  0.5065  0.8905
   72MPD2    C4 1120   2.814   1.874   1.344  0.2499 -0.5995 -0.7662
   72MPD2    C5 1121   2.880   1.962   1.260  0.0965  0.0463 -0.5059
   72MPD2     H 1122   2.511   1.950   1.221 -0.3750 -0.1066  2.8793
   72MPD2    H1 1123   2.875   1.814   1.411 -0.2488 -0.6755 -0.3778
   72MPD2    H2 1124   2.891   2.119   1.126 -3.4736  1.2176 -3.1773
   72MPD2    H3 1125   2.987   1.974   1.278  0.0205  0.9977 -0.7115
   72MPD2     N 1126   2.612   1.780   1.424 -0.3076  0.4976  0.0862
   72MPD2    H5 1127   2.674   1.720   1.477 -0.3503  0.5712  0.2195
   72MPD2    N1 1128   2.618   2.107   1.055  0.5973  0.2052 -0.0775
   72MPD2    H7 1129   2.518   2.090   1.053  0.7176 -0.0844 -2.8091
   73TMC2    C1 1130   1.544   4.220  14.015 -0.5773 -0.1321  0.0507
   73TMC2    C2 1131   1.569   4.104  13.945  0.1966  0.0983 -0.3367
   73TMC2    C3 1132   1.607   3.989  14.013  0.9480  0.3748  0.0414
   73TMC2    C4 1133   1.552   4.216  14.155  0.0510 -0.5236 -0.5110
   73TMC2    C5 1134   1.594   4.101  14.226 -0.8367 -0.1808 -0.7144
   73TMC2    C6 1135   1.610   3.981  14.153 -0.0955 -0.3488 -0.1518
   73TMC2     C 1136   1.620   4.337  13.965 -0.1352 -0.0794  0.1661
   73TMC2     O 1137   1.692   4.396  14.045  0.2167  0.2258 -0.3653
   73TMC2     H 1138   1.570   4.094  13.837  0.9553  2.5278 -0.5495
   73TMC2    H1 1139   1.528   4.301  14.218  3.6634 -0.0740  0.2777
   73TMC2    H2 1140   1.659   3.895  14.197 -0.3177 -0.5480 -0.2944
   73TMC2    C7 1141   1.709   4.118  14.313  0.1869 -0.5414 -0.1253
   73TMC2    C8 1142   1.666   3.888  13.938 -0.7144 -0.5316  0.1685
   73TMC2    O1 1143   1.744   4.037  14.401  0.4240  0.8513 -0.0153
   73TMC2    O2 1144   1.727   3.919  13.837 -0.0678  0.2561 -0.1491
   73TMC2    O5 1145   1.574   3.790  13.955  0.7721  0.1320  0.2310
   73TMC2    H5 1146   1.511   3.793  14.030  2.0129  2.4645  1.1609
   74MPD2     C 1147   1.874   4.531  13.563 -0.0565  1.3669  0.1544
   74MPD2    C1 1148   1.912   4.532  13.695  0.5850 -0.1588  0.6343
   74MPD2    C2 1149   1.831   4.466  13.784 -0.1690 -0.5652 -0.1848
   74MPD2    C3 1150   1.710   4.412  13.741 -0.1996  0.7699 -1.0157
   74MPD2    C4 1151   1.682   4.407  13.610  0.1330 -0.5687 -0.0458
   74MPD2    C5 1152   1.760   4.469  13.517 -0.3841  0.6803  0.3451
   74MPD2     H 1153   1.859   4.449  13.887  0.3394  0.7931 -0.1054
   74MPD2    H1 1154   1.589   4.367  13.573 -0.4919  0.8032  0.0393
   74MPD2    H2 1155   1.938   4.585  13.493 -1.7311 -0.6078 -2.9090
   74MPD2    H3 1156   1.726   4.468  13.414 -0.6546  0.5106  0.4350
   74MPD2     N 1157   1.610   4.352  13.827  0.1277  0.8765 -1.0130
   74MPD2    H5 1158   1.531   4.310  13.779 -0.0864  0.7319 -0.5371
   74MPD2    N1 1159   2.033   4.594  13.732 -0.0459  0.1235 -0.4173
   74MPD2    H7 1160   2.090   4.639  13.661 -1.9383  1.4035 -1.0941
   75TMC2    C1 1161   2.224   0.635  13.922  0.6530  0.0946 -0.5723
   75TMC2    C2 1162   2.148   0.605  14.034 -0.3140  0.0394  0.5360
   75TMC2    C3 1163   2.015   0.616  14.014  0.1720  0.0320 -1.0319
   75TMC2    C4 1164   2.181   0.656  13.792 -0.0996 -0.2941  0.7240
   75TMC2    C5 1165   2.045   0.650  13.773 -0.4679  0.2795 -0.0743
   75TMC2    C6 1166   1.962   0.635  13.889 -0.1628  0.2449  0.2995
   75TMC2     C 1167   2.367   0.639  13.952 -0.1634 -0.6485  0.4481
   75TMC2     O 1168   2.396   0.656  14.069 -0.4159 -0.2898 -0.3768
   75TMC2     H 1169   2.187   0.594  14.135  1.4395 -0.9342 -0.2510
   75TMC2    H1 1170   2.257   0.678  13.717  0.1934 -1.9439  0.5405
   75TMC2    H2 1171   1.855   0.642  13.870 -0.7042  0.5770  3.5813
   75TMC2    C7 1172   1.980   0.658  13.642 -0.2799  0.5059  0.2890
   75TMC2    C8 1173   1.923   0.567  14.118  0.1208 -0.2062  0.0190
   75TMC2    O1 1174   2.054   0.676  13.547 -0.0695 -0.4597  0.1452
   75TMC2    O2 1175   1.945   0.469  14.189  0.2255 -0.0299  0.1860
   75TMC2    O5 1176   1.863   0.677  14.167 -0.0750  0.3397 -0.0933
   75TMC2    H5 1177   1.886   0.756  14.114 -0.9877  1.2618  0.9039
   76TMC2    C1 1178   1.585   0.935  12.232 -0.0830 -0.0960 -0.1132
   76TMC2    C2 1179   1.555   0.808  12.180 -0.1441 -0.0876  0.5103
   76TMC2    C3 1180   1.630   0.706  12.226  0.1277 -1.2550 -0.9929
   76TMC2    C4 1181   1.670   0.960  12.328 -0.0582  1.0133  0.7945
   76TMC2    C5 1182   1.750   0.854  12.370 -0.3434  0.1492 -0.2989
   76TMC2    C6 1183   1.727   0.726  12.320 -0.3238 -0.6826  0.4353
   76TMC2     C 1184   1.481   1.035  12.217 -0.3726  0.2079 -0.0805
   76TMC2     O 1185   1.365   0.996  12.204 -0.8594 -0.0375  0.0346
   76TMC2     H 1186   1.467   0.791  12.119  1.7046  1.5246 -2.6109
   76TMC2    H1 1187   1.680   1.062  12.363  0.6335  1.2116 -0.0028
   76TMC2    H2 1188   1.785   0.643  12.361 -0.0042 -0.5914  0.1645
   76TMC2    C7 1189   1.852   0.875  12.479 -0.5192  0.4747 -0.0600
   76TMC2    C8 1190   1.585   0.569  12.205  0.0255 -0.1678  0.1264
   76TMC2    O1 1191   1.942   0.791  12.489  0.0207  0.0433  0.4206
   76TMC2    O2 1192   1.468   0.546  12.174 -0.5037 -0.0952 -0.2006
   76TMC2    O5 1193   1.679   0.478  12.227 -0.5836  0.1095  0.1194
   76TMC2    H5 1194   1.774   0.499  12.220 -0.6743 -0.4810 -2.7839
   77MPD2     C 1195   1.339   1.517  12.101  0.1482  0.0901 -0.2707
   77MPD2    C1 1196   1.265   1.399  12.108  0.0526  0.7323 -0.6850
   77MPD2    C2 1197   1.317   1.284  12.160 -0.1693 -0.3476 -0.4979
   77MPD2    C3 1198   1.454   1.283  12.184  0.0352  0.4628 -0.0322
   77MPD2    C4 1199   1.531   1.396  12.176  0.5364 -0.9876 -0.3001
   77MPD2    C5 1200   1.475   1.515  12.136 -0.3438 -0.4663 -0.0445
   77MPD2     H 1201   1.257   1.194  12.171 -0.0586 -0.2811  0.5668
   77MPD2    H1 1202   1.639   1.386  12.182  0.7592  1.9469  0.2421
   77MPD2    H2 1203   1.293   1.611  12.071  1.9150  1.6585  1.9098
   77MPD2    H3 1204   1.530   1.609  12.130  1.9101 -1.9343 -2.0287
   77MPD2     N 1205   1.524   1.163  12.209 -0.1308  0.0959  0.0988
   77MPD2    H5 1206   1.625   1.168  12.200 -0.1156  0.2262  0.3304
   77MPD2    N1 1207   1.133   1.394  12.071 -0.3027  0.4799 -0.4912
   77MPD2    H7 1208   1.093   1.302  12.085 -1.6566  1.1837  0.2331
   78TMC2    C1 1209   3.279   0.616   1.283  0.2570 -0.1232  0.2467
   78TMC2    C2 1210   3.217   0.508   1.342  0.5823 -0.5542 -0.5798
   78TMC2    C3 1211   3.088   0.501   1.328  0.8019 -0.7873  0.4596
   78TMC2    C4 1212   3.217   0.700   1.196  0.1946  0.5629 -0.0338
   78TMC2    C5 1213   3.087   0.671   1.177  0.2580 -0.1351  0.2356
   78TMC2    C6 1214   3.019   0.579   1.244  0.8886  0.4576  0.1907
   78TMC2     C 1215   3.424   0.635   1.289  0.5114 -0.5184  0.8316
   78TMC2     O 1216   3.471   0.746   1.267 -0.4491  0.4036 -0.1921
   78TMC2     H 1217   3.279   0.447   1.406 -0.0678  1.3253  1.8510
   78TMC2    H1 1218   3.270   0.777   1.141 -1.5989  1.7597 -0.0865
   78TMC2    H2 1219   2.912   0.571   1.239  1.1477 -1.1009 -2.6830
   78TMC2    C7 1220   3.015   0.778   1.113 -0.2486 -0.0064  0.2073
   78TMC2    C8 1221   3.026   0.388   1.388  0.0064  0.0075 -0.0261
   78TMC2    O1 1222   3.080   0.874   1.074 -0.4583  0.3027 -0.6570
   78TMC2    O2 1223   2.922   0.347   1.353 -0.2449 -0.2110 -0.4773
   78TMC2    O5 1224   3.057   0.408   1.520 -0.2163 -0.3236 -0.8429
   78TMC2    H5 1225   3.146   0.448   1.534  0.6866 -2.9064  0.6289
   79MPD1     C 1226   3.902   0.472   1.399 -0.4251 -0.0233  0.4822
   79MPD1    C1 1227   3.847   0.598   1.405  0.5261 -0.4083 -0.3216
   79MPD1    C2 1228   3.710   0.610   1.380 -0.7320 -0.3789 -0.6106
   79MPD1    C3 1229   3.630   0.511   1.339  0.6255 -0.3435  0.0739
   79MPD1    C4 1230   3.687   0.383   1.349 -0.7625 -0.3500 -0.0639
   79MPD1    C5 1231   3.823   0.365   1.371  0.1742 -0.6055  0.4845
   79MPD1     H 1232   3.664   0.706   1.396  0.2730 -0.2258  1.4156
   79MPD1    H1 1233   3.631   0.290   1.339 -0.0766 -0.6740 -0.9371
   79MPD1    H2 1234   4.006   0.446   1.416  0.0094  0.2812 -1.6802
   79MPD1    H3 1235   3.862   0.263   1.366 -0.5610 -0.9314  1.3827
   79MPD1     N 1236   3.492   0.520   1.306  0.3496 -0.4335  0.0534
   79MPD1    H5 1237   3.435   0.436   1.310  1.7963 -1.5287 -2.4127
   79MPD1    N1 1238   3.926   0.703   1.449 -0.5329 -0.2454  0.0312
   79MPD1    H6 1239   3.906   0.790   1.399  3.5265  0.5625 -0.1238
   79MPD1    H7 1240   4.026   0.687   1.438 -0.7369 -0.2414 -1.9890
   80TMC2    C1 1241   0.472   0.938  12.266 -0.4573 -0.1639  0.5675
   80TMC2    C2 1242   0.494   1.012  12.148 -0.9142  0.5710  0.3481
   80TMC2    C3 1243   0.393   1.045  12.064  0.4316 -0.3574 -0.1998
   80TMC2    C4 1244   0.347   0.894  12.287  0.5830  0.0502  0.3785
   80TMC2    C5 1245   0.246   0.920  12.195  0.2167  0.3479  0.4072
   80TMC2    C6 1246   0.264   1.000  12.088  0.4108  0.4209 -0.7035
   80TMC2     C 1247   0.577   0.917  12.363 -0.3553 -0.4262 -0.0355
   80TMC2     O 1248   0.689   0.919  12.316 -0.6369 -0.5497  0.6295
   80TMC2     H 1249   0.593   1.045  12.119 -0.7389  0.4705  0.8351
   80TMC2    H1 1250   0.324   0.832  12.374  2.0080 -1.6579 -0.4664
   80TMC2    H2 1251   0.175   1.025  12.032 -0.5874 -2.1932 -0.2987
   80TMC2    C7 1252   0.105   0.893  12.219 -0.1859 -0.2470 -0.2490
   80TMC2    C8 1253   0.417   1.138  11.952  0.4354 -0.1870 -0.8004
   80TMC2    O1 1254   0.018   0.951  12.154 -0.1084  0.4965  0.7333
   80TMC2    O2 1255   0.477   1.093  11.854 -0.5830 -0.6199 -0.5084
   80TMC2    O5 1256   0.301   1.202  11.954 -0.3220  0.4440 -0.3937
   80TMC2    H5 1257   0.277   1.231  12.045  0.1064 -0.1385 -0.0967
   81MPD2     C 1258   0.740   0.826  12.599 -0.0175 -0.7191 -0.2576
   81MPD2    C1 1259   0.600   0.842  12.601 -0.1180 -0.2774  0.5171
   81MPD2    C2 1260   0.526   0.829  12.716 -0.0576 -0.0810 -0.5804
   81MPD2    C3 1261   0.592   0.811  12.829 -0.6037  0.5162 -0.7225
   81MPD2    C4 1262   0.729   0.803  12.835  0.3972  0.4107  0.3291
   81MPD2    C5 1263   0.800   0.806  12.719 -0.1057  0.6098 -0.3937
   81MPD2     H 1264   0.418   0.839  12.716 -0.0644 -0.2186  0.2593
   81MPD2    H1 1265   0.788   0.786  12.925  0.0227  1.0221  0.6910
   81MPD2    H2 1266   0.793   0.826  12.504 -0.3620  1.4322 -0.4382
   81MPD2    H3 1267   0.908   0.803  12.711  0.1907  4.3582  2.0111
   81MPD2     N 1268   0.515   0.796  12.949  0.6376  0.0273 -0.7640
   81MPD2    H5 1269   0.415   0.788  12.934  1.0459 -1.6518 -2.5573
   81MPD2    N1 1270   0.525   0.876  12.486 -0.4838 -0.1330 -0.7249
   81MPD2    H7 1271   0.426   0.890  12.504 -0.0295 -1.0466  2.6798
   82TMC2    C1 1272   3.094   0.169  10.801  0.1958 -0.3587  0.1341
   82TMC2    C2 1273   3.226   0.149  10.820  0.3211 -0.0811  0.5626
   82TMC2    C3 1274   3.270   0.050  10.902 -0.4574  0.1002  0.4612
   82TMC2    C4 1275   3.003   0.078  10.848  0.0981 -0.0243  0.1761
   82TMC2    C5 1276   3.042   4.710  10.929 -0.1454 -0.7006 -0.8024
   82TMC2    C6 1277   3.174   4.700  10.959 -0.2000  0.1870 -0.2129
   82TMC2     C 1278   3.033   0.264  10.704  0.5937 -0.7093  0.6911
   82TMC2     O 1279   2.916   0.247  10.669  0.1326  0.1541 -0.0529
   82TMC2     H 1280   3.295   0.212  10.766  0.8237 -1.3616 -0.2652
   82TMC2    H1 1281   2.896   0.095  10.847 -0.1510 -1.6301  0.1712
   82TMC2    H2 1282   3.211   4.630  11.033 -1.2210 -2.2593 -1.9926
   82TMC2    C7 1283   2.960   4.595  10.954  0.6030  0.6431 -0.4784
   82TMC2    C8 1284   3.407   0.045  10.951 -0.5282  0.2423 -0.2711
   82TMC2    O1 1285   3.018   4.501  11.006 -0.1472 -0.2837 -0.3989
   82TMC2    O2 1286   3.434   0.006  11.064 -0.0098 -0.1434 -0.0952
   82TMC2    O5 1287   3.480   0.108  10.862 -0.2931  0.1280  0.0913
   82TMC2    H5 1288   3.439   0.127  10.774  1.1135  2.8080 -0.0022
   83MPD2     C 1289   3.087   0.686  10.393  0.4882 -0.3315 -0.6045
   83MPD2    C1 1290   2.983   0.595  10.410  0.1328  0.2289  0.2004
   83MPD2    C2 1291   2.998   0.481  10.491 -0.2254  0.3788  0.0620
   83MPD2    C3 1292   3.113   0.471  10.572  0.2466 -0.7095 -0.5516
   83MPD2    C4 1293   3.213   0.565  10.555 -0.1872 -0.7564  0.4738
   83MPD2    C5 1294   3.199   0.677  10.472  0.3031 -0.2974 -0.2713
   83MPD2     H 1295   2.916   0.412  10.503 -0.8732  0.6653 -2.9640
   83MPD2    H1 1296   3.306   0.547  10.607 -1.1787  0.5319  2.6708
   83MPD2    H2 1297   3.067   0.774  10.334 -0.7421 -0.2513 -0.0662
   83MPD2    H3 1298   3.271   0.758  10.462  1.4038 -1.0384  1.7447
   83MPD2     N 1299   3.126   0.368  10.661  0.0091 -0.1246 -0.0708
   83MPD2    H5 1300   3.216   0.368  10.708 -0.2737 -0.1483  0.4747
   83MPD2    N1 1301   2.861   0.621  10.337 -0.2371  0.2826  0.0550
   83MPD2    H7 1302   2.852   0.715  10.300  1.2207  0.4260  0.0452
   84TMC2    C1 1303   3.967   4.490  10.884 -0.1546 -0.4767 -0.2853
   84TMC2    C2 1304   3.921   4.415  10.779  0.4944 -0.6311 -0.5683
   84TMC2    C3 1305   3.974   4.425  10.655 -0.2026 -0.4367  0.4000
   84TMC2    C4 1306   4.067   4.581  10.858 -0.5873 -0.4102  0.0449
   84TMC2    C5 1307   4.124   4.577  10.731  0.9222 -0.1488  0.1011
   84TMC2    C6 1308   4.077   4.505  10.623  0.1524 -0.1847  0.2378
   84TMC2     C 1309   3.874   4.536  10.991 -0.0422  0.2645 -0.0302
   84TMC2     O 1310   3.755   4.526  10.968  0.5009  0.1838 -0.4819
   84TMC2     H 1311   3.833   4.352  10.791 -1.2356  1.8164 -0.3525
   84TMC2    H1 1312   4.096   4.660  10.925  0.5375 -0.4337 -0.4167
   84TMC2    H2 1313   4.122   4.500  10.524 -1.1030 -1.7753 -0.2699
   84TMC2    C7 1314   4.223   4.677  10.696  0.2937  0.3205  0.3749
   84TMC2    C8 1315   3.910   4.341  10.546  0.1318  0.9055 -0.3657
   84TMC2    O1 1316   4.267   4.670  10.581  0.1084  0.6754  0.2550
   84TMC2    O2 1317   3.925   4.362  10.427  0.1164 -0.1419  0.0553
   84TMC2    O5 1318   3.877   4.222  10.598 -0.2389 -0.5428 -0.7532
   84TMC2    H5 1319   3.883   4.215  10.696 -1.3694 -0.2576 -0.6634
   85TMC2    C1 1320   4.149   2.342  15.356 -0.4415 -0.0486 -0.3932
   85TMC2    C2 1321   4.074   2.381  15.248 -0.6736  0.3772  0.5734
   85TMC2    C3 1322   4.141   2.475  15.170 -0.1793  0.3193  0.1586
   85TMC2    C4 1323   4.249   2.413  15.412  0.4460  0.1106 -0.0237
   85TMC2    C5 1324   4.297   2.517  15.332 -0.1064  0.5051  0.4628
   85TMC2    C6 1325   4.238   2.552  15.214  0.0640  0.0981  0.0194
   85TMC2     C 1326   4.071   2.276  15.455 -0.1648 -0.6358  0.3548
   85TMC2     O 1327   3.948   2.284  15.431 -0.1040  0.0753 -0.6386
   85TMC2     H 1328   3.996   2.317  15.209 -1.4147  1.7015 -0.1160
   85TMC2    H1 1329   4.298   2.386  15.505  1.9794  2.9545  0.0321
   85TMC2    H2 1330   4.274   2.636  15.156  0.4787 -0.3493 -0.3789
   85TMC2    C7 1331   4.407   2.592  15.378  0.0794  0.0126  0.2621
   85TMC2    C8 1332   4.062   2.514  15.059 -0.0074  0.0088 -0.5251
   85TMC2    O1 1333   4.483   2.541  15.459  0.0524 -0.1068 -0.5581
   85TMC2    O2 1334   4.000   2.436  14.990  0.0470 -0.1144  0.2368
   85TMC2    O5 1335   4.079   2.647  15.035 -0.3993  0.5529  0.2267
   85TMC2    H5 1336   4.113   2.696  15.113  1.6146  0.2918 -0.4842
   86MPD2     C 1337   3.971   1.993  15.858  0.4593  0.1880  0.6120
   86MPD2    C1 1338   4.107   1.984  15.839 -0.6504 -0.1612 -0.0810
   86MPD2    C2 1339   4.164   2.058  15.740  0.0997 -0.4986 -0.3950
   86MPD2    C3 1340   4.085   2.138  15.660 -0.6686 -0.3599 -0.4214
   86MPD2    C4 1341   3.953   2.157  15.693 -0.0426  0.9602  0.2540
   86MPD2    C5 1342   3.895   2.078  15.790  0.4504  0.6737 -0.3724
   86MPD2     H 1343   4.267   2.049  15.710  0.9805 -0.5768  2.6884
   86MPD2    H1 1344   3.891   2.231  15.645 -0.6373  0.5487  0.3864
   86MPD2    H2 1345   3.919   1.939  15.937 -1.0915  1.4659  0.4666
   86MPD2    H3 1346   3.792   2.092  15.822  0.3542 -2.8150  0.7560
   86MPD2     N 1347   4.145   2.201  15.545 -0.4584  0.1318  0.0200
   86MPD2    H5 1348   4.243   2.186  15.524 -0.0296  1.7498  0.9653
   86MPD2    N1 1349   4.194   1.903  15.915  0.2749 -0.2858 -0.6086
   86MPD2    H7 1350   4.290   1.886  15.885  0.4758 -0.5639  0.2008
   87TMC2    C1 1351   1.707   0.413   0.720 -0.1047 -0.0243 -0.6923
   87TMC2    C2 1352   1.606   0.495   0.676  0.3111  0.0337 -0.1917
   87TMC2    C3 1353   1.590   0.613   0.731 -0.8497  0.9426  0.1492
   87TMC2    C4 1354   1.796   0.461   0.810 -0.2119 -0.4341  0.3206
   87TMC2    C5 1355   1.786   0.592   0.859 -0.3356 -0.5479 -0.2154
   87TMC2    C6 1356   1.683   0.668   0.816  0.4546  0.3683 -0.6065
   87TMC2     C 1357   1.777   0.331   0.619 -0.1636 -0.3881 -0.0735
   87TMC2     O 1358   1.887   0.294   0.645  0.2659 -0.2751  0.2614
   87TMC2     H 1359   1.536   0.470   0.597 -0.1657  0.4279  0.1076
   87TMC2    H1 1360   1.874   0.397   0.850 -0.7452 -0.9051  0.6163
   87TMC2    H2 1361   1.674   0.767   0.860 -1.0021 -2.2143  4.9632
   87TMC2    C7 1362   1.875   0.639   0.963  0.0092  0.2691 -1.3074
   87TMC2    C8 1363   1.466   0.685   0.702  0.4909  0.3519  0.0089
   87TMC2    O1 1364   1.839   0.744   1.024 -0.7695 -0.6089  0.0678
   87TMC2    O2 1365   1.357   0.629   0.673 -0.3790 -0.1127 -0.5477
   87TMC2    O5 1366   1.505   0.807   0.661 -0.3565  0.1921 -0.0304
   87TMC2    H5 1367   1.599   0.834   0.658 -0.5908  1.1736  1.5892
   88MPD2     C 1368   2.234   0.560   1.005 -0.0768 -0.5816  1.1257
   88MPD2    C1 1369   2.113   0.639   1.012  0.2614  0.4103  0.2478
   88MPD2    C2 1370   2.116   0.762   1.074 -0.5365  0.2132 -0.3796
   88MPD2    C3 1371   2.243   0.813   1.126 -0.5696  0.6403  0.5355
   88MPD2    C4 1372   2.354   0.729   1.130 -0.6011  0.4929  0.1797
   88MPD2    C5 1373   2.350   0.606   1.064 -0.3627 -0.1788 -0.3752
   88MPD2     H 1374   2.039   0.838   1.067  0.6310  1.3926 -0.3256
   88MPD2    H1 1375   2.446   0.769   1.171 -0.4699  0.6045 -0.2254
   88MPD2    H2 1376   2.237   0.465   0.952  0.4234  0.3379 -0.4739
   88MPD2    H3 1377   2.436   0.541   1.078 -1.0325 -0.7904  1.0018
   88MPD2     N 1378   2.264   0.945   1.173 -0.0878  0.2703  0.6193
   88MPD2    H5 1379   2.351   0.972   1.217 -0.4186  1.4184  0.5952
   88MPD2    N1 1380   1.993   0.585   0.949  0.5838  0.1089 -0.2706
   88MPD2    H7 1381   2.012   0.513   0.880  2.0526 -0.6962  0.9751
   89TMC2    C1 1382   3.338   4.144   1.557  0.0925  0.0644  0.1393
   89TMC2    C2 1383   3.447   4.228   1.570 -0.4355  0.2802  0.4444
   89TMC2    C3 1384   3.446   4.351   1.511  0.2683  0.3262 -0.3181
   89TMC2    C4 1385   3.242   4.187   1.479  0.0522  0.6764 -0.1673
   89TMC2    C5 1386   3.242   4.307   1.415 -0.2969  0.1218  0.7832
   89TMC2    C6 1387   3.343   4.394   1.435  0.6901 -0.2405 -0.1630
   89TMC2     C 1388   3.371   3.997   1.554  0.2404  0.7245  0.2967
   89TMC2     O 1389   3.489   3.962   1.545 -0.1634 -0.2873 -0.5408
   89TMC2     H 1390   3.528   4.200   1.636 -0.0522  2.1570  0.7836
   89TMC2    H1 1391   3.171   4.119   1.434 -0.0940  1.9789 -1.8945
   89TMC2    H2 1392   3.344   4.496   1.397  0.5492 -0.5700 -1.0499
   89TMC2    C7 1393   3.150   4.329   1.301 -0.3070 -0.6486  0.3102
   89TMC2    C8 1394   3.565   4.442   1.514  0.2422 -0.2009  0.4839
   89TMC2    O1 1395   3.053   4.258   1.284  0.0998 -0.4949 -0.2009
   89TMC2    O2 1396   3.577   4.525   1.427  0.7217  0.4226  0.0910
   89TMC2    O5 1397   3.598   4.467   1.644  0.1012  0.0815  0.3384
   89TMC2    H5 1398   3.575   4.407   1.718 -0.2486 -0.5101 -0.2507
   90MPD2     C 1399   3.234   3.504   1.559  0.1738 -0.6904 -0.4961
   90MPD2    C1 1400   3.129   3.585   1.575  0.5088 -0.4656 -0.4079
   90MPD2    C2 1401   3.140   3.720   1.601  0.2717  0.4158 -0.1669
   90MPD2    C3 1402   3.261   3.782   1.578  0.5082  0.2724  0.3226
   90MPD2    C4 1403   3.370   3.700   1.555  0.3373  0.6323 -0.5796
   90MPD2    C5 1404   3.357   3.566   1.543 -0.2955 -0.2608  0.0497
   90MPD2     H 1405   3.049   3.778   1.617 -0.4261 -0.8294  0.3697
   90MPD2    H1 1406   3.468   3.740   1.531 -0.1791  0.4106 -3.1111
   90MPD2    H2 1407   3.231   3.397   1.543 -2.1996 -0.0750 -4.1402
   90MPD2    H3 1408   3.443   3.502   1.527  1.3379  1.7672  0.6788
   90MPD2     N 1409   3.258   3.919   1.571 -0.0953  0.9385  0.3974
   90MPD2    H5 1410   3.167   3.958   1.589 -0.0643 -0.3770  3.5638
   90MPD2    N1 1411   3.002   3.528   1.601  0.1528  0.4126 -0.0238
   90MPD2    H7 1412   2.922   3.585   1.627 -0.2671 -0.4003  0.5042
   91TMC2    C1 1413   0.066   3.115  16.436  0.0046  0.4177  0.0282
   91TMC2    C2 1414   0.143   3.134  16.326  0.7569 -0.7690  0.1365
   91TMC2    C3 1415   0.084   3.123  16.203 -0.5162 -0.9224  0.2610
   91TMC2    C4 1416   4.676   3.073  16.421  0.4228 -0.2245 -0.6066
   91TMC2    C5 1417   4.622   3.059  16.297  0.1705 -0.1336  0.2012
   91TMC2    C6 1418   4.697   3.073  16.188  0.1317 -0.4375 -0.3310
   91TMC2     C 1419   0.122   3.092  16.567 -0.6604 -0.2824  0.3387
   91TMC2     O 1420   0.056   3.018  16.636  0.0115 -0.0178 -0.2713
   91TMC2     H 1421   0.249   3.154  16.334  0.3434  2.0229 -1.2619
   91TMC2    H1 1422   4.608   3.064  16.505 -0.3759 -2.0786 -1.4341
   91TMC2    H2 1423   4.650   3.062  16.091 -0.5962 -0.6538  0.0499
   91TMC2    C7 1424   4.511   2.965  16.291  0.1672 -0.1112  0.1924
   91TMC2    C8 1425   0.169   3.142  16.089 -0.4852  0.3128  0.4037
   91TMC2    O1 1426   4.453   2.950  16.396  0.0488 -1.0076  0.8631
   91TMC2    O2 1427   0.142   3.092  15.983  0.1072  0.1786 -0.2861
   91TMC2    O5 1428   0.219   3.268  16.107 -0.0774  0.3310  0.0591
   91TMC2    H5 1429   0.189   3.301  16.195 -1.7307 -0.3014 -0.2601
   92MPD2     C 1430   0.301   3.071  16.813  0.7413  0.6502  0.1727
   92MPD2    C1 1431   0.314   3.159  16.709 -0.1498 -0.8631  0.6512
   92MPD2    C2 1432   0.429   3.229  16.712 -0.6030  0.3628 -0.3031
   92MPD2    C3 1433   0.515   3.241  16.822  0.1440  0.4167 -0.3004
   92MPD2    C4 1434   0.485   3.165  16.934 -0.5089 -0.0447 -0.3808
   92MPD2    C5 1435   0.371   3.086  16.929 -0.1215 -0.2527 -0.3873
   92MPD2     H 1436   0.460   3.274  16.619  0.6005  2.1623  0.9780
   92MPD2    H1 1437   0.552   3.158  17.018  0.4557  0.7517 -1.0827
   92MPD2    H2 1438   0.212   3.009  16.809 -0.1714  1.8767  1.2815
   92MPD2    H3 1439   0.338   3.031  17.017 -0.4990 -3.3828 -2.4918
   92MPD2     N 1440   0.631   3.325  16.824  0.0789 -0.3565 -0.8707
   92MPD2    H5 1441   0.648   3.367  16.733  1.3559  0.3412 -0.3076
   92MPD2    N1 1442   0.234   3.167  16.593  0.0798  0.3883  0.5062
   92MPD2    H7 1443   0.267   3.233  16.523  2.4103  0.7056  1.8943
   93TMC2    C1 1444   1.785   2.956  13.989  0.6932 -0.0445 -0.2558
   93TMC2    C2 1445   1.701   2.990  14.090 -0.4907  0.3286  0.4724
   93TMC2    C3 1446   1.746   3.079  14.187 -0.2232  0.5909 -0.5419
   93TMC2    C4 1447   1.908   3.013  13.984  0.2711 -0.4183  0.3608
   93TMC2    C5 1448   1.942   3.113  14.069 -0.5304 -0.0154 -0.0652
   93TMC2    C6 1449   1.862   3.149  14.175  0.2388  0.1737 -0.7856
   93TMC2     C 1450   1.750   2.852  13.896 -1.0013 -0.0002  0.4296
   93TMC2     O 1451   1.842   2.795  13.840  0.7463  0.7063  0.2672
   93TMC2     H 1452   1.606   2.939  14.100 -0.9499  1.4529  1.8895
   93TMC2    H1 1453   1.974   2.978  13.905  2.1266  1.0558  1.2556
   93TMC2    H2 1454   1.900   3.209  14.257 -1.4595 -0.5889  0.5702
   93TMC2    C7 1455   2.064   3.185  14.041  0.1872 -0.2047  0.0301
   93TMC2    C8 1456   1.653   3.115  14.293 -0.3803  0.5309 -0.2582
   93TMC2    O1 1457   2.151   3.130  13.978 -0.0816 -0.1924 -0.4403
   93TMC2    O2 1458   1.565   3.036  14.333 -0.2954  0.7593  0.0186
   93TMC2    O5 1459   1.653   3.247  14.315  0.5008  0.3996  0.5567
   93TMC2    H5 1460   1.705   3.289  14.243 -1.1430 -0.2977 -1.0362
   94MPD2     C 1461   1.640   2.662  13.693 -0.1324 -0.6576 -1.2509
   94MPD2    C1 1462   1.570   2.773  13.750  0.6648 -0.3750  0.3544
   94MPD2    C2 1463   1.450   2.817  13.692  0.2787  0.3504  0.5514
   94MPD2    C3 1464   1.411   2.772  13.568 -0.0517 -0.1526  0.0783
   94MPD2    C4 1465   1.467   2.660  13.519 -0.8517  0.0018 -0.0334
   94MPD2    C5 1466   1.579   2.608  13.582  0.0381  0.5355 -0.1466
   94MPD2     H 1467   1.404   2.906  13.733 -0.8707 -0.4432  0.9641
   94MPD2    H1 1468   1.424   2.620  13.428  0.2462  1.6723 -1.2922
   94MPD2    H2 1469   1.743   2.630  13.706  0.5620  0.7696 -3.2133
   94MPD2    H3 1470   1.633   2.524  13.539 -0.4500  1.7326 -3.1241
   94MPD2     N 1471   1.309   2.838  13.495  0.2336  0.2801 -0.0761
   94MPD2    H5 1472   1.303   2.813  13.397  0.5685 -1.2721  0.2940
   94MPD2    N1 1473   1.620   2.853  13.857  0.0876 -0.6758 -0.6901
   94MPD2    H7 1474   1.564   2.931  13.890  1.5608  0.1714 -0.1494
   95TMC2    C1 1475   1.716   1.439  15.773 -0.0013 -1.2270 -1.2789
   95TMC2    C2 1476   1.703   1.384  15.901  0.9935  0.0512 -0.4689
   95TMC2    C3 1477   1.627   1.441  15.995 -0.4803 -0.1974 -0.5006
   95TMC2    C4 1478   1.659   1.560  15.742  0.0600  0.0987 -0.0645
   95TMC2    C5 1479   1.576   1.612  15.844  0.3786  0.0397 -0.0880
   95TMC2    C6 1480   1.564   1.555  15.967 -0.5370 -0.0651  0.1674
   95TMC2     C 1481   1.805   1.372  15.677  0.5954  0.2949 -0.1181
   95TMC2     O 1482   1.880   1.281  15.717 -0.1564 -0.5333  0.4915
   95TMC2     H 1483   1.754   1.291  15.923  4.3770  2.4683  1.7427
   95TMC2    H1 1484   1.690   1.625  15.662  0.2271  1.3942  1.0459
   95TMC2    H2 1485   1.496   1.589  16.045 -1.8441  0.5280 -1.2225
   95TMC2    C7 1486   1.527   1.748  15.829  0.2622  0.7809  0.1918
   95TMC2    C8 1487   1.607   1.373  16.126  0.5815 -0.1813  0.0957
   95TMC2    O1 1488   1.487   1.800  15.929  0.3610  0.2141  0.0546
   95TMC2    O2 1489   1.618   1.251  16.140  0.5247  0.5843  0.4935
   95TMC2    O5 1490   1.620   1.460  16.226 -0.4189  0.5696  0.2282
   95TMC2    H5 1491   1.641   1.551  16.197 -1.9288  0.5209 -1.0221
   96MPD2     C 1492   1.932   1.304  15.187 -0.0170 -0.9829  0.3912
   96MPD2    C1 1493   2.005   1.276  15.300  0.2295 -0.1434 -0.0641
   96MPD2    C2 1494   1.951   1.310  15.420  0.5028 -0.4643 -0.8482
   96MPD2    C3 1495   1.832   1.381  15.428 -0.8091  0.2046  0.1140
   96MPD2    C4 1496   1.769   1.417  15.307 -0.3701  0.3489 -0.8083
   96MPD2    C5 1497   1.812   1.377  15.186  0.2131 -0.1210  1.0754
   96MPD2     H 1498   2.003   1.280  15.511 -3.4844 -0.5520  1.3815
   96MPD2    H1 1499   1.679   1.477  15.314  1.4477  2.6719  2.2336
   96MPD2    H2 1500   1.965   1.269  15.089  0.5750  0.5448  0.0571
   96MPD2    H3 1501   1.769   1.407  15.091 -2.1849 -2.2858  1.4769
   96MPD2     N 1502   1.772   1.414  15.554 -0.1469  0.1582 -0.4837
   96MPD2    H5 1503   1.683   1.462  15.551  0.0973  0.6435 -0.0702
   96MPD2    N1 1504   2.128   1.204  15.294 -0.0516  0.4174 -0.5079
   96MPD2    H7 1505   2.157   1.189  15.198  0.3010 -1.4253 -0.1015
   97TMC2    C1 1506   3.910   3.369  17.725  0.3283  1.1475 -0.6278
   97TMC2    C2 1507   3.835   3.338  17.621  0.1740  0.0264  0.0009
   97TMC2    C3 1508   3.838   3.408  17.504 -0.8231 -0.0651  0.1522
   97TMC2    C4 1509   3.995   3.471  17.724  0.4397  1.0843  0.3934
   97TMC2    C5 1510   3.976   3.564  17.627  0.1138 -0.2224  0.8987
   97TMC2    C6 1511   3.900   3.537  17.512 -0.2307  0.7174  0.6597
   97TMC2     C 1512   3.893   3.284   0.098  0.1364 -0.5876 -0.5578
   97TMC2     O 1513   3.789   3.219   0.106  0.4995  0.1906 -0.7910
   97TMC2     H 1514   3.769   3.253  17.639 -0.5648  0.5267 -0.3582
   97TMC2    H1 1515   4.074   3.482   0.048  1.1089  0.0878 -0.1689
   97TMC2    H2 1516   3.889   3.606  17.429 -0.3080  1.1064  0.9935
   97TMC2    C7 1517   4.064   3.678  17.637 -0.2098 -0.2976 -0.3563
   97TMC2    C8 1518   3.780   3.349  17.386  0.3379  0.4679 -0.3824
   97TMC2    O1 1519   4.123   3.699  17.740 -0.3762  0.2036 -0.0888
   97TMC2    O2 1520   3.691   3.266  17.393  0.5645  1.1486 -0.4152
   97TMC2    O5 1521   3.830   3.393  17.278 -0.5395 -0.2812 -0.1165
   97TMC2    H5 1522   3.902   3.460  17.285 -0.0413 -0.7576 -0.6338
   98MPD2     C 1523   4.063   3.162   0.565 -0.2348  0.1864 -0.5658
   98MPD2    C1 1524   3.948   3.112   0.505 -0.0338 -0.3417 -0.3463
   98MPD2    C2 1525   3.926   3.152   0.372 -0.0533  0.1747  0.6354
   98MPD2    C3 1526   4.016   3.229   0.307  0.5873 -0.1306  0.3495
   98MPD2    C4 1527   4.131   3.276   0.370 -0.4983 -0.1530 -0.9499
   98MPD2    C5 1528   4.150   3.237   0.499 -0.2637 -0.5352  0.4542
   98MPD2     H 1529   3.844   3.111   0.313  0.4869  1.6653 -1.1327
   98MPD2    H1 1530   4.206   3.341   0.326 -1.4006 -0.1752 -2.5097
   98MPD2    H2 1531   4.093   3.126   0.662  0.1844  0.2731 -0.6658
   98MPD2    H3 1532   4.245   3.260   0.546  0.5053 -1.5649 -0.6220
   98MPD2     N 1533   4.000   3.286   0.179  0.5736  0.1193  0.2026
   98MPD2    H5 1534   4.075   3.346   0.145 -0.5450  2.5105  2.0010
   98MPD2    N1 1535   3.868   3.017   0.576 -0.1585  0.2331  0.8275
   98MPD2    H7 1536   3.863   3.017   0.677 -0.7649  1.6246  0.8086
   99TMC2    C1 1537   2.947   4.456   1.866 -0.0130 -0.3238  0.1286
   99TMC2    C2 1538   3.033   4.404   1.962  0.0163 -0.4279 -0.1091
   99TMC2    C3 1539   2.975   4.356   2.083 -0.2314  0.4804  0.3802
   99TMC2    C4 1540   2.810   4.440   1.878 -0.5944  0.9246  0.2510
   99TMC2    C5 1541   2.765   4.383   1.992 -0.1465 -0.3369 -0.6490
   99TMC2    C6 1542   2.844   4.352   2.102  0.3020 -0.4850  0.0480
   99TMC2     C 1543   3.010   4.488   1.740 -0.4395  0.2703 -0.2113
   99TMC2     O 1544   3.126   4.525   1.756  0.2567  0.2582 -0.2265
   99TMC2     H 1545   3.140   4.412   1.949  0.0757  0.5816  0.9956
   99TMC2    H1 1546   2.736   4.478   1.809 -0.5134  2.0270  0.7689
   99TMC2    H2 1547   2.806   4.330   2.201  0.1200  0.0316  0.0972
   99TMC2    C7 1548   2.622   4.343   2.006 -0.3908  0.2254  0.8201
   99TMC2    C8 1549   3.071   4.301   2.180 -0.1850 -0.6020  0.1734
   99TMC2    O1 1550   2.588   4.321   2.121 -0.0356 -0.0769  0.3904
   99TMC2    O2 1551   3.185   4.334   2.203 -0.1990  0.2395 -0.3289
   99TMC2    O5 1552   3.020   4.190   2.228  0.5800  0.6655  0.3099
   99TMC2    H5 1553   2.945   4.150   2.178  1.6645  0.7486 -1.3736
  100MPD2     C 1554   3.062   4.647   1.501  0.8696 -1.0145  0.5135
  100MPD2    C1 1555   2.947   4.564   1.518 -1.0804 -0.7138 -0.5339
  100MPD2    C2 1556   2.848   4.569   1.423 -0.5585  0.4635  0.1090
  100MPD2    C3 1557   2.845   4.654   1.321  0.2454  0.4904 -0.6210
  100MPD2    C4 1558   2.957   4.735   1.306  0.0838 -0.5220 -0.9221
  100MPD2    C5 1559   3.060   4.734   1.389  0.1874 -0.2673  0.1468
  100MPD2     H 1560   2.760   4.512   1.448  1.3499 -2.2237  0.6943
  100MPD2    H1 1561   2.978   0.067   1.226 -1.8312 -1.6035 -2.3894
  100MPD2    H2 1562   3.139   4.657   1.576  1.1513 -0.5233  0.1573
  100MPD2    H3 1563   3.143   0.067   1.389 -1.9651  2.2589 -2.0529
  100MPD2     N 1564   2.728   4.655   1.235 -0.6312 -0.3538 -0.3335
  100MPD2    H5 1565   2.652   4.589   1.249  0.4428 -2.3082 -3.5700
  100MPD2    N1 1566   2.922   4.494   1.636  0.1189  0.3062  0.2998
  100MPD2    H7 1567   2.847   4.426   1.640  0.9808 -0.6761  0.0796
  101TMC2    C1 1568   3.651   1.550  12.783 -0.1773  0.3324  0.1909
  101TMC2    C2 1569   3.563   1.561  12.675 -0.2337  0.0770  0.4394
  101TMC2    C3 1570   3.589   1.668  12.588  0.0084 -0.3269 -0.4703
  101TMC2    C4 1571   3.756   1.636  12.809  0.2996  0.0520 -0.1887
  101TMC2    C5 1572   3.773   1.741  12.720 -0.0738  0.1939  0.5006
  101TMC2    C6 1573   3.690   1.754  12.605 -0.2625 -0.0999 -0.3235
  101TMC2     C 1574   3.649   1.413  12.837  0.4108  0.0348  0.4709
  101TMC2     O 1575   3.539   1.373  12.879  0.2504 -0.7177 -0.3960
  101TMC2     H 1576   3.474   1.500  12.671 -2.0337  2.4609  3.2947
  101TMC2    H1 1577   3.819   1.629  12.897 -0.7874  3.4953  0.8434
  101TMC2    H2 1578   3.692   1.841  12.541 -1.1326 -0.4766 -0.8552
  101TMC2    C7 1579   3.884   1.820  12.713 -0.3614  0.1945  0.3074
  101TMC2    C8 1580   3.485   1.708  12.487 -0.0880 -0.5348  0.1810
  101TMC2    O1 1581   3.884   1.918  12.635 -0.0152 -0.1044 -0.3029
  101TMC2    O2 1582   3.486   1.819  12.432  0.7092  0.2616 -0.0207
  101TMC2    O5 1583   3.465   1.590  12.425  0.1299  0.2075 -0.1318
  101TMC2    H5 1584   3.507   1.514  12.470 -1.2473  1.1123  2.6622
  102MPD2     C 1585   3.934   1.173  12.857  0.1281 -0.2136 -0.5180
  102MPD2    C1 1586   3.804   1.222  12.875  0.1247  0.1559  0.0959
  102MPD2    C2 1587   3.702   1.132  12.893  0.1140  0.4105 -0.0267
  102MPD2    C3 1588   3.725   0.995  12.897 -0.2113  0.2965  0.1540
  102MPD2    C4 1589   3.859   0.951  12.878 -0.1169  0.2451 -0.2825
  102MPD2    C5 1590   3.960   1.041  12.862 -0.4445 -0.4530  0.7381
  102MPD2     H 1591   3.598   1.161  12.906  0.4903  0.9489  1.8087
  102MPD2    H1 1592   3.883   0.845  12.867  0.6221  0.1903  1.9042
  102MPD2    H2 1593   4.008   1.250  12.838 -0.9402  0.6786 -1.0918
  102MPD2    H3 1594   4.065   1.019  12.848 -0.6190 -0.9212  0.1244
  102MPD2     N 1595   3.615   0.912  12.926  0.1527  0.2007  0.0152
  102MPD2    H5 1596   3.524   0.951  12.948 -0.6653 -0.6307 -1.8549
  102MPD2    N1 1597   3.777   1.356  12.858 -0.5739 -0.0773 -0.1521
  102MPD2    H7 1598   3.857   1.411  12.831  0.4406 -0.2560  2.4936
  103TMC2    C1 1599   1.624   1.299  13.109  0.2149  0.0726  0.7570
  103TMC2    C2 1600   1.597   1.437  13.101 -0.4295 -0.1014  0.5875
  103TMC2    C3 1601   1.584   1.500  13.222 -1.1170 -0.1597  0.1095
  103TMC2    C4 1602   1.607   1.231  13.231 -0.0960  0.6698  0.2518
  103TMC2    C5 1603   1.588   1.304  13.348 -0.1991  0.3470  0.6665
  103TMC2    C6 1604   1.591   1.438  13.345 -0.2965 -0.2876 -0.0768
  103TMC2     C 1605   1.667   1.238  12.987 -0.2937 -0.4828 -0.5402
  103TMC2     O 1606   1.652   1.300  12.883  0.1356  0.0760  0.1260
  103TMC2     H 1607   1.594   1.485  13.004  1.3411 -2.4400 -0.6258
  103TMC2    H1 1608   1.630   1.125  13.230 -5.0781 -0.4002 -0.3679
  103TMC2    H2 1609   1.559   1.488  13.435  1.6136  0.6675  0.0856
  103TMC2    C7 1610   1.647   1.251  13.460  0.0556  0.3321 -0.0957
  103TMC2    C8 1611   1.554   1.638  13.216  0.4968  0.1019  0.4534
  103TMC2    O1 1612   1.703   1.333  13.532  0.4205 -0.0948 -0.1168
  103TMC2    O2 1613   1.482   1.697  13.295 -0.3188  0.1101 -0.0694
  103TMC2    O5 1614   1.645   1.698  13.139 -1.0510  0.3762 -0.1484
  103TMC2    H5 1615   1.722   1.640  13.116 -2.0014  0.2450 -2.9224
  104MPD2     C 1616   1.954   1.017  12.959  0.0329 -0.1335  0.5669
  104MPD2    C1 1617   1.831   1.075  12.922 -0.4329 -0.1000 -0.0023
  104MPD2    C2 1618   1.793   1.057  12.791 -0.2999  0.8342 -0.0170
  104MPD2    C3 1619   1.870   0.982  12.699  0.0859 -0.2487  0.5976
  104MPD2    C4 1620   1.996   0.937  12.737  0.2526  0.1592  0.2792
  104MPD2    C5 1621   2.037   0.950  12.868  0.1111 -0.0105 -1.3478
  104MPD2     H 1622   1.709   1.111  12.748 -1.4460 -0.6323  0.4056
  104MPD2    H1 1623   2.062   0.882  12.670 -0.9907  0.5887 -1.2955
  104MPD2    H2 1624   1.987   1.033  13.061 -0.3982  0.1714  0.6595
  104MPD2    H3 1625   2.133   0.907  12.893 -1.5815 -1.1149  3.1893
  104MPD2     N 1626   1.803   0.955  12.579 -0.2347  0.0532 -0.1971
  104MPD2    H5 1627   1.714   1.001  12.565  0.0284  1.0306  1.3613
  104MPD2    N1 1628   1.763   1.148  13.020  0.2360  0.6622 -0.0200
  104MPD2    H7 1629   1.798   1.136  13.115  0.3616 -0.4987 -0.2148
  105TMC2    C1 1630   2.431   0.181  17.693 -0.4917 -0.3090 -0.4327
  105TMC2    C2 1631   2.439   0.320  17.691 -0.7275  0.1683  0.3797
  105TMC2    C3 1632   2.340   0.385   0.006  0.3869 -0.3343 -0.2563
  105TMC2    C4 1633   2.317   0.111  17.741 -0.4970 -0.4278  0.2660
  105TMC2    C5 1634   2.217   0.193   0.037 -0.1814 -0.4184  0.5987
  105TMC2    C6 1635   2.226   0.331   0.053 -0.2137  0.1901  0.1519
  105TMC2     C 1636   2.533   0.105  17.626  0.8557  0.3474 -0.4294
  105TMC2     O 1637   2.542   4.732  17.668  0.5748  0.2525 -0.4529
  105TMC2     H 1638   2.522   0.384  17.664 -1.7140  0.2057 -2.5155
  105TMC2    H1 1639   2.309   0.003  17.739 -1.7858 -0.3646  1.6479
  105TMC2    H2 1640   2.162   0.390   0.117  1.8622  1.6313  0.8905
  105TMC2    C7 1641   2.106   0.123   0.091 -0.1756 -0.1307  0.5830
  105TMC2    C8 1642   2.349   0.527   0.029  0.2271 -0.0946 -0.4460
  105TMC2    O1 1643   2.076   0.019   0.039  0.3776  0.5190 -0.3844
  105TMC2    O2 1644   2.322   0.594   0.125 -0.2380  0.0650 -0.4777
  105TMC2    O5 1645   2.362   0.581  17.654 -0.5351  0.1660 -0.3693
  105TMC2    H5 1646   2.358   0.514  17.583 -0.8501 -1.3639  1.0790
  106MPD2     C 1647   2.802   4.732  17.192 -0.2325 -0.2518  0.3466
  106MPD2    C1 1648   2.813   0.128  17.223  0.4627 -0.1364 -0.5673
  106MPD2    C2 1649   2.751   0.182  17.339  0.1313 -0.3092  1.0019
  106MPD2    C3 1650   2.683   0.103  17.429 -0.3354 -0.6160  0.4838
  106MPD2    C4 1651   2.698   4.707  17.409 -0.4047  0.6992 -0.7152
  106MPD2    C5 1652   2.756   4.656  17.296 -0.2332 -0.5681 -0.2611
  106MPD2     H 1653   2.749   0.290  17.348 -1.0843 -0.1585 -1.2084
  106MPD2    H1 1654   2.644   4.636  17.471  1.3917  0.7825  0.9511
  106MPD2    H2 1655   2.866   4.698  17.112  0.0267 -1.3526  1.0226
  106MPD2    H3 1656   2.749   4.548  17.293 -0.0815 -0.5518 -1.1332
  106MPD2     N 1657   2.606   0.168  17.527  0.0178  0.0047 -0.5658
  106MPD2    H5 1658   2.593   0.268  17.513  1.8746  0.5432  1.6534
  106MPD2    N1 1659   2.884   0.221  17.142  0.0905 -0.3379 -0.0271
  106MPD2    H7 1660   2.872   0.315  17.178  1.3919 -0.0303 -0.4144
  107TMC2    C1 1661   3.150   0.248  11.484  0.0868 -0.6498  0.3581
  107TMC2    C2 1662   3.102   0.283  11.361  0.3660 -0.1136  0.4121
  107TMC2    C3 1663   3.169   0.262  11.244  0.0117  0.3424 -0.1824
  107TMC2    C4 1664   3.275   0.199  11.493 -0.3865 -0.1796  0.3070
  107TMC2    C5 1665   3.350   0.176  11.380  0.2409  0.2474  0.6734
  107TMC2    C6 1666   3.301   0.218  11.258 -0.1661  1.1336 -0.3402
  107TMC2     C 1667   3.051   0.204  11.583  1.1994  0.1262 -0.6050
  107TMC2     O 1668   3.090   0.125  11.666  0.2388 -0.2671 -0.1118
  107TMC2     H 1669   3.000   0.318  11.351 -0.5708 -2.6030  1.3115
  107TMC2    H1 1670   3.326   0.161  11.581  1.2376  0.6734 -0.2505
  107TMC2    H2 1671   3.356   0.210  11.165 -1.9364  0.6228 -1.3558
  107TMC2    C7 1672   3.489   0.155  11.401 -0.0083  0.0785  0.0383
  107TMC2    C8 1673   3.158   0.366  11.142  0.7764  0.4474 -0.0020
  107TMC2    O1 1674   3.530   0.197  11.509  0.4004  0.1232 -0.1242
  107TMC2    O2 1675   3.252   0.424  11.091 -0.1888 -0.7409  0.2389
  107TMC2    O5 1676   3.036   0.344  11.081 -0.0305 -0.5567 -0.0396
  107TMC2    H5 1677   2.971   0.296  11.136  0.3609  2.6236  3.1969
  108MPD2     C 1678   2.698   0.307  11.567 -0.8282  0.2593  0.3983
  108MPD2    C1 1679   2.802   0.236  11.623 -0.1754  0.3873  0.2837
  108MPD2    C2 1680   2.780   0.140  11.725 -0.1198 -0.1904 -0.9974
  108MPD2    C3 1681   2.655   0.115  11.772 -0.0588 -0.1071  0.2361
  108MPD2    C4 1682   2.548   0.181  11.703  0.2065  0.0120  0.2099
  108MPD2    C5 1683   2.573   0.283  11.613 -0.8955 -0.0214 -0.5127
  108MPD2     H 1684   2.863   0.090  11.774 -1.4743 -0.5665  0.9185
  108MPD2    H1 1685   2.443   0.170  11.728 -0.3563  0.3618 -1.9930
  108MPD2    H2 1686   2.701   0.393  11.501  0.2780  0.3279  0.5325
  108MPD2    H3 1687   2.493   0.337  11.564  0.6553  1.1267 -1.7649
  108MPD2     N 1688   2.634   0.029  11.883 -0.1931  0.1108 -0.4625
  108MPD2    H5 1689   2.536   0.009  11.899 -0.6900  1.8071 -1.3364
  108MPD2    N1 1690   2.924   0.258  11.558  0.2183 -0.0853 -0.1809
  108MPD2    H7 1691   2.921   0.330  11.487 -0.1876 -1.2490 -1.3456
  109TMC2    C1 1692   2.849   2.072   0.154 -0.0024  0.6861 -0.2907
  109TMC2    C2 1693   2.760   2.165   0.111 -0.1487 -0.2295 -0.0026
  109TMC2    C3 1694   2.770   2.299   0.133  0.5125  0.6250  0.2637
  109TMC2    C4 1695   2.970   2.113   0.213 -0.2620 -0.1093  0.2781
  109TMC2    C5 1696   2.984   2.249   0.230  0.2164 -0.2793 -1.0774
  109TMC2    C6 1697   2.893   2.343   0.177  0.6937  0.3985 -0.2816
  109TMC2     C 1698   2.806   1.937   0.154 -0.5378  0.7250  0.3620
  109TMC2     O 1699   2.735   1.904   0.061  0.2208  0.2219  0.4628
  109TMC2     H 1700   2.672   2.124   0.065 -0.0807 -1.5470  1.0444
  109TMC2    H1 1701   3.036   2.037   0.252  1.0895 -1.0629 -3.8458
  109TMC2    H2 1702   2.917   2.448   0.190  0.3691  0.5517 -0.9199
  109TMC2    C7 1703   3.104   2.311   0.297  0.0052  0.3698  0.1268
  109TMC2    C8 1704   2.674   2.385   0.073 -0.2729 -0.4113  0.1637
  109TMC2    O1 1705   3.100   2.429   0.329  0.1077 -0.1604 -0.1718
  109TMC2    O2 1706   2.564   2.339   0.042  0.0902  0.1655  0.3730
  109TMC2    O5 1707   2.735   2.478  17.748 -0.3183  0.2836 -0.0690
  109TMC2    H5 1708   2.805   2.531   0.042 -0.6670  0.5286  0.1919
  110MPD2     C 1709   2.737   1.486   0.394 -0.1174  0.6837  0.4473
  110MPD2    C1 1710   2.811   1.571   0.475 -0.3789 -0.2859 -0.3654
  110MPD2    C2 1711   2.843   1.695   0.425 -0.1889 -0.1222  0.6931
  110MPD2    C3 1712   2.801   1.741   0.297 -0.7188 -0.6081 -0.0141
  110MPD2    C4 1713   2.728   1.657   0.217  0.6111 -0.1108  0.6732
  110MPD2    C5 1714   2.692   1.535   0.275 -0.2417 -0.2170 -0.5259
  110MPD2     H 1715   2.904   1.756   0.490  1.7786 -2.0236  0.6260
  110MPD2    H1 1716   2.693   1.679   0.116 -1.2047 -0.4693  1.2197
  110MPD2    H2 1717   2.709   1.387   0.427 -3.3432  1.2344 -0.5682
  110MPD2    H3 1718   2.620   1.472   0.225 -2.0296  0.0197  1.7294
  110MPD2     N 1719   2.850   1.868   0.265 -0.3765 -0.1709 -0.2951
  110MPD2    H5 1720   2.890   1.922   0.341  1.2714  0.6168 -1.7114
  110MPD2    N1 1721   2.846   1.522   0.603  0.2945  0.6292 -0.0475
  110MPD2    H7 1722   2.795   1.441   0.637 -0.2435  1.2524  0.6374
  111TMC2    C1 1723   3.576   2.433  11.634 -0.1331  1.0930  0.7297
  111TMC2    C2 1724   3.491   2.474  11.735 -0.1584 -0.3443  1.0467
  111TMC2    C3 1725   3.555   2.540  11.838  0.2704  0.3109  0.2810
  111TMC2    C4 1726   3.711   2.444  11.642 -0.3321  0.0935  0.5962
  111TMC2    C5 1727   3.768   2.483  11.763  0.4782  0.3820  0.1438
  111TMC2    C6 1728   3.690   2.536  11.860  0.0167 -0.4906 -0.1398
  111TMC2     C 1729   3.531   2.355  11.525 -0.2124 -0.4341  0.0567
  111TMC2     O 1730   3.587   2.372  11.417 -0.3452 -0.1933 -0.0096
  111TMC2     H 1731   3.383   2.482  11.729 -0.0337 -0.4788 -1.2478
  111TMC2    H1 1732   3.767   2.377  11.578  0.5773  1.2279  0.2063
  111TMC2    H2 1733   3.735   2.576  11.951  0.5544 -0.6833 -0.3187
  111TMC2    C7 1734   3.908   2.461  11.793 -0.7484  0.1865  0.7158
  111TMC2    C8 1735   3.467   2.617  11.919 -0.0825 -0.2062 -0.1764
  111TMC2    O1 1736   3.944   2.471  11.909 -0.3534 -0.0725  0.1585
  111TMC2    O2 1737   3.359   2.580  11.960  0.7198 -0.5850  0.2387
  111TMC2    O5 1738   3.541   2.729  11.967  0.4350 -0.9046  0.4230
  111TMC2    H5 1739   3.609   2.756  11.902 -0.3918  1.0098  0.3467
  112MPD2     C 1740   3.219   1.998  11.317 -0.3084 -0.0848  0.0099
  112MPD2    C1 1741   3.290   2.102  11.252 -0.7925  0.0756  0.0043
  112MPD2    C2 1742   3.357   2.199  11.330  0.6629  0.2772  0.1626
  112MPD2    C3 1743   3.342   2.203  11.472 -0.3549 -0.5160 -0.5517
  112MPD2    C4 1744   3.254   2.113  11.526 -0.3528 -0.2703 -0.2187
  112MPD2    C5 1745   3.196   2.014  11.451  0.0931 -0.1200 -0.0894
  112MPD2     H 1746   3.426   2.269  11.285 -0.7249  0.3226 -1.8699
  112MPD2    H1 1747   3.235   2.108  11.633 -1.7990  2.5862 -0.3553
  112MPD2    H2 1748   3.167   1.918  11.265  0.7645 -0.9994  0.3390
  112MPD2    H3 1749   3.142   1.934  11.500  0.6436 -1.0376 -0.9857
  112MPD2     N 1750   3.412   2.285  11.560 -0.0883 -0.5915  0.4448
  112MPD2    H5 1751   3.383   2.292  11.657  1.6187  0.1412  0.9132
  112MPD2    N1 1752   3.314   2.094  11.115 -0.5430 -0.1322  0.4530
  112MPD2    H7 1753   3.381   2.165  11.087 -1.0283 -0.2842 -1.1247
  113TMC2    C1 1754   1.309   4.307   0.135 -0.1328  0.1984  0.9839
  113TMC2    C2 1755   1.310   4.360   0.009  0.6838 -0.0228  0.3570
  113TMC2    C3 1756   1.284   4.274  17.658  0.1806  0.5178  0.5912
  113TMC2    C4 1757   1.272   4.179   0.157 -0.1853  0.6300  0.2619
  113TMC2    C5 1758   1.233   4.106   0.046  0.5772 -0.5169  1.1617
  113TMC2    C6 1759   1.244   4.149  17.671  0.1059  0.5271  0.0403
  113TMC2     C 1760   1.405   4.358   0.235  0.2555  0.1908  0.1078
  113TMC2     O 1761   1.383   4.334   0.353  0.1011  0.6115  0.3377
  113TMC2     H 1762   1.366   4.450  17.737 -1.1688  0.4916 -2.1736
  113TMC2    H1 1763   1.299   4.138   0.254 -2.9572  1.1927  1.2644
  113TMC2    H2 1764   1.248   4.083  17.585  2.0418  0.1185  0.4560
  113TMC2    C7 1765   1.214   3.962   0.053  0.6686  0.4774  0.3148
  113TMC2    C8 1766   1.314   4.309  17.520 -0.0232  0.1122 -0.3166
  113TMC2    O1 1767   1.204   3.901  17.700 -0.1801  0.2841  0.1470
  113TMC2    O2 1768   1.316   4.223  17.429 -0.1708  0.0808 -0.4651
  113TMC2    O5 1769   1.319   4.443  17.506  0.0721 -0.1516 -0.1653
  113TMC2    H5 1770   1.308   4.500  17.584 -1.0878 -0.7565  0.1196
  114MPD2     C 1771   1.859   4.563   0.365 -0.6644 -0.3881  0.0219
  114MPD2    C1 1772   1.742   4.563   0.435  0.1988 -0.4187  0.1847
  114MPD2    C2 1773   1.629   4.501   0.376  0.0979  0.4235  0.2179
  114MPD2    C3 1774   1.629   4.462   0.245 -0.2034 -0.1536  0.2667
  114MPD2    C4 1775   1.752   4.465   0.181 -0.3182 -0.0162 -0.1520
  114MPD2    C5 1776   1.866   4.513   0.240  0.0587 -0.2868 -0.4413
  114MPD2     H 1777   1.537   4.499   0.432 -0.7246 -0.6793 -1.1534
  114MPD2    H1 1778   1.765   4.425   0.081  1.0492  0.0919 -0.0236
  114MPD2    H2 1779   1.953   4.594   0.410 -1.0563  1.6761 -0.5899
  114MPD2    H3 1780   1.959   4.499   0.185  0.6604  2.7863 -0.2122
  114MPD2     N 1781   1.519   4.406   0.175  0.8288 -0.0586 -0.1427
  114MPD2    H5 1782   1.535   4.411   0.075 -1.3391 -0.9710 -0.5496
  114MPD2    N1 1783   1.729   4.613   0.564 -0.1799 -0.6935  0.2321
  114MPD2    H7 1784   1.638   4.615   0.611 -0.5670  0.6953 -0.5818
  115TMC2    C1 1785   2.546   2.122  17.506 -0.0217 -0.2937 -0.0374
  115TMC2    C2 1786   2.674   2.067  17.504  0.2054  0.5446  0.5512
  115TMC2    C3 1787   2.772   2.156  17.477  0.2859 -0.0861  0.0596
  115TMC2    C4 1788   2.518   2.255  17.485  0.0179  0.0436  0.1756
  115TMC2    C5 1789   2.623   2.340  17.462  0.1166  0.6842  0.5065
  115TMC2    C6 1790   2.754   2.291  17.461 -0.3766  0.2968 -0.5304
  115TMC2     C 1791   2.446   2.022  17.523  0.1619 -0.0108  0.0131
  115TMC2     O 1792   2.466   1.911  17.472  0.2575  0.0202 -0.6446
  115TMC2     H 1793   2.678   1.963  17.535 -1.4994  1.2262  3.0800
  115TMC2    H1 1794   2.416   2.290  17.496 -0.1811 -1.0353  1.6823
  115TMC2    H2 1795   2.838   2.354  17.437 -0.6299  1.0030  0.4004
  115TMC2    C7 1796   2.581   2.479  17.448 -0.1088  0.9147 -0.1685
  115TMC2    C8 1797   2.906   2.111  17.512  0.4222 -0.0890 -0.5907
  115TMC2    O1 1798   2.461   2.502  17.467 -0.5946  0.1490  0.3459
  115TMC2    O2 1799   2.983   2.193  17.562  0.0480  0.1168 -0.2241
  115TMC2    O5 1800   2.902   1.983  17.536 -0.0957  0.4952 -0.1304
  115TMC2    H5 1801   2.849   1.936  17.468 -1.8375  0.8204  1.0040
  116MPD2     C 1802   1.951   1.887  17.587 -0.2295  0.5068  0.4810
  116MPD2    C1 1803   2.056   1.818  17.532 -0.2435 -0.7745 -0.0720
  116MPD2    C2 1804   2.181   1.868  17.533  0.3934 -0.1536 -0.6290
  116MPD2    C3 1805   2.204   1.995  17.584 -0.3574 -0.4187 -0.7513
  116MPD2    C4 1806   2.103   2.067  17.640  0.3191  0.3868  0.0812
  116MPD2    C5 1807   1.978   2.011  17.633 -0.5574 -0.6490  0.1305
  116MPD2     H 1808   2.266   1.813  17.495  2.4558  2.5785  0.0109
  116MPD2    H1 1809   2.117   2.172  17.660 -0.7797  0.8254 -1.4223
  116MPD2    H2 1810   1.855   1.837  17.588 -0.1591  0.3678  0.2958
  116MPD2    H3 1811   1.896   2.068  17.676 -1.0007 -1.0661 -0.1597
  116MPD2     N 1812   2.329   2.070  17.576  0.0803 -0.4912  0.7390
  116MPD2    H5 1813   2.331   2.161  17.620 -0.1677 -0.0087 -0.2521
  116MPD2    N1 1814   2.040   1.708  17.450  0.5969 -0.5366 -0.2011
  116MPD2    H7 1815   2.128   1.704  17.398  0.7116  0.7902 -0.1055
  117TMC2    C1 1816   1.185   3.521  13.802  0.1960  0.6484  0.1007
  117TMC2    C2 1817   1.256   3.472  13.688  0.1902  0.0712  0.8577
  117TMC2    C3 1818   1.314   3.565  13.607 -0.3386 -0.4913 -0.2184
  117TMC2    C4 1819   1.195   3.662  13.833  0.1106  0.1726  0.0365
  117TMC2    C5 1820   1.272   3.740  13.760  0.1149 -0.4636 -0.0418
  117TMC2    C6 1821   1.342   3.695  13.651  0.1862  0.1157  0.1758
  117TMC2     C 1822   1.101   3.423  13.864 -0.3250  0.1418  0.1952
  117TMC2     O 1823   1.134   3.306  13.867  0.1437  0.1211  0.5503
  117TMC2     H 1824   1.252   3.366  13.663 -1.8832  0.4160 -0.3411
  117TMC2    H1 1825   1.177   3.694  13.935  1.1453  2.1795 -0.4180
  117TMC2    H2 1826   1.400   3.759  13.586 -0.1502  0.9545  0.7111
  117TMC2    C7 1827   1.267   3.883  13.787  0.2960 -1.4633 -0.4916
  117TMC2    C8 1828   1.381   3.509  13.490  0.1759 -0.1838  0.1166
  117TMC2    O1 1829   1.359   3.956  13.763  0.5361  0.0622  0.2773
  117TMC2    O2 1830   1.487   3.535  13.437 -0.0606  0.0656 -0.0011
  117TMC2    O5 1831   1.277   3.439  13.435 -0.0527  0.2221  0.1016
  117TMC2    H5 1832   1.194   3.450  13.486 -0.3488 -0.7903 -0.1617
  118MPD2     C 1833   0.954   4.057  13.891 -0.1071 -0.6672 -0.6649
  118MPD2    C1 1834   1.086   4.050  13.840 -0.2638  0.4951 -0.0290
  118MPD2    C2 1835   1.141   4.171  13.792 -0.2265  0.0633 -0.4903
  118MPD2    C3 1836   1.068   4.289  13.795 -0.6506 -0.0881 -0.5371
  118MPD2    C4 1837   0.941   4.289  13.850  0.2853 -0.0191  0.3209
  118MPD2    C5 1838   0.885   4.174  13.895  0.7914  0.2533  0.4219
  118MPD2     H 1839   1.234   4.161  13.739 -0.9558  0.3012 -1.8099
  118MPD2    H1 1840   0.888   4.383  13.864 -0.3425 -0.0300 -1.9764
  118MPD2    H2 1841   0.888   3.975  13.915 -0.0317 -0.3167  0.7230
  118MPD2    H3 1842   0.785   4.179  13.937  0.9810 -0.6851  0.9925
  118MPD2     N 1843   1.118   4.420  13.760  0.5455  0.1421  0.0280
  118MPD2    H5 1844   1.055   4.499  13.765 -1.5457 -1.3484 -2.2225
  118MPD2    N1 1845   1.146   3.920  13.830 -0.0814 -0.3626 -0.0908
  118MPD2    H7 1846   1.073   3.849  13.837  0.3307 -0.8892 -1.0419
  119TMC2    C1 1847   4.338   0.178  13.621  0.1228  0.0117 -0.5149
  119TMC2    C2 1848   4.435   0.085  13.583 -0.1278 -0.1330  0.3360
  119TMC2    C3 1849   4.405   0.001  13.477  0.3210  0.1449 -0.4508
  119TMC2    C4 1850   4.224   0.180  13.557  0.1640  0.5707  0.0279
  119TMC2    C5 1851   4.195   0.099  13.449  0.3560 -0.5043 -0.3738
  119TMC2    C6 1852   4.286   0.007  13.406  0.7754  0.4089 -0.1776
  119TMC2     C 1853   4.365   0.292  13.712 -0.2721 -0.1129  0.6638
  119TMC2     O 1854   4.269   0.342  13.768 -0.0565  0.2164  0.1217
  119TMC2     H 1855   4.532   0.073  13.630  0.6986  3.3512 -0.5066
  119TMC2    H1 1856   4.153   0.254  13.593  1.2867  0.6271  2.1342
  119TMC2    H2 1857   4.256   4.685  13.321  2.7056  1.2513 -1.4510
  119TMC2    C7 1858   4.066   0.086  13.392 -0.4013 -0.2122  0.1059
  119TMC2    C8 1859   4.480   4.614  13.477 -0.6270 -0.1497  0.7056
  119TMC2    O1 1860   4.059   0.098  13.271  0.3749  0.2768  0.4670
  119TMC2    O2 1861   4.527   4.571  13.580 -0.0497  0.4357  0.3508
  119TMC2    O5 1862   4.419   4.533  13.392 -0.1142  0.3811 -0.4201
  119TMC2    H5 1863   4.415   4.571  13.302  2.7396 -1.1853 -1.1842
  120MPD2     C 1864   4.681   0.558  14.003 -0.2985 -0.4613  0.2184
  120MPD2    C1 1865   4.547   0.575  13.978 -0.2550  0.5013 -0.0289
  120MPD2    C2 1866   4.484   0.489  13.889  0.1877 -0.4679 -0.2133
  120MPD2    C3 1867   4.559   0.399  13.811 -0.6736 -0.4964 -0.1417
  120MPD2    C4 1868   4.696   0.391  13.820  0.2348 -0.3556  0.5416
  120MPD2    C5 1869   0.013   0.474  13.916  0.2676 -0.1311  0.7749
  120MPD2     H 1870   4.379   0.505  13.866  0.0926 -1.4147 -0.4579
  120MPD2    H1 1871   0.025   0.327  13.764 -1.1778  0.4314 -2.0183
  120MPD2    H2 1872   0.002   0.606  14.079  2.6277 -1.6692 -1.3017
  120MPD2    H3 1873   0.121   0.465  13.913  0.1770 -1.1284  0.5025
  120MPD2     N 1874   4.499   0.313  13.715 -0.5277  0.0558 -0.4131
  120MPD2    H5 1875   4.557   0.264  13.648 -0.5672 -0.4469 -0.0796
  120MPD2    N1 1876   4.488   0.671  14.066  0.8471  0.2754  0.3650
  120MPD2    H7 1877   4.547   0.729  14.124  0.7373  0.2981  0.4534
  121TMC2    C1 1878   1.057   2.239  14.044 -0.2940  0.1555 -0.0856
  121TMC2    C2 1879   1.081   2.253  14.179  0.6977  0.5193  0.3879
  121TMC2    C3 1880   0.982   2.216  14.266 -1.1242 -0.4111 -0.4077
  121TMC2    C4 1881   0.943   2.171  13.997  0.5460 -0.1304 -0.5153
  121TMC2    C5 1882   0.850   2.132  14.091  0.8082 -0.3269 -0.0036
  121TMC2    C6 1883   0.867   2.145  14.224  0.2933 -0.4478  0.0134
  121TMC2     C 1884   1.172   2.215  13.955 -0.3255  0.4634  0.1759
  121TMC2     O 1885   1.269   2.156  14.000 -0.8375 -0.3129 -0.6858
  121TMC2     H 1886   1.160   2.310  14.226 -0.0694  2.3745 -0.5660
  121TMC2    H1 1887   0.936   2.143  13.892  2.1036 -1.9166 -0.1566
  121TMC2    H2 1888   0.803   2.098  14.297 -1.7226 -0.2406 -1.6363
  121TMC2    C7 1889   0.753   2.034  14.037 -0.4889 -0.1025 -0.4675
  121TMC2    C8 1890   0.991   2.236  14.411 -0.4193  0.1386 -0.2723
  121TMC2    O1 1891   0.788   1.959  13.947  0.4053 -0.2716  0.7802
  121TMC2    O2 1892   0.887   2.239  14.471  0.2457 -0.0609 -0.1769
  121TMC2    O5 1893   1.116   2.207  14.454 -0.1814  0.0229  0.3297
  121TMC2    H5 1894   1.176   2.192  14.378 -1.5115 -3.2481 -0.0519
  122MPD2     C 1895   1.298   2.077  13.737  0.3814 -0.0735 -1.1139
  122MPD2    C1 1896   1.198   2.170  13.716  0.1849  0.5324  0.7613
  122MPD2    C2 1897   1.156   2.208  13.586  0.0168 -0.9233  0.0369
  122MPD2    C3 1898   1.227   2.153  13.480 -0.3961 -0.9444  0.0622
  122MPD2    C4 1899   1.329   2.066  13.503  0.6984  0.4153 -0.2508
  122MPD2    C5 1900   1.361   2.027  13.628 -0.1967  0.2526 -0.8050
  122MPD2     H 1901   1.070   2.273  13.574 -0.5943 -1.6314  0.5263
  122MPD2    H1 1902   1.371   2.025  13.412 -0.0708 -1.0678  0.0590
  122MPD2    H2 1903   1.336   2.033  13.829 -3.5115 -1.1054  0.0482
  122MPD2    H3 1904   1.449   1.965  13.634 -0.0973  0.1768 -3.2549
  122MPD2     N 1905   1.196   2.194  13.343 -0.5167  0.2927  0.3688
  122MPD2    H5 1906   1.259   2.154  13.274 -2.6147  1.4134 -2.2037
  122MPD2    N1 1907   1.136   2.237  13.824  0.3873 -0.2680 -0.5529
  122MPD2    H7 1908   1.053   2.294  13.813 -0.1109 -0.9520 -0.3400
  123TMC2    C1 1909   4.234   0.582  10.815  0.3278 -0.0925 -0.0907
  123TMC2    C2 1910   4.249   0.698  10.894  0.0428  0.3496  0.1621
  123TMC2    C3 1911   4.276   0.814  10.830 -0.3347  0.0169 -0.7832
  123TMC2    C4 1912   4.270   0.581  10.680  0.3349 -0.8058  0.8607
  123TMC2    C5 1913   4.299   0.699  10.620 -0.6593 -0.4629 -0.0517
  123TMC2    C6 1914   4.302   0.813  10.694  0.7166 -0.1458  0.1731
  123TMC2     C 1915   4.162   0.472  10.881 -0.0784  0.7190  0.6584
  123TMC2     O 1916   4.160   0.482  11.002  0.2663  0.3244  0.1655
  123TMC2     H 1917   4.235   0.692  11.001 -1.7784  0.8808 -0.0459
  123TMC2    H1 1918   4.285   0.488  10.626 -2.6312  0.6921 -2.5746
  123TMC2    H2 1919   4.331   0.904  10.643  0.3457 -0.9574 -1.4713
  123TMC2    C7 1920   4.286   0.702  10.473  0.1235  0.3469 -0.3161
  123TMC2    C8 1921   4.334   0.911  10.919  0.7312  0.3162  0.2257
  123TMC2    O1 1922   4.241   0.604  10.417 -0.3600  0.2440 -1.0022
  123TMC2    O2 1923   4.272   0.981  11.002  0.2832  0.2602  0.3873
  123TMC2    O5 1924   4.462   0.874  10.924  0.5562 -0.7314 -0.0332
  123TMC2    H5 1925   4.498   0.829  10.844  2.7832  3.3278 -1.2689
  124MPD2     C 1926   3.797   0.117  10.870  0.4398 -0.2822  0.1585
  124MPD2    C1 1927   3.851   0.123  10.741 -0.3621  0.9745  0.3913
  124MPD2    C2 1928   3.965   0.197  10.723  0.2804 -0.2268 -0.4948
  124MPD2    C3 1929   4.014   0.277  10.826  0.2503 -0.4652 -0.2612
  124MPD2    C4 1930   3.965   0.267  10.953 -0.8506  0.9799  0.4983
  124MPD2    C5 1931   3.859   0.188  10.974 -0.5596 -0.4473 -0.0595
  124MPD2     H 1932   4.015   0.216  10.628 -0.2605  0.4774 -0.6404
  124MPD2    H1 1933   4.017   0.318  11.033 -1.8308  2.2940  0.3003
  124MPD2    H2 1934   3.718   0.045  10.890 -0.9993  1.3459  0.3143
  124MPD2    H3 1935   3.830   0.170  11.077  2.6724 -1.0753  0.7402
  124MPD2     N 1936   4.110   0.378  10.792 -0.4040  0.1499 -1.0913
  124MPD2    H5 1937   4.132   0.394  10.695  1.4482 -1.9542 -1.0130
  124MPD2    N1 1938   3.793   0.051  10.638  0.1822  0.0021 -0.5702
  124MPD2    H7 1939   3.700   0.015  10.656  0.2439  0.2810  0.2641
  125TMC2    C1 1940   4.274   1.464   9.388  0.6453 -0.3126  0.4709
  125TMC2    C2 1941   4.150   1.504   9.437  0.8635  0.7574  0.8252
  125TMC2    C3 1942   4.153   1.614   9.514  0.7207  0.1674 -1.1057
  125TMC2    C4 1943   4.382   1.516   9.436 -0.0559 -0.5976  0.0405
  125TMC2    C5 1944   4.379   1.625   9.530 -0.0336  0.3547 -0.8890
  125TMC2    C6 1945   4.258   1.676   9.572  0.3427  0.1940 -0.0720
  125TMC2     C 1946   4.289   1.320   9.359 -0.2123  0.1812 -0.2206
  125TMC2     O 1947   4.401   1.267   9.349 -0.0499 -0.8923  0.0860
  125TMC2     H 1948   4.057   1.467   9.396  0.7601  2.1677 -0.2379
  125TMC2    H1 1949   4.478   1.470   9.417  0.0823  0.3675 -1.5988
  125TMC2    H2 1950   4.242   1.754   9.645 -1.6891 -1.0072  0.7808
  125TMC2    C7 1951   4.498   1.658   9.593 -0.2382  0.2043  0.4215
  125TMC2    C8 1952   4.022   1.673   9.531 -0.2131  0.0988 -0.0144
  125TMC2    O1 1953   4.491   1.725   9.695  0.1328  0.3997 -0.1315
  125TMC2    O2 1954   3.923   1.605   9.526 -0.1981 -0.0775 -0.4104
  125TMC2    O5 1955   4.032   1.779   9.459  0.4184  0.0668 -0.2444
  125TMC2    H5 1956   4.120   1.809   9.426  1.4048 -0.4217  1.9415
  126MPD1     C 1957   4.052   0.895   9.223 -0.6410 -0.2239 -0.4509
  126MPD1    C1 1958   3.957   0.970   9.292  0.0441  0.5442 -0.1463
  126MPD1    C2 1959   3.997   1.097   9.338  0.1919  0.2090 -0.0532
  126MPD1    C3 1960   4.130   1.135   9.320 -0.0511  1.0698 -0.1385
  126MPD1    C4 1961   4.228   1.052   9.268  0.3364 -0.6620  0.4100
  126MPD1    C5 1962   4.187   0.935   9.210 -1.0043  0.1547 -0.3273
  126MPD1     H 1963   3.930   1.171   9.380 -1.1591 -2.1869  1.9423
  126MPD1    H1 1964   4.334   1.071   9.278  0.4453 -0.2645 -1.4454
  126MPD1    H2 1965   4.024   0.793   9.202  1.0783 -0.3606 -2.0770
  126MPD1    H3 1966   4.269   0.877   9.171 -0.5128 -1.4832  3.1730
  126MPD1     N 1967   4.166   1.259   9.372 -0.5402 -0.2915  0.2888
  126MPD1    H5 1968   4.098   1.309   9.428 -2.3972  1.0668 -3.2203
  126MPD1    N1 1969   3.821   0.934   9.287  0.0823 -0.1513 -0.1370
  126MPD1    H6 1970   3.774   0.976   9.367 -0.3257  0.8531 -0.8982
  126MPD1    H7 1971   3.814   0.834   9.303  1.4095 -0.1754  0.2851
  127TMC2    C1 1972   1.199   1.243   9.723  0.0341  0.1973 -0.1888
  127TMC2    C2 1973   1.246   1.181   9.835 -0.2743  0.2788 -0.3343
  127TMC2    C3 1974   1.165   1.086   9.895 -0.1535  1.1350  0.2695
  127TMC2    C4 1975   1.082   1.213   9.666 -0.2354 -0.4491 -0.0041
  127TMC2    C5 1976   1.006   1.116   9.735  0.1003 -1.0703 -0.5323
  127TMC2    C6 1977   1.038   1.063   9.859 -0.1915  0.3925  0.1808
  127TMC2     C 1978   1.282   1.343   9.659  0.0768 -0.5142 -0.0458
  127TMC2     O 1979   1.226   1.434   9.592 -0.0013 -0.2120 -0.0093
  127TMC2     H 1980   1.340   1.204   9.885 -0.7551  0.4559  0.4806
  127TMC2    H1 1981   1.046   1.258   9.574 -2.1535 -3.1246 -0.5495
  127TMC2    H2 1982   0.978   0.982   9.900 -1.9927  1.8504  0.4148
  127TMC2    C7 1983   0.877   1.095   9.679 -0.4632 -0.1650 -0.3505
  127TMC2    C8 1984   1.223   1.018  10.012  0.2203  0.1611  0.9328
  127TMC2    O1 1985   0.857   1.132   9.561  0.3622  1.0125 -0.2541
  127TMC2    O2 1986   1.344   1.020  10.031  0.2892 -0.2213  0.1126
  127TMC2    O5 1987   1.125   0.963  10.086 -0.3454  0.6258  0.1174
  127TMC2    H5 1988   1.145   0.919  10.172 -1.4211  2.4147  1.2702
  128MPD2     C 1989   1.644   1.312   9.623 -0.4703 -0.3184 -0.1847
  128MPD2    C1 1990   1.527   1.379   9.633 -0.2221 -0.1437 -0.3315
  128MPD2    C2 1991   1.513   1.515   9.599  0.8756 -0.1916 -0.3197
  128MPD2    C3 1992   1.621   1.587   9.559 -0.1767 -0.3748  0.3131
  128MPD2    C4 1993   1.737   1.513   9.532  0.6014 -0.3170 -0.7871
  128MPD2    C5 1994   1.745   1.382   9.571 -0.0815 -0.3797 -0.4352
  128MPD2     H 1995   1.414   1.559   9.595  0.3642 -1.3337 -0.3039
  128MPD2    H1 1996   1.819   1.562   9.482 -0.6454  0.6647 -1.9006
  128MPD2    H2 1997   1.637   1.209   9.655 -1.9189 -0.3402 -0.5409
  128MPD2    H3 1998   1.840   1.335   9.550 -0.7058 -1.2351 -1.3335
  128MPD2     N 1999   1.604   1.724   9.532  0.2575  0.7879  0.3561
  128MPD2    H5 2000   1.506   1.748   9.521 -0.4749 -3.4544 -2.4266
  128MPD2    N1 2001   1.409   1.300   9.669  0.2605  0.3079  0.3112
  128MPD2    H7 2002   1.423   1.207   9.706 -1.1803  0.6311  1.6865
  129TMC2    C1 2003   0.227   0.653   1.031 -0.4203  0.4300  0.6127
  129TMC2    C2 2004   0.300   0.540   1.038 -0.1526 -0.0819  0.4255
  129TMC2    C3 2005   0.227   0.426   1.026 -0.3970  0.2459  0.2358
  129TMC2    C4 2006   0.086   0.657   1.018  0.0496 -0.5988 -0.0961
  129TMC2    C5 2007   0.019   0.536   1.005 -0.4035  0.6845 -0.8214
  129TMC2    C6 2008   0.092   0.421   1.009  0.4150  0.2601 -0.1382
  129TMC2     C 2009   0.302   0.778   1.020 -0.3854 -0.0699 -0.2367
  129TMC2     O 2010   0.425   0.779   1.029  0.3831 -0.2287  0.2833
  129TMC2     H 2011   0.406   0.544   1.057 -0.0718 -2.0575  0.3919
  129TMC2    H1 2012   0.033   0.752   1.015  0.3440 -0.3975  1.4754
  129TMC2    H2 2013   0.043   0.325   1.021 -2.4293  1.8901  1.0917
  129TMC2    C7 2014   4.631   0.543   0.940 -0.3243 -0.3290 -0.3837
  129TMC2    C8 2015   0.291   0.291   1.027 -0.0656 -0.0963 -0.1538
  129TMC2    O1 2016   4.566   0.644   0.963  0.1080  0.6027 -0.0808
  129TMC2    O2 2017   0.249   0.214   0.943 -0.6705 -0.4414 -0.0086
  129TMC2    O5 2018   0.423   0.319   1.041  0.3475  0.5034 -0.5177
  129TMC2    H5 2019   0.438   0.364   1.127 -1.1154 -1.1870  0.6544
  130MPD2     C 2020   0.395   1.062   0.991  0.4913 -0.1370 -0.3040
  130MPD2    C1 2021   0.267   1.020   1.011  0.9103  0.3340 -0.2906
  130MPD2    C2 2022   0.169   1.115   1.026 -0.2283 -0.1519 -0.0047
  130MPD2    C3 2023   0.206   1.249   1.043  0.0956  0.5737 -0.3921
  130MPD2    C4 2024   0.341   1.287   1.041 -0.4410  0.1034 -0.3878
  130MPD2    C5 2025   0.429   1.189   1.021  0.3312 -0.5565 -0.0350
  130MPD2     H 2026   0.064   1.090   1.035 -0.1529 -0.0367  1.2449
  130MPD2    H1 2027   0.371   1.391   1.037  0.5066 -0.2325 -2.2714
  130MPD2    H2 2028   0.474   0.988   0.980  1.6909  0.8236  2.0741
  130MPD2    H3 2029   0.533   1.219   1.013  1.1453 -3.1641  1.0437
  130MPD2     N 2030   0.100   1.343   1.049 -0.4837 -0.2525  0.0980
  130MPD2    H5 2031   0.009   1.299   1.037  0.1937 -0.7698 -2.9173
  130MPD2    N1 2032   0.220   0.887   1.023 -0.1422  0.4304 -0.1333
  130MPD2    H7 2033   0.119   0.877   1.026 -0.1941  0.5687 -1.2371
  131TMC2    C1 2034   3.954   0.918  10.238 -0.8297  0.5708  0.3896
  131TMC2    C2 2035   3.938   1.011  10.144  0.3684 -0.1761  0.0336
  131TMC2    C3 2036   3.966   1.142  10.172  0.1907  0.1154 -0.3810
  131TMC2    C4 2037   3.992   0.940  10.370  0.1873 -0.3437 -0.1733
  131TMC2    C5 2038   4.017   1.074  10.394  0.9137 -0.0872 -1.0869
  131TMC2    C6 2039   3.998   1.175  10.302  0.3337 -0.2819  0.9643
  131TMC2     C 2040   3.893   0.787  10.226 -0.2093 -0.4186 -0.8159
  131TMC2     O 2041   3.917   0.698  10.308 -0.0602  0.7015  0.1011
  131TMC2     H 2042   3.926   0.982  10.040 -1.7841  0.3864  0.1335
  131TMC2    H1 2043   3.965   0.876  10.453 -0.4376  1.5209  1.0742
  131TMC2    H2 2044   4.006   1.276  10.340  0.4907 -0.8146  2.3304
  131TMC2    C7 2045   4.087   1.102  10.518 -0.0891  0.0322 -0.1103
  131TMC2    C8 2046   3.967   1.245  10.073  0.1887  0.0310 -0.2820
  131TMC2    O1 2047   4.095   1.006  10.593  0.5200 -0.5244 -0.0405
  131TMC2    O2 2048   3.898   1.235   9.976 -0.2909  0.0041  0.4123
  131TMC2    O5 2049   4.101   1.274  10.075  0.1659 -0.2936 -0.6525
  131TMC2    H5 2050   4.143   1.269  10.164 -0.6403 -1.8674 -0.3498
  132MPD2     C 2051   3.689   0.659   9.946  0.0027  0.7325 -0.6670
  132MPD2    C1 2052   3.749   0.657  10.071  0.5056 -0.3696 -0.0440
  132MPD2    C2 2053   3.743   0.534  10.141 -0.4439 -0.4825  0.1077
  132MPD2    C3 2054   3.684   0.420  10.083  0.2485 -0.4275 -0.1753
  132MPD2    C4 2055   3.629   0.427   9.958  0.0261  0.0262  0.1272
  132MPD2    C5 2056   3.612   0.551   9.906  0.4171 -0.8036  0.2489
  132MPD2     H 2057   3.798   0.519  10.233  0.2181  1.9408  0.0892
  132MPD2    H1 2058   3.591   0.340   9.906  0.9085  0.6326 -1.5530
  132MPD2    H2 2059   3.684   0.747   9.884 -3.0248 -0.1750 -1.6973
  132MPD2    H3 2060   3.560   0.565   9.812 -0.7676  3.6125  1.5819
  132MPD2     N 2061   3.690   0.295  10.154 -0.1609  0.3577 -0.2639
  132MPD2    H5 2062   3.744   0.294  10.241  1.1390 -1.7496 -1.0929
  132MPD2    N1 2063   3.825   0.773  10.110 -0.3178  0.1512 -0.3266
  132MPD2    H7 2064   3.811   0.857  10.055  2.2814  1.6374  1.2737
  133TMC2    C1 2065   3.805   1.989  10.017  0.1423 -1.2822  0.0640
  133TMC2    C2 2066   3.910   1.920   9.967 -0.1300 -0.3242  0.5621
  133TMC2    C3 2067   4.031   1.979   9.974  0.4688  0.2623 -0.0920
  133TMC2    C4 2068   3.824   2.105  10.088  0.4168 -0.5010 -0.0848
  133TMC2    C5 2069   3.949   2.160  10.095  0.3554  0.1093  0.4505
  133TMC2    C6 2070   4.054   2.094  10.036  0.1961 -0.4660 -0.4079
  133TMC2     C 2071   3.676   1.930   9.987  0.8013  0.0706 -0.2427
  133TMC2     O 2072   3.679   1.808   9.975  0.1097 -0.2124 -0.3019
  133TMC2     H 2073   3.892   1.834   9.904  3.2627 -1.2004  0.8324
  133TMC2    H1 2074   3.744   2.166  10.127 -0.7828 -2.1630  0.0345
  133TMC2    H2 2075   4.153   2.135  10.055 -1.0821  1.6339  1.7329
  133TMC2    C7 2076   3.976   2.287  10.165  0.4512 -0.7954 -0.5358
  133TMC2    C8 2077   4.139   1.882   9.954  0.6158  0.3652 -0.2605
  133TMC2    O1 2078   4.091   2.322  10.170  0.5824 -0.4589 -0.0902
  133TMC2    O2 2079   4.129   1.763   9.989 -0.6359 -0.1117 -0.3291
  133TMC2    O5 2080   4.250   1.950   9.961 -0.1198 -0.2428 -0.0049
  133TMC2    H5 2081   4.242   2.036   9.915 -1.1494  0.3409  1.2653
  134MPD2     C 2082   3.356   2.090   9.883  0.0891 -0.5350  0.0451
  134MPD2    C1 2083   3.451   1.987   9.902 -0.1839 -0.4240  0.5025
  134MPD2    C2 2084   3.399   1.859   9.894 -1.4267  0.1440  0.1945
  134MPD2    C3 2085   3.269   1.836   9.852 -0.4167  0.1549 -0.5879
  134MPD2    C4 2086   3.184   1.944   9.825 -0.1905 -0.7727  0.3051
  134MPD2    C5 2087   3.229   2.072   9.850 -0.3402  0.3004  0.1489
  134MPD2     H 2088   3.464   1.774   9.917 -1.2328  0.5869  1.3113
  134MPD2    H1 2089   3.081   1.933   9.793  0.5813 -0.1473 -2.3389
  134MPD2    H2 2090   3.394   2.190   9.900  0.2843 -0.7340  0.7815
  134MPD2    H3 2091   3.158   2.154   9.846  0.1686  0.6719 -1.1800
  134MPD2     N 2092   3.210   1.706   9.820  0.0323  0.0177 -0.3327
  134MPD2    H5 2093   3.121   1.712   9.773  0.0508 -0.5619 -0.4368
  134MPD2    N1 2094   3.584   2.018   9.941  0.8313  0.5660 -0.3893
  134MPD2    H7 2095   3.605   2.118   9.943 -0.4984  0.8542 -0.6068
  135TMC2    C1 2096   0.540   2.335   9.997 -0.7137  0.1264  0.4668
  135TMC2    C2 2097   0.665   2.322   9.935  0.1872  0.1668 -0.6928
  135TMC2    C3 2098   0.750   2.431   9.931  0.1527 -0.0551  0.6047
  135TMC2    C4 2099   0.516   2.451  10.069 -0.0070  0.1627  0.0550
  135TMC2    C5 2100   0.605   2.554  10.063 -0.2717  0.5369 -0.1700
  135TMC2    C6 2101   0.722   2.544   9.999  0.1892 -0.1236 -0.5751
  135TMC2     C 2102   0.430   2.243   9.988  0.2623  0.0058 -0.5475
  135TMC2     O 2103   0.351   2.236  10.082  0.1443 -0.4130  0.1929
  135TMC2     H 2104   0.696   2.224   9.901  0.2564  0.1835 -0.6775
  135TMC2    H1 2105   0.419   2.464  10.115 -0.5190 -1.3855 -0.5575
  135TMC2    H2 2106   0.786   2.632   9.993  0.1120  0.0703  1.5861
  135TMC2    C7 2107   0.586   2.671  10.141  0.1997 -0.6316  0.4933
  135TMC2    C8 2108   0.876   2.432   9.857  0.2471 -0.0836  0.4020
  135TMC2    O1 2109   0.634   2.775  10.101  0.1886 -0.5881  0.2071
  135TMC2    O2 2110   0.961   2.519   9.870 -0.1488  0.2797 -0.2817
  135TMC2    O5 2111   0.857   2.353   9.750  0.1873 -0.1348  0.8002
  135TMC2    H5 2112   0.760   2.338   9.745  0.1645  0.4327 -0.4204
  136MPD2     C 2113   0.204   2.063   9.893  0.7034 -0.8711  0.0696
  136MPD2    C1 2114   0.305   2.124   9.813  0.4885 -0.1316  0.4704
  136MPD2    C2 2115   0.296   2.105   9.678 -0.8035 -0.1778  0.0640
  136MPD2    C3 2116   0.198   2.028   9.622  0.6993  0.4453 -0.6928
  136MPD2    C4 2117   0.098   1.970   9.695  0.2636 -0.4482  0.7763
  136MPD2    C5 2118   0.104   1.986   9.834 -0.6996  0.1633 -0.0328
  136MPD2     H 2119   0.375   2.159   9.625 -1.4249  1.2372  0.5913
  136MPD2    H1 2120   0.013   1.919   9.652  0.5973 -0.3581  0.0223
  136MPD2    H2 2121   0.200   2.079  10.000  1.0961 -1.7285  0.2154
  136MPD2    H3 2122   0.023   1.946   9.894 -0.3860  0.7518  0.7777
  136MPD2     N 2123   0.191   2.001   9.481 -0.3550  0.5508  0.0157
  136MPD2    H5 2124   0.119   1.939   9.447 -0.5875  0.6486  0.3353
  136MPD2    N1 2125   0.414   2.200   9.860 -0.2674 -0.0970  0.0368
  136MPD2    H7 2126   0.480   2.243   9.796  0.8387 -1.3479  0.3397
  137TMC2    C1 2127   0.434   1.040  10.054 -0.2017  0.1623  0.2940
  137TMC2    C2 2128   0.325   0.990   9.985  0.5494  0.2100 -0.1755
  137TMC2    C3 2129   0.276   1.063   9.882  0.0624  0.6682 -0.1969
  137TMC2    C4 2130   0.481   1.164  10.007 -0.1404 -0.3703 -0.0039
  137TMC2    C5 2131   0.433   1.227   9.896 -0.3275 -0.3621 -0.7245
  137TMC2    C6 2132   0.326   1.179   9.833 -0.1697  0.3309  0.4714
  137TMC2     C 2133   0.467   0.999  10.190 -0.3336 -0.9952 -0.0102
  137TMC2     O 2134   0.571   1.047  10.236  0.0618  0.2445 -1.0414
  137TMC2     H 2135   0.283   0.895  10.017  1.2548 -0.2922 -0.7395
  137TMC2    H1 2136   0.572   1.200  10.053  0.3416 -2.0812  0.3806
  137TMC2    H2 2137   0.286   1.228   9.745  1.1797 -1.8111 -1.3195
  137TMC2    C7 2138   0.449   1.368   9.889  0.0887  0.6461 -0.6185
  137TMC2    C8 2139   0.191   0.983   9.802  0.5729  0.2221 -0.9292
  137TMC2    O1 2140   0.495   1.424   9.794  0.0792 -0.0752  0.0827
  137TMC2    O2 2141   0.172   0.862   9.825 -0.3135 -0.0870 -0.5490
  137TMC2    O5 2142   0.106   1.053   9.732 -0.2709 -0.3232 -1.0632
  137TMC2    H5 2143   0.119   1.150   9.727 -1.8038 -0.3406 -5.4374
  138MPD2     C 2144   0.251   0.831  10.437 -0.1443  0.7515 -0.4816
  138MPD2    C1 2145   0.341   0.927  10.390 -1.0715 -0.7428  0.0238
  138MPD2    C2 2146   0.383   1.026  10.475 -0.1926 -0.7953  0.4083
  138MPD2    C3 2147   0.328   1.038  10.602  0.1196 -0.1789 -0.1850
  138MPD2    C4 2148   0.230   0.948  10.645  0.3530 -0.0463 -0.2594
  138MPD2    C5 2149   0.202   0.838  10.566 -0.6169  0.6118 -0.1942
  138MPD2     H 2150   0.438   1.111  10.436  1.2524 -1.1620  1.6517
  138MPD2    H1 2151   0.186   0.957  10.744 -0.2825 -4.2981 -0.1974
  138MPD2    H2 2152   0.218   0.748  10.375  0.2092  1.0579 -1.0778
  138MPD2    H3 2153   0.121   0.768  10.582  0.0851 -0.6160 -1.9832
  138MPD2     N 2154   0.350   1.158  10.674 -0.1249 -0.8956 -0.3483
  138MPD2    H5 2155   0.426   1.219  10.645  0.4655 -1.6989 -0.4915
  138MPD2    N1 2156   0.363   0.928  10.250  0.1853 -0.7277 -0.5506
  138MPD2    H7 2157   0.287   0.891  10.194 -0.7359  0.9638 -0.3963
  139TMC2    C1 2158   0.801   4.575  13.345 -0.1052  0.4281  0.6643
  139TMC2    C2 2159   0.794   4.631  13.222 -0.2829  0.2057 -0.4378
  139TMC2    C3 2160   0.691   4.724  13.211 -0.0499 -0.2305  0.1591
  139TMC2    C4 2161   0.717   4.603  13.456 -0.1850 -0.0712  0.1182
  139TMC2    C5 2162   0.629   4.699  13.440  0.3454  0.0788  0.1587
  139TMC2    C6 2163   0.601   0.014  13.316  0.7912 -0.0511  0.3053
  139TMC2     C 2164   0.893   4.462  13.355  0.0772 -0.5002  0.5721
  139TMC2     O 2165   0.976   4.460  13.267 -0.3876  0.2125  0.5770
  139TMC2     H 2166   0.852   4.608  13.133 -0.0058 -0.3901 -0.1012
  139TMC2    H1 2167   0.726   4.561  13.556 -2.5018  0.3740  0.4982
  139TMC2    H2 2168   0.536   0.099  13.302 -0.3144 -0.8604  0.5086
  139TMC2    C7 2169   0.597   0.060  13.548 -0.7075  0.0462 -0.4229
  139TMC2    C8 2170   0.658   0.031  13.079 -0.3675 -0.3098 -0.0593
  139TMC2    O1 2171   0.613   0.176  13.524  0.1924  0.3919 -0.8342
  139TMC2    O2 2172   0.542   0.071  13.062  0.2534  0.1225  0.4626
  139TMC2    O5 2173   0.765   0.114  13.057  0.5965  0.0054 -0.0561
  139TMC2    H5 2174   0.853   0.071  13.060  0.5921 -0.1210 -1.4768
  140MPD2     C 2175   0.812   4.149  13.526  0.2407 -0.2040 -0.1761
  140MPD2    C1 2176   0.894   4.240  13.460 -0.3466 -0.0554  0.3386
  140MPD2    C2 2177   1.017   4.207  13.409 -0.5135 -0.2178  0.0576
  140MPD2    C3 2178   1.061   4.082  13.405 -0.2075  0.4427 -0.4135
  140MPD2    C4 2179   0.982   3.990  13.481  0.1205 -0.4374 -0.2705
  140MPD2    C5 2180   0.861   4.022  13.533  0.3097 -0.2025 -0.0458
  140MPD2     H 2181   1.081   4.285  13.369 -1.3841  0.8966  0.8219
  140MPD2    H1 2182   1.021   3.891  13.502 -1.2741 -0.5591  1.7252
  140MPD2    H2 2183   0.714   4.180  13.563 -0.4056 -1.8896 -0.4847
  140MPD2    H3 2184   0.804   3.945  13.585  0.4163 -0.9607 -1.0444
  140MPD2     N 2185   1.195   4.063  13.356  0.1556 -0.0815 -0.2166
  140MPD2    H5 2186   1.237   4.149  13.321 -1.9108  0.7932 -0.5225
  140MPD2    N1 2187   0.855   4.373  13.451 -0.2164 -0.3694 -0.0175
  140MPD2    H7 2188   0.762   4.398  13.484  0.4222  0.6918  1.0112
  141TMC2    C1 2189   1.451   1.356  14.783  0.1176 -0.0827  0.2619
  141TMC2    C2 2190   1.359   1.330  14.877 -0.2514  0.0028 -0.2520
  141TMC2    C3 2191   1.241   1.388  14.859 -0.9850 -0.4205 -0.2246
  141TMC2    C4 2192   1.427   1.433  14.672 -0.9954  0.4801  0.2193
  141TMC2    C5 2193   1.303   1.499  14.662 -0.2195 -0.1187  0.4385
  141TMC2    C6 2194   1.208   1.485  14.761 -0.0519 -0.3386  0.3978
  141TMC2     C 2195   1.585   1.306  14.799 -0.1399 -0.2767 -0.1869
  141TMC2     O 2196   1.612   1.245  14.900 -0.2443  0.0748  0.1890
  141TMC2     H 2197   1.383   1.277  14.969 -0.5407  1.2214  0.5186
  141TMC2    H1 2198   1.505   1.468  14.605 -0.6203 -1.3826 -0.3247
  141TMC2    H2 2199   1.110   1.527  14.742 -1.4367 -3.0227  1.4825
  141TMC2    C7 2200   1.323   1.631  14.614 -0.3061  0.6283  0.2238
  141TMC2    C8 2201   1.136   1.342  14.955  0.3304  0.1634  0.0400
  141TMC2    O1 2202   1.275   1.651  14.501 -0.0409  0.4152 -0.2704
  141TMC2    O2 2203   1.150   1.244  15.028 -0.2836  0.1900  0.0160
  141TMC2    O5 2204   1.076   1.453  15.007  0.1021 -0.8909 -0.6649
  141TMC2    H5 2205   1.093   1.536  14.957 -0.0587 -1.6084 -1.9102
  142TMC2    C1 2206   3.917   0.362   9.762  0.1912  0.7360  0.0547
  142TMC2    C2 2207   3.945   0.393   9.636 -0.2159  0.4440  0.2907
  142TMC2    C3 2208   4.035   0.489   9.622 -0.0945  0.5114  0.3480
  142TMC2    C4 2209   3.973   0.421   9.874 -0.9745 -0.3057 -0.4529
  142TMC2    C5 2210   4.048   0.533   9.855  0.0490 -0.2557 -0.5616
  142TMC2    C6 2211   4.093   0.559   9.725 -0.5248  0.4043  0.2990
  142TMC2     C 2212   3.867   0.226   9.789 -0.0080 -0.4922 -0.5734
  142TMC2     O 2213   3.808   0.165   9.704 -0.1628 -0.0937  0.6592
  142TMC2     H 2214   3.907   0.340   9.550 -1.2075 -0.0583  1.0359
  142TMC2    H1 2215   3.948   0.395   9.977  2.5908 -0.5727  0.3405
  142TMC2    H2 2216   4.167   0.637   9.707 -0.3718 -0.3158 -2.2317
  142TMC2    C7 2217   4.090   0.602   9.975  0.5694  0.1852  0.1653
  142TMC2    C8 2218   4.043   0.555   9.495 -0.1251  1.0445  0.4550
  142TMC2    O1 2219   4.079   0.542  10.083  0.2007 -0.3875 -0.5612
  142TMC2    O2 2220   4.004   0.495   9.395 -0.4322 -0.6160  0.6089
  142TMC2    O5 2221   4.026   0.687   9.509 -0.5786  0.1424 -0.6818
  142TMC2    H5 2222   4.027   0.719   9.602 -1.5559 -0.8241 -0.3386
  143MPD2     C 2223   3.845   4.546  10.092  0.2473 -0.4031  1.0607
  143MPD2    C1 2224   3.765   4.586   9.990 -0.1673 -0.2179 -0.2599
  143MPD2    C2 2225   3.793   4.703   9.926  0.0125  0.2094  0.4410
  143MPD2    C3 2226   3.893   0.048   9.968 -0.1097  0.0868 -0.3088
  143MPD2    C4 2227   3.972   0.006  10.072 -0.0632  0.3735 -0.1041
  143MPD2    C5 2228   3.944   4.626  10.133  0.2343  0.2000 -0.2632
  143MPD2     H 2229   3.733   4.735   9.841 -0.1443  1.3890  1.0064
  143MPD2    H1 2230   4.060   0.057  10.110  0.7832 -2.0157  1.1848
  143MPD2    H2 2231   3.826   4.452  10.143  3.0636 -0.6557  1.6422
  143MPD2    H3 2232   3.998   4.595  10.222  1.4638  2.4534 -0.2377
  143MPD2     N 2233   3.925   0.176   9.904 -0.0104 -0.2931  0.3392
  143MPD2    H5 2234   3.991   0.241   9.948 -0.5151  0.4709 -0.0311
  143MPD2    N1 2235   3.658   4.500   9.958 -0.3406  0.2058 -0.0988
  143MPD2    H7 2236   3.637   4.431  10.029 -2.1242  0.4707 -0.3726
  144TMC2    C1 2237   2.462   3.844   0.277 -0.3899 -0.0479 -0.1607
  144TMC2    C2 2238   2.530   3.855   0.160 -0.1546 -0.0947  0.1706
  144TMC2    C3 2239   2.666   3.879   0.165  0.1856  0.1113 -0.3778
  144TMC2    C4 2240   2.526   3.858   0.395  0.3166 -0.4089  0.3673
  144TMC2    C5 2241   2.668   3.879   0.396 -0.0607 -0.3207  0.6425
  144TMC2    C6 2242   2.735   3.902   0.279 -0.0798 -0.3885  0.2975
  144TMC2     C 2243   2.331   3.776   0.271  0.5532 -0.3793  0.1300
  144TMC2     O 2244   2.288   3.744   0.161  0.1828 -0.3162  0.1822
  144TMC2     H 2245   2.486   3.836   0.063  0.5836  0.5018 -0.2819
  144TMC2    H1 2246   2.483   3.835   0.492 -0.9013  0.0993 -0.0431
  144TMC2    H2 2247   2.831   3.951   0.288 -0.7579  1.0551 -0.2723
  144TMC2    C7 2248   2.721   3.960   0.512 -0.2905  0.3868 -0.7008
  144TMC2    C8 2249   2.735   3.912   0.052 -0.4486 -0.1348  0.9671
  144TMC2    O1 2250   2.840   3.943   0.540  0.3140  0.1979 -0.0412
  144TMC2    O2 2251   2.677   3.950  17.705 -0.8876  0.5960 -0.0941
  144TMC2    O5 2252   2.869   3.901   0.071 -0.2758 -0.1240  0.0114
  144TMC2    H5 2253   2.906   3.865   0.154  1.0761 -0.3350 -0.6918
  145MPD2     C 2254   1.919   3.562   0.498 -0.0651 -0.2191 -0.3732
  145MPD2    C1 2255   1.979   3.537   0.373  0.0071  0.0078 -0.1686
  145MPD2    C2 2256   2.095   3.607   0.340 -0.2884 -0.7804 -0.2828
  145MPD2    C3 2257   2.152   3.696   0.427 -0.4140  0.2232 -0.1518
  145MPD2    C4 2258   2.089   3.715   0.551  0.3927 -0.7024 -0.0186
  145MPD2    C5 2259   1.976   3.640   0.584 -0.1777  0.1667  0.0151
  145MPD2     H 2260   2.135   3.606   0.239 -0.5923  2.5683 -0.4189
  145MPD2    H1 2261   2.123   3.784   0.628 -3.6406  0.4541  0.7293
  145MPD2    H2 2262   1.833   3.508   0.537  0.0150  0.6070  0.9663
  145MPD2    H3 2263   1.928   3.655   0.680 -0.9340 -0.6888 -0.2246
  145MPD2     N 2264   2.270   3.762   0.395 -0.1970  0.6622  0.0887
  145MPD2    H5 2265   2.313   3.813   0.471  5.3803  0.0095 -2.6228
  145MPD2    N1 2266   1.929   3.450   0.272 -0.0965 -0.4749 -0.7099
  145MPD2    H7 2267   1.996   3.442   0.196  2.9768 -0.5429  1.9794
  146TMC2    C1 2268   3.966   2.666  12.195 -0.3847  0.3087  0.0040
  146TMC2    C2 2269   3.990   2.746  12.084  0.1037 -0.0932  0.1701
  146TMC2    C3 2270   4.105   2.724  12.016  0.3840 -0.7921 -0.2016
  146TMC2    C4 2271   4.058   2.578  12.248 -0.3757 -0.0571  0.3381
  146TMC2    C5 2272   4.182   2.582  12.190 -0.4927  0.1751 -0.1332
  146TMC2    C6 2273   4.201   2.647  12.076  0.2239 -0.7581  0.1978
  146TMC2     C 2274   3.832   2.677  12.249  0.2662  0.3014 -0.0095
  146TMC2     O 2275   3.766   2.773  12.204  0.0561  0.1404  0.0135
  146TMC2     H 2276   3.914   2.799  12.027  0.9545  0.4740 -0.4310
  146TMC2    H1 2277   4.040   2.538  12.347 -0.0160 -0.6264  0.1735
  146TMC2    H2 2278   4.299   2.651  12.030 -0.5821  1.8561 -1.3263
  146TMC2    C7 2279   4.298   2.542  12.270 -0.0550 -0.0490 -0.1846
  146TMC2    C8 2280   4.139   2.812  11.914 -1.1709 -0.2366 -0.2027
  146TMC2    O1 2281   4.407   2.579  12.230  0.1270 -0.2100 -0.6479
  146TMC2    O2 2282   4.080   2.917  11.896  0.4613 -0.6495 -0.0664
  146TMC2    O5 2283   4.212   2.745  11.814 -0.3763  0.5217 -0.1619
  146TMC2    H5 2284   4.231   2.654  11.845  2.2088  0.8724 -0.7306
  147MPD2     C 2285   4.516   2.350  12.695 -0.6769  0.3211 -0.0441
  147MPD2    C1 2286   4.381   2.341  12.712 -0.5493 -0.4821  0.5829
  147MPD2    C2 2287   4.306   2.389  12.604 -0.3125  0.0832 -0.5728
  147MPD2    C3 2288   4.365   2.442  12.491  0.2395  0.2473  0.0281
  147MPD2    C4 2289   4.501   2.435  12.469  0.2846 -0.5743  0.0123
  147MPD2    C5 2290   4.576   2.387  12.571  0.3430 -0.2736 -0.7470
  147MPD2     H 2291   4.198   2.395  12.610 -0.3714 -0.7251 -0.8157
  147MPD2    H1 2292   4.559   2.462  12.381 -0.0815  3.1250  0.8973
  147MPD2    H2 2293   4.582   2.330  12.778 -1.7729 -2.6457  0.1137
  147MPD2    H3 2294   4.685   2.392  12.570  0.3159  0.6450  1.6918
  147MPD2     N 2295   4.266   2.488  12.394 -0.5958  0.5280 -0.3273
  147MPD2    H5 2296   4.171   2.460  12.416  0.4577 -3.0059 -0.3563
  147MPD2    N1 2297   4.328   2.293  12.837  1.1781  0.4627 -0.7593
  147MPD2    H7 2298   4.401   2.257  12.898 -0.6161 -1.7475  0.1232
  148TMC2    C1 2299   3.063   1.375  10.593  0.1081  0.3011 -0.5902
  148TMC2    C2 2300   3.110   1.503  10.627 -0.1500  0.0853  0.4234
  148TMC2    C3 2301   3.227   1.509  10.700 -0.2401 -0.5230  0.4077
  148TMC2    C4 2302   3.118   1.261  10.640 -0.0193 -0.3735  0.7163
  148TMC2    C5 2303   3.224   1.276  10.722 -0.4134  0.6929 -0.8990
  148TMC2    C6 2304   3.285   1.396  10.749  0.0191  0.1998  0.1982
  148TMC2     C 2305   2.970   1.371  10.477  0.1271  0.0566 -0.5348
  148TMC2     O 2306   2.920   1.480  10.453  0.4225  0.6276  0.9350
  148TMC2     H 2307   3.049   1.592  10.615  0.4013  1.0548  4.7222
  148TMC2    H1 2308   3.083   1.163  10.610 -2.7182  0.4113  1.3286
  148TMC2    H2 2309   3.367   1.409  10.819  0.3181 -1.8203  0.1987
  148TMC2    C7 2310   3.311   1.162  10.736 -0.0514 -0.6296 -0.1331
  148TMC2    C8 2311   3.278   1.641  10.743  0.1981 -1.0241  0.5209
  148TMC2    O1 2312   3.310   1.094  10.635 -0.2615 -0.2631  0.1236
  148TMC2    O2 2313   3.210   1.744  10.752 -0.4662  0.0291  0.0507
  148TMC2    O5 2314   3.410   1.642  10.717 -0.5027 -1.1048 -0.1736
  148TMC2    H5 2315   3.442   1.562  10.669  0.3958 -0.4568 -0.6314
  149MPD2     C 2316   2.787   1.309  10.241 -0.6451 -0.9172 -1.3105
  149MPD2    C1 2317   2.883   1.225  10.285 -0.6359  0.5125  0.1795
  149MPD2    C2 2318   2.909   1.110  10.201  0.1241 -0.0995 -0.4931
  149MPD2    C3 2319   2.838   1.090  10.084  0.3132 -0.7879  0.2525
  149MPD2    C4 2320   2.732   1.176  10.053  0.3721  0.6020 -0.3858
  149MPD2    C5 2321   2.706   1.284  10.135  0.0130  0.5464 -0.2613
  149MPD2     H 2322   2.992   1.046  10.226  0.2422  0.6650  1.0732
  149MPD2    H1 2323   2.659   1.159   9.975  0.3955 -0.2218 -0.2270
  149MPD2    H2 2324   2.757   1.396  10.297  1.4554  0.5007 -2.4208
  149MPD2    H3 2325   2.631   1.359  10.114 -0.7023 -0.1143 -0.0939
  149MPD2     N 2326   2.858   0.979   9.998  0.5105  0.2285 -0.3843
  149MPD2    H5 2327   2.810   0.990   9.909 -1.3220  0.1020  0.5850
  149MPD2    N1 2328   2.964   1.253  10.400 -1.2552 -0.7943 -0.7000
  149MPD2    H7 2329   3.028   1.176  10.420 -1.5057 -0.9756 -0.6001
  150TMC2    C1 2330   1.152   0.251  12.203 -0.2709  0.2165 -0.1699
  150TMC2    C2 2331   1.106   0.351  12.123  0.4085 -0.1405  0.3764
  150TMC2    C3 2332   1.196   0.405  12.032 -0.2880  0.0531  0.6217
  150TMC2    C4 2333   1.285   0.215  12.191  0.5899 -0.4718  0.0460
  150TMC2    C5 2334   1.371   0.263  12.096  0.5745  0.1006  1.2552
  150TMC2    C6 2335   1.326   0.358  12.014  0.3022  1.0101 -0.4999
  150TMC2     C 2336   1.073   0.151  12.267 -0.1540  0.2927  0.2380
  150TMC2     O 2337   1.127   0.083  12.350  0.5512  0.0199 -0.1629
  150TMC2     H 2338   1.009   0.398  12.137  0.3176 -0.2429  0.0886
  150TMC2    H1 2339   1.317   0.132  12.253 -1.2954 -0.9719  0.3567
  150TMC2    H2 2340   1.382   0.392  11.928 -1.7653  0.4612 -2.0621
  150TMC2    C7 2341   1.502   0.209  12.071  0.4707  0.3774  0.0239
  150TMC2    C8 2342   1.166   0.532  11.972 -0.4653  1.2496 -0.4471
  150TMC2    O1 2343   1.564   0.257  11.976 -0.1021 -0.7079 -0.0777
  150TMC2    O2 2344   1.055   0.566  11.938  0.1489  0.0043  0.6663
  150TMC2    O5 2345   1.260   0.610  12.025  0.5155 -0.2922 -0.1442
  150TMC2    H5 2346   1.324   0.555  12.074  0.0449 -0.6402  0.0873
  151MPD2     C 2347   0.604   4.689  12.313 -0.6924  0.2479  0.3145
  151MPD2    C1 2348   0.599   0.066  12.229 -0.0785 -0.0071 -0.6665
  151MPD2    C2 2349   0.719   0.126  12.191  0.2393 -0.0444 -0.3486
  151MPD2    C3 2350   0.834   0.072  12.236 -0.9527  0.1594  0.2305
  151MPD2    C4 2351   0.837   4.699  12.314 -0.0922 -0.8729  0.9179
  151MPD2    C5 2352   0.721   4.644  12.359  0.2356 -0.5793  0.1706
  151MPD2     H 2353   0.721   0.225  12.147 -0.6279  0.0443 -0.1936
  151MPD2    H1 2354   0.933   4.660  12.345  0.5218 -0.1872 -0.1264
  151MPD2    H2 2355   0.519   4.629  12.343 -0.7169  0.9339  1.6228
  151MPD2    H3 2356   0.734   4.552  12.415  0.9316 -0.7475 -0.2665
  151MPD2     N 2357   0.947   0.150  12.205  0.4397 -1.2620  0.0801
  151MPD2    H5 2358   0.919   0.225  12.142 -0.9947 -1.2452  0.7441
  151MPD2    N1 2359   0.470   0.122  12.204 -0.1667  0.2353 -0.9664
  151MPD2    H7 2360   0.388   0.084  12.250 -1.4394  1.2745 -2.3872
  152TMC2    C1 2361   0.752   0.118  12.642 -0.5538 -0.1463 -0.5897
  152TMC2    C2 2362   0.830   0.077  12.746  0.7105 -0.1358  0.1260
  152TMC2    C3 2363   0.954   0.134  12.771  0.0157 -0.0224 -0.1938
  152TMC2    C4 2364   0.799   0.220  12.566 -0.5138  0.8277  0.5023
  152TMC2    C5 2365   0.918   0.284  12.594  0.2856  0.0931  0.0906
  152TMC2    C6 2366   1.004   0.237  12.694 -0.2457 -0.0298 -0.2755
  152TMC2     C 2367   0.618   0.071  12.624  0.5416 -0.9566  0.6848
  152TMC2     O 2368   0.534   0.136  12.561  0.0118  0.0182  0.1724
  152TMC2     H 2369   0.804   4.737  12.816  0.5237 -0.1992 -0.0135
  152TMC2    H1 2370   0.743   0.250  12.478 -0.6918 -2.9517 -0.6612
  152TMC2    H2 2371   1.078   0.301  12.742 -0.2090  2.3247 -3.4483
  152TMC2    C7 2372   0.977   0.371  12.495 -0.3126  0.3587 -0.2212
  152TMC2    C8 2373   1.036   0.065  12.862 -0.1597  0.1666 -1.0516
  152TMC2    O1 2374   0.903   0.419  12.412  0.1339 -0.1827  0.4710
  152TMC2    O2 2375   0.985   0.006  12.956 -0.0178 -0.2693 -0.7943
  152TMC2    O5 2376   1.165   0.084  12.830  0.7282  0.2872  0.1269
  152TMC2    H5 2377   1.188   0.115  12.740  0.4573 -1.9738 -0.7260
  153MPD2     C 2378   0.477   4.481  12.725 -0.6099  0.0950 -0.2909
  153MPD2    C1 2379   0.480   4.620  12.704  0.3059  0.4768  0.2759
  153MPD2    C2 2380   0.362   4.687  12.710  0.1316  0.6004 -1.2285
  153MPD2    C3 2381   0.241   4.623  12.719  0.4044 -0.6070 -0.0475
  153MPD2    C4 2382   0.240   4.485  12.742 -0.5136 -0.7836  0.3128
  153MPD2    C5 2383   0.360   4.416  12.742  0.2792  0.2049 -0.6512
  153MPD2     H 2384   0.365   0.057  12.707 -1.4814  0.6449 -1.1496
  153MPD2    H1 2385   0.144   4.435  12.748 -0.4069 -0.9844  0.3255
  153MPD2    H2 2386   0.568   4.422  12.722 -1.1110 -0.7189  0.6971
  153MPD2    H3 2387   0.361   4.309  12.758  0.9050  0.8511  3.6664
  153MPD2     N 2388   0.122   4.708  12.708  0.1840 -0.2757 -0.0699
  153MPD2    H5 2389   0.143   0.067  12.689  1.6658 -0.9481 -1.8322
  153MPD2    N1 2390   0.600   4.683  12.680  0.0761  0.3238 -0.1294
  153MPD2    H7 2391   0.686   4.632  12.700  0.4726  0.5011 -1.3604
  154TMC2    C1 2392   1.211   0.247   0.260 -0.0416 -0.1874 -0.4851
  154TMC2    C2 2393   1.185   0.146   0.348  0.3679 -0.3171  0.0451
  154TMC2    C3 2394   1.184   0.018   0.300 -0.1916  0.6650  0.0219
  154TMC2    C4 2395   1.220   0.219   0.126 -0.8348 -0.5393 -0.2906
  154TMC2    C5 2396   1.230   0.084   0.087 -0.4682 -0.4585 -0.3024
  154TMC2    C6 2397   1.217   4.719   0.172  0.0765 -0.5506  0.1840
  154TMC2     C 2398   1.218   0.384   0.309 -0.3839  0.4473  0.3868
  154TMC2     O 2399   1.229   0.393   0.430 -0.7830 -1.0397 -0.0541
  154TMC2     H 2400   1.183   0.163   0.455 -1.6886  0.8045 -0.1796
  154TMC2    H1 2401   1.244   0.292   0.049 -0.8649  1.0402  1.2072
  154TMC2    H2 2402   1.183   4.621   0.140 -0.0947 -0.1848 -0.7345
  154TMC2    C7 2403   1.211   0.039  17.699 -0.3183 -0.1401 -0.0098
  154TMC2    C8 2404   1.087   4.674   0.368 -0.4463  0.6221 -0.1872
  154TMC2    O1 2405   1.246   4.662  17.675  0.3822  0.1500  0.1886
  154TMC2    O2 2406   1.097   4.549   0.369 -0.9291 -0.9781  0.1797
  154TMC2    O5 2407   1.002   0.014   0.443  0.0492 -0.2358  0.6064
  154TMC2    H5 2408   1.010   0.110   0.423 -1.9276 -0.0020  0.8705
  155MPD2     C 2409   1.118   0.691   0.143  0.3296 -0.4986  0.2900
  155MPD2    C1 2410   1.170   0.615   0.245 -0.0774 -0.1220 -0.0209
  155MPD2    C2 2411   1.203   0.667   0.366 -0.1426 -0.9346  0.9575
  155MPD2    C3 2412   1.175   0.799   0.393 -0.5656  0.4475 -0.0994
  155MPD2    C4 2413   1.122   0.879   0.295 -0.4983 -0.5264  0.1078
  155MPD2    C5 2414   1.093   0.824   0.174 -0.4030 -0.7090 -0.1215
  155MPD2     H 2415   1.251   0.611   0.446  0.7786 -0.3230  0.8425
  155MPD2    H1 2416   1.091   0.982   0.307  0.8238  0.1832 -2.4086
  155MPD2    H2 2417   1.108   0.645   0.045 -1.4288  2.7778 -1.0771
  155MPD2    H3 2418   1.042   0.880   0.097  0.5444  2.1333  1.3331
  155MPD2     N 2419   1.197   0.846   0.524 -0.1147  0.8056 -0.3993
  155MPD2    H5 2420   1.237   0.778   0.589 -0.4891 -1.9721 -3.0593
  155MPD2    N1 2421   1.185   0.478   0.216  0.6041 -0.4311  0.2838
  155MPD2    H7 2422   1.160   0.447   0.123  2.2229 -0.3342 -0.1772
  156TMC2    C1 2423   0.123   2.523  11.781 -0.4188  0.0966 -0.0085
  156TMC2    C2 2424   4.737   2.562  11.797  0.0115 -0.5329 -0.5525
  156TMC2    C3 2425   4.702   2.671  11.727  0.4372 -0.1032 -0.7995
  156TMC2    C4 2426   0.218   2.587  11.709  0.1144 -0.5511  0.5759
  156TMC2    C5 2427   0.178   2.704  11.643  0.4943  0.1231  0.0997
  156TMC2    C6 2428   0.050   2.746  11.652 -0.5496  0.0753 -0.7726
  156TMC2     C 2429   0.180   2.424  11.865  0.3312 -0.3337  0.5114
  156TMC2     O 2430   0.161   2.441  11.984 -0.6036 -0.3587  0.0388
  156TMC2     H 2431   4.662   2.519  11.863  2.9847 -0.4925  2.8260
  156TMC2    H1 2432   0.318   2.546  11.699  0.6775  0.6888  1.1070
  156TMC2    H2 2433   0.030   2.835  11.593 -2.7154 -0.5355 -0.9605
  156TMC2    C7 2434   0.272   2.796  11.585 -0.2586 -0.4999 -0.5814
  156TMC2    C8 2435   4.575   2.726  11.764 -0.1143  0.4105 -0.5344
  156TMC2    O1 2436   0.222   2.898  11.540  0.2761  0.3165 -0.4254
  156TMC2    O2 2437   4.527   2.699  11.876 -0.0786 -0.1558 -0.6177
  156TMC2    O5 2438   4.516   2.780  11.656  0.3683 -0.3842 -0.1456
  156TMC2    H5 2439   4.567   2.773  11.573  0.3096  0.6069 -0.2677
  157MPD2     C 2440   0.434   2.185  11.750  0.1389 -0.1001 -0.1859
  157MPD2    C1 2441   0.363   2.253  11.851  0.1028  0.2014 -0.0521
  157MPD2    C2 2442   0.389   2.232  11.983  0.0368  0.3050  0.1206
  157MPD2    C3 2443   0.511   2.178  12.013  0.2309 -0.0771  0.2246
  157MPD2    C4 2444   0.598   2.131  11.914  0.4000  0.3076  0.2345
  157MPD2    C5 2445   0.556   2.134  11.776  0.1262  0.2164  0.2460
  157MPD2     H 2446   0.319   2.267  12.058 -1.8573 -2.4576 -0.3867
  157MPD2    H1 2447   0.693   2.086  11.939  0.6021 -0.0476 -1.1494
  157MPD2    H2 2448   0.403   2.166  11.648  2.0839 -1.3238 -0.5456
  157MPD2    H3 2449   0.620   2.088  11.703  0.7784 -1.9854  2.2055
  157MPD2     N 2450   0.563   2.170  12.144  0.6279  0.1497  0.1753
  157MPD2    H5 2451   0.659   2.140  12.155  1.3506  1.7604 -1.7728
  157MPD2    N1 2452   0.261   2.337  11.795 -0.4621  0.2173 -0.0511
  157MPD2    H7 2453   0.248   2.335  11.694 -1.3118 -0.9286  0.0856
  158TMC2    C1 2454   0.181   1.804  14.314  0.8375  0.3640  0.0862
  158TMC2    C2 2455   0.092   1.906  14.320 -0.4440  0.5281  0.0984
  158TMC2    C3 2456   4.713   1.886  14.249 -0.7245  0.0570 -0.0188
  158TMC2    C4 2457   0.166   1.685  14.250 -0.2315  0.0844 -0.8793
  158TMC2    C5 2458   0.055   1.676  14.169  0.1826  0.0346  0.5768
  158TMC2    C6 2459   4.699   1.779  14.167 -0.1615 -0.2196  0.1649
  158TMC2     C 2460   0.300   1.811  14.388  0.2103  0.3190  0.3734
  158TMC2     O 2461   0.294   1.873  14.492 -0.1377  0.0943  0.3185
  158TMC2     H 2462   0.096   1.995  14.381  0.8822 -0.6154  1.6612
  158TMC2    H1 2463   0.234   1.601  14.267 -0.3148  0.1225 -0.3651
  158TMC2    H2 2464   4.613   1.764  14.102  0.8118 -0.8290 -1.0030
  158TMC2    C7 2465   0.009   1.547  14.122  0.3360  0.1172 -0.2818
  158TMC2    C8 2466   4.623   2.005  14.241 -0.9308 -0.0271  0.2268
  158TMC2    O1 2467   4.628   1.538  14.101  0.1866 -0.7319  0.2662
  158TMC2    O2 2468   4.656   2.122  14.265 -0.6271  0.1091 -0.3089
  158TMC2    O5 2469   4.514   1.976  14.170  0.3017  0.3255 -0.2065
  158TMC2    H5 2470   4.481   1.885  14.184 -0.4041  0.6174  0.0102
  159MPD2     C 2471   0.801   1.768  14.461  0.5589  0.2603  0.0418
  159MPD2    C1 2472   0.776   1.730  14.330 -0.4201 -0.2699  0.4100
  159MPD2    C2 2473   0.646   1.734  14.281 -0.2882 -0.1359 -0.0705
  159MPD2    C3 2474   0.544   1.764  14.372 -0.1391  0.2926 -0.7196
  159MPD2    C4 2475   0.572   1.797  14.503  0.2452 -0.5337  0.4846
  159MPD2    C5 2476   0.700   1.805  14.539  0.3238 -0.4394 -0.4602
  159MPD2     H 2477   0.615   1.711  14.179 -1.9266  2.7079 -0.2210
  159MPD2    H1 2478   0.504   1.817  14.586 -0.8464 -0.7009 -0.3760
  159MPD2    H2 2479   0.899   1.785  14.503 -0.1554  1.1357  1.3534
  159MPD2    H3 2480   0.710   1.834  14.643  0.0603 -1.3195 -0.1884
  159MPD2     N 2481   0.416   1.761  14.320  0.2393 -0.3484  0.0374
  159MPD2    H5 2482   0.400   1.725  14.227  0.3427  0.9303 -0.4730
  159MPD2    N1 2483   0.889   1.693  14.247  0.4170 -0.0528  0.6864
  159MPD2    H7 2484   0.981   1.694  14.291 -0.3459  0.4205  2.2738
  160TMC2    C1 2485   0.161   4.144   1.454 -0.1398  0.4507 -0.2747
  160TMC2    C2 2486   0.074   4.042   1.491 -0.8623  0.2628 -0.2600
  160TMC2    C3 2487   0.107   3.913   1.482 -0.1921  0.1270 -0.3746
  160TMC2    C4 2488   0.286   4.119   1.415 -0.3610  0.0144  0.1503
  160TMC2    C5 2489   0.324   3.986   1.420  0.2348  0.4417  0.7003
  160TMC2    C6 2490   0.238   3.880   1.452 -0.3094  0.0702  0.8410
  160TMC2     C 2491   0.115   4.277   1.422  0.4655  0.4975  0.3505
  160TMC2     O 2492   0.049   4.328   1.510 -0.3356  0.0499 -0.1137
  160TMC2     H 2493   4.713   4.065   1.529  0.9663  2.9931  2.8559
  160TMC2    H1 2494   0.354   4.198   1.386 -2.7497  1.3917 -1.6857
  160TMC2    H2 2495   0.280   3.783   1.476  0.4851  0.2513  0.1571
  160TMC2    C7 2496   0.461   3.941   1.380  0.6769  0.3700 -0.5371
  160TMC2    C8 2497   0.015   3.808   1.508 -0.5385  0.1731 -0.3508
  160TMC2    O1 2498   0.489   3.822   1.395  0.0014  0.3868  0.1123
  160TMC2    O2 2499   0.048   3.692   1.523 -0.0407 -0.6266  0.1700
  160TMC2    O5 2500   4.662   3.831   1.408 -0.0309  0.2808 -0.6251
  160TMC2    H5 2501   4.643   3.926   1.389 -0.5035 -0.3633 -3.3749
  161MPD2     C 2502   0.105   4.558   1.338  0.2408  0.3720  0.4236
  161MPD2    C1 2503   0.135   4.454   1.256  0.3310  0.2787  0.0819
  161MPD2    C2 2504   0.154   4.483   1.121  0.2438  0.3803 -0.6414
  161MPD2    C3 2505   0.144   4.612   1.074  0.2287 -0.3617 -0.2842
  161MPD2    C4 2506   0.108   4.715   1.159  0.1450 -0.0207  0.5729
  161MPD2    C5 2507   0.088   4.688   1.296  0.3833 -0.1763  0.5753
  161MPD2     H 2508   0.201   4.412   1.054 -2.1134 -0.0850 -1.8330
  161MPD2    H1 2509   0.089   0.078   1.125 -0.0845 -0.7720 -1.5536
  161MPD2    H2 2510   0.102   4.544   1.446 -1.9242  4.1305  0.8530
  161MPD2    H3 2511   0.053   0.022   1.369 -1.8562 -2.5050  1.7861
  161MPD2     N 2512   0.148   4.648   0.940 -0.0018 -0.6532 -0.4259
  161MPD2    H5 2513   0.119   0.004   0.917  1.0999  0.0076  0.9059
  161MPD2    N1 2514   0.151   4.324   1.302 -0.1034  0.0148  0.0406
  161MPD2    H7 2515   0.198   4.263   1.236 -1.2954 -0.1267 -0.6851
  162TMC2    C1 2516   3.628   1.555   1.192  0.1589 -0.0912 -0.3143
  162TMC2    C2 2517   3.562   1.592   1.311 -0.1848  0.1611 -0.5794
  162TMC2    C3 2518   3.642   1.598   1.422  0.3883 -0.5496  0.4157
  162TMC2    C4 2519   3.760   1.515   1.188 -0.2263 -0.7858  0.3489
  162TMC2    C5 2520   3.831   1.534   1.308 -0.3238 -0.9050 -0.0585
  162TMC2    C6 2521   3.777   1.570   1.422  0.3123  0.1927 -0.5012
  162TMC2     C 2522   3.545   1.511   1.086 -0.0296  0.4319 -0.1355
  162TMC2     O 2523   3.571   1.551   0.974  0.2961  0.3306 -0.0996
  162TMC2     H 2524   3.454   1.603   1.308 -0.2342  0.0105  0.9202
  162TMC2    H1 2525   3.808   1.504   1.091 -0.8464  0.9033 -0.1528
  162TMC2    H2 2526   3.818   1.577   1.522 -0.6421 -1.5639  0.0037
  162TMC2    C7 2527   3.943   1.446   1.337 -0.6776 -0.5899 -0.2469
  162TMC2    C8 2528   3.582   1.612   1.552 -0.3654  0.1566  0.1258
  162TMC2    O1 2529   4.005   1.470   1.440 -0.5247 -0.9437  0.8035
  162TMC2    O2 2530   3.643   1.635   1.658  0.0977  0.4203  0.0846
  162TMC2    O5 2531   3.446   1.613   1.535 -0.6425 -0.6550 -0.5203
  162TMC2    H5 2532   3.402   1.556   1.468  0.4368 -0.1412 -1.6612
  163MPD2     C 2533   3.174   1.221   0.891  0.4004 -0.3562 -0.3856
  163MPD2    C1 2534   3.265   1.309   0.831  0.6425 -0.1127 -0.7887
  163MPD2    C2 2535   3.366   1.364   0.907 -0.1705  0.1965 -0.4714
  163MPD2    C3 2536   3.363   1.354   1.051 -0.0107 -0.4480  0.5370
  163MPD2    C4 2537   3.264   1.282   1.111  0.8625 -0.0842 -0.2545
  163MPD2    C5 2538   3.177   1.208   1.029 -0.3614 -0.6557 -0.4097
  163MPD2     H 2539   3.441   1.417   0.851  0.7903  0.0010  0.6145
  163MPD2    H1 2540   3.263   1.273   1.219 -0.8502  0.6305 -0.2118
  163MPD2    H2 2541   3.104   1.153   0.844  0.2557  0.9864 -2.1068
  163MPD2    H3 2542   3.098   1.142   1.064 -1.3904  1.0610  0.5208
  163MPD2     N 2543   3.456   1.416   1.138  0.2407  0.0639 -0.1934
  163MPD2    H5 2544   3.450   1.395   1.237 -1.1610  2.8667  0.3082
  163MPD2    N1 2545   3.251   1.318   0.692  0.5380  0.1673 -0.7241
  163MPD2    H7 2546   3.185   1.253   0.650 -0.0920  0.0416  0.4803
  164TMC2    C1 2547   3.961   1.075  11.039  0.5839  0.1764  0.2117
  164TMC2    C2 2548   3.956   0.990  10.932 -0.4812  0.5444  0.3270
  164TMC2    C3 2549   3.871   1.018  10.830  0.4847  0.2166 -0.0896
  164TMC2    C4 2550   3.892   1.192  11.041  0.3034 -0.3326  0.6533
  164TMC2    C5 2551   3.812   1.224  10.932  0.0911  0.0858 -0.0840
  164TMC2    C6 2552   3.799   1.130  10.829  0.4137  0.2535 -0.5542
  164TMC2     C 2553   3.955   1.010  11.167 -0.2965  0.3913 -0.6340
  164TMC2     O 2554   3.867   1.046  11.244  0.2047 -0.9958 -0.0196
  164TMC2     H 2555   4.008   0.895  10.936 -0.7450  0.3795 -0.1309
  164TMC2    H1 2556   3.893   1.247  11.135  0.5417  1.1902 -0.2377
  164TMC2    H2 2557   3.722   1.138  10.753 -1.7571  0.1482  1.6389
  164TMC2    C7 2558   3.710   1.328  10.960 -0.3755 -0.5872 -0.8099
  164TMC2    C8 2559   3.848   0.925  10.723  0.3230 -0.1681 -0.4611
  164TMC2    O1 2560   3.602   1.319  10.902 -0.2714  0.4545  0.1428
  164TMC2    O2 2561   3.791   0.964  10.620 -0.5413 -0.7119 -0.3125
  164TMC2    O5 2562   3.895   0.799  10.748  0.1670 -0.1749  0.5830
  164TMC2    H5 2563   3.928   0.778  10.838 -2.5043  0.7966  1.7776
  165TMC2    C1 2564   4.617   3.131   0.754 -0.2830  0.8009  0.9972
  165TMC2    C2 2565   4.538   3.232   0.716  0.9298 -0.8064 -0.2357
  165TMC2    C3 2566   4.584   3.359   0.709  0.6593 -0.7669 -0.4331
  165TMC2    C4 2567   0.010   3.154   0.787 -0.4359  0.0093 -0.0850
  165TMC2    C5 2568   0.049   3.285   0.800 -0.0409 -0.4918  0.1731
  165TMC2    C6 2569   4.708   3.387   0.758 -0.0731 -0.1727 -0.6562
  165TMC2     C 2570   4.549   3.002   0.771  0.6712 -0.1470 -0.5505
  165TMC2     O 2571   4.436   2.992   0.724 -0.1120 -0.2930 -0.4158
  165TMC2     H 2572   4.432   3.220   0.695  0.3858  1.4726  1.1584
  165TMC2    H1 2573   0.080   3.076   0.812 -0.3452 -0.0551 -0.5389
  165TMC2    H2 2574   4.737   3.489   0.777  1.0503 -1.0197  2.1162
  165TMC2    C7 2575   0.194   3.306   0.806 -0.0502  0.2708 -0.3361
  165TMC2    C8 2576   4.507   3.457   0.637 -0.4474  0.2557 -0.4896
  165TMC2    O1 2577   0.223   3.423   0.828 -0.8927 -0.5488  0.1303
  165TMC2    O2 2578   4.388   3.434   0.625 -0.1901 -0.5307  0.1677
  165TMC2    O5 2579   4.589   3.536   0.564 -0.3994 -0.0352  0.5764
  165TMC2    H5 2580   4.681   3.544   0.597 -0.9040 -2.1945  2.4862
  166MPD2     C 2581   4.492   2.557   1.016  0.2190 -0.4854  0.1881
  166MPD2    C1 2582   4.416   2.620   0.918 -0.2640  0.2704  0.3532
  166MPD2    C2 2583   4.459   2.739   0.861  0.3472 -0.4272 -0.0854
  166MPD2    C3 2584   4.564   2.806   0.923 -0.7713 -0.0320  0.0164
  166MPD2    C4 2585   4.644   2.742   1.017 -0.5920  0.1771 -0.2628
  166MPD2    C5 2586   4.604   2.617   1.060  0.1562  0.7930 -0.8017
  166MPD2     H 2587   4.405   2.769   0.772  1.5583 -1.0300 -1.0252
  166MPD2    H1 2588   0.002   2.782   1.048 -1.6776  0.7709  2.3099
  166MPD2    H2 2589   4.467   2.456   1.046 -0.7349  0.0942  1.3320
  166MPD2    H3 2590   4.659   2.569   1.140 -0.2272 -1.2323 -1.7542
  166MPD2     N 2591   4.613   2.929   0.866 -0.1153  0.0041  0.2142
  166MPD2    H5 2592   4.697   2.962   0.912 -1.2959 -0.6114  2.8408
  166MPD2    N1 2593   4.313   2.538   0.858  0.0394 -0.0129  0.7538
  166MPD2    H7 2594   4.311   2.440   0.885 -1.2701  0.1803  1.3416
  167TMC2    C1 2595   3.977   1.260  12.165 -0.1880  0.5689  0.1908
  167TMC2    C2 2596   3.975   1.354  12.261  0.1609  0.3327 -0.4987
  167TMC2    C3 2597   3.915   1.328  12.380  0.3925  0.1196 -0.5402
  167TMC2    C4 2598   3.922   1.133  12.193 -0.0633 -0.4221  0.1985
  167TMC2    C5 2599   3.866   1.111  12.319 -0.3953 -0.2703 -0.1434
  167TMC2    C6 2600   3.859   1.210  12.415  0.0951 -0.1395  0.6709
  167TMC2     C 2601   4.013   1.301  12.031  0.0192 -0.6871  0.4101
  167TMC2     O 2602   4.090   1.398  12.015  0.4266 -0.1917  0.3172
  167TMC2     H 2603   4.022   1.451  12.246  1.2751 -0.4786 -2.2393
  167TMC2    H1 2604   3.935   1.047  12.127 -1.1380 -0.1556 -0.3692
  167TMC2    H2 2605   3.813   1.203  12.513 -0.4393  0.5370  0.4644
  167TMC2    C7 2606   3.835   0.985  12.373  1.1753 -0.4320  0.6212
  167TMC2    C8 2607   3.931   1.418  12.494 -0.1717 -0.4312 -0.7410
  167TMC2    O1 2608   3.861   0.974  12.493 -0.5012 -0.1914  0.6410
  167TMC2    O2 2609   3.975   1.391  12.603  0.5884  0.4672 -0.4461
  167TMC2    O5 2610   3.882   1.538  12.449 -0.4133  0.1829 -1.1028
  167TMC2    H5 2611   3.832   1.525  12.365  0.3499  2.3626 -1.8743
  168MPD2     C 2612   4.035   1.331  11.737  0.0687 -0.2217 -0.1669
  168MPD2    C1 2613   3.962   1.233  11.797 -0.6103  0.4463  0.4405
  168MPD2    C2 2614   3.897   1.133  11.730  0.4382 -0.5291 -0.6689
  168MPD2    C3 2615   3.892   1.130  11.597  0.0641  0.4067  0.9406
  168MPD2    C4 2616   3.959   1.228  11.526 -0.1977 -0.2083 -0.9235
  168MPD2    C5 2617   4.036   1.320  11.598 -0.0537 -0.4772  0.0084
  168MPD2     H 2618   3.845   1.059  11.790 -0.3029 -2.1583 -3.3377
  168MPD2    H1 2619   3.963   1.233  11.418  0.1018  1.9411 -0.8230
  168MPD2    H2 2620   4.089   1.411  11.786 -0.0441 -0.3854  0.2250
  168MPD2    H3 2621   4.101   1.387  11.541 -0.2895  0.5193  0.9186
  168MPD2     N 2622   3.814   1.042  11.523 -0.4606  0.5944  0.2414
  168MPD2    H5 2623   3.816   1.052  11.422  1.5064  1.3447  0.3498
  168MPD2    N1 2624   3.945   1.230  11.936 -0.5813  0.4038 -0.1363
  168MPD2    H7 2625   3.881   1.158  11.971  0.4849  0.6270  2.2548
  169MPD1     C 2626   4.719   1.078   8.952 -0.5424 -0.2490  0.2442
  169MPD1    C1 2627   4.681   1.014   9.069  0.8932  0.5666  0.0585
  169MPD1    C2 2628   0.047   0.952   9.144  0.5433 -0.1202  0.2178
  169MPD1    C3 2629   0.174   0.946   9.102  0.6719  0.4142  0.8731
  169MPD1    C4 2630   0.202   0.984   8.972  0.1326  0.7601 -0.4063
  169MPD1    C5 2631   0.108   1.060   8.904 -0.3300 -0.8956 -0.6615
  169MPD1     H 2632   0.019   0.897   9.232  0.4249 -0.0618  0.2169
  169MPD1    H1 2633   0.302   0.976   8.929  0.3578  2.0591 -0.1171
  169MPD1    H2 2634   4.648   1.140   8.899 -0.2324 -0.6614 -0.6531
  169MPD1    H3 2635   0.131   1.104   8.808  1.8527  0.7136  0.5958
  169MPD1     N 2636   0.267   0.885   9.187  0.6055 -0.2165 -0.7136
  169MPD1    H5 2637   0.235   0.859   9.280 -2.4624  2.9639 -0.8467
  169MPD1    N1 2638   4.566   1.052   9.137  0.0060 -0.1075  0.9070
  169MPD1    H6 2639   4.485   1.072   9.078  0.6432 -0.1934  0.0056
  169MPD1    H7 2640   4.538   0.977   9.200  0.4442 -1.4136 -0.4311
  170MPD1     C 2641   3.515   2.873  13.973  0.2480 -0.7909  0.5938
  170MPD1    C1 2642   3.644   2.828  13.956  0.1856  0.0469  0.4649
  170MPD1    C2 2643   3.725   2.894  13.867  0.1607 -0.3472  0.1279
  170MPD1    C3 2644   3.674   2.999  13.791  0.0090  0.2010 -0.0990
  170MPD1    C4 2645   3.541   3.036  13.806  0.4779 -0.9583  0.3874
  170MPD1    C5 2646   3.464   2.971  13.896 -0.4145 -0.0536  0.1127
  170MPD1     H 2647   3.830   2.871  13.855  0.6757  1.6887  0.6659
  170MPD1    H1 2648   3.489   3.102  13.738  2.2066  0.2277  0.2148
  170MPD1    H2 2649   3.443   2.828  14.040 -2.0135  0.3245 -1.0594
  170MPD1    H3 2650   3.358   2.983  13.915 -0.4240  0.5190 -0.2952
  170MPD1     N 2651   3.760   3.066  13.697 -0.5357 -0.1866 -0.3571
  170MPD1    H5 2652   3.856   3.032  13.688 -0.2755  0.5363 -0.2883
  170MPD1    N1 2653   3.686   2.720  14.042 -0.1920  0.2921  0.3388
  170MPD1    H6 2654   3.623   2.640  14.044 -0.6989  0.6504 -0.9994
  170MPD1    H7 2655   3.771   2.680  14.003 -0.0760  1.1286 -0.2674
  171MPD1     C 2656   2.838   4.086  14.681  0.0796  0.1995 -0.5145
  171MPD1    C1 2657   2.807   4.188  14.762 -0.1774 -0.6372  0.0944
  171MPD1    C2 2658   2.807   4.178  14.900 -0.1784 -0.1879 -0.4542
  171MPD1    C3 2659   2.835   4.053  14.952 -0.5360  0.3088 -0.2332
  171MPD1    C4 2660   2.879   3.947  14.868 -0.5852 -0.0829 -0.1628
  171MPD1    C5 2661   2.879   3.964  14.730 -0.0247 -0.0529  0.6656
  171MPD1     H 2662   2.759   4.253  14.963 -0.0964  1.2046 -2.0593
  171MPD1    H1 2663   2.915   3.855  14.912  1.8625 -0.2611 -2.4917
  171MPD1    H2 2664   2.821   4.105  14.576  0.3588  1.1604 -0.3884
  171MPD1    H3 2665   2.913   3.876  14.676 -1.1624  0.5896 -1.0663
  171MPD1     N 2666   2.826   4.021  15.094 -0.0196 -0.1743 -0.0944
  171MPD1    H5 2667   2.863   3.930  15.120 -2.3329 -0.3965  2.3603
  171MPD1    N1 2668   2.758   4.298  14.696 -0.2475  0.0169 -0.4909
  171MPD1    H6 2669   2.795   4.310  14.602 -0.5476 -1.0883 -0.7614
  171MPD1    H7 2670   2.786   4.380  14.749 -0.6420  0.9336 -1.7339
  172MPD1     C 2671   2.183   2.820  17.076  0.1776 -0.1438  0.7775
  172MPD1    C1 2672   2.183   2.782  17.208 -0.5044 -0.1253  0.1241
  172MPD1    C2 2673   2.190   2.885  17.298 -0.1901  0.6997  0.1494
  172MPD1    C3 2674   2.231   3.018  17.270 -0.3338 -0.2520 -0.5749
  172MPD1    C4 2675   2.257   3.046  17.138  0.4755  0.5964  0.2929
  172MPD1    C5 2676   2.235   2.945  17.040  1.0104 -0.1770 -0.0056
  172MPD1     H 2677   2.166   2.863  17.402  0.3992  0.5073  0.2421
  172MPD1    H1 2678   2.289   3.144  17.104  1.7182 -0.5272 -1.7744
  172MPD1    H2 2679   2.160   2.748  16.998  1.6528 -0.5114  0.6874
  172MPD1    H3 2680   2.262   2.970  16.938 -2.1908 -0.2903 -0.8533
  172MPD1     N 2681   2.241   3.121  17.364  0.4660 -0.0142  0.6239
  172MPD1    H5 2682   2.289   3.197  17.317  0.7369 -0.9410 -0.6202
  172MPD1    N1 2683   2.121   2.659  17.249 -0.3169  0.0997  0.3792
  172MPD1    H6 2684   2.123   2.575  17.192 -1.4911 -0.3781  1.0415
  172MPD1    H7 2685   2.144   2.633  17.345  2.1853 -1.3576 -0.6334
  173MPD1     C 2686   4.047   3.479  14.229 -0.4370  0.3493 -0.1748
  173MPD1    C1 2687   3.958   3.558  14.303  0.3795  0.7359  0.2927
  173MPD1    C2 2688   3.892   3.500  14.410  0.2206 -0.8715  0.6586
  173MPD1    C3 2689   3.904   3.373  14.443 -0.0502 -0.5218  0.6592
  173MPD1    C4 2690   3.990   3.299  14.368 -0.1019 -0.2247 -0.0698
  173MPD1    C5 2691   4.067   3.350  14.267 -0.2269 -0.7218  0.4655
  173MPD1     H 2692   3.821   3.562  14.463 -0.2020  0.2050 -1.1507
  173MPD1    H1 2693   4.013   3.196  14.392 -1.8231 -0.4108  0.7777
  173MPD1    H2 2694   4.107   3.533  14.157 -0.7294 -0.7125 -1.2168
  173MPD1    H3 2695   4.135   3.290  14.208  0.3999 -0.5680  1.0186
  173MPD1     N 2696   3.828   3.317  14.546 -0.0885  0.2659 -0.3678
  173MPD1    H5 2697   3.751   3.372  14.584  0.4851 -0.1716  1.4537
  173MPD1    N1 2698   3.968   3.698  14.284  0.6478  0.1911 -0.8993
  173MPD1    H6 2699   3.879   3.746  14.298  0.2929 -0.1934 -1.8220
  173MPD1    H7 2700   3.998   3.719  14.189  0.4670  0.3940 -0.9119
  174MPD1     C 2701   3.630   2.358  14.657 -0.1423 -0.7451  0.0200
  174MPD1    C1 2702   3.540   2.410  14.747 -0.2445 -0.2423  0.3423
  174MPD1    C2 2703   3.529   2.542  14.767  0.1035  0.3603  0.5829
  174MPD1    C3 2704   3.625   2.623  14.720 -1.1232  0.8898  0.0799
  174MPD1    C4 2705   3.735   2.572  14.653 -0.4107 -0.3069 -0.5153
  174MPD1    C5 2706   3.731   2.440  14.613 -0.2717 -0.2133  0.4085
  174MPD1     H 2707   3.452   2.571  14.837  0.6646 -0.6377  1.6063
  174MPD1    H1 2708   3.827   2.628  14.635  0.6603 -1.5629  1.0101
  174MPD1    H2 2709   3.641   2.253  14.634  1.7435 -0.6571  0.5567
  174MPD1    H3 2710   3.807   2.393  14.552  0.2463 -0.0469  0.9315
  174MPD1     N 2711   3.637   2.761  14.753  0.4340 -0.3197  0.1456
  174MPD1    H5 2712   3.733   2.792  14.740  0.1235  1.4620  2.0624
  174MPD1    N1 2713   3.433   2.331  14.793  0.0250  0.0480 -0.0587
  174MPD1    H6 2714   3.377   2.364  14.871 -2.3180  1.3670 -2.2712
  174MPD1    H7 2715   3.447   2.231  14.794  2.8799  0.4811  2.0637
  175MPD1     C 2716   1.884   0.979  15.535  0.9466 -0.2874  0.2547
  175MPD1    C1 2717   1.798   0.934  15.637 -0.0219 -0.2704 -0.6984
  175MPD1    C2 2718   1.741   0.808  15.628  0.9874 -0.2639 -0.1848
  175MPD1    C3 2719   1.773   0.724  15.522  0.0116  0.2170 -0.3695
  175MPD1    C4 2720   1.852   0.773  15.426 -0.1067  0.6909  0.4387
  175MPD1    C5 2721   1.909   0.899  15.428  0.5613  0.2566 -0.5618
  175MPD1     H 2722   1.680   0.767  15.707 -1.6802  1.3614 -1.3761
  175MPD1    H1 2723   1.876   0.714  15.338 -1.8393  0.8866 -0.1736
  175MPD1    H2 2724   1.926   1.079  15.534  1.4614 -0.5058  0.2166
  175MPD1    H3 2725   1.972   0.940  15.350  0.7123  1.0866 -0.0032
  175MPD1     N 2726   1.735   0.587  15.520 -0.6404 -0.3262 -0.1328
  175MPD1    H5 2727   1.758   0.533  15.437 -1.7471 -0.6020 -0.2569
  175MPD1    N1 2728   1.754   1.024  15.740 -0.0497 -0.6806 -0.1581
  175MPD1    H6 2729   1.751   0.984  15.834 -0.1693 -1.1996 -0.3882
  175MPD1    H7 2730   1.808   1.109  15.758  0.8447 -0.7220 -2.6451
  176MPD1     C 2731   3.106   1.480   0.109  0.5166  0.5625 -0.5746
  176MPD1    C1 2732   3.134   1.492  17.722  0.5986  0.4475  0.0846
  176MPD1    C2 2733   3.173   1.611  17.666 -0.3136 -0.1427  0.6752
  176MPD1    C3 2734   3.176   1.733  17.732  0.7595  0.1708 -0.8817
  176MPD1    C4 2735   3.145   1.724   0.113  0.5146  0.8025 -0.6819
  176MPD1    C5 2736   3.102   1.609   0.172  0.1840 -1.0131  0.5165
  176MPD1     H 2737   3.192   1.607  17.559  2.6442  2.6083  1.0788
  176MPD1    H1 2738   3.159   1.805   0.184  0.7397  1.9166 -2.0013
  176MPD1    H2 2739   3.067   1.395   0.164 -0.6894 -0.7360 -3.4217
  176MPD1    H3 2740   3.064   1.598   0.273 -1.4599  0.0506  0.0134
  176MPD1     N 2741   3.246   1.847  17.677 -0.0542  0.0408  0.4322
  176MPD1    H5 2742   3.273   1.832  17.580  0.7082  0.4459  0.5876
  176MPD1    N1 2743   3.107   1.380  17.640  0.2060  0.2909  0.4070
  176MPD1    H6 2744   3.120   1.285  17.673  0.3267 -0.0039 -0.4867
  176MPD1    H7 2745   3.168   1.392  17.559  2.6343 -1.5628  1.9570
  177MPD1     C 2746   1.968   2.763   9.622  0.4400 -0.0769  0.2982
  177MPD1    C1 2747   1.857   2.758   9.538  0.4775  0.9633  0.1440
  177MPD1    C2 2748   1.825   2.631   9.492  0.0085  0.5470  0.5699
  177MPD1    C3 2749   1.890   2.515   9.529 -0.0023  0.0020 -0.6077
  177MPD1    C4 2750   2.001   2.525   9.608 -0.8715  0.1985  0.6648
  177MPD1    C5 2751   2.034   2.650   9.655 -0.2287 -0.3711  0.6895
  177MPD1     H 2752   1.746   2.628   9.418 -0.6117  0.4912  1.2288
  177MPD1    H1 2753   2.064   2.442   9.638 -0.4050  0.9862  1.8663
  177MPD1    H2 2754   1.992   2.856   9.671 -0.8000  0.6446 -0.4592
  177MPD1    H3 2755   2.118   2.661   9.722 -1.6912  1.8349  2.1935
  177MPD1     N 2756   1.831   2.391   9.486 -0.2232 -0.0536 -0.2444
  177MPD1    H5 2757   1.746   2.406   9.433 -0.8108  1.6960  1.1857
  177MPD1    N1 2758   1.767   2.865   9.528  0.3650  0.5160 -0.3623
  177MPD1    H6 2759   1.712   2.862   9.443  1.2272  1.0962 -0.9445
  177MPD1    H7 2760   1.817   2.953   9.514  0.9024  0.4688  1.2525
  178MPD1     C 2761   4.088   2.934   0.179  0.3952  0.1436  0.0082
  178MPD1    C1 2762   4.043   2.814   0.151 -0.2794 -0.0755 -0.4825
  178MPD1    C2 2763   4.086   2.755   0.033  0.6932  0.0857  0.2441
  178MPD1    C3 2764   4.163   2.822  17.693  0.0304 -0.7797  0.6471
  178MPD1    C4 2765   4.191   2.954  17.709 -0.0723  0.1533 -0.9503
  178MPD1    C5 2766   4.157   3.006   0.083 -0.0796 -0.6421  0.2264
  178MPD1     H 2767   4.062   2.652   0.012  3.6328 -0.3054 -1.1476
  178MPD1    H1 2768   4.236   3.012  17.629  0.5370  0.9184 -0.0715
  178MPD1    H2 2769   4.067   2.985   0.273 -0.0157  0.5095 -0.2839
  178MPD1    H3 2770   4.177   3.107   0.116  2.7284 -0.4791 -1.9550
  178MPD1     N 2771   4.220   2.767  17.580 -0.5060  0.1869  0.0671
  178MPD1    H5 2772   4.284   2.826  17.527 -0.0750  0.5360  0.9825
  178MPD1    N1 2773   3.989   2.727   0.243  0.0840 -0.3299  0.6751
  178MPD1    H6 2774   3.929   2.788   0.299  0.5500  0.4267  0.3601
  178MPD1    H7 2775   3.929   2.659   0.198  0.3407  0.1019 -0.3347
  179MPD1     C 2776   3.840   0.926  14.971  0.7449  0.1099  0.3040
  179MPD1    C1 2777   3.963   0.909  15.041  0.1199  0.0435 -0.1390
  179MPD1    C2 2778   3.962   0.826  15.151  0.3758 -0.0903  0.6134
  179MPD1    C3 2779   3.841   0.756  15.181 -0.0313  0.1722  0.4663
  179MPD1    C4 2780   3.723   0.772  15.109 -0.4922 -0.7099 -0.4151
  179MPD1    C5 2781   3.721   0.862  15.007  0.1519 -0.0407 -0.0429
  179MPD1     H 2782   4.050   0.801  15.209  1.1302 -1.1411 -0.9893
  179MPD1    H1 2783   3.633   0.720  15.137 -0.3348  0.2988  1.9567
  179MPD1    H2 2784   3.836   1.000  14.892 -0.1122  0.3753  0.5979
  179MPD1    H3 2785   3.627   0.877  14.954  0.5837 -1.7747 -1.2858
  179MPD1     N 2786   3.824   0.675  15.294  0.3550  0.0691  0.3844
  179MPD1    H5 2787   3.735   0.628  15.309  0.1840  0.4974  0.7109
  179MPD1    N1 2788   4.082   0.961  14.993  0.0721 -0.0355 -0.2435
  179MPD1    H6 2789   4.152   0.959  15.067  1.0807 -2.0335 -1.2302
  179MPD1    H7 2790   4.079   1.052  14.946 -0.0122  0.7465  1.2882
  180MPD1     C 2791   3.451   1.997  14.854  0.0086  0.2722 -0.2390
  180MPD1    C1 2792   3.569   2.020  14.784 -0.0463  0.2196  0.6317
  180MPD1    C2 2793   3.561   2.006  14.643 -0.0988  0.1310  0.5380
  180MPD1    C3 2794   3.438   2.007  14.576  0.9609 -0.2937  0.1706
  180MPD1    C4 2795   3.325   2.017  14.649 -0.9251 -0.6982  0.3097
  180MPD1    C5 2796   3.330   2.008  14.785 -0.3109  0.2831 -0.0635
  180MPD1     H 2797   3.652   2.006  14.584 -1.1785 -0.5282 -1.1447
  180MPD1    H1 2798   3.223   2.024  14.611 -0.4933  0.1533 -0.6776
  180MPD1    H2 2799   3.452   1.995  14.962 -1.1553  0.8021 -0.2267
  180MPD1    H3 2800   3.234   2.010  14.834 -0.5108 -2.1531 -0.3546
  180MPD1     N 2801   3.438   2.006  14.432  0.4930 -0.2475 -0.6577
  180MPD1    H5 2802   3.531   2.011  14.392 -0.3956  0.5732 -2.5877
  180MPD1    N1 2803   3.690   2.027  14.849 -0.3035  0.1642  0.3683
  180MPD1    H6 2804   3.767   2.063  14.793 -3.0006  1.7032 -2.3408
  180MPD1    H7 2805   3.698   2.091  14.928  1.0284  1.0318 -0.4677
  181MPD1     C 2806   0.116   3.343  10.615  0.0612 -0.1830  0.1813
  181MPD1    C1 2807   0.082   3.473  10.593 -0.1784  0.4070  0.0110
  181MPD1    C2 2808   0.134   3.544  10.482  0.2432 -0.6976  0.1816
  181MPD1    C3 2809   0.232   3.480  10.402 -0.4049 -0.2856 -0.5712
  181MPD1    C4 2810   0.281   3.360  10.453 -0.3279 -0.7155 -0.2783
  181MPD1    C5 2811   0.222   3.292  10.553  0.0454  0.2182  0.2804
  181MPD1     H 2812   0.111   3.646  10.454 -0.5096 -0.6408  1.0151
  181MPD1    H1 2813   0.368   3.317  10.404  0.8445  1.7259 -0.3765
  181MPD1    H2 2814   0.064   3.293  10.696  0.2596 -1.8760 -0.7459
  181MPD1    H3 2815   0.247   3.191  10.584  1.5474  0.4027 -0.3590
  181MPD1     N 2816   0.301   3.549  10.294 -0.2416 -0.0165 -0.5196
  181MPD1    H5 2817   0.378   3.499  10.253 -0.9163  0.7698 -2.7454
  181MPD1    N1 2818   4.709   3.534  10.655 -0.5951 -0.0384  0.7257
  181MPD1    H6 2819   4.678   3.484  10.738 -1.4296 -0.1178  0.3646
  181MPD1    H7 2820   4.709   3.635  10.665  1.3870  0.1684 -1.3029
  182MPD1     C 2821   1.272   2.272   1.064  0.4765 -0.7502 -0.2943
  182MPD1    C1 2822   1.197   2.285   0.950  0.1217  0.6746 -0.3111
  182MPD1    C2 2823   1.059   2.266   0.964 -0.7111 -0.1590  0.4036
  182MPD1    C3 2824   1.000   2.227   1.076  0.5369  0.8594  0.4292
  182MPD1    C4 2825   1.077   2.203   1.188  0.4823 -0.4743 -0.6667
  182MPD1    C5 2826   1.210   2.224   1.184  0.0067 -0.0319 -0.1927
  182MPD1     H 2827   0.997   2.281   0.876  0.2219  0.8120 -0.0900
  182MPD1    H1 2828   1.028   2.164   1.277  2.3270  3.0043  1.8443
  182MPD1    H2 2829   1.378   2.291   1.072  0.1929  0.4787  0.5217
  182MPD1    H3 2830   1.272   2.201   1.270  0.9004 -0.6200 -1.0101
  182MPD1     N 2831   0.864   2.198   1.077 -0.1909 -0.1652  0.2215
  182MPD1    H5 2832   0.841   2.152   1.165 -1.5616  2.4455  1.2349
  182MPD1    N1 2833   1.253   2.342   0.837 -0.6267  0.5187 -0.9883
  182MPD1    H6 2834   1.352   2.318   0.828 -0.6545  0.3468 -0.8241
  182MPD1    H7 2835   1.205   2.318   0.751 -0.5207  1.0753 -1.2074
  183MPD1     C 2836   1.027   2.208   8.481 -0.2095 -0.5778  0.6043
  183MPD1    C1 2837   0.954   2.217   8.596 -0.0222  0.0892 -0.2828
  183MPD1    C2 2838   0.975   2.316   8.693 -0.1784  0.6878  0.2654
  183MPD1    C3 2839   1.082   2.398   8.672 -0.8596 -0.4736 -0.5619
  183MPD1    C4 2840   1.170   2.373   8.573 -0.1475 -0.2852 -0.1473
  183MPD1    C5 2841   1.144   2.281   8.474  0.0860  0.3643 -0.1546
  183MPD1     H 2842   0.899   2.334   8.768  2.1680  0.3803  2.7188
  183MPD1    H1 2843   1.260   2.433   8.562 -0.7154  0.5170 -0.3674
  183MPD1    H2 2844   1.009   2.132   8.405  2.0494  0.5896 -1.0907
  183MPD1    H3 2845   1.218   2.272   8.395 -0.0703 -0.7878 -0.1644
  183MPD1     N 2846   1.094   2.501   8.770  0.5007 -0.0950 -0.3785
  183MPD1    H5 2847   1.028   2.498   8.847 -1.4961 -2.2528 -2.1601
  183MPD1    N1 2848   0.833   2.148   8.602  0.3170  0.8588  0.0913
  183MPD1    H6 2849   0.793   2.132   8.694 -0.3135  2.6421  0.1410
  183MPD1    H7 2850   0.819   2.066   8.544  0.3262  1.0697 -0.2127
  184MPD1     C 2851   1.004   1.164  10.412  0.4739 -0.2612 -0.6961
  184MPD1    C1 2852   0.893   1.184  10.347  0.0363 -0.4038  0.1124
  184MPD1    C2 2853   0.891   1.256  10.234  0.3735  0.4112 -0.6874
  184MPD1    C3 2854   1.014   1.290  10.170  0.2383  0.0684 -0.3846
  184MPD1    C4 2855   1.132   1.265  10.230 -0.5389  0.0385  0.4289
  184MPD1    C5 2856   1.119   1.199  10.349  0.7210  0.5240  0.6858
  184MPD1     H 2857   0.793   1.287  10.198  0.4235  0.8323 -0.4709
  184MPD1    H1 2858   1.229   1.295  10.193 -1.5790  0.8891 -1.6611
  184MPD1    H2 2859   1.004   1.109  10.506  1.2023  2.6314  1.0017
  184MPD1    H3 2860   1.213   1.174  10.397 -0.3577 -3.4054  0.7085
  184MPD1     N 2861   1.018   1.373  10.051  0.3670  0.6002  0.6308
  184MPD1    H5 2862   1.104   1.416  10.018  1.1970 -0.6325  1.1780
  184MPD1    N1 2863   0.776   1.150  10.416  0.2236  0.0269  0.2899
  184MPD1    H6 2864   0.693   1.133  10.359  0.6339 -1.9789  0.3011
  184MPD1    H7 2865   0.794   1.072  10.478 -2.4236  0.9645  2.2022
  185MPD1     C 2866   0.371   1.194   9.299 -0.1534  0.2970 -0.6099
  185MPD1    C1 2867   0.501   1.210   9.263 -0.1077 -0.1736  0.1137
  185MPD1    C2 2868   0.581   1.296   9.340  0.0331 -0.1741 -0.5273
  185MPD1    C3 2869   0.537   1.344   9.464  0.7501 -0.4335 -0.5404
  185MPD1    C4 2870   0.414   1.304   9.509  0.3200  0.4767  0.3543
  185MPD1    C5 2871   0.333   1.236   9.426  0.3800  0.1385 -0.7085
  185MPD1     H 2872   0.674   1.324   9.293  0.4150  0.9464  0.8819
  185MPD1    H1 2873   0.368   1.341   9.600 -0.1860  1.8799 -0.4712
  185MPD1    H2 2874   0.303   1.154   9.225 -1.1414  0.4581  0.1998
  185MPD1    H3 2875   0.229   1.224   9.455  0.6814  1.5889  1.0087
  185MPD1     N 2876   0.616   1.422   9.551  0.1989  0.4185  0.4988
  185MPD1    H5 2877   0.576   1.439   9.643  3.1425 -0.2458  1.9118
  185MPD1    N1 2878   0.535   1.182   9.130 -0.3608  0.2341  0.4674
  185MPD1    H6 2879   0.635   1.178   9.110 -0.4415  1.9001 -0.2740
  185MPD1    H7 2880   0.485   1.102   9.093 -1.5170 -0.9473  4.5707
  186MPD1     C 2881   3.917   0.798  15.764 -0.2793 -0.3594 -0.1633
  186MPD1    C1 2882   3.842   0.811  15.880 -0.1580  0.3023  0.3045
  186MPD1    C2 2883   3.906   0.847  15.999 -0.1180  0.1129 -0.3906
  186MPD1    C3 2884   4.045   0.878  16.001 -0.1715  1.3537  0.0634
  186MPD1    C4 2885   4.115   0.859  15.883  0.4057  0.4451 -0.4555
  186MPD1    C5 2886   4.054   0.826  15.763 -0.2834 -0.0059  0.4247
  186MPD1     H 2887   3.848   0.855  16.091  0.4607  1.4472 -0.1440
  186MPD1    H1 2888   4.222   0.874  15.869  0.0079  2.5839 -1.2361
  186MPD1    H2 2889   3.872   0.773  15.669 -0.3952 -1.0876  0.0799
  186MPD1    H3 2890   4.116   0.818  15.674 -0.3417 -0.0368  0.3871
  186MPD1     N 2891   4.119   0.923  16.114  0.3887 -0.4538 -0.0380
  186MPD1    H5 2892   4.217   0.946  16.096  0.4061 -0.3480  0.1944
  186MPD1    N1 2893   3.711   0.766  15.870 -0.2846  0.8064 -0.3069
  186MPD1    H6 2894   3.657   0.812  15.943 -1.4867 -1.5149  0.2606
  186MPD1    H7 2895   3.670   0.793  15.781  1.0655  2.3220 -0.4813
  187MPD1     C 2896   3.730   2.866  17.746 -0.0493 -0.0736 -0.2742
  187MPD1    C1 2897   3.656   2.959  17.678 -0.3377  1.0249 -0.1069
  187MPD1    C2 2898   3.622   2.924  17.548  0.0332 -0.1196 -0.0084
  187MPD1    C3 2899   3.673   2.813  17.481  0.0924 -0.0771 -0.3226
  187MPD1    C4 2900   3.750   2.727  17.559 -0.2703 -0.0650 -0.0598
  187MPD1    C5 2901   3.769   2.748  17.690  0.7435 -0.0083 -0.1452
  187MPD1     H 2902   3.555   2.989  17.494 -0.7767  0.7905  2.1094
  187MPD1    H1 2903   3.802   2.647  17.506 -0.1413  0.4886 -0.7789
  187MPD1    H2 2904   3.761   2.881   0.099 -0.2986  0.2861 -0.2522
  187MPD1    H3 2905   3.828   2.675  17.744  0.7390 -0.2580 -0.4796
  187MPD1     N 2906   3.632   2.791  17.344  0.3292 -0.2774 -0.2479
  187MPD1    H5 2907   3.560   2.850  17.303 -0.7257 -1.1911  0.2797
  187MPD1    N1 2908   3.591   3.066   0.003 -0.8404  0.2966  0.1434
  187MPD1    H6 2909   3.559   3.147  17.701  0.6036  0.1020 -1.0363
  187MPD1    H7 2910   3.663   3.096   0.068 -0.8886 -0.0665  0.3682
  188MPD1     C 2911   3.181   3.083   9.782 -0.7947  0.0571 -0.8949
  188MPD1    C1 2912   3.276   3.076   9.877  0.2014  0.6472  0.4160
  188MPD1    C2 2913   3.276   2.960   9.955  0.2486 -0.1579  0.3295
  188MPD1    C3 2914   3.219   2.843   9.908 -0.1936 -0.7895  0.1817
  188MPD1    C4 2915   3.147   2.850   9.792  0.6079 -0.8313  0.4041
  188MPD1    C5 2916   3.122   2.970   9.733 -0.4690  0.1913 -0.7551
  188MPD1     H 2917   3.334   2.964  10.047 -3.4773  0.9146  2.6580
  188MPD1    H1 2918   3.093   2.764   9.754  1.3466  0.0075 -2.5445
  188MPD1    H2 2919   3.162   3.171   9.721  0.8799 -0.9012 -2.7802
  188MPD1    H3 2920   3.052   2.986   9.652 -2.8984 -1.0817  1.1108
  188MPD1     N 2921   3.227   2.722   9.976 -0.4923  0.4520 -0.3122
  188MPD1    H5 2922   3.165   2.648   9.943 -0.6675  1.2419 -1.7437
  188MPD1    N1 2923   3.316   3.198   9.932 -0.1018 -0.1192 -0.5587
  188MPD1    H6 2924   3.319   3.268   9.858  0.6834 -1.5523 -1.8923
  188MPD1    H7 2925   3.407   3.204   9.977 -0.4951 -1.7188  0.4372
  189MPD1     C 2926   0.169   3.786   0.702 -0.1345 -0.7202  0.6284
  189MPD1    C1 2927   0.150   3.725   0.579  0.6998  0.0177 -0.2193
  189MPD1    C2 2928   0.086   3.807   0.496 -0.6710 -0.4280 -0.0779
  189MPD1    C3 2929   0.063   3.941   0.511 -0.3606 -0.3918  0.0827
  189MPD1    C4 2930   0.119   4.005   0.623 -0.1131 -1.0905 -0.2366
  189MPD1    C5 2931   0.155   3.918   0.725  0.2440 -0.1570  1.0449
  189MPD1     H 2932   0.051   3.756   0.407  0.2600  1.0136 -1.2703
  189MPD1    H1 2933   0.104   4.108   0.652 -0.2786 -0.9063 -0.9765
  189MPD1    H2 2934   0.194   3.732   0.793  2.9775 -0.2982  0.0424
  189MPD1    H3 2935   0.189   3.961   0.818 -1.7547  3.3364  0.1521
  189MPD1     N 2936   4.718   4.001   0.419 -0.1666  0.0274 -0.1325
  189MPD1    H5 2937   4.680   3.943   0.345 -0.4643  0.1816 -0.1025
  189MPD1    N1 2938   0.158   3.591   0.566  0.1416 -0.2930  0.5595
  189MPD1    H6 2939   0.240   3.548   0.608  0.1621 -0.5746  0.2324
  189MPD1    H7 2940   0.159   3.559   0.469  0.7894  0.8464  0.1929
  190MPD1     C 2941   3.567   2.166  15.146  1.0998 -0.3336 -0.1413
  190MPD1    C1 2942   3.711   2.179  15.143  0.1630  0.6016 -0.1805
  190MPD1    C2 2943   3.783   2.098  15.227 -0.1613 -0.2983 -0.5748
  190MPD1    C3 2944   3.728   2.009  15.319 -0.8276  0.6201  0.7272
  190MPD1    C4 2945   3.590   2.003  15.329 -0.2682  0.7574 -0.3551
  190MPD1    C5 2946   3.512   2.088  15.247  0.5557  0.1013 -0.2122
  190MPD1     H 2947   3.891   2.088  15.221  0.0483  2.1656 -1.0882
  190MPD1    H1 2948   3.542   1.932  15.395  2.1271  0.0833  0.6664
  190MPD1    H2 2949   3.497   2.212  15.077  0.3383 -0.0823  0.7975
  190MPD1    H3 2950   3.404   2.083  15.239  0.3672  1.6186  1.2831
  190MPD1     N 2951   3.821   1.927  15.392  0.3405  0.6394  0.2961
  190MPD1    H5 2952   3.917   1.959  15.402  0.2440  2.0670 -3.2720
  190MPD1    N1 2953   3.763   2.244  15.032 -0.9672  0.6167  0.3235
  190MPD1    H6 2954   3.847   2.296  15.052 -0.5119 -0.3144  0.8470
  190MPD1    H7 2955   3.686   2.303  15.000 -1.0834 -0.6227 -1.6972
  191MPD1     C 2956   2.976   4.023  12.708 -0.2696 -0.6806 -0.1369
  191MPD1    C1 2957   3.113   4.007  12.717  0.1256 -0.0638 -0.0893
  191MPD1    C2 2958   3.199   4.060  12.617 -0.8716 -0.9264 -1.0278
  191MPD1    C3 2959   3.150   4.129  12.513 -0.1412 -0.0752  0.4052
  191MPD1    C4 2960   3.019   4.163  12.520 -0.2754 -0.4302 -0.2060
  191MPD1    C5 2961   2.932   4.098  12.606 -0.3951  0.7524 -0.0925
  191MPD1     H 2962   3.306   4.040  12.620 -1.0787 -2.1871 -2.2964
  191MPD1    H1 2963   2.971   4.216  12.438 -0.0399 -1.5331 -1.0548
  191MPD1    H2 2964   2.915   4.000  12.794  2.3277 -1.3574  1.5397
  191MPD1    H3 2965   2.830   4.131  12.588 -0.9723 -0.5638  0.7716
  191MPD1     N 2966   3.239   4.178  12.414  0.5877  0.3357  0.0755
  191MPD1    H5 2967   3.338   4.159  12.426  0.4185 -1.4356 -1.2580
  191MPD1    N1 2968   3.169   3.949  12.828 -0.0065  0.7634  0.5781
  191MPD1    H6 2969   3.111   3.881  12.876  1.2821 -0.7120  0.0660
  191MPD1    H7 2970   3.249   3.893  12.799 -1.3267 -0.7181 -0.1508
  192MPD1     C 2971   3.440   4.545  11.408 -0.1497  0.3654 -0.2159
  192MPD1    C1 2972   3.322   4.556  11.480 -0.4636  0.0284  0.1141
  192MPD1    C2 2973   3.332   4.533  11.617  0.6374 -1.1142  0.0945
  192MPD1    C3 2974   3.445   4.478  11.668 -0.3160 -0.2495  0.3778
  192MPD1    C4 2975   3.554   4.451  11.588  0.1036 -0.0618  0.2305
  192MPD1    C5 2976   3.548   4.485  11.459  0.7614 -0.2219  0.3221
  192MPD1     H 2977   3.251   4.560  11.684  0.9664 -2.0547  0.8721
  192MPD1    H1 2978   3.645   4.402  11.624  2.1360  2.0207 -2.0860
  192MPD1    H2 2979   3.449   4.576  11.304 -1.6482 -0.2602 -0.5265
  192MPD1    H3 2980   3.641   4.485  11.402  0.0538 -1.3193 -0.8337
  192MPD1     N 2981   3.452   4.444  11.809  0.3800  1.0525 -0.0586
  192MPD1    H5 2982   3.541   4.403  11.836  0.6825  1.4072 -0.5298
  192MPD1    N1 2983   3.203   4.616  11.431  0.0166  0.2648 -0.3585
  192MPD1    H6 2984   3.128   4.573  11.485  0.1959 -0.4229 -0.6530
  192MPD1    H7 2985   3.189   4.586  11.335 -0.6767  0.8853 -0.4476
  193MPD1     C 2986   2.340   4.193  16.343  0.4924 -0.0650  0.2944
  193MPD1    C1 2987   2.444   4.190  16.252 -0.4157  0.4621  0.1132
  193MPD1    C2 2988   2.549   4.287  16.269 -0.4688 -0.2472  0.4531
  193MPD1    C3 2989   2.544   4.375  16.375  0.0377  0.0103  0.8745
  193MPD1    C4 2990   2.448   4.361  16.466  0.3186  0.1337 -0.2861
  193MPD1    C5 2991   2.347   4.272  16.450 -0.4106  0.8061 -0.2079
  193MPD1     H 2992   2.613   4.296  16.182 -1.2307  1.5362  0.0801
  193MPD1    H1 2993   2.452   4.423  16.556  0.2398  0.3112 -0.4045
  193MPD1    H2 2994   2.256   4.126  16.328  0.3828  0.0503  0.3950
  193MPD1    H3 2995   2.274   4.262  16.529  0.2526  0.2345  0.3329
  193MPD1     N 2996   2.646   4.477  16.393  0.3056  0.1178 -0.6238
  193MPD1    H5 2997   2.646   4.535  16.476 -1.8740 -0.3821 -0.2610
  193MPD1    N1 2998   2.430   4.125  16.126 -0.1564  1.0458 -0.0310
  193MPD1    H6 2999   2.385   4.034  16.134  1.8313  0.1814  1.1653
  193MPD1    H7 3000   2.524   4.111  16.091 -0.2678  2.3530 -0.8346
  194MPD1     C 3001   0.480   1.552  16.805 -0.0717 -0.3794  0.1471
  194MPD1    C1 3002   0.481   1.479  16.686 -0.1215  0.4432 -0.4481
  194MPD1    C2 3003   0.543   1.356  16.684  0.2470 -0.1752  0.8544
  194MPD1    C3 3004   0.587   1.304  16.806 -0.1830  0.0979 -0.0774
  194MPD1    C4 3005   0.575   1.378  16.925 -0.2881 -0.2210 -0.0132
  194MPD1    C5 3006   0.517   1.506  16.926 -0.4409 -0.6615  0.7357
  194MPD1     H 3007   0.540   1.298  16.592  1.8832  1.5581 -0.2957
  194MPD1    H1 3008   0.615   1.348  17.021  3.3743 -0.4554 -1.6006
  194MPD1    H2 3009   0.445   1.655  16.800  0.9463 -0.0260  0.2674
  194MPD1    H3 3010   0.519   1.551  17.025 -0.4520 -0.7760  0.7885
  194MPD1     N 3011   0.651   1.178  16.822  0.3082  0.5360 -1.2229
  194MPD1    H5 3012   0.686   1.155  16.915 -0.4527 -0.3972 -1.1649
  194MPD1    N1 3013   0.441   1.535  16.560 -0.4532  0.0503  0.0181
  194MPD1    H6 3014   0.421   1.464  16.489 -1.6515  0.8338 -0.4268
  194MPD1    H7 3015   0.355   1.589  16.571 -1.3149 -1.2291 -0.3452
  195MPD1     C 3016   2.354   3.472   0.602 -0.5822 -0.6511 -0.6510
  195MPD1    C1 3017   2.488   3.476   0.624 -0.2707  0.2603 -0.2348
  195MPD1    C2 3018   2.555   3.368   0.578  0.2587  0.1187 -0.4091
  195MPD1    C3 3019   2.499   3.260   0.502  0.0894  0.4385 -0.5825
  195MPD1    C4 3020   2.365   3.264   0.476 -0.1084  0.0222 -0.6703
  195MPD1    C5 3021   2.297   3.368   0.535  0.0384 -0.1297  0.8557
  195MPD1     H 3022   2.661   3.374   0.596  0.5097  1.7231 -2.3907
  195MPD1    H1 3023   2.313   3.198   0.408  3.2323 -1.2338 -1.9959
  195MPD1    H2 3024   2.288   3.548   0.644 -0.3329  0.7473 -2.8063
  195MPD1    H3 3025   2.190   3.370   0.516  0.1640 -0.6745  0.0956
  195MPD1     N 3026   2.583   3.154   0.449  0.6031 -0.3193 -0.2378
  195MPD1    H5 3027   2.530   3.089   0.391  1.0039 -0.8827  0.0266
  195MPD1    N1 3028   2.538   3.569   0.718 -0.1235 -0.0196 -0.0408
  195MPD1    H6 3029   2.488   3.657   0.724  0.7192  0.5266 -1.0379
  195MPD1    H7 3030   2.634   3.594   0.696 -0.9734  2.9310 -0.3574
  196MPD1     C 3031   2.094   1.660   0.701 -0.0575  0.1454 -1.0138
  196MPD1    C1 3032   2.090   1.748   0.599  0.2558  1.1160  0.6950
  196MPD1    C2 3033   2.148   1.869   0.620 -0.4654  0.5907 -0.0843
  196MPD1    C3 3034   2.227   1.894   0.731  0.4090 -0.0051 -0.1846
  196MPD1    C4 3035   2.253   1.790   0.820 -0.0873  0.2244 -0.0393
  196MPD1    C5 3036   2.190   1.670   0.801 -0.6508  0.4175  0.3605
  196MPD1     H 3037   2.130   1.950   0.551 -0.7001  0.5239 -0.1008
  196MPD1    H1 3038   2.307   1.802   0.913  0.1313 -0.6133 -0.0617
  196MPD1    H2 3039   2.036   1.569   0.699 -0.6426  0.4814  0.4553
  196MPD1    H3 3040   2.196   1.597   0.882  0.4764 -0.7297 -0.7625
  196MPD1     N 3041   2.294   2.013   0.760  0.0868 -0.3712 -0.0216
  196MPD1    H5 3042   2.340   2.017   0.850  1.1374 -0.8488 -0.5463
  196MPD1    N1 3043   2.002   1.736   0.493 -0.1564  0.2135 -0.4317
  196MPD1    H6 3044   1.982   1.639   0.469  0.1495 -0.1698  0.8697
  196MPD1    H7 3045   2.032   1.785   0.408  0.0899  2.6374  1.0446
  197MPD1     C 3046   1.407   4.364  17.127  0.4166  0.8365  0.6912
  197MPD1    C1 3047   1.478   4.312  17.019 -0.4087  0.5064  0.2596
  197MPD1    C2 3048   1.508   4.398  16.917 -0.5743  0.4090 -0.3556
  197MPD1    C3 3049   1.461   4.528  16.908  0.4551 -0.0106 -0.7151
  197MPD1    C4 3050   1.371   4.567  17.005 -1.1370 -0.5424 -0.5153
  197MPD1    C5 3051   1.355   4.486  17.114  0.1218  0.0222  0.1763
  197MPD1     H 3052   1.574   4.362  16.838  0.0467 -3.0823  1.7262
  197MPD1    H1 3053   1.327   4.666  16.999 -2.2693 -0.9359  1.3801
  197MPD1    H2 3054   1.377   4.300  17.209  0.2334  0.2464  0.1620
  197MPD1    H3 3055   1.303   4.522  17.202 -0.5282 -0.7581  0.1126
  197MPD1     N 3056   1.478   4.611  16.797  0.1052  0.4619 -0.2325
  197MPD1    H5 3057   1.467   4.710  16.813 -4.1841 -0.1005  0.3150
  197MPD1    N1 3058   1.528   4.178  17.015 -0.1493  0.0352 -0.8150
  197MPD1    H6 3059   1.492   4.118  17.089  0.6998  0.6686  0.1169
  197MPD1    H7 3060   1.519   4.128  16.927 -1.0683  2.2559 -2.0065
  198MPD1     C 3061   3.152   3.154  15.803  0.2503  0.6474  0.3346
  198MPD1    C1 3062   3.243   3.113  15.902  0.7995 -0.4835  0.0233
  198MPD1    C2 3063   3.373   3.094  15.855 -0.1735  0.1651 -0.5180
  198MPD1    C3 3064   3.404   3.101  15.721 -0.0840  0.6371 -0.1848
  198MPD1    C4 3065   3.311   3.138  15.624  0.0050 -0.1589  0.1119
  198MPD1    C5 3066   3.188   3.162  15.671  0.2419  0.3443 -0.3878
  198MPD1     H 3067   3.446   3.087  15.935 -2.3386  2.0442  1.6432
  198MPD1    H1 3068   3.323   3.142  15.516 -1.0892  0.8998  0.0347
  198MPD1    H2 3069   3.053   3.174  15.841 -0.2600 -2.3549  0.5414
  198MPD1    H3 3070   3.110   3.183  15.599  0.5941  1.2604 -0.5005
  198MPD1     N 3071   3.538   3.077  15.687 -0.4878  0.4771  0.1606
  198MPD1    H5 3072   3.595   3.057  15.769  1.8557  2.5523 -0.9434
  198MPD1    N1 3073   3.219   3.143  16.037 -0.3325 -0.2079 -0.2053
  198MPD1    H6 3074   3.281   3.086  16.094 -0.7231 -0.4828 -0.0552
  198MPD1    H7 3075   3.125   3.116  16.066  0.1254 -2.6657 -0.9885
  199MPD1     C 3076   1.605   0.232  10.121 -0.0030 -0.1295 -0.7009
  199MPD1    C1 3077   1.567   0.124  10.193 -0.0877 -1.1549  0.2113
  199MPD1    C2 3078   1.446   0.065  10.170 -0.7168  0.5190 -0.1456
  199MPD1    C3 3079   1.364   0.112  10.071 -0.2271  0.0314 -0.1949
  199MPD1    C4 3080   1.404   0.219   9.991 -0.0795 -0.0809 -0.5214
  199MPD1    C5 3081   1.520   0.273  10.023 -0.0307  0.0572 -0.2218
  199MPD1     H 3082   1.406   4.718  10.224 -0.0903 -0.1864 -0.8098
  199MPD1    H1 3083   1.341   0.277   9.925 -0.6163  0.0550  0.1114
  199MPD1    H2 3084   1.698   0.286  10.133 -0.9316  0.7052  2.8008
  199MPD1    H3 3085   1.560   0.359   9.970  1.0066  1.1597  2.3608
  199MPD1     N 3086   1.230   0.074  10.043  0.4143  0.8909 -0.2024
  199MPD1    H5 3087   1.183   0.119   9.965 -1.4949 -1.9651 -0.7069
  199MPD1    N1 3088   1.640   0.083  10.308 -0.3884  0.3237 -0.4912
  199MPD1    H6 3089   1.737   0.110  10.293 -0.8839  1.4899 -1.6007
  199MPD1    H7 3090   1.647   4.720  10.309  1.3197  0.4608  0.9628
  200MPD1     C 3091   0.933   3.582  15.734 -0.3125 -0.1968 -0.3383
  200MPD1    C1 3092   0.807   3.542  15.771  0.6154 -0.6445  0.2263
  200MPD1    C2 3093   0.706   3.637  15.777 -0.4145  0.1198 -0.8084
  200MPD1    C3 3094   0.724   3.766  15.723 -0.3584  0.5587  0.1914
  200MPD1    C4 3095   0.848   3.797  15.664  0.1751 -0.4321  0.0417
  200MPD1    C5 3096   0.951   3.707  15.678 -0.1784 -0.0891  0.3292
  200MPD1     H 3097   0.611   3.622  15.827  1.0936 -0.9442  1.7334
  200MPD1    H1 3098   0.869   3.895  15.624  2.4079 -0.1576  1.8895
  200MPD1    H2 3099   1.020   3.519  15.722  0.7132  1.2364 -0.3949
  200MPD1    H3 3100   1.047   3.734  15.634 -0.1509 -1.4309 -0.4439
  200MPD1     N 3101   0.616   3.863  15.728 -0.4703  0.2414  0.2627
  200MPD1    H5 3102   0.531   3.838  15.777 -0.6252 -3.3481 -1.8134
  200MPD1    N1 3103   0.789   3.423  15.845  0.0907  0.1963  0.3463
  200MPD1    H6 3104   0.696   3.385  15.855  0.0551  0.2403  0.1757
  200MPD1    H7 3105   0.851   3.353  15.805 -1.1078  0.1409 -1.4104
  201MPD1     C 3106   2.867   3.759  12.502  0.4001  0.6361  1.0698
  201MPD1    C1 3107   2.770   3.677  12.452  0.3204 -0.6967 -0.3646
  201MPD1    C2 3108   2.777   3.541  12.488  0.1253 -0.6230 -0.4792
  201MPD1    C3 3109   2.860   3.493  12.583  0.1480  1.0030 -0.3691
  201MPD1    C4 3110   2.959   3.572  12.638 -0.2469  0.0007 -0.2235
  201MPD1    C5 3111   2.962   3.709  12.596  0.2927 -0.2293  0.1064
  201MPD1     H 3112   2.702   3.480  12.439 -1.4056  0.6347  0.2767
  201MPD1    H1 3113   3.034   3.539  12.709  0.2635  2.2370  0.2774
  201MPD1    H2 3114   2.872   3.865  12.479  0.3508  0.0318 -1.6683
  201MPD1    H3 3115   3.043   3.778  12.617 -1.1217  1.0352  1.2802
  201MPD1     N 3116   2.833   3.362  12.631  0.0676  0.3573 -0.5075
  201MPD1    H5 3117   2.753   3.316  12.587  0.3850 -0.0382 -0.6710
  201MPD1    N1 3118   2.705   3.728  12.334  0.6127 -0.1837  0.3017
  201MPD1    H6 3119   2.614   3.685  12.323  0.1168  1.5911 -2.5536
  201MPD1    H7 3120   2.696   3.829  12.346  1.0194 -0.2531  1.1607
  202MPD1     C 3121   1.834   1.657   9.142 -0.0883  0.3798 -0.6070
  202MPD1    C1 3122   1.756   1.765   9.186  0.3461 -0.5074 -0.1765
  202MPD1    C2 3123   1.812   1.884   9.189  0.3876  0.8381  0.0903
  202MPD1    C3 3124   1.941   1.897   9.159  0.1785  0.5995 -0.5610
  202MPD1    C4 3125   2.026   1.793   9.132  0.4439 -0.2381  0.6464
  202MPD1    C5 3126   1.973   1.673   9.123  0.1845  0.3839 -0.2369
  202MPD1     H 3127   1.751   1.973   9.199 -1.0303 -0.3798  2.1941
  202MPD1    H1 3128   2.133   1.800   9.115  0.0886  2.5283 -0.4656
  202MPD1    H2 3129   1.796   1.556   9.126 -0.4613  0.1289  1.8407
  202MPD1    H3 3130   2.035   1.597   9.077 -0.0669  0.7046 -1.0997
  202MPD1     N 3131   2.009   2.021   9.162 -0.5617  0.1005  0.5365
  202MPD1    H5 3132   2.108   2.020   9.137  0.0850 -4.0853  3.2575
  202MPD1    N1 3133   1.612   1.760   9.179  0.0094  0.2227 -0.1659
  202MPD1    H6 3134   1.559   1.827   9.234 -0.4505  0.6847 -1.1636
  202MPD1    H7 3135   1.585   1.671   9.219 -0.0456 -0.5712 -1.9780
  203MPD1     C 3136   0.662   3.365  12.056  0.0849 -0.1174 -0.0440
  203MPD1    C1 3137   0.698   3.251  11.989  0.6250  0.1921 -0.5257
  203MPD1    C2 3138   0.822   3.195  12.016  0.6570  0.1875  0.1186
  203MPD1    C3 3139   0.897   3.239  12.119  0.0218  0.1887  1.0138
  203MPD1    C4 3140   0.862   3.345  12.187 -0.2144  0.5673  0.4461
  203MPD1    C5 3141   0.735   3.410  12.155 -0.2712 -0.0200  0.3027
  203MPD1     H 3142   0.864   3.110  11.963  0.5838  0.6431 -0.6779
  203MPD1    H1 3143   0.920   3.388  12.267 -2.3811  1.9872  1.2529
  203MPD1    H2 3144   0.572   3.420  12.029  0.4507 -0.6156 -2.3016
  203MPD1    H3 3145   0.707   3.499  12.210 -1.2709  0.0608 -0.3503
  203MPD1     N 3146   1.022   3.178  12.145  0.0117 -0.1544 -0.1084
  203MPD1    H5 3147   1.036   3.091  12.096 -0.2134  0.9546 -2.1153
  203MPD1    N1 3148   0.644   3.218  11.867  0.9372 -0.0365 -0.0575
  203MPD1    H6 3149   0.543   3.231  11.875  1.1363  0.8067  1.1105
  203MPD1    H7 3150   0.656   3.120  11.843  1.1586  0.6047 -2.5427
  204MPD1     C 3151   0.421   0.332  17.653 -0.3978 -0.0299 -0.3027
  204MPD1    C1 3152   0.499   0.324  17.538  0.0700  0.1594  0.6389
  204MPD1    C2 3153   0.534   0.195  17.499 -0.3825 -0.0904 -0.0355
  204MPD1    C3 3154   0.502   0.084  17.580 -0.3973 -0.5892 -0.2349
  204MPD1    C4 3155   0.437   0.101  17.705  0.2997  0.2315 -0.1036
  204MPD1    C5 3156   0.382   0.226  17.732 -0.5281 -0.0845 -0.0141
  204MPD1     H 3157   0.581   0.199  17.402 -0.3978 -0.1332 -0.0443
  204MPD1    H1 3158   0.401   0.027   0.026 -0.4608  0.8612  0.1646
  204MPD1    H2 3159   0.377   0.429  17.677 -0.9994  0.7314 -4.5163
  204MPD1    H3 3160   0.324   0.260   0.067 -0.8494  0.6410 -0.5221
  204MPD1     N 3161   0.536   4.693  17.538  0.3295 -0.6456  0.4775
  204MPD1    H5 3162   0.582   4.679  17.448  1.8212  0.7084  1.0295
  204MPD1    N1 3163   0.554   0.440  17.476 -0.6159  0.4374 -0.2693
  204MPD1    H6 3164   0.582   0.420  17.381 -0.4086 -1.4106  0.1721
  204MPD1    H7 3165   0.489   0.518  17.479  0.4058  1.2641  0.2737
  205MPD1     C 3166   1.095   3.039   0.155 -0.1790  0.5315 -0.8180
  205MPD1    C1 3167   0.998   2.950   0.102  0.3672 -0.0612  0.8390
  205MPD1    C2 3168   0.878   3.011   0.080 -0.0719 -0.5857 -0.1650
  205MPD1    C3 3169   0.855   3.145   0.100 -0.3704 -0.2868  0.2664
  205MPD1    C4 3170   0.957   3.223   0.153  1.3679 -0.6160  1.4374
  205MPD1    C5 3171   1.073   3.168   0.186 -0.2125 -0.2356 -0.0190
  205MPD1     H 3172   0.806   2.944   0.034 -2.5681  1.3007  0.9864
  205MPD1    H1 3173   0.940   3.325   0.185 -1.6426 -0.7698  0.3263
  205MPD1    H2 3174   1.195   3.002   0.175  0.0513  1.7778  0.3230
  205MPD1    H3 3175   1.162   3.217   0.224 -1.2669  0.6910  1.2256
  205MPD1     N 3176   0.727   3.201   0.081 -0.0703 -0.2060 -0.1350
  205MPD1    H5 3177   0.730   3.303   0.085  0.1310 -0.2298  0.3748
  205MPD1    N1 3178   1.032   2.822   0.056  0.0301  0.0430 -0.2106
  205MPD1    H6 3179   0.957   2.754   0.059 -0.1112  0.2738  1.4400
  205MPD1    H7 3180   1.122   2.787   0.089  0.2218  0.4538 -0.2892
  206MPD1     C 3181   0.896   1.379  17.355  0.0302  0.1980 -0.3912
  206MPD1    C1 3182   0.948   1.294  17.262  0.2791  0.1562  0.4565
  206MPD1    C2 3183   0.957   1.337  17.130 -0.0503 -0.2418  0.3536
  206MPD1    C3 3184   0.901   1.460  17.091  0.0781 -0.3573 -0.6369
  206MPD1    C4 3185   0.839   1.541  17.183  0.6872  0.4692 -0.1891
  206MPD1    C5 3186   0.840   1.498  17.316  0.3840 -0.2557  0.1904
  206MPD1     H 3187   0.994   1.273  17.051  0.7630 -2.2916  2.3923
  206MPD1    H1 3188   0.797   1.639  17.166 -1.8885 -0.9109 -1.7961
  206MPD1    H2 3189   0.896   1.348  17.459  0.6195  1.5004 -0.0075
  206MPD1    H3 3190   0.810   1.567  17.395  0.4830 -0.1056  0.0960
  206MPD1     N 3191   0.900   1.498  16.954 -0.2613  0.6121  0.2058
  206MPD1    H5 3192   0.863   1.589  16.930  1.3034  1.1165 -0.3359
  206MPD1    N1 3193   0.997   1.161  17.294  0.6611 -0.0390 -0.1330
  206MPD1    H6 3194   0.978   1.096  17.219  0.6245  0.1934 -0.3259
  206MPD1    H7 3195   0.964   1.125  17.383 -1.4643  0.5898 -0.6758
  207MPD1     C 3196   2.611   4.479   9.642  0.2541  0.5665 -0.0627
  207MPD1    C1 3197   2.687   4.581   9.688 -0.8880  0.3831  0.2210
  207MPD1    C2 3198   2.808   4.543   9.740 -0.4872  0.3432  0.5022
  207MPD1    C3 3199   2.860   4.412   9.743  0.2944  0.0507 -0.3938
  207MPD1    C4 3200   2.772   4.313   9.707 -0.3632 -0.0111 -0.8786
  207MPD1    C5 3201   2.653   4.347   9.657  0.3062  0.6842  0.0057
  207MPD1     H 3202   2.863   4.627   9.779  2.6980 -0.2748 -2.7288
  207MPD1    H1 3203   2.801   4.208   9.708  1.8393  0.6100  0.7621
  207MPD1    H2 3204   2.515   4.494   9.595  0.3113 -2.0912 -1.0803
  207MPD1    H3 3205   2.585   4.270   9.622 -1.1749  2.0326 -0.0896
  207MPD1     N 3206   2.989   4.382   9.793 -0.2821 -0.1170 -0.1165
  207MPD1    H5 3207   3.008   4.283   9.792  1.5418  0.2367  0.0774
  207MPD1    N1 3208   2.631   4.717   9.713 -0.0909 -0.4096  0.2037
  207MPD1    H6 3209   2.703   0.047   9.735 -2.0886  0.5712  3.8433
  207MPD1    H7 3210   2.561   0.013   9.648  0.2153  2.3370  1.3204
  208MPD1     C 3211   4.569   1.623  17.546 -0.0511  0.3698 -0.0040
  208MPD1    C1 3212   4.676   1.628  17.627  0.4189 -0.5809  0.7185
  208MPD1    C2 3213   4.699   1.750  17.686 -0.4801 -0.2357 -0.4007
  208MPD1    C3 3214   4.632   1.865  17.653 -0.5338  0.2421  1.0116
  208MPD1    C4 3215   4.536   1.864  17.557  0.2606  0.8441 -0.2443
  208MPD1    C5 3216   4.495   1.742  17.510  0.7039  0.0053  0.8325
  208MPD1     H 3217   0.034   1.747   0.015 -0.7282  1.8410 -0.0964
  208MPD1    H1 3218   4.478   1.954  17.541 -1.7441 -0.4202 -0.0311
  208MPD1    H2 3219   4.530   1.532  17.502 -0.7188  0.2298  0.8716
  208MPD1    H3 3220   4.412   1.717  17.445  2.5891 -1.3083 -1.0915
  208MPD1     N 3221   4.675   1.980  17.724 -0.6171 -0.1533 -0.4057
  208MPD1    H5 3222   0.010   1.976   0.044 -1.3724  0.6900  0.4241
  208MPD1    N1 3223   0.004   1.515  17.668  0.4677  0.4755  0.4602
  208MPD1    H6 3224   0.094   1.528  17.713  0.3734  0.1137  0.7464
  208MPD1    H7 3225   4.736   1.446  17.593 -0.0141  0.2269  0.7322
  209MPD1     C 3226   4.119   2.931  10.457 -0.0933  0.4780  0.1907
  209MPD1    C1 3227   4.050   2.970  10.571  1.0588 -0.0825  0.1528
  209MPD1    C2 3228   3.957   3.069  10.555  0.0028 -0.1127  0.0218
  209MPD1    C3 3229   3.948   3.136  10.434  0.3626 -0.4262  0.5989
  209MPD1    C4 3230   4.015   3.094  10.323 -0.3313 -0.0672 -0.3595
  209MPD1    C5 3231   4.103   2.993  10.340  0.1199 -0.2452  0.2680
  209MPD1     H 3232   3.899   3.100  10.641  0.7421 -2.3679  1.3461
  209MPD1    H1 3233   4.020   3.142  10.226  1.6767  0.4294 -0.0052
  209MPD1    H2 3234   4.174   2.837  10.460 -1.5111 -0.3590 -0.0106
  209MPD1    H3 3235   4.138   2.954  10.245 -0.3401 -0.5455  0.2227
  209MPD1     N 3236   3.870   3.252  10.432 -1.0988 -0.5781 -0.0384
  209MPD1    H5 3237   3.861   3.299  10.522 -1.5981  0.7249 -0.7650
  209MPD1    N1 3238   4.079   2.905  10.694 -0.1124  0.3564  0.6750
  209MPD1    H6 3239   4.009   2.916  10.766 -0.0426  1.7766  0.5258
  209MPD1    H7 3240   4.083   2.805  10.673  3.7400  0.8832 -1.1254
  210MPD1     C 3241   3.991   3.782  11.069 -0.3450  0.1607 -0.1259
  210MPD1    C1 3242   3.876   3.831  11.016  0.0264 -0.9673 -0.4104
  210MPD1    C2 3243   3.834   3.790  10.888  0.3492 -0.0961  0.6177
  210MPD1    C3 3244   3.909   3.699  10.815  0.1412 -0.4031  0.7841
  210MPD1    C4 3245   4.027   3.649  10.875  0.0221 -0.0712 -0.0790
  210MPD1    C5 3246   4.069   3.696  10.993 -0.0692 -0.2990 -0.3432
  210MPD1     H 3247   3.736   3.811  10.848  0.1232  1.8504  2.1932
  210MPD1    H1 3248   4.109   3.600  10.824 -0.8670 -1.1407 -0.4737
  210MPD1    H2 3249   4.029   3.824  11.161 -0.7793  2.2968 -0.9248
  210MPD1    H3 3250   4.162   3.656  11.032 -0.0317 -1.5692 -1.7503
  210MPD1     N 3251   3.867   3.641  10.695 -0.1259  0.1867  0.2296
  210MPD1    H5 3252   3.912   3.564  10.647 -1.2774 -1.7872  2.2801
  210MPD1    N1 3253   3.781   3.899  11.099 -0.7182  0.0220  0.3072
  210MPD1    H6 3254   3.822   3.970  11.160 -0.8330  0.8216 -0.5496
  210MPD1    H7 3255   3.708   3.953  11.053 -0.9932 -0.6108  0.0121
  211MPD1     C 3256   1.567   3.220  17.134 -0.4399  0.0138  0.0979
  211MPD1    C1 3257   1.462   3.230  17.218 -1.2142 -0.8306  0.0991
  211MPD1    C2 3258   1.351   3.301  17.174 -0.2605 -0.4538  0.4891
  211MPD1    C3 3259   1.346   3.347  17.045 -0.7667 -0.3757 -0.0524
  211MPD1    C4 3260   1.455   3.331  16.960 -0.4625  0.8399  0.1142
  211MPD1    C5 3261   1.567   3.283  17.015  0.0510  0.2842 -0.0396
  211MPD1     H 3262   1.270   3.313  17.245 -1.2977  0.6441 -0.8695
  211MPD1    H1 3263   1.455   3.348  16.853 -1.3891 -1.4518 -0.2550
  211MPD1    H2 3264   1.659   3.181  17.176 -0.7937 -2.6023 -1.5685
  211MPD1    H3 3265   1.660   3.277  16.959 -0.6493 -0.5110 -1.1287
  211MPD1     N 3266   1.219   3.393  16.991  0.3150  0.2617 -0.3079
  211MPD1    H5 3267   1.146   3.413  17.059  0.3355 -2.4769  0.5445
  211MPD1    N1 3268   1.476   3.211  17.354  0.3686 -0.1972  0.5708
  211MPD1    H6 3269   1.391   3.205  17.410 -0.7617  0.2703 -1.1183
  211MPD1    H7 3270   1.540   3.134  17.373  0.9684  0.3294  0.7061
  212MPD1     C 3271   4.611   2.081  16.475  0.4173 -0.3882 -0.2153
  212MPD1    C1 3272   4.718   2.009  16.434  0.2295 -0.4558  0.0356
  212MPD1    C2 3273   0.015   1.900  16.512 -0.1569  0.2131  0.2963
  212MPD1    C3 3274   4.699   1.887  16.633  0.2031 -0.6358 -0.4994
  212MPD1    C4 3275   4.610   1.973  16.682  0.0067  0.2182 -0.0857
  212MPD1    C5 3276   4.559   2.067  16.599  0.4424 -0.1047 -0.0462
  212MPD1     H 3277   0.090   1.828  16.482  1.0434  1.0576  1.2429
  212MPD1    H1 3278   4.572   1.957  16.782 -0.0002  0.3005 -0.0751
  212MPD1    H2 3279   4.559   2.152  16.412 -1.9228 -0.6815  1.3855
  212MPD1    H3 3280   4.473   2.122  16.637 -0.0020 -0.0659 -1.1104
  212MPD1     N 3281   4.734   1.788  16.727  0.0993 -0.1953  0.5122
  212MPD1    H5 3282   4.693   1.808  16.818  0.9425 -0.4350  0.9408
  212MPD1    N1 3283   0.024   2.001  16.299 -0.2045 -0.0104  0.3940
  212MPD1    H6 3284   0.011   2.094  16.261  1.0627  0.2711  0.6690
  212MPD1    H7 3285   0.125   1.988  16.294 -0.4816 -1.4196 -1.6082
  213MPD1     C 3286   2.279   2.581  15.352 -0.4153 -0.5308 -0.1515
  213MPD1    C1 3287   2.290   2.449  15.344 -0.2682  0.1888  0.4938
  213MPD1    C2 3288   2.394   2.402  15.268 -0.2474  0.0380  0.5611
  213MPD1    C3 3289   2.501   2.485  15.231 -0.0167  0.7901  0.4445
  213MPD1    C4 3290   2.487   2.621  15.257  0.2475 -0.6471 -0.0006
  213MPD1    C5 3291   2.376   2.669  15.308 -0.0295  0.2453  0.3729
  213MPD1     H 3292   2.409   2.295  15.259 -3.3505 -0.5492  2.1448
  213MPD1    H1 3293   2.559   2.697  15.230  0.4680 -0.3498  1.4112
  213MPD1    H2 3294   2.185   2.629  15.377  0.0709 -0.3988  1.4289
  213MPD1    H3 3295   2.368   2.775  15.327  0.9378  0.4790 -0.5499
  213MPD1     N 3296   2.620   2.432  15.170 -0.2580 -0.2276  0.1485
  213MPD1    H5 3297   2.615   2.331  15.169 -0.0108 -0.2461  4.0067
  213MPD1    N1 3298   2.174   2.364  15.348  0.1767 -0.0957 -0.3463
  213MPD1    H6 3299   2.118   2.386  15.430  2.0166 -3.0676  1.7019
  213MPD1    H7 3300   2.203   2.268  15.369  0.2677 -0.2026 -0.9647
  214MPD1     C 3301   2.647   1.691  14.828  0.5183 -0.1512 -0.9388
  214MPD1    C1 3302   2.727   1.760  14.741 -0.4654 -0.0639  0.6343
  214MPD1    C2 3303   2.751   1.893  14.761  0.7615  0.0830  0.3695
  214MPD1    C3 3304   2.734   1.945  14.887  0.0593  0.6229 -0.7668
  214MPD1    C4 3305   2.664   1.873  14.980  0.1483  0.4998  0.1094
  214MPD1    C5 3306   2.624   1.748  14.947 -0.3042 -0.5581  0.4100
  214MPD1     H 3307   2.796   1.953  14.684 -1.1071  1.8101  0.6164
  214MPD1    H1 3308   2.654   1.910  15.081 -0.5460  0.6802 -0.0243
  214MPD1    H2 3309   2.614   1.589  14.813 -3.7514  0.8609  1.5329
  214MPD1    H3 3310   2.572   1.689  15.022 -0.3632  0.9279  1.5240
  214MPD1     N 3311   2.791   2.066  14.927 -0.5552  0.3507  0.0342
  214MPD1    H5 3312   2.766   2.097  15.020 -0.6164 -1.8250  0.7479
  214MPD1    N1 3313   2.752   1.710  14.608  0.1084 -0.5464 -0.0139
  214MPD1    H6 3314   2.760   1.609  14.611 -1.2374 -0.6384  0.6372
  214MPD1    H7 3315   2.830   1.754  14.559 -0.1721 -1.6880 -1.4818
  215MPD1     C 3316   3.746   2.748  10.742  0.0741  0.4779 -0.0240
  215MPD1    C1 3317   3.787   2.801  10.860  0.0829  0.2981  0.3337
  215MPD1    C2 3318   3.774   2.939  10.878 -0.2705  0.2820  0.1120
  215MPD1    C3 3319   3.708   3.018  10.791 -0.3462  0.0504 -0.1103
  215MPD1    C4 3320   3.663   2.966  10.676  0.0638  0.4150  0.1514
  215MPD1    C5 3321   3.687   2.828  10.654 -0.7830 -0.0404 -0.1927
  215MPD1     H 3322   3.798   2.993  10.969 -1.5043 -0.5570  0.9320
  215MPD1    H1 3323   3.609   3.025  10.603 -1.7273 -0.3771  0.8305
  215MPD1    H2 3324   3.759   2.646  10.711  1.7418  0.0760  1.9582
  215MPD1    H3 3325   3.639   2.781  10.569 -2.1583 -0.2391  0.7014
  215MPD1     N 3326   3.695   3.159  10.822 -1.2482 -0.4274  0.1845
  215MPD1    H5 3327   3.732   3.196  10.909 -0.1274  0.8929 -0.8434
  215MPD1    N1 3328   3.871   2.727  10.939 -0.6002  0.2412  0.6545
  215MPD1    H6 3329   3.823   2.637  10.944 -1.2782  0.4525 -1.9863
  215MPD1    H7 3330   3.868   2.751  11.038  0.4520  1.6247  0.3526
  216MPD1     C 3331   0.243   1.747  17.221  0.0796  0.0693  0.3753
  216MPD1    C1 3332   0.125   1.700  17.272  0.6976  0.7837 -0.3159
  216MPD1    C2 3333   0.126   1.569  17.305  0.4011 -0.4361 -0.0879
  216MPD1    C3 3334   0.240   1.485  17.299  0.2596 -0.3220  0.8040
  216MPD1    C4 3335   0.354   1.537  17.249  0.7767  0.0915  0.7151
  216MPD1    C5 3336   0.353   1.667  17.218 -0.2520  0.3414 -0.3880
  216MPD1     H 3337   0.034   1.519  17.334 -0.7286  0.8010 -1.5260
  216MPD1    H1 3338   0.446   1.484  17.270  0.1755 -0.9910  0.6642
  216MPD1    H2 3339   0.246   1.848  17.183  1.1756 -0.0868  0.0302
  216MPD1    H3 3340   0.443   1.722  17.193 -1.4211  2.3818 -0.1020
  216MPD1     N 3341   0.233   1.347  17.348 -0.1759  0.0765  0.1152
  216MPD1    H5 3342   0.314   1.288  17.331 -1.1499 -2.2699  3.8090
  216MPD1    N1 3343   0.009   1.781  17.287 -0.3458 -0.6693 -0.5168
  216MPD1    H6 3344   0.030   1.875  17.320  0.3996 -0.8900 -0.3736
  216MPD1    H7 3345   4.675   1.739  17.346  0.2848 -0.5063  0.3576
  217MPD1     C 3346   4.347   1.547   9.070  0.1443 -0.1412 -0.0475
  217MPD1    C1 3347   4.465   1.496   9.026  0.7851 -1.1847 -0.8070
  217MPD1    C2 3348   4.582   1.566   9.044 -0.0762  0.4871  0.4783
  217MPD1    C3 3349   4.586   1.689   9.110 -0.0452  0.6192  0.0994
  217MPD1    C4 3350   4.464   1.739   9.143  0.2444 -0.4056  0.5821
  217MPD1    C5 3351   4.347   1.670   9.123  0.5715  0.0237  0.4505
  217MPD1     H 3352   4.671   1.518   9.004 -1.1632 -0.4295 -0.8302
  217MPD1    H1 3353   4.462   1.841   9.181  0.6590 -0.2365  0.1516
  217MPD1    H2 3354   4.252   1.496   9.059 -0.7612  1.9652 -1.9064
  217MPD1    H3 3355   4.254   1.718   9.150  1.1581  2.3717 -1.6947
  217MPD1     N 3356   4.707   1.760   9.134  0.2232 -0.1846  0.5085
  217MPD1    H5 3357   4.702   1.833   9.204  1.1864 -0.1389  0.5232
  217MPD1    N1 3358   4.479   1.360   8.991 -0.0336 -0.5658  0.1652
  217MPD1    H6 3359   4.397   1.317   8.947  1.7292 -1.8379 -1.8874
  217MPD1    H7 3360   4.560   1.326   8.940 -0.7746 -2.2266  0.0660
  218MPD1     C 3361   3.770   4.169  12.270  0.1365 -0.2667 -0.3477
  218MPD1    C1 3362   3.718   4.115  12.155 -0.2111 -0.5786 -0.2903
  218MPD1    C2 3363   3.610   4.034  12.160 -0.1236 -0.0059  0.3482
  218MPD1    C3 3364   3.562   3.991  12.282 -0.1715 -0.0906  0.1343
  218MPD1    C4 3365   3.612   4.041  12.397  0.3979 -0.1547  0.3965
  218MPD1    C5 3366   3.716   4.126  12.387 -0.5004 -0.3307  0.0611
  218MPD1     H 3367   3.580   3.987  12.066  2.7171  1.7696 -1.4261
  218MPD1    H1 3368   3.583   4.005  12.495  1.0003 -1.4312  0.1047
  218MPD1    H2 3369   3.848   4.244  12.265  0.9562 -0.8232  4.1790
  218MPD1    H3 3370   3.759   4.163  12.479 -0.9361 -3.8132  1.6806
  218MPD1     N 3371   3.458   3.893  12.274  0.0359  0.4972 -0.5243
  218MPD1    H5 3372   3.436   3.865  12.179 -1.4403  1.2970 -0.4093
  218MPD1    N1 3373   3.766   4.144  12.029 -0.3591 -0.0539  0.2995
  218MPD1    H6 3374   3.757   4.063  11.967 -2.8566 -0.2356  0.9192
  218MPD1    H7 3375   3.864   4.170  12.043 -0.1818 -1.8712  2.3770
  219MPD1     C 3376   3.267   3.171  11.677  0.5622  0.3990  0.0114
  219MPD1    C1 3377   3.337   3.290  11.691 -0.0858 -0.2383 -0.1681
  219MPD1    C2 3378   3.313   3.361  11.806 -0.3619  0.9640 -0.2629
  219MPD1    C3 3379   3.203   3.333  11.892  0.4553  0.1881  0.1357
  219MPD1    C4 3380   3.128   3.221  11.867 -0.2641 -0.7642  0.1270
  219MPD1    C5 3381   3.178   3.139  11.769  0.1668 -0.0539  0.1872
  219MPD1     H 3382   3.389   3.432  11.838 -0.9655  2.3909 -1.9532
  219MPD1    H1 3383   3.059   3.189  11.944  0.0926  0.6653  1.0459
  219MPD1    H2 3384   3.290   3.110  11.591 -0.7297  0.0899 -0.1164
  219MPD1    H3 3385   3.140   3.038  11.770  1.2789 -0.4764  2.0224
  219MPD1     N 3386   3.194   3.400  12.016  0.1439  0.0124 -0.0880
  219MPD1    H5 3387   3.134   3.357  12.085  1.4987 -0.8272  0.5686
  219MPD1    N1 3388   3.451   3.316  11.610  0.6505  0.3536 -0.0814
  219MPD1    H6 3389   3.457   3.418  11.610 -1.3345  0.4706 -1.0615
  219MPD1    H7 3390   3.454   3.278  11.516  1.2455  1.1432 -0.3786
  220MPD1     C 3391   2.917   3.790   9.328 -0.2864 -0.2832  0.7945
  220MPD1    C1 3392   2.862   3.888   9.409  0.9595  0.3640  0.1888
  220MPD1    C2 3393   2.845   3.864   9.541 -0.9577 -0.6225 -0.2845
  220MPD1    C3 3394   2.872   3.741   9.599 -0.0541  0.2047 -0.1212
  220MPD1    C4 3395   2.923   3.643   9.518  0.0411  0.2934 -0.5514
  220MPD1    C5 3396   2.941   3.664   9.384 -0.0366 -0.0885  0.6256
  220MPD1     H 3397   2.789   3.928   9.608 -0.6333 -0.5239 -0.1037
  220MPD1    H1 3398   2.939   3.540   9.550 -2.4028 -0.3034 -1.2284
  220MPD1    H2 3399   2.922   3.811   9.222  0.0344 -0.9968  0.6639
  220MPD1    H3 3400   2.970   3.579   9.322  1.8049  0.9677  0.0409
  220MPD1     N 3401   2.856   3.731   9.740 -0.4541  0.3803  0.1119
  220MPD1    H5 3402   2.802   3.800   9.790 -0.7491 -0.1072  0.4711
  220MPD1    N1 3403   2.807   4.011   9.354 -0.0858 -0.6445  0.2468
  220MPD1    H6 3404   2.813   4.092   9.416 -0.2133  1.2371 -2.1770
  220MPD1    H7 3405   2.843   4.035   9.262  1.0898  1.3122  1.2190
  221MPD1     C 3406   1.081   2.953  17.400  0.0038  0.2044  0.1761
  221MPD1    C1 3407   0.954   2.902  17.405  0.0579  0.0931 -0.2104
  221MPD1    C2 3408   0.885   2.892  17.290 -0.2781 -0.0314 -0.0908
  221MPD1    C3 3409   0.941   2.931  17.165  0.2558 -0.8421 -0.6317
  221MPD1    C4 3410   1.073   2.968  17.163 -0.0032  0.2722 -0.2017
  221MPD1    C5 3411   1.139   2.986  17.283  0.2024  0.0518  0.3497
  221MPD1     H 3412   0.783   2.856  17.296 -1.1652  1.9808 -2.8100
  221MPD1    H1 3413   1.118   2.997  17.069  1.5180 -1.4815 -0.0130
  221MPD1    H2 3414   1.150   2.957  17.484  0.0106  1.3599  0.1087
  221MPD1    H3 3415   1.245   3.007  17.294 -0.0885  1.4014  0.5892
  221MPD1     N 3416   0.866   2.939  17.045 -0.3001  0.0236 -0.6100
  221MPD1    H5 3417   0.929   2.986  16.981 -1.4789  0.0455 -1.7560
  221MPD1    N1 3418   0.879   2.897  17.526 -0.1775 -0.2210  0.6548
  221MPD1    H6 3419   0.931   2.885  17.613  0.6132  2.4479  0.5433
  221MPD1    H7 3420   0.803   2.829  17.524  1.2239 -1.7673  0.3802
  222MPD1     C 3421   4.245   1.101  17.467 -0.1129  0.0038  0.1360
  222MPD1    C1 3422   4.282   1.228  17.432  0.0715 -0.2460 -0.5683
  222MPD1    C2 3423   4.291   1.324  17.528 -0.5214  0.4407 -0.5145
  222MPD1    C3 3424   4.258   1.292  17.662 -0.6020  0.1480  0.2927
  222MPD1    C4 3425   4.220   1.166  17.694  0.1988  0.3966  0.2604
  222MPD1    C5 3426   4.204   1.070  17.596  0.2670 -0.6577  0.2987
  222MPD1     H 3427   4.338   1.418  17.502  0.6734  0.0568  0.2359
  222MPD1    H1 3428   4.192   1.147   0.046  3.5344 -1.4476  0.8268
  222MPD1    H2 3429   4.228   1.030  17.386 -0.9116  0.9066 -0.4826
  222MPD1    H3 3430   4.166   0.972  17.624  2.4461 -1.2796  1.0879
  222MPD1     N 3431   4.267   1.387   0.017 -0.3093 -0.3173 -0.2210
  222MPD1    H5 3432   4.278   1.341   0.107 -1.1653  0.1361  0.1098
  222MPD1    N1 3433   4.296   1.259  17.300  0.4007  0.7302 -0.0217
  222MPD1    H6 3434   4.386   1.300  17.277  0.2361  1.3891  0.5201
  222MPD1    H7 3435   4.305   1.171  17.249  0.7382 -0.3675  1.8995
  223MPD1     C 3436   0.245   1.392   0.692 -0.5916 -0.1087  0.5088
  223MPD1    C1 3437   0.259   1.523   0.645  0.3675 -0.6147 -0.4911
  223MPD1    C2 3438   0.155   1.584   0.585 -0.2322  0.0051 -0.1641
  223MPD1    C3 3439   0.045   1.512   0.530 -0.0585 -0.4373  0.0718
  223MPD1    C4 3440   0.029   1.389   0.584  0.6333  0.1561 -0.2378
  223MPD1    C5 3441   0.131   1.327   0.660  0.7001  0.1119  0.1779
  223MPD1     H 3442   0.164   1.688   0.554 -0.2707 -0.0140 -0.2387
  223MPD1    H1 3443   4.682   1.322   0.573 -1.0331  2.2234 -0.0351
  223MPD1    H2 3444   0.321   1.340   0.749  0.9485  0.1497 -1.2830
  223MPD1    H3 3445   0.109   1.234   0.711  0.3504 -0.1617 -0.4590
  223MPD1     N 3446   4.681   1.567   0.442  0.9568 -0.3519 -0.4927
  223MPD1    H5 3447   4.688   1.668   0.432  2.9559 -0.1801  2.7185
  223MPD1    N1 3448   0.369   1.602   0.685  0.3988 -0.3548 -0.0692
  223MPD1    H6 3449   0.452   1.543   0.690 -0.6001 -1.5702  2.1242
  223MPD1    H7 3450   0.380   1.677   0.617  0.1689 -0.9251 -0.7404
  224MPD1     C 3451   0.105   2.558  10.022 -0.2288 -0.2888  0.1660
  224MPD1    C1 3452   0.158   2.489   9.911 -0.7587  0.0956  0.5178
  224MPD1    C2 3453   0.266   2.547   9.846  0.1856 -0.0056  0.4083
  224MPD1    C3 3454   0.320   2.669   9.886 -0.4137 -0.4955  0.1109
  224MPD1    C4 3455   0.262   2.735   9.996  0.4950 -0.5763 -0.1316
  224MPD1    C5 3456   0.152   2.684  10.055  0.4064  0.1997  0.2364
  224MPD1     H 3457   0.295   2.497   9.754  0.2667  0.7128  0.0504
  224MPD1    H1 3458   0.294   2.834  10.028  2.0748 -1.3257  0.5615
  224MPD1    H2 3459   0.015   2.523  10.071 -2.2080  3.6307 -0.6129
  224MPD1    H3 3460   0.114   2.741  10.139 -1.8494  2.1856 -2.1254
  224MPD1     N 3461   0.432   2.741   9.822  0.2270 -0.0068 -0.0893
  224MPD1    H5 3462   0.449   2.838   9.849 -0.0457 -0.4286  1.6489
  224MPD1    N1 3463   0.096   2.374   9.853 -0.0829 -0.3154 -0.1806
  224MPD1    H6 3464   0.037   2.330   9.923 -0.2449  0.0272 -0.1044
  224MPD1    H7 3465   0.169   2.305   9.837  0.4645 -0.0168  1.1007
  225MPD1     C 3466   3.129   4.232  11.525  0.1300  0.2858  0.1718
  225MPD1    C1 3467   3.013   4.174  11.473  0.6238 -0.0088  0.3752
  225MPD1    C2 3468   2.925   4.104  11.552  0.1277  0.3953 -0.2564
  225MPD1    C3 3469   2.933   4.116  11.690  0.1261  0.6464 -0.1570
  225MPD1    C4 3470   3.029   4.200  11.741  0.3301 -0.0982 -0.4759
  225MPD1    C5 3471   3.138   4.242  11.658  0.0607  0.3169  0.4092
  225MPD1     H 3472   2.853   4.034  11.511 -0.7369  1.5027 -0.6340
  225MPD1    H1 3473   3.033   4.230  11.845  0.2490  0.2593 -0.5765
  225MPD1    H2 3474   3.209   4.285  11.474  0.5242  0.1926  0.6948
  225MPD1    H3 3475   3.224   4.295  11.698  0.3967 -0.6431  0.9644
  225MPD1     N 3476   2.851   4.045  11.785 -0.1503 -0.2943  0.1650
  225MPD1    H5 3477   2.848   4.084  11.878 -2.7153 -1.1948  0.4592
  225MPD1    N1 3478   2.998   4.166  11.333  0.3976  0.5325  0.4378
  225MPD1    H6 3479   3.054   4.240  11.292 -1.0282  0.5257 -1.5263
  225MPD1    H7 3480   2.901   4.171  11.302  0.7980  2.2424 -0.5193
  226MPD1     C 3481   4.706   2.128   9.045 -0.4636  0.4281 -0.0947
  226MPD1    C1 3482   4.628   2.157   9.151  0.0087  0.1937  0.1235
  226MPD1    C2 3483   4.680   2.248   9.238 -0.0739  0.4443  0.2902
  226MPD1    C3 3484   0.054   2.318   9.213  0.1089 -0.3762  0.1119
  226MPD1    C4 3485   0.123   2.292   9.101  0.0802 -0.0470 -0.3610
  226MPD1    C5 3486   0.078   2.199   9.020 -0.4377 -0.3688  0.0893
  226MPD1     H 3487   4.621   2.266   9.327  1.4883  3.3056  0.7366
  226MPD1    H1 3488   0.213   2.347   9.076  0.3682 -0.4155 -0.1374
  226MPD1    H2 3489   4.679   2.056   8.969 -1.7378 -0.0825  0.8433
  226MPD1    H3 3490   0.128   2.191   8.924  1.1260  1.2219  0.7900
  226MPD1     N 3491   0.092   2.414   9.314 -0.3557 -0.1426  0.2149
  226MPD1    H5 3492   0.044   2.405   9.403  0.4607  0.3025  0.7070
  226MPD1    N1 3493   4.512   2.077   9.184  0.4129  0.6878 -0.4702
  226MPD1    H6 3494   4.463   2.073   9.095  0.3524  1.0104 -0.4494
  226MPD1    H7 3495   4.448   2.123   9.249 -0.0541 -0.0164 -0.4305
  227MPD1     C 3496   4.398   2.925  10.054 -0.5040 -0.3889 -0.4174
  227MPD1    C1 3497   4.358   2.851   9.945  0.0007  0.2011 -0.5154
  227MPD1    C2 3498   4.453   2.818   9.850  0.5469 -0.3957  0.8831
  227MPD1    C3 3499   4.586   2.852   9.858  0.7708 -0.0906 -0.1634
  227MPD1    C4 3500   4.625   2.903   9.976  0.2887 -0.1050 -0.4679
  227MPD1    C5 3501   4.532   2.949  10.065  0.2881 -0.3777  0.1637
  227MPD1     H 3502   4.409   2.782   9.757  2.7183  0.3490 -0.4263
  227MPD1    H1 3503   4.730   2.914  10.000  0.1924  1.0864 -0.6088
  227MPD1    H2 3504   4.335   2.961  10.136  1.2343 -1.9263  1.5886
  227MPD1    H3 3505   4.557   3.001  10.157  0.7244  0.5124 -0.4563
  227MPD1     N 3506   4.692   2.819   9.762  0.4894  0.5804 -0.7223
  227MPD1    H5 3507   0.049   2.848   9.781  1.0531 -2.0318  0.4107
  227MPD1    N1 3508   4.223   2.841   9.922  0.1378  0.6243 -0.5240
  227MPD1    H6 3509   4.172   2.830  10.009 -1.8741 -0.5944 -1.8466
  227MPD1    H7 3510   4.195   2.772   9.853  0.3067 -1.5265  1.5582
  228MPD1     C 3511   4.315   2.233  13.839 -0.1348 -0.1643  0.1939
  228MPD1    C1 3512   4.366   2.110  13.801 -0.1389 -0.2456  0.2167
  228MPD1    C2 3513   4.358   2.080  13.666  0.2905  0.5122 -0.2194
  228MPD1    C3 3514   4.328   2.184  13.574 -0.1221 -0.5249  0.2077
  228MPD1    C4 3515   4.287   2.307  13.613 -0.6014  0.3688  0.3693
  228MPD1    C5 3516   4.276   2.328  13.746 -0.3227 -0.0454  0.1076
  228MPD1     H 3517   4.389   1.980  13.639  1.1193  0.3272  1.3672
  228MPD1    H1 3518   4.277   2.390  13.545 -0.1822  1.0841  1.1863
  228MPD1    H2 3519   4.319   2.263  13.943  0.8142  0.2508  0.0441
  228MPD1    H3 3520   4.252   2.429  13.777 -0.4753 -0.1339  0.2777
  228MPD1     N 3521   4.316   2.148  13.441 -0.1110 -0.1927 -0.3310
  228MPD1    H5 3522   4.313   2.047  13.436 -2.3681 -0.1330 -0.2062
  228MPD1    N1 3523   4.391   2.002  13.885  0.1422  0.1359 -0.0308
  228MPD1    H6 3524   4.430   2.029  13.975  0.7386  2.2274 -0.9176
  228MPD1    H7 3525   4.453   1.932  13.843  0.2652  0.2219  0.0066
  229MPD1     C 3526   4.007   1.076  14.404 -0.1671 -0.3104 -0.2254
  229MPD1    C1 3527   4.049   0.946  14.379  0.1324  0.4993  0.0078
  229MPD1    C2 3528   4.077   0.860  14.486 -0.1788  0.4001  0.7131
  229MPD1    C3 3529   4.085   0.909  14.616 -0.2056  0.4550  0.1447
  229MPD1    C4 3530   4.038   1.035  14.635  0.6946  0.0235  0.2722
  229MPD1    C5 3531   3.999   1.117  14.535 -0.0585 -0.1263 -0.1540
  229MPD1     H 3532   4.092   0.755  14.462  0.8323  0.3180  1.6672
  229MPD1    H1 3533   4.015   1.075  14.733 -0.6877 -1.5388  0.5805
  229MPD1    H2 3534   3.988   1.149  14.326 -0.3865  1.6891  1.7151
  229MPD1    H3 3535   3.947   1.208  14.560  0.0790  0.2880 -1.3820
  229MPD1     N 3536   4.136   0.835  14.731 -0.2701  0.2309 -0.3497
  229MPD1    H5 3537   4.134   0.882  14.821 -0.5350  1.2048 -0.8597
  229MPD1    N1 3538   4.038   0.887  14.251 -0.3820 -0.4050 -0.4905
  229MPD1    H6 3539   4.026   0.954  14.176  2.6350  0.8191  0.0948
  229MPD1    H7 3540   4.112   0.822  14.224  1.5937  1.6878 -0.1371
  230MPD1     C 3541   4.386   1.018  15.628  0.3979 -0.3398 -0.3264
  230MPD1    C1 3542   4.428   0.893  15.634 -0.3911 -0.4358  0.6641
  230MPD1    C2 3543   4.416   0.819  15.521  0.0062 -1.1457  0.2642
  230MPD1    C3 3544   4.388   0.870  15.397 -0.6548 -0.3612 -0.6241
  230MPD1    C4 3545   4.351   1.003  15.398  0.5218 -0.5338 -0.4744
  230MPD1    C5 3546   4.345   1.073  15.514 -0.3312  0.4368 -0.7380
  230MPD1     H 3547   4.441   0.713  15.528  0.0236 -1.0977  0.9422
  230MPD1    H1 3548   4.312   1.050  15.309  0.8625 -0.4832 -0.5951
  230MPD1    H2 3549   4.378   1.077  15.718  1.1483 -0.4955 -0.1594
  230MPD1    H3 3550   4.307   1.175  15.515 -1.4174  0.0234  0.1368
  230MPD1     N 3551   4.373   0.787  15.287 -0.4952 -0.4135 -0.1594
  230MPD1    H5 3552   4.377   0.688  15.312  2.8905 -0.7225 -1.9717
  230MPD1    N1 3553   4.453   0.840  15.755 -0.5558  0.1211 -0.4042
  230MPD1    H6 3554   4.525   0.768  15.755 -0.1066  0.5702 -0.0031
  230MPD1    H7 3555   4.485   0.917  15.813 -1.2324  0.3278 -0.3078
  231MPD1     C 3556   1.860   2.640  15.072 -0.4665  0.0432 -1.0185
  231MPD1    C1 3557   1.864   2.670  14.939  0.5216 -0.3469 -0.5699
  231MPD1    C2 3558   1.970   2.738  14.889 -0.2719  0.0261  0.3175
  231MPD1    C3 3559   2.073   2.783  14.973 -0.2953  0.4078 -0.1722
  231MPD1    C4 3560   2.059   2.756  15.107  0.6150  0.3506  0.0417
  231MPD1    C5 3561   1.964   2.667  15.156 -0.0244 -0.6744  0.9685
  231MPD1     H 3562   1.961   2.776  14.788 -2.9557  1.0299  0.9101
  231MPD1    H1 3563   2.129   2.790  15.183 -1.3527  2.7078  0.7920
  231MPD1    H2 3564   1.778   2.580  15.109 -0.5725  0.4449 -0.5977
  231MPD1    H3 3565   1.955   2.652  15.263 -1.5146 -0.9399  0.8085
  231MPD1     N 3566   2.185   2.853  14.918 -0.3915  0.3097  0.3136
  231MPD1    H5 3567   2.205   2.850  14.818  0.0108  0.1535  0.3957
  231MPD1    N1 3568   1.769   2.621  14.849  0.3892 -0.1748  0.4777
  231MPD1    H6 3569   1.680   2.594  14.891  0.5487  0.5838  1.2891
  231MPD1    H7 3570   1.761   2.683  14.768 -0.4264  0.7812  1.2939
  232MPD1     C 3571   4.024   0.704   0.301  0.1314 -0.1621  0.9949
  232MPD1    C1 3572   3.904   0.748   0.263  0.5034  0.7104  0.5132
  232MPD1    C2 3573   3.844   0.691   0.154  0.4075 -0.4835 -0.2573
  232MPD1    C3 3574   3.906   0.595   0.078 -0.0795 -0.1719 -0.4427
  232MPD1    C4 3575   4.036   0.550   0.115  0.3221 -0.8717 -0.0610
  232MPD1    C5 3576   4.090   0.608   0.231 -0.8264 -0.4758  0.1301
  232MPD1     H 3577   3.745   0.725   0.126 -0.0184 -2.1120 -0.6887
  232MPD1    H1 3578   4.093   0.474   0.063  0.7949 -0.3002 -0.3910
  232MPD1    H2 3579   4.078   0.743   0.386  0.4260  0.8523  0.3461
  232MPD1    H3 3580   4.193   0.581   0.249 -0.8539 -0.2358  0.6462
  232MPD1     N 3581   3.837   0.550  17.720 -0.0793  0.2456  0.2257
  232MPD1    H5 3582   3.745   0.592  17.706 -0.3082  0.1056  1.3472
  232MPD1    N1 3583   3.840   0.858   0.322 -0.5931  0.3305  0.3988
  232MPD1    H6 3584   3.873   0.856   0.418  1.6032 -2.3830 -0.4119
  232MPD1    H7 3585   3.739   0.867   0.313 -0.7326  0.2645  1.8926
  233MPD1     C 3586   4.717   0.471   1.391 -0.6460 -0.3611 -0.6977
  233MPD1    C1 3587   4.659   0.596   1.364  0.1388 -0.7408  0.5044
  233MPD1    C2 3588   0.013   0.704   1.369  0.3204  0.7784  0.2244
  233MPD1    C3 3589   0.151   0.684   1.386 -0.5903  0.1576  0.5758
  233MPD1    C4 3590   0.194   0.559   1.406 -0.3034 -0.1571 -0.8251
  233MPD1    C5 3591   0.109   0.456   1.412 -0.1342 -0.1709  0.0929
  233MPD1     H 3592   4.707   0.802   1.357 -0.9169  0.1175 -0.6122
  233MPD1    H1 3593   0.295   0.544   1.441 -1.5489 -1.8104  2.0944
  233MPD1    H2 3594   4.667   0.375   1.394  0.5375 -0.9519 -0.1234
  233MPD1    H3 3595   0.148   0.360   1.445 -3.5492 -1.6821 -0.3480
  233MPD1     N 3596   0.247   0.793   1.381 -0.3299  0.6298  0.2092
  233MPD1    H5 3597   0.345   0.774   1.397 -0.4200  0.9697  1.1605
  233MPD1    N1 3598   4.518   0.609   1.374 -0.2790  0.7680 -0.3559
  233MPD1    H6 3599   4.470   0.526   1.339 -0.2041  0.3147  0.6145
  233MPD1    H7 3600   4.486   0.693   1.326 -0.0466  1.0583 -0.0008
  234MPD1     C 3601   1.761   1.789   8.522 -0.5612  0.3056 -0.4501
  234MPD1    C1 3602   1.669   1.716   8.586  0.3012 -0.0580 -0.6478
  234MPD1    C2 3603   1.564   1.783   8.641  0.6224 -0.6125  0.6776
  234MPD1    C3 3604   1.546   1.915   8.620 -0.0618  0.9265  0.6745
  234MPD1    C4 3605   1.637   1.987   8.547 -0.7282 -0.1392  0.5568
  234MPD1    C5 3606   1.748   1.923   8.508 -0.2879 -0.2264  0.6211
  234MPD1     H 3607   1.493   1.727   8.701 -2.0963  1.3681 -0.6830
  234MPD1    H1 3608   1.622   2.090   8.515  0.7396 -0.4694 -1.1948
  234MPD1    H2 3609   1.841   1.737   8.470  1.5892  0.6715  2.4982
  234MPD1    H3 3610   1.833   1.970   8.460  0.7122 -0.3730  2.2561
  234MPD1     N 3611   1.437   1.979   8.687  0.7694  0.3409  0.4213
  234MPD1    H5 3612   1.380   1.920   8.747 -1.5156  1.4240 -0.6775
  234MPD1    N1 3613   1.693   1.586   8.629  0.2967 -0.2994 -0.4588
  234MPD1    H6 3614   1.607   1.535   8.647  0.9938 -1.2057  0.2858
  234MPD1    H7 3615   1.752   1.526   8.572  1.1077  0.9048 -0.8885
  235MPD1     C 3616   3.070   4.257  10.179 -0.0183 -1.0901  0.3800
  235MPD1    C1 3617   3.018   4.386  10.174  0.8511  0.4282  0.3915
  235MPD1    C2 3618   3.112   4.488  10.210  0.5148  0.3258  0.7072
  235MPD1    C3 3619   3.242   4.459  10.250  0.0559 -0.0949 -0.4882
  235MPD1    C4 3620   3.281   4.329  10.257  0.2713  0.1570  0.0737
  235MPD1    C5 3621   3.192   4.229  10.232  0.8895 -0.2048 -0.2133
  235MPD1     H 3622   3.083   4.592  10.199  0.7011  0.6325  2.9718
  235MPD1    H1 3623   3.379   4.297  10.288 -0.6533 -1.2685  1.5481
  235MPD1    H2 3624   3.012   4.166  10.169 -0.7385 -0.4246 -1.4195
  235MPD1    H3 3625   3.222   4.126  10.243  1.5686  0.1008  0.7361
  235MPD1     N 3626   3.331   4.560  10.289  0.8005  0.0614 -0.4875
  235MPD1    H5 3627   3.307   4.650  10.247  1.7272  0.3849 -0.3226
  235MPD1    N1 3628   2.880   4.398  10.152 -0.5190 -0.1485  0.4157
  235MPD1    H6 3629   2.843   4.323  10.095 -0.7753  2.9332 -3.4271
  235MPD1    H7 3630   2.838   4.488  10.129 -1.5696 -0.6594  0.2991
  236MPD1     C 3631   2.888   0.943   9.130 -0.7004 -0.3451  0.3883
  236MPD1    C1 3632   2.996   0.859   9.168  0.0461 -0.3174 -0.2003
  236MPD1    C2 3633   3.011   0.821   9.299  0.7027  0.0703 -0.2768
  236MPD1    C3 3634   2.922   0.865   9.396  0.0789 -0.1096 -0.3713
  236MPD1    C4 3635   2.812   0.947   9.364  0.0946 -0.7049  0.5390
  236MPD1    C5 3636   2.803   0.985   9.233 -0.2871  0.6755 -0.1788
  236MPD1     H 3637   3.095   0.757   9.326  0.0664 -0.6740 -0.0681
  236MPD1    H1 3638   2.743   0.982   9.440  2.1595  1.9683  1.1570
  236MPD1    H2 3639   2.857   0.967   9.029  1.4827  1.4489  0.1413
  236MPD1    H3 3640   2.722   1.051   9.202 -0.2624  0.6346 -0.3286
  236MPD1     N 3641   2.949   0.843   9.532 -0.3001  0.1569  0.1434
  236MPD1    H5 3642   2.876   0.868   9.598 -1.5973 -1.4464 -0.6803
  236MPD1    N1 3643   3.063   0.802   9.063  0.6347 -0.4117  0.1858
  236MPD1    H6 3644   3.156   0.764   9.077  0.1398 -2.4381 -2.0235
  236MPD1    H7 3645   3.086   0.865   8.986 -0.1801 -1.6225 -1.0528
  237MPD1     C 3646   2.737   3.639  14.900  0.2175  0.3177  0.0650
  237MPD1    C1 3647   2.640   3.677  14.809  0.3189  0.2237  0.3829
  237MPD1    C2 3648   2.520   3.726  14.853  0.3030  0.8545  0.4268
  237MPD1    C3 3649   2.492   3.754  14.981 -0.2187  0.4877 -0.4158
  237MPD1    C4 3650   2.587   3.719  15.073  0.3094 -0.0906 -0.4802
  237MPD1    C5 3651   2.706   3.666  15.032  0.0727 -0.3480 -0.1088
  237MPD1     H 3652   2.445   3.756  14.780 -1.5750  0.0123  2.0365
  237MPD1    H1 3653   2.573   3.737  15.179 -0.1647 -2.4200 -0.1523
  237MPD1    H2 3654   2.833   3.599  14.868 -0.4242 -2.8138  2.0154
  237MPD1    H3 3655   2.776   3.634  15.108  1.8599  1.2556 -1.0878
  237MPD1     N 3656   2.367   3.800  15.023  0.0946 -0.6114  0.3994
  237MPD1    H5 3657   2.363   3.823  15.122  0.7069  0.7520  0.0973
  237MPD1    N1 3658   2.664   3.681  14.670 -0.2393  0.5778  0.7031
  237MPD1    H6 3659   2.749   3.629  14.650  1.6541  3.5415  1.0577
  237MPD1    H7 3660   2.581   3.684  14.611 -0.7816 -4.6889  1.2053
  238MPD1     C 3661   4.404   3.143  14.619 -0.4888  0.5559 -0.5957
  238MPD1    C1 3662   4.434   3.045  14.710  0.7559 -0.0610  0.0052
  238MPD1    C2 3663   4.364   2.928  14.703 -0.1177  0.8322 -0.0140
  238MPD1    C3 3664   4.280   2.894  14.606  0.4970  0.0709  0.6174
  238MPD1    C4 3665   4.244   2.991  14.516  0.4391 -0.7583  0.1972
  238MPD1    C5 3666   4.310   3.114  14.523 -0.5044  0.0293  0.0076
  238MPD1     H 3667   4.401   2.853  14.772  1.2054 -0.5450 -2.2122
  238MPD1    H1 3668   4.166   2.977  14.442  0.3590 -0.9426  0.3165
  238MPD1    H2 3669   4.447   3.243  14.628 -3.8420  1.7447  2.2013
  238MPD1    H3 3670   4.291   3.191  14.449 -1.5256  0.1499  0.3880
  238MPD1     N 3671   4.228   2.764  14.597 -0.1853 -0.0949  0.0515
  238MPD1    H5 3672   4.176   2.737  14.514 -1.4461  1.6927  0.2659
  238MPD1    N1 3673   4.524   3.069  14.813 -0.0334  0.2688 -0.1150
  238MPD1    H6 3674   4.590   2.995  14.835 -0.5683  0.1804  1.1940
  238MPD1    H7 3675   4.582   3.151  14.793 -2.2470  2.1905  1.4221
  239MPD1     C 3676   4.583   3.939  15.263 -0.3268  0.7940  0.0652
  239MPD1    C1 3677   4.604   3.811  15.221  0.6496 -0.7543 -0.5119
  239MPD1    C2 3678   4.567   3.776  15.092  0.4464 -0.3213  0.0894
  239MPD1    C3 3679   4.539   3.880  15.000 -0.9569 -0.9012 -0.3721
  239MPD1    C4 3680   4.533   4.010  15.048 -0.4454  0.6537  0.8088
  239MPD1    C5 3681   4.546   4.038  15.181  0.1031 -0.1512 -0.3743
  239MPD1     H 3682   4.561   3.671  15.065 -2.2253 -0.5593  1.6333
  239MPD1    H1 3683   4.514   4.094  14.982 -0.4208 -0.1311 -0.1956
  239MPD1    H2 3684   4.602   3.962  15.367 -0.1664  1.4637 -0.1170
  239MPD1    H3 3685   4.530   4.140  15.216  1.2575 -0.6111  1.4485
  239MPD1     N 3686   4.505   3.855  14.867  0.4183  0.0828  0.1963
  239MPD1    H5 3687   4.469   3.933  14.812 -0.0029 -0.9041 -0.9310
  239MPD1    N1 3688   4.630   3.707  15.314  0.3461 -0.6080 -0.3346
  239MPD1    H6 3689   4.671   3.740  15.401 -2.0698 -0.5426  0.7999
  239MPD1    H7 3690   4.543   3.669  15.352  0.5632  0.2082  0.9615
  240MPD1     C 3691   3.584   3.779  14.379  0.5193  0.0724  0.0480
  240MPD1    C1 3692   3.604   3.737  14.248  0.5149  0.1701 -0.4252
  240MPD1    C2 3693   3.595   3.606  14.224 -0.7454 -0.4930  0.1551
  240MPD1    C3 3694   3.549   3.514  14.314  0.1931  0.1783  0.0686
  240MPD1    C4 3695   3.527   3.556  14.445  0.4348 -0.2802 -0.2175
  240MPD1    C5 3696   3.549   3.689  14.473 -0.0098 -0.4298 -0.2710
  240MPD1     H 3697   3.617   3.576  14.122  0.0468 -0.9485  0.4607
  240MPD1    H1 3698   3.500   3.492  14.527 -1.6079 -0.5217 -1.0735
  240MPD1    H2 3699   3.602   3.880  14.415 -1.8628  0.7818 -0.7754
  240MPD1    H3 3700   3.512   3.728  14.568 -1.1388  0.0543 -0.9126
  240MPD1     N 3701   3.547   3.376  14.283 -0.1103  0.1437  0.1035
  240MPD1    H5 3702   3.590   3.341  14.198  2.8321 -0.1289  1.7103
  240MPD1    N1 3703   3.666   3.818  14.157  0.1575 -0.6153 -0.0064
  240MPD1    H6 3704   3.626   3.804  14.064 -2.4688 -1.7699  1.2959
  240MPD1    H7 3705   3.648   3.915  14.181 -0.0992 -0.8461  0.7159
  241MPD1     C 3706   4.145   3.128  13.795 -0.3584 -0.1236 -0.0325
  241MPD1    C1 3707   4.153   3.019  13.882  0.6382  0.5090  0.5335
  241MPD1    C2 3708   4.044   2.999  13.971 -0.8338  0.7646 -0.4223
  241MPD1    C3 3709   3.951   3.103  13.997 -0.0535  0.3384  0.0831
  241MPD1    C4 3710   3.953   3.216  13.918  0.3831  0.2245  0.3680
  241MPD1    C5 3711   4.050   3.225  13.821 -0.3802  0.1409  0.2581
  241MPD1     H 3712   4.030   2.901  14.014  0.8465  1.2681  1.3030
  241MPD1    H1 3713   3.884   3.299  13.927  0.4285  0.4325 -1.2166
  241MPD1    H2 3714   4.214   3.144  13.713  0.2544  0.4726  0.5990
  241MPD1    H3 3715   4.047   3.307  13.750 -1.7561 -1.4392 -1.5210
  241MPD1     N 3716   3.856   3.087  14.094  0.8842  0.0279 -0.1792
  241MPD1    H5 3717   3.778   3.150  14.080  1.6171  0.7387 -1.0599
  241MPD1    N1 3718   4.240   2.910  13.845 -0.7267  0.1799  0.7585
  241MPD1    H6 3719   4.272   2.848  13.919 -1.1554  0.0407  0.8219
  241MPD1    H7 3720   4.329   2.941  13.806 -1.2201 -0.6111 -0.9790
  242MPD1     C 3721   3.598   0.977  15.632  0.1678 -0.0331  0.0271
  242MPD1    C1 3722   3.555   0.922  15.515 -0.2942 -0.6095  0.6873
  242MPD1    C2 3723   3.593   0.993  15.398 -0.6247  0.4445  0.7597
  242MPD1    C3 3724   3.664   1.113  15.413  1.0460  0.4752  0.6906
  242MPD1    C4 3725   3.699   1.168  15.533  0.4334 -0.4492  0.4520
  242MPD1    C5 3726   3.662   1.097  15.641  0.3228  0.2767 -0.0264
  242MPD1     H 3727   3.577   0.957  15.297 -0.4957  2.6253 -0.0585
  242MPD1    H1 3728   3.757   1.256  15.557  0.0195 -0.0101 -0.1536
  242MPD1    H2 3729   3.572   0.925  15.724 -0.7859  1.7469  0.7696
  242MPD1    H3 3730   3.676   1.121  15.746  0.0359 -2.7549  0.7001
  242MPD1     N 3731   3.687   1.198  15.301 -0.7009 -0.2483  0.1155
  242MPD1    H5 3732   3.737   1.282  15.326  1.5706 -1.3000 -0.9036
  242MPD1    N1 3733   3.505   0.792  15.507 -0.2825 -0.0648 -0.2649
  242MPD1    H6 3734   3.440   0.769  15.582  2.4187  0.8011  2.3557
  242MPD1    H7 3735   3.458   0.769  15.420 -0.9891  0.3148  0.0184
  243MPD1     C 3736   4.463   0.502   0.015  0.2065  0.1442 -0.3694
  243MPD1    C1 3737   4.454   0.361  17.744  0.2741  1.1871  0.1922
  243MPD1    C2 3738   4.542   0.300  17.659  0.7067  0.1239 -0.3072
  243MPD1    C3 3739   4.663   0.357  17.619 -1.0447 -0.0078 -0.3417
  243MPD1    C4 3740   4.679   0.487  17.666  0.4465  0.3612  0.2958
  243MPD1    C5 3741   4.581   0.552  17.736 -0.7868  0.0663 -0.2907
  243MPD1     H 3742   4.521   0.197  17.632  1.1716  0.1458 -0.7403
  243MPD1    H1 3743   0.029   0.545  17.641  0.6790 -0.5982 -1.0740
  243MPD1    H2 3744   4.405   0.547   0.095  1.9155  2.0090 -0.1988
  243MPD1    H3 3745   4.590   0.658   0.004  0.5140  0.5721 -3.8829
  243MPD1     N 3746   0.017   0.276  17.542  0.5018  0.3701  0.0069
  243MPD1    H5 3747   4.726   0.183  17.513 -1.6617  0.6871  1.1428
  243MPD1    N1 3748   4.336   0.294   0.024 -0.0532 -0.4745  0.0789
  243MPD1    H6 3749   4.342   0.192   0.020 -0.2418 -0.5392  1.4269
  243MPD1    H7 3750   4.301   0.319   0.116  0.0451 -0.8359  0.2154
  244MPD1     C 3751   0.204   4.223  17.742 -0.3932 -0.0035  0.2823
  244MPD1    C1 3752   0.200   4.347   0.056 -0.3061 -0.1760  0.5811
  244MPD1    C2 3753   0.201   4.465  17.733  0.4848 -0.1905  0.1701
  244MPD1    C3 3754   0.222   4.456  17.592  0.1495  0.0456 -0.2227
  244MPD1    C4 3755   0.220   4.330  17.526 -0.0375  0.2680  0.3118
  244MPD1    C5 3756   0.209   4.222  17.601 -0.3101 -0.1474 -0.0450
  244MPD1     H 3757   0.215   4.558   0.037  0.0499  0.6994 -1.2464
  244MPD1    H1 3758   0.235   4.329  17.419  1.5673  0.4799  0.5257
  244MPD1    H2 3759   0.180   4.130   0.042  1.5115 -0.3944  0.4774
  244MPD1    H3 3760   0.205   4.126  17.551  2.6024  0.7331 -1.9512
  244MPD1     N 3761   0.227   4.579  17.524 -0.3816 -0.1290 -0.2056
  244MPD1    H5 3762   0.209   4.660  17.583  3.1360  0.6917 -0.2291
  244MPD1    N1 3763   0.198   4.345   0.196 -0.2057 -0.2501  0.1998
  244MPD1    H6 3764   0.271   4.407   0.232  0.3842 -0.3269 -0.8605
  244MPD1    H7 3765   0.213   4.250   0.231  1.6213 -0.3262 -0.7423
  245MPD1     C 3766   3.190   0.159  12.863 -0.0962  0.8585 -0.0889
  245MPD1    C1 3767   3.286   0.237  12.925  0.2019  0.5109 -0.1415
  245MPD1    C2 3768   3.231   0.315  13.024  0.0784 -0.8049  0.8045
  245MPD1    C3 3769   3.097   0.347  13.041 -0.0783  0.4097 -1.0668
  245MPD1    C4 3770   3.009   0.292  12.951  0.6100 -0.5412  0.4374
  245MPD1    C5 3771   3.059   0.189  12.875  0.8656  0.4545 -0.2575
  245MPD1     H 3772   3.299   0.361  13.095 -0.7918 -1.0739  1.8162
  245MPD1    H1 3773   2.902   0.304  12.963  0.6498  0.4565 -0.1257
  245MPD1    H2 3774   3.203   0.080  12.789  2.0271  0.8590  0.2968
  245MPD1    H3 3775   2.987   0.148  12.806  2.2614 -0.6785 -1.0415
  245MPD1     N 3776   3.053   0.444  13.138  0.0132 -0.5276 -0.8330
  245MPD1    H5 3777   3.123   0.472  13.206 -0.4071 -1.8595  0.1565
  245MPD1    N1 3778   3.423   0.200  12.923 -0.7678 -0.4841 -0.1329
  245MPD1    H6 3779   3.470   0.279  12.967  1.4266 -0.7011 -2.1079
  245MPD1    H7 3780   3.456   0.165  12.834  0.0828 -1.3936  0.5336
  246MPD1     C 3781   3.843   2.711  10.385  0.2650 -0.3660 -0.9674
  246MPD1    C1 3782   3.740   2.682  10.304  0.4347  1.0773 -0.5042
  246MPD1    C2 3783   3.750   2.564  10.229 -0.7430  0.3005 -0.3502
  246MPD1    C3 3784   3.861   2.487  10.250  0.5436  0.3455  0.3517
  246MPD1    C4 3785   3.969   2.519  10.334  0.5611 -0.2822  0.5095
  246MPD1    C5 3786   3.956   2.630  10.399 -0.2605 -0.0177  0.2857
  246MPD1     H 3787   3.667   2.524  10.172 -1.4587  0.6133  0.4745
  246MPD1    H1 3788   4.050   2.450  10.354  1.7625  0.6015 -1.2656
  246MPD1    H2 3789   3.850   2.802  10.444 -1.4988 -0.9745  0.1808
  246MPD1    H3 3790   4.025   2.651  10.480 -0.2139  0.3958  0.1401
  246MPD1     N 3791   3.866   2.362  10.191  0.0898 -0.4449  0.4691
  246MPD1    H5 3792   3.779   2.335  10.146 -0.2375 -0.0636  0.8756
  246MPD1    N1 3793   3.617   2.754  10.319  0.3291  0.3641 -0.5308
  246MPD1    H6 3794   3.552   2.734  10.243  2.7653 -2.5475 -1.8489
  246MPD1    H7 3795   3.622   2.855  10.318 -0.6273  0.4155 -0.5738
  247MPD1     C 3796   1.425   2.200  15.603  0.7554  0.4319  0.1730
  247MPD1    C1 3797   1.391   2.154  15.729  0.5359  0.0770 -0.5464
  247MPD1    C2 3798   1.424   2.025  15.767 -0.0434 -0.3467  0.0449
  247MPD1    C3 3799   1.466   1.933  15.675 -0.9054  0.0804  0.6358
  247MPD1    C4 3800   1.482   1.975  15.545 -0.4614 -0.2952  0.2779
  247MPD1    C5 3801   1.462   2.105  15.515 -0.0195  1.0711  0.4895
  247MPD1     H 3802   1.398   1.998  15.868 -2.4976  0.9326 -0.2412
  247MPD1    H1 3803   1.529   1.911  15.471  0.4573  2.0391 -1.1540
  247MPD1    H2 3804   1.419   2.302  15.569  1.7043  1.4288  2.9697
  247MPD1    H3 3805   1.488   2.137  15.415 -0.2362  0.0892  0.1138
  247MPD1     N 3806   1.508   1.796  15.706  0.0780  0.3252 -0.1482
  247MPD1    H5 3807   1.543   1.747  15.624  2.5326  0.4431  0.8476
  247MPD1    N1 3808   1.342   2.250  15.818  0.7335 -0.0448  0.4589
  247MPD1    H6 3809   1.297   2.332  15.777  0.5214  0.1280  1.0282
  247MPD1    H7 3810   1.284   2.207  15.890 -0.9044  0.5389 -0.4912
  248MPD1     C 3811   1.132   0.145  17.195 -0.4471 -0.0240  0.1195
  248MPD1    C1 3812   1.113   0.261  17.272  0.4238 -0.3984 -0.5619
  248MPD1    C2 3813   1.122   0.258  17.407 -0.1817  0.1448  0.1738
  248MPD1    C3 3814   1.160   0.141  17.474  0.0289 -0.0547 -0.5533
  248MPD1    C4 3815   1.194   0.036  17.398  0.0649 -0.0939 -0.2799
  248MPD1    C5 3816   1.171   0.032  17.264  0.3786  0.6554 -0.3828
  248MPD1     H 3817   1.091   0.342  17.467 -1.2756  0.0709 -0.3004
  248MPD1    H1 3818   1.216   4.682  17.451  0.7007 -0.5021 -1.2606
  248MPD1    H2 3819   1.103   0.134  17.091 -0.1384  1.5175 -0.1256
  248MPD1    H3 3820   1.192   4.677  17.213 -1.2477  1.6647 -2.8842
  248MPD1     N 3821   1.172   0.142  17.616 -0.3781  0.2866  0.1008
  248MPD1    H5 3822   1.147   0.225  17.668 -0.4214 -0.3623  1.1238
  248MPD1    N1 3823   1.061   0.377  17.211 -0.7416 -0.2723 -0.2733
  248MPD1    H6 3824   1.098   0.391  17.117  0.8742 -0.2669  0.3716
  248MPD1    H7 3825   1.070   0.462  17.266  0.0274 -0.2985 -0.3627
  249MPD1     C 3826   4.254   0.007   9.824  0.0019 -0.1768  0.3519
  249MPD1    C1 3827   4.292   4.719   9.957 -0.3485  0.5498 -0.0554
  249MPD1    C2 3828   4.355   0.082  10.026  0.4305 -0.3460  0.7289
  249MPD1    C3 3829   4.357   0.209   9.976  0.1487 -0.3240  0.0279
  249MPD1    C4 3830   4.330   0.230   9.840  0.5955  0.1924 -0.1477
  249MPD1    C5 3831   4.280   0.128   9.770  0.7183  0.1267  0.2401
  249MPD1     H 3832   4.387   0.076  10.130  2.9421  0.9308  0.0361
  249MPD1    H1 3833   4.352   0.325   9.794  1.1725 -1.1355 -2.6015
  249MPD1    H2 3834   4.208   4.678   9.752  0.7080  1.7235 -1.8625
  249MPD1    H3 3835   4.269   0.146   9.664 -1.3272  0.2461  0.4584
  249MPD1     N 3836   4.404   0.308  10.065 -0.5366  0.0719  0.0501
  249MPD1    H5 3837   4.438   0.269  10.153 -3.6544 -3.7898 -0.4198
  249MPD1    N1 3838   4.303   4.585  10.006  0.3374 -0.1189 -0.0441
  249MPD1    H6 3839   4.304   4.586  10.108  3.2191 -1.0156 -0.0630
  249MPD1    H7 3840   4.222   4.530   9.977  0.8440 -0.6790 -0.3892
  250MPD2     C 3841   0.933   3.455  12.978 -0.7893 -0.1366  0.1526
  250MPD2    C1 3842   0.816   3.526  12.995  0.0065  0.1847  0.1576
  250MPD2    C2 3843   0.695   3.475  12.952 -0.3800  0.6422  0.1313
  250MPD2    C3 3844   0.690   3.350  12.891 -0.5070 -0.4520  0.8020
  250MPD2    C4 3845   0.805   3.279  12.877  0.3141 -0.1603 -0.1888
  250MPD2    C5 3846   0.925   3.328  12.922 -0.5856 -0.3554  0.3625
  250MPD2     H 3847   0.599   3.522  12.971  0.6394  2.4019  0.8816
  250MPD2    H1 3848   0.802   3.179  12.836 -0.6541 -0.5047  0.7260
  250MPD2    H2 3849   1.025   3.492  13.021 -1.1363 -0.4192  1.1475
  250MPD2    H3 3850   1.019   3.278  12.900  0.0264  0.9824 -0.0896
  250MPD2     N 3851   0.572   3.285  12.857 -0.0506 -0.3877 -0.4954
  250MPD2    H5 3852   0.583   3.191  12.820  5.1897  0.8687 -2.0660
  250MPD2    N1 3853   0.826   3.648  13.065 -0.0413 -0.0696 -0.0703
  250MPD2    H7 3854   0.909   3.661  13.121  0.1769 -0.3712 -0.3219
  251TMC3    C1 3855   0.773   3.862  13.134  0.2188  0.5626 -0.0484
  251TMC3    C2 3856   0.688   3.948  13.191  0.2566  0.2697 -0.4485
  251TMC3    C3 3857   0.717   4.080  13.185 -0.0242  0.4266  0.2137
  251TMC3    C4 3858   0.892   3.906  13.070 -0.0849 -0.1152 -0.3223
  251TMC3    C5 3859   0.918   4.041  13.070  0.6489 -0.5012 -0.1793
  251TMC3    C6 3860   0.833   4.132  13.129 -0.1405 -0.9031 -0.1689
  251TMC3     C 3861   0.721   3.736  13.090  0.2707  0.5416  0.2776
  251TMC3     O 3862   0.604   3.735  13.047  0.0490 -0.4586  0.7603
  251TMC3     H 3863   0.600   3.906  13.238  0.4688  0.6433  0.2802
  251TMC3    H1 3864   0.958   3.846  13.009 -0.3969 -1.0152  0.2239
  251TMC3    H2 3865   0.846   4.237  13.152  1.8347 -1.1102 -0.3868
  251TMC3    C7 3866   1.048   4.083  13.014  0.4516 -0.5378 -0.4799
  251TMC3    C8 3867   0.615   4.166  13.245 -0.4425  0.4432  0.4329
  251TMC3    O1 3868   1.133   4.001  12.986 -0.1532 -1.0023 -0.7274
  251TMC3    O2 3869   0.523   4.114  13.308  0.0938  0.0505  0.3500
  252TMC3    C1 3870   0.472   0.803   9.255 -0.1232 -1.1368  0.3349
  252TMC3    C2 3871   0.601   0.840   9.268 -0.6035 -0.2187  0.2164
  252TMC3    C3 3872   0.674   0.753   9.351 -0.8865  0.2645 -0.0469
  252TMC3    C4 3873   0.407   0.703   9.323 -0.8037 -0.1567  0.5467
  252TMC3    C5 3874   0.487   0.631   9.414  0.7606 -0.9111  0.4185
  252TMC3    C6 3875   0.623   0.651   9.427  0.3537  0.0258 -0.5812
  252TMC3     C 3876   0.401   0.871   9.154 -0.1644  1.3003  0.6963
  252TMC3     O 3877   0.464   0.924   9.062  0.6365 -0.2554  0.6040
  252TMC3     H 3878   0.631   0.930   9.214 -0.5762 -0.2636  0.1572
  252TMC3    H1 3879   0.299   0.696   9.323 -0.8329  0.3853  1.9626
  252TMC3    H2 3880   0.679   0.588   9.496  0.7940 -0.4310 -1.3649
  252TMC3    C7 3881   0.417   0.518   9.476  0.2926  0.1317  0.8093
  252TMC3    C8 3882   0.811   0.796   9.370  0.2050  0.0635  0.4264
  252TMC3    O1 3883   0.307   0.495   9.426 -0.2240  0.1669 -0.2923
  252TMC3    O2 3884   0.851   0.882   9.291 -0.2651  0.2403  0.5973
  253MPD2     C 3885   1.920   4.364  15.133  0.5440 -0.1726 -0.5724
  253MPD2    C1 3886   1.783   4.346  15.138  0.1201 -0.2069  0.1326
  253MPD2    C2 3887   1.730   4.236  15.205 -0.5513  0.1861  0.3247
  253MPD2    C3 3888   1.807   4.146  15.281  0.4522  0.2008 -0.2499
  253MPD2    C4 3889   1.945   4.178  15.286 -0.4717 -0.1801  0.2032
  253MPD2    C5 3890   1.995   4.275  15.202  0.0851  0.0140 -0.4344
  253MPD2     H 3891   1.622   4.229  15.203 -0.4016 -1.6215 -1.0485
  253MPD2    H1 3892   2.012   4.099  15.319 -1.4524 -1.1578 -0.1554
  253MPD2    H2 3893   1.981   4.443  15.092 -2.0981  1.8057 -0.6884
  253MPD2    H3 3894   2.100   4.297  15.213  0.4645 -2.5587  1.0590
  253MPD2     N 3895   1.748   4.046  15.365 -0.0888 -0.4663  0.1511
  253MPD2    H5 3896   1.793   4.022  15.453 -0.7378  2.5687  1.3302
  253MPD2    N1 3897   1.686   4.437  15.081 -0.3138 -0.2101  0.3823
  253MPD2    H7 3898   1.588   4.412  15.083 -0.4906  0.4704  0.2285
  254TMC3    C1 3899   1.568   3.943  15.483 -0.2154  0.2946 -0.4129
  254TMC3    C2 3900   1.430   3.957  15.493 -0.2544 -0.9400 -0.6015
  254TMC3    C3 3901   1.372   3.953  15.617  0.1970 -0.5326  0.0241
  254TMC3    C4 3902   1.646   3.928  15.598  0.3162  0.3811  0.0498
  254TMC3    C5 3903   1.587   3.925  15.711 -0.2175 -0.4916  0.2509
  254TMC3    C6 3904   1.451   3.941  15.728 -0.4266  0.1851  0.1369
  254TMC3     C 3905   1.616   4.010  15.361 -0.0959 -0.7217  0.3011
  254TMC3     O 3906   1.535   4.028  15.267  0.3668  0.6093 -0.4741
  254TMC3     H 3907   1.362   3.959  15.409  0.6623  2.7136 -1.2239
  254TMC3    H1 3908   1.754   3.913  15.595  0.3656  1.0012 -1.3313
  254TMC3    H2 3909   1.405   3.944  15.826  0.1949  0.8331  0.4080
  254TMC3    C7 3910   1.656   3.886  15.833 -0.8831 -0.2907 -0.1902
  254TMC3    C8 3911   1.273   4.052  15.621  0.9088  0.2393  0.3978
  254TMC3    O1 3912   1.581   3.837  15.916  0.3199  0.6341 -0.1652
  254TMC3    O2 3913   1.291   4.141  15.539  0.5041  0.6015 -0.2059
  255MPD2     C 3914   4.637   2.049  11.014 -0.3551 -0.0291 -0.2881
  255MPD2    C1 3915   0.030   2.073  10.993  0.0360  0.0451  0.6604
  255MPD2    C2 3916   0.104   1.970  10.930  0.8766  0.0871  0.1846
  255MPD2    C3 3917   0.049   1.845  10.907  0.0859 -0.9132 -0.4508
  255MPD2    C4 3918   4.658   1.821  10.949  0.2427  0.6514  1.0560
  255MPD2    C5 3919   4.578   1.924  10.987 -0.1806 -0.0052 -0.4123
  255MPD2     H 3920   0.207   1.987  10.899  0.8479  0.2319  0.1646
  255MPD2    H1 3921   4.613   1.725  10.924  1.4334  1.0432 -2.6160
  255MPD2    H2 3922   4.575   2.128  11.056  0.9879  0.7816  0.1730
  255MPD2    H3 3923   4.474   1.905  11.011  0.1153 -1.8080 -0.5604
  255MPD2     N 3924   0.134   1.753  10.837 -0.1012 -0.3788  0.2234
  255MPD2    H5 3925   0.230   1.784  10.828 -0.3853  0.4690  0.0977
  255MPD2    N1 3926   0.085   2.204  11.018  0.1169 -0.2848  0.4015
  255MPD2    H7 3927   0.016   2.267  11.058  0.5794  0.6102 -0.2189
  256TMC3    C1 3928   0.207   2.392  10.991  0.3149 -0.5900  0.5609
  256TMC3    C2 3929   0.313   2.438  10.917  0.3436 -0.3668  0.0943
  256TMC3    C3 3930   0.304   2.565  10.866  0.5745  0.4705  0.3476
  256TMC3    C4 3931   0.086   2.455  11.002 -0.1695  0.5670  0.1779
  256TMC3    C5 3932   0.072   2.571  10.931  0.2700  0.2561  0.1910
  256TMC3    C6 3933   0.186   2.635  10.888  0.6777  1.2322  0.2825
  256TMC3     C 3934   0.212   2.254  10.996 -0.0115  1.0810  0.0971
  256TMC3     O 3935   0.306   2.189  10.946 -0.6861 -0.5773 -0.6546
  256TMC3     H 3936   0.410   2.391  10.911  0.4136 -0.1423 -0.5531
  256TMC3    H1 3937   0.005   2.432  11.070 -0.3318 -1.7882 -0.8038
  256TMC3    H2 3938   0.178   2.736  10.848  0.7652 -0.2794 -3.5912
  256TMC3    C7 3939   4.707   2.554  10.832  0.1408  0.5182 -0.3591
  256TMC3    C8 3940   0.382   2.591  10.745  0.6588 -0.5031  0.6979
  256TMC3    O1 3941   4.635   2.460  10.853 -0.1274  0.1500  0.2924
  256TMC3    O2 3942   0.423   2.493  10.683  0.3022  0.4314  0.0321
  257MPD2     C 3943   3.644   3.949  13.294  0.2686 -0.7263  0.2295
  257MPD2    C1 3944   3.775   3.935  13.280  0.4814 -0.6976 -0.5329
  257MPD2    C2 3945   3.827   3.807  13.312 -0.1171  0.0285  0.6070
  257MPD2    C3 3946   3.747   3.703  13.347  0.2119 -0.5295 -0.0911
  257MPD2    C4 3947   3.615   3.722  13.353  0.2607 -0.4013 -0.4093
  257MPD2    C5 3948   3.561   3.841  13.324  0.1604 -0.4685 -0.6837
  257MPD2     H 3949   3.935   3.794  13.311 -0.2273 -0.9714  1.9745
  257MPD2    H1 3950   3.550   3.641  13.383  0.8339  0.0628  2.0766
  257MPD2    H2 3951   3.600   4.041  13.256  0.4712 -0.6707  0.1257
  257MPD2    H3 3952   3.453   3.851  13.320  0.3382  2.4225  2.2839
  257MPD2     N 3953   3.798   3.571  13.395  0.4500  0.2198  0.3333
  257MPD2    H5 3954   3.718   3.509  13.399  1.1949 -0.6324  2.0658
  257MPD2    N1 3955   3.845   4.048  13.244  0.5933  0.2928 -0.2081
  257MPD2    H7 3956   3.795   4.135  13.229 -1.7320 -1.0845 -0.4037
  258TMC3    C1 3957   3.948   3.399  13.461 -0.0615 -1.0703 -0.0640
  258TMC3    C2 3958   3.836   3.344  13.513 -0.5254 -0.9561  0.5982
  258TMC3    C3 3959   3.834   3.210  13.529  0.3836 -0.0547 -0.0067
  258TMC3    C4 3960   4.055   3.325  13.424  0.1353 -0.4129 -0.1617
  258TMC3    C5 3961   4.039   3.190  13.422 -0.7419 -0.3707 -0.4444
  258TMC3    C6 3962   3.927   3.132  13.480 -0.5481 -0.1255 -0.3491
  258TMC3     C 3963   3.930   3.525  13.392 -0.1679  0.0635 -0.7562
  258TMC3     O 3964   4.026   3.577  13.331 -0.0784  0.0104 -0.0855
  258TMC3     H 3965   3.752   3.404  13.548  1.1608  0.9325  1.4098
  258TMC3    H1 3966   4.138   3.370  13.370 -1.0490 -0.1570 -1.7668
  258TMC3    H2 3967   3.907   3.026  13.489  0.2079 -0.3164 -0.8954
  258TMC3    C7 3968   4.154   3.115  13.434  0.1662  1.2101  0.7208
  258TMC3    C8 3969   3.720   3.165  13.612 -0.0724 -0.6647  0.5185
  258TMC3    O1 3970   4.136   2.993  13.440  0.4173  0.3867  0.2763
  258TMC3    O2 3971   3.626   3.242  13.622  0.3869  0.7054 -0.2731
  259MPD2     C 3972   2.391   0.877   0.368  0.6794  0.7253 -0.2013
  259MPD2    C1 3973   2.517   0.821   0.365  0.7423  0.5066  0.6126
  259MPD2    C2 3974   2.583   0.827   0.247 -0.5398 -0.7631  0.8038
  259MPD2    C3 3975   2.546   0.906   0.144 -0.0182  0.3943  0.3976
  259MPD2    C4 3976   2.419   0.956   0.143 -0.7633 -0.2767 -0.2982
  259MPD2    C5 3977   2.345   0.937   0.253  0.7527 -0.7934  0.6408
  259MPD2     H 3978   2.685   0.791   0.239  1.5399  5.5780 -1.3921
  259MPD2    H1 3979   2.360   1.007   0.069 -1.1049 -0.9174 -0.4732
  259MPD2    H2 3980   2.325   0.860   0.453  1.8602  0.5789  0.6867
  259MPD2    H3 3981   2.244   0.977   0.250  1.5351  1.1793  0.4057
  259MPD2     N 3982   2.636   0.925   0.033  0.4083  0.0593  0.7879
  259MPD2    H5 3983   2.734   0.900   0.033  0.9243  2.1102 -0.2467
  259MPD2    N1 3984   2.566   0.761   0.484 -0.4712 -0.0801  0.4048
  259MPD2    H7 3985   2.497   0.742   0.556 -0.0456  0.9547  1.0827
  260TMC3    C1 3986   2.677   0.939  17.557 -0.0076  0.4355  0.4680
  260TMC3    C2 3987   2.789   1.000  17.491 -1.2366 -0.4356  0.8802
  260TMC3    C3 3988   2.875   0.916  17.427  0.0091 -0.1801  0.6025
  260TMC3    C4 3989   2.658   0.806  17.550 -0.0960  0.3749  0.0125
  260TMC3    C5 3990   2.747   0.732  17.492 -0.3576  0.9872  0.8080
  260TMC3    C6 3991   2.855   0.785  17.431 -0.4843 -0.0498 -0.2112
  260TMC3     C 3992   2.613   1.000  17.674 -0.6719 -0.0444  0.8026
  260TMC3     O 3993   2.526   1.083  17.651  0.6997 -0.1245  0.3366
  260TMC3     H 3994   2.820   1.102  17.507 -2.5153 -0.0623  0.9891
  260TMC3    H1 3995   2.568   0.773  17.601  1.1288 -1.9712  0.6360
  260TMC3    H2 3996   2.916   0.720  17.369 -0.9695 -0.7570  0.0673
  260TMC3    C7 3997   2.767   0.601  17.557  0.2195  0.0882  0.5647
  260TMC3    C8 3998   3.015   0.961  17.411  1.0639  0.1132  0.3543
  260TMC3    O1 3999   2.846   0.532  17.496 -0.6067  0.2018 -0.2975
  260TMC3    O2 4000   3.022   1.081  17.390  0.0916 -0.2115  0.4353
  261MPD2     C 4001   4.501   3.484  12.739 -0.2677  0.1426  0.2164
  261MPD2    C1 4002   4.625   3.509  12.691  0.0702 -0.0817  0.0030
  261MPD2    C2 4003   4.663   3.605  12.607 -0.3997  0.1561 -0.4167
  261MPD2    C3 4004   4.562   3.698  12.577 -0.6088 -0.4211 -0.0622
  261MPD2    C4 4005   4.431   3.671  12.622 -0.1334 -0.1929 -0.5776
  261MPD2    C5 4006   4.402   3.566  12.700  0.0899  0.0757 -0.3564
  261MPD2     H 4007   0.027   3.617  12.574 -0.5364 -3.3440 -2.0183
  261MPD2    H1 4008   4.357   3.749  12.612 -0.0143 -0.1407 -1.0397
  261MPD2    H2 4009   4.466   3.401  12.800 -1.4784  0.7045  0.3019
  261MPD2    H3 4010   4.305   3.539  12.741  1.3308 -0.2491  2.3774
  261MPD2     N 4011   4.596   3.797  12.483  0.2592  0.5962  0.9007
  261MPD2    H5 4012   4.686   3.793  12.436 -0.3839  2.4695 -0.4651
  261MPD2    N1 4013   4.731   3.413  12.722 -0.8075  0.4249  1.0465
  261MPD2    H7 4014   0.082   3.443  12.684 -0.2089 -2.3091  0.3026
  262TMC3    C1 4015   4.583   3.971  12.336 -0.2365  0.1548 -0.1922
  262TMC3    C2 4016   4.586   4.107  12.342 -0.0590 -0.3895  0.1194
  262TMC3    C3 4017   4.648   4.170  12.238  0.6142  0.0214  0.2255
  262TMC3    C4 4018   4.636   3.900  12.230  0.3663  0.3034  0.1824
  262TMC3    C5 4019   4.695   3.974  12.131 -1.2664 -0.0921  0.1225
  262TMC3    C6 4020   4.708   4.109  12.129 -0.2622 -0.2211 -0.5415
  262TMC3     C 4021   4.515   3.898  12.440 -0.3349 -0.6123  0.5625
  262TMC3     O 4022   4.408   3.941  12.476 -0.2227  0.2108 -0.1631
  262TMC3     H 4023   4.549   4.165  12.425  1.3042 -1.1362  1.2402
  262TMC3    H1 4024   4.619   3.794  12.213  0.5804  0.5782 -1.7088
  262TMC3    H2 4025   4.731   4.169  12.042 -1.0862 -1.1384 -1.3999
  262TMC3    C7 4026   0.016   3.903  12.022 -0.3114  0.0607  0.0261
  262TMC3    C8 4027   4.652   4.314  12.229  0.3283  0.1111  0.2491
  262TMC3    O1 4028   0.005   3.778  12.024  0.3443  0.5152  0.7126
  262TMC3    O2 4029   4.728   4.355  12.140  0.5108 -0.0398  0.4285
  263MPD2     C 4030   1.094   2.906  11.228 -0.2562 -0.1614  0.1744
  263MPD2    C1 4031   1.202   2.939  11.150 -0.8491  0.1832 -0.2749
  263MPD2    C2 4032   1.177   2.981  11.018 -0.3383 -0.0122  0.1893
  263MPD2    C3 4033   1.052   3.003  10.978  0.0527  0.3110  0.3955
  263MPD2    C4 4034   0.943   2.959  11.058  0.1003  0.5830  0.1854
  263MPD2    C5 4035   0.967   2.916  11.184 -0.0997  0.5771 -0.5649
  263MPD2     H 4036   1.267   2.996  10.960 -1.7846  0.7506 -1.8345
  263MPD2    H1 4037   0.838   2.961  11.031 -0.0571 -2.1098  0.6514
  263MPD2    H2 4038   1.099   2.862  11.327  0.5645 -1.9479 -0.6632
  263MPD2    H3 4039   0.892   2.865  11.243 -0.0466  0.5534 -0.5180
  263MPD2     N 4040   1.038   3.079  10.859 -0.2308  0.0541 -0.2536
  263MPD2    H5 4041   1.119   3.101  10.802  0.8185  0.6897  1.4878
  263MPD2    N1 4042   1.330   2.916  11.199  0.5826  0.2620  0.0869
  263MPD2    H7 4043   1.336   2.880  11.293  0.5916 -0.7880 -0.3072
  264TMC3    C1 4044   0.923   3.233  10.710 -0.0099 -0.6908 -0.2306
  264TMC3    C2 4045   0.864   3.355  10.729  0.3686 -0.1991  0.2029
  264TMC3    C3 4046   0.905   3.456  10.647  0.3788 -0.4086 -0.7123
  264TMC3    C4 4047   1.014   3.203  10.611  0.3942  0.6066 -0.3478
  264TMC3    C5 4048   1.045   3.308  10.530  0.2259  0.1871 -0.0951
  264TMC3    C6 4049   0.991   3.430  10.546  0.6226  0.0292 -0.5129
  264TMC3     C 4050   0.923   3.152  10.828 -0.5513  0.1253 -0.8827
  264TMC3     O 4051   0.816   3.148  10.889  0.1498  0.3828 -0.0848
  264TMC3     H 4052   0.813   3.383  10.820  1.6494  0.2069  0.7989
  264TMC3    H1 4053   1.051   3.105  10.586  1.4171  1.0366 -0.5412
  264TMC3    H2 4054   1.007   3.510  10.474 -0.5105  0.8314  0.1462
  264TMC3    C7 4055   1.160   3.302  10.447  0.7190 -0.2922 -0.0047
  264TMC3    C8 4056   0.966   3.565  10.723  0.0997 -0.0416 -0.6955
  264TMC3    O1 4057   1.230   3.206  10.468  0.0751  0.1637  1.0858
  264TMC3    O2 4058   1.087   3.588  10.712 -0.1475 -0.1536  0.3543
  265MPD2     C 4059   2.832   3.397  15.432  0.3196 -0.9141 -0.3248
  265MPD2    C1 4060   2.913   3.497  15.384  0.5548  0.2178  0.3862
  265MPD2    C2 4061   3.041   3.466  15.336  0.1584  0.4263  0.0415
  265MPD2    C3 4062   3.081   3.335  15.322 -1.2346  0.0002 -0.1103
  265MPD2    C4 4063   2.996   3.235  15.366  0.3553  0.1039 -0.6889
  265MPD2    C5 4064   2.871   3.266  15.416 -0.1940 -0.4629  0.4017
  265MPD2     H 4065   3.099   3.550  15.302  1.0748 -1.0667 -2.1245
  265MPD2    H1 4066   3.033   3.133  15.360 -1.6997 -0.6280 -0.7496
  265MPD2    H2 4067   2.732   3.416  15.467  0.4931  1.0876 -0.9446
  265MPD2    H3 4068   2.803   3.186  15.445 -2.4723  2.0708  2.0457
  265MPD2     N 4069   3.198   3.300  15.258  0.4276  0.1511  0.0458
  265MPD2    H5 4070   3.210   3.199  15.251 -0.9455 -0.2209  3.1280
  265MPD2    N1 4071   2.871   3.632  15.381  0.5118  0.3664  0.8100
  265MPD2    H7 4072   2.933   3.700  15.336 -0.3332  1.8299  1.8825
  266TMC3    C1 4073   2.782   3.832  15.462  0.1607  0.3106 -0.9319
  266TMC3    C2 4074   2.705   3.893  15.558  0.0694  0.1138  0.1044
  266TMC3    C3 4075   2.692   4.027  15.548  0.0301 -0.1101  0.4019
  266TMC3    C4 4076   2.812   3.895  15.339  0.5589 -0.6117 -0.1081
  266TMC3    C5 4077   2.779   4.028  15.326 -0.1382  0.6197  0.5786
  266TMC3    C6 4078   2.717   4.100  15.434 -0.1648  0.2396  0.1058
  266TMC3     C 4079   2.787   3.684  15.477  0.0349  0.3629 -0.1335
  266TMC3     O 4080   2.710   3.639  15.563 -0.2461 -0.0867  0.0487
  266TMC3     H 4081   2.681   3.848  15.654 -2.4735 -0.6629 -0.8755
  266TMC3    H1 4082   2.841   3.844  15.248 -0.4379  2.3183 -2.0868
  266TMC3    H2 4083   2.698   4.207  15.429 -1.1746  0.0548  0.0064
  266TMC3    C7 4084   2.780   4.093  15.194  0.3690 -0.8190  0.1156
  266TMC3    C8 4085   2.664   4.115  15.661 -0.2256  0.0140 -0.4798
  266TMC3    O1 4086   2.739   4.207  15.186  0.0298  0.3309 -0.0905
  266TMC3    O2 4087   2.620   4.062  15.762 -0.6046 -0.2257  0.4915
  267MPD2     C 4088   0.163   0.548   0.315 -0.3772 -0.1612  0.3391
  267MPD2    C1 4089   0.260   0.615   0.243  0.1784 -0.5253 -0.5913
  267MPD2    C2 4090   0.230   0.734   0.170 -0.2493  0.4050 -0.6380
  267MPD2    C3 4091   0.101   0.778   0.164 -0.1664 -0.2290  0.6303
  267MPD2    C4 4092   0.002   0.700   0.217 -0.0659 -0.3977 -0.5934
  267MPD2    C5 4093   0.030   0.584   0.291 -0.9375  0.5785 -0.0931
  267MPD2     H 4094   0.306   0.793   0.121 -0.5140  2.5617  1.5664
  267MPD2    H1 4095   4.634   0.716   0.199  0.5728  1.7279 -2.3056
  267MPD2    H2 4096   0.191   0.462   0.374 -0.0395  1.0448  1.9421
  267MPD2    H3 4097   4.692   0.514   0.325 -0.2972  0.9406  2.0906
  267MPD2     N 4098   0.066   0.882   0.074 -0.1682 -0.1961 -0.0055
  267MPD2    H5 4099   4.706   0.873   0.046 -0.3311  1.4588  0.0770
  267MPD2    N1 4100   0.383   0.561   0.231  0.0222  0.5516 -0.6927
  267MPD2    H7 4101   0.394   0.473   0.281  0.5420  0.8087 -0.3537
  268TMC3    C1 4102   0.597   0.498   0.166  0.0596 -0.1823  0.1443
  268TMC3    C2 4103   0.682   0.492   0.055 -0.0466  0.0051 -0.3536
  268TMC3    C3 4104   0.798   0.417   0.053  0.5015  0.1980 -0.2040
  268TMC3    C4 4105   0.644   0.459   0.287  0.5775 -0.0298 -0.0207
  268TMC3    C5 4106   0.775   0.415   0.294 -0.3226 -0.8460 -0.8769
  268TMC3    C6 4107   0.847   0.390   0.180  0.6767  0.0424 -0.7750
  268TMC3     C 4108   0.483   0.595   0.149  0.2946  0.0732  0.8022
  268TMC3     O 4109   0.498   0.679   0.061 -0.5422  0.6605 -0.1090
  268TMC3     H 4110   0.634   0.519  17.712  0.5432 -1.8621 -1.1892
  268TMC3    H1 4111   0.582   0.457   0.376  0.5485 -0.9101 -0.0585
  268TMC3    H2 4112   0.952   0.364   0.187  0.0989 -2.5484 -2.0216
  268TMC3    C7 4113   0.821   0.347   0.409 -0.2159 -0.9100 -0.7217
  268TMC3    C8 4114   0.899   0.444  17.702 -0.2295  0.4772  0.0265
  268TMC3    O1 4115   0.913   0.266   0.396  0.2451  0.1421 -0.0603
  268TMC3    O2 4116   1.020   0.427  17.727  0.1567  0.3764  0.0993
  269MPD2     C 4117   1.389   4.361  15.312  0.5833  0.3745  0.1941
  269MPD2    C1 4118   1.251   4.381  15.296  0.6153 -0.2060 -0.1583
  269MPD2    C2 4119   1.208   4.511  15.322  0.4309  0.1387 -0.2772
  269MPD2    C3 4120   1.284   4.621  15.356  0.2174 -0.0790 -0.3320
  269MPD2    C4 4121   1.419   4.602  15.355  0.0634  0.6519  0.6956
  269MPD2    C5 4122   1.469   4.473  15.336 -0.1024  0.1625  0.4612
  269MPD2     H 4123   1.103   4.530  15.307  0.4177  1.0033  0.9008
  269MPD2    H1 4124   1.492   4.681  15.365 -0.3673  1.1817 -0.3181
  269MPD2    H2 4125   1.426   4.260  15.306 -1.9829 -0.5776  0.6162
  269MPD2    H3 4126   1.576   4.458  15.344  0.0457 -0.0747 -1.9222
  269MPD2     N 4127   1.234   0.009  15.396 -0.7121 -0.3806 -0.3015
  269MPD2    H5 4128   1.136   0.016  15.420 -0.5156  0.8341  0.1883
  269MPD2    N1 4129   1.165   4.270  15.269  0.2175 -0.2600  0.0495
  269MPD2    H7 4130   1.198   4.181  15.233  1.5202  0.8408 -1.4765
  270TMC3    C1 4131   0.953   4.163  15.276  0.1068 -0.0787  0.2100
  270TMC3    C2 4132   0.820   4.170  15.260  0.2875  0.1016 -0.8093
  270TMC3    C3 4133   0.749   4.058  15.223 -0.7988 -0.0326  0.8690
  270TMC3    C4 4134   1.014   4.046  15.286  0.6865 -0.0690 -0.3083
  270TMC3    C5 4135   0.939   3.934  15.272 -0.0999 -0.6064  0.1589
  270TMC3    C6 4136   0.806   3.934  15.235 -0.6133 -0.1291  0.3498
  270TMC3     C 4137   1.027   4.280  15.292 -0.0805 -0.0467 -1.1348
  270TMC3     O 4138   0.959   4.367  15.351  0.1731  0.1450 -0.2535
  270TMC3     H 4139   0.773   4.267  15.245 -1.4053 -0.9777 -2.5411
  270TMC3    H1 4140   1.114   4.039  15.329  0.1624 -2.7469  0.4785
  270TMC3    H2 4141   0.737   3.852  15.221 -0.0881 -0.8916  2.2208
  270TMC3    C7 4142   0.993   3.804  15.301  0.2596  0.2689 -0.5398
  270TMC3    C8 4143   0.637   4.078  15.136  0.2769  0.0351  0.7440
  270TMC3    O1 4144   1.097   3.799  15.360  0.2635 -0.8897  0.4068
  270TMC3    O2 4145   0.595   4.191  15.134  0.1638 -0.0831 -0.3344
  271MPD2     C 4146   4.665   4.171  14.576 -0.3222  0.1118 -0.1379
  271MPD2    C1 4147   4.642   4.043  14.542  0.1201  0.7124  1.0269
  271MPD2    C2 4148   4.540   4.017  14.450  0.1746 -0.4337 -0.9212
  271MPD2    C3 4149   4.469   4.127  14.402  0.0363 -0.2410 -0.3509
  271MPD2    C4 4150   4.499   4.256  14.438 -0.5048  0.5838  0.1083
  271MPD2    C5 4151   4.601   4.281  14.521 -0.3283  0.3723  0.7031
  271MPD2     H 4152   4.522   3.912  14.430  1.5128 -0.9305  0.4724
  271MPD2    H1 4153   4.448   4.341  14.394 -0.7066  0.8142  0.7823
  271MPD2    H2 4154   0.005   4.202  14.644 -0.2155  0.3424 -0.3649
  271MPD2    H3 4155   4.632   4.384  14.533 -1.4316  0.3491  3.9689
  271MPD2     N 4156   4.353   4.106  14.327  0.4528  0.4770  0.0692
  271MPD2    H5 4157   4.298   4.189  14.304  0.5685  0.7408  0.7268
  271MPD2    N1 4158   4.724   3.948  14.604 -0.5866  0.3679  0.6640
  271MPD2    H7 4159   0.035   3.978  14.687 -1.3628  0.5547  1.0564
  272TMC3    C1 4160   0.117   3.758  14.638 -0.3586  0.2903 -0.7462
  272TMC3    C2 4161   0.224   3.711  14.562  0.6440  0.2171  0.1466
  272TMC3    C3 4162   0.336   3.669  14.632 -0.2783  0.3794 -0.2654
  272TMC3    C4 4163   0.124   3.775  14.772 -0.0824  0.0228 -0.0436
  272TMC3    C5 4164   0.233   3.727  14.839 -0.2753 -0.1655  0.0597
  272TMC3    C6 4165   0.342   3.678  14.771  0.0809 -0.3718 -0.2337
  272TMC3     C 4166   0.012   3.823  14.558  0.1548 -0.3064 -0.0801
  272TMC3     O 4167   4.717   3.776  14.450 -0.1537  0.1040  0.5148
  272TMC3     H 4168   0.209   3.697  14.456 -0.6706 -0.9859  0.4890
  272TMC3    H1 4169   0.029   3.796  14.820 -0.0664  0.6069 -0.2734
  272TMC3    H2 4170   0.434   3.651  14.821 -0.0483 -1.7194 -0.7068
  272TMC3    C7 4171   0.234   3.726  14.982  0.2300 -0.4320 -0.8818
  272TMC3    C8 4172   0.431   3.584  14.564 -0.7709  0.4044 -0.1679
  272TMC3    O1 4173   0.293   3.631  15.031  0.6241 -0.2857  0.4130
  272TMC3    O2 4174   0.435   3.594  14.446 -0.2526  0.3031  0.4669
  273MPD2     C 4175   1.813   1.479  11.974 -0.1084  0.4200  0.2608
  273MPD2    C1 4176   1.891   1.585  11.939  0.2481 -0.2108 -0.5030
  273MPD2    C2 4177   1.886   1.633  11.811 -0.2156  0.3910 -0.0303
  273MPD2    C3 4178   1.793   1.577  11.719 -0.6082 -0.4501 -0.8700
  273MPD2    C4 4179   1.699   1.479  11.767 -0.5606 -0.2146  0.6003
  273MPD2    C5 4180   1.718   1.433  11.889  0.0135 -0.4017  0.3253
  273MPD2     H 4181   1.949   1.711  11.772  1.7959  1.1264  4.7160
  273MPD2    H1 4182   1.622   1.430  11.709 -1.2454  1.1329  0.3652
  273MPD2    H2 4183   1.817   1.436  12.074  1.9286  1.7121  0.7362
  273MPD2    H3 4184   1.654   1.356  11.931 -0.6535  0.0584  0.1668
  273MPD2     N 4185   1.789   1.618  11.579 -0.0900 -0.1605 -0.2538
  273MPD2    H5 4186   1.702   1.589  11.537 -0.4272  2.0408 -1.0734
  273MPD2    N1 4187   1.970   1.642  12.040  0.1715 -0.8856 -0.7010
  273MPD2    H7 4188   1.966   1.597  12.131  1.1867 -0.1581 -0.2926
  274TMC3    C1 4189   1.822   1.752  11.386  0.6859  0.0820  0.2350
  274TMC3    C2 4190   1.699   1.701  11.332  0.7667  0.2210  0.4453
  274TMC3    C3 4191   1.648   1.785  11.239 -1.0053 -0.5769  0.3712
  274TMC3    C4 4192   1.889   1.863  11.345 -0.3946 -0.5346 -0.5142
  274TMC3    C5 4193   1.825   1.941  11.254 -0.3191  0.0126  0.2518
  274TMC3    C6 4194   1.715   1.896  11.189 -0.3641 -0.8961 -0.0250
  274TMC3     C 4195   1.874   1.702  11.515 -0.1802  0.3851 -0.8156
  274TMC3     O 4196   1.992   1.730  11.540 -0.3944  0.3271  0.2780
  274TMC3     H 4197   1.634   1.628  11.378  1.1939  0.3598  1.2647
  274TMC3    H1 4198   1.991   1.884  11.375 -1.1615 -1.3735  2.7140
  274TMC3    H2 4199   1.669   1.972  11.127  0.9029  0.6673  0.9563
  274TMC3    C7 4200   1.868   2.076  11.236 -0.4197  0.9521 -0.5876
  274TMC3    C8 4201   1.507   1.769  11.208  0.3519 -0.5466 -0.3864
  274TMC3    O1 4202   1.799   2.144  11.168  0.1330 -0.1863  0.0335
  274TMC3    O2 4203   1.428   1.729  11.299  0.3196  0.4985 -0.1657
  275MPD2     C 4204   1.346   0.702  14.138  0.4978  0.0800 -0.3188
  275MPD2    C1 4205   1.356   0.655  14.266  0.7272 -0.2386 -0.6195
  275MPD2    C2 4206   1.257   0.565  14.305  0.5175 -0.2126 -0.9625
  275MPD2    C3 4207   1.152   0.532  14.221  0.3951  0.4061 -0.3792
  275MPD2    C4 4208   1.150   0.576  14.093 -0.1301 -0.4296  0.0767
  275MPD2    C5 4209   1.253   0.654  14.048 -0.9222  0.7657 -0.3426
  275MPD2     H 4210   1.250   0.539  14.410 -0.0460  1.2905 -0.6382
  275MPD2    H1 4211   1.061   0.566  14.033  1.0019  1.0331 -1.8671
  275MPD2    H2 4212   1.420   0.771  14.099  0.1162  0.3878 -0.4953
  275MPD2    H3 4213   1.251   0.706  13.953  0.3193  2.3641  0.5180
  275MPD2     N 4214   1.045   0.452  14.261 -0.1870 -0.5935 -0.5750
  275MPD2    H5 4215   0.998   0.405  14.184  1.2890  0.1666 -1.9579
  275MPD2    N1 4216   1.447   0.698  14.356  0.3830  0.1711  0.5585
  275MPD2    H7 4217   1.464   0.649  14.443 -0.8453 -0.6582  0.3210
  276TMC3    C1 4218   1.629   0.803  14.451  0.4629 -0.1580 -0.5810
  276TMC3    C2 4219   1.581   0.783  14.579  0.0384  0.2743  0.1485
  276TMC3    C3 4220   1.658   0.817  14.688 -0.5672  0.7082 -0.5087
  276TMC3    C4 4221   1.748   0.871  14.431 -0.2024  0.4486  0.4322
  276TMC3    C5 4222   1.821   0.902  14.545 -0.0495 -0.7425  0.1244
  276TMC3    C6 4223   1.776   0.882  14.677 -0.5851  0.4593  0.1070
  276TMC3     C 4224   1.529   0.803  14.342 -0.0856 -0.3118  0.7274
  276TMC3     O 4225   1.537   0.885  14.251  0.6371  0.3244 -0.1369
  276TMC3     H 4226   1.492   0.724  14.597 -0.9098  1.9690  1.1178
  276TMC3    H1 4227   1.791   0.888  14.333 -0.0098  2.8107  0.9223
  276TMC3    H2 4228   1.816   0.907  14.774 -0.1920 -0.1570  0.1053
  276TMC3    C7 4229   1.967   0.903  14.519  0.3686 -0.1738 -0.2850
  276TMC3    C8 4230   1.589   0.813  14.821  0.0096 -0.7395 -0.6478
  276TMC3    O1 4231   2.018   0.880  14.412 -0.2397 -0.2757  0.3694
  276TMC3    O2 4232   1.616   0.906  14.896 -0.1429 -0.3208  0.3542
  277MPD2     C 4233   3.202   3.729  13.210 -0.4409  0.2328  0.0813
  277MPD2    C1 4234   3.076   3.768  13.248  0.1143 -0.1205 -0.2938
  277MPD2    C2 4235   3.014   3.708  13.357  0.0144  0.1655 -1.5347
  277MPD2    C3 4236   3.089   3.606  13.422  0.1469 -0.3418  0.1488
  277MPD2    C4 4237   3.216   3.566  13.380 -0.3308 -0.2503  0.2966
  277MPD2    C5 4238   3.268   3.626  13.276 -0.0025 -0.9467 -0.5842
  277MPD2     H 4239   2.918   3.745  13.392  0.9086  0.1443  0.9499
  277MPD2    H1 4240   3.282   3.500  13.435 -1.0771 -0.6498  0.7237
  277MPD2    H2 4241   3.239   3.763  13.114  0.0878 -0.2197  0.1261
  277MPD2    H3 4242   3.361   3.591  13.232  0.0851 -0.0965 -1.0785
  277MPD2     N 4243   3.036   3.538  13.531 -0.6212  0.0803  0.4918
  277MPD2    H5 4244   3.103   3.473  13.571  0.7521  0.3227 -1.3508
  277MPD2    N1 4245   3.018   3.865  13.168  0.4165  0.3482  0.0075
  277MPD2    H7 4246   3.068   3.891  13.083  0.7900 -1.0009 -0.1990
  278TMC3    C1 4247   2.928   3.504  13.741  0.3681 -0.4416  0.3733
  278TMC3    C2 4248   2.934   3.363  13.708 -0.3395  0.2807  0.9333
  278TMC3    C3 4249   2.828   3.285  13.751  0.0696 -0.1402 -1.0348
  278TMC3    C4 4250   2.819   3.545  13.818 -1.2138  0.2881  0.2136
  278TMC3    C5 4251   2.725   3.459  13.860 -0.0996  0.9932 -0.6263
  278TMC3    C6 4252   2.726   3.330  13.825 -0.6623  0.2240  0.0688
  278TMC3     C 4253   2.936   3.584  13.616  0.3826  0.1007 -0.2821
  278TMC3     O 4254   2.856   3.677  13.605  0.3129  0.1423 -0.8649
  278TMC3     H 4255   3.018   3.319  13.656 -0.4589 -0.7614  1.6193
  278TMC3    H1 4256   2.809   3.652  13.835 -1.4399  0.5546 -1.6953
  278TMC3    H2 4257   2.647   3.258  13.841 -0.7365  0.3216  0.1434
  278TMC3    C7 4258   2.616   3.515  13.947 -0.3744 -0.6663  0.6755
  278TMC3    C8 4259   2.839   3.155  13.697  0.2661 -0.8993 -0.8406
  278TMC3    O1 4260   2.644   3.621  14.005  0.0998  0.3206 -0.4234
  278TMC3    O2 4261   2.790   3.059  13.757 -0.0884  0.2041  0.5787
  279MPD2     C 4262   2.658   3.496   0.209  0.4062 -0.2643  0.9234
  279MPD2    C1 4263   2.548   3.477   0.133 -0.0745 -0.5022  0.8323
  279MPD2    C2 4264   2.550   3.529   0.007 -0.0352 -0.1974 -0.1820
  279MPD2    C3 4265   2.666   3.583  17.707  0.1656 -0.0924  0.3203
  279MPD2    C4 4266   2.785   3.586   0.029  0.5295 -0.1871  0.9604
  279MPD2    C5 4267   2.775   3.538   0.158  0.7279 -0.0498  0.4569
  279MPD2     H 4268   2.469   3.526  17.686  0.7253  0.2198 -1.0651
  279MPD2    H1 4269   2.884   3.619  17.750  1.1749 -2.9715  0.0123
  279MPD2    H2 4270   2.662   3.442   0.303  3.2211 -1.2049  0.2480
  279MPD2    H3 4271   2.865   3.547   0.219  0.2000  0.6280  1.1342
  279MPD2     N 4272   2.664   3.645  17.586  0.4422  0.9859  0.5200
  279MPD2    H5 4273   2.726   3.725  17.575  0.1773  0.9588 -1.0837
  279MPD2    N1 4274   2.431   3.412   0.193  0.5119 -0.2612 -0.7898
  279MPD2    H7 4275   2.437   3.385   0.291 -0.9238  3.8208  0.4277
  280TMC3    C1 4276   2.286   3.381  17.750 -0.0682 -0.0395 -0.0776
  280TMC3    C2 4277   2.283   3.258  17.690 -0.3206  0.4455 -0.8907
  280TMC3    C3 4278   2.223   3.245  17.567 -0.2359  0.7028  1.0467
  280TMC3    C4 4279   2.231   3.491  17.689 -0.3113 -0.8548 -0.1169
  280TMC3    C5 4280   2.172   3.476  17.569  0.5979 -0.4217  0.0201
  280TMC3    C6 4281   2.173   3.356  17.501  0.0072  0.0343  0.3256
  280TMC3     C 4282   2.303   3.385   0.138 -0.2432 -0.2257 -1.0077
  280TMC3     O 4283   2.200   3.359   0.197 -0.2917  0.0316  0.9140
  280TMC3     H 4284   2.311   3.174   0.002 -3.2909  1.1378  1.3395
  280TMC3    H1 4285   2.234   3.587  17.740  1.2089 -1.2823  0.6088
  280TMC3    H2 4286   2.113   3.340  17.412 -0.0429  0.0955  0.3478
  280TMC3    C7 4287   2.155   3.596  17.493 -0.0225 -0.2298  0.2324
  280TMC3    C8 4288   2.240   3.120  17.503 -0.4696  0.0826 -0.9577
  280TMC3    O1 4289   2.238   3.684  17.484  0.4777 -0.3870 -0.1610
  280TMC3    O2 4290   2.251   3.024  17.580 -0.5172 -0.1807  0.0277
  281TMC3    C1 4291   1.391   3.959  13.255 -0.4143 -0.6869 -0.3654
  281TMC3    C2 4292   1.433   4.081  13.205 -0.0115  0.2779  0.7273
  281TMC3    C3 4293   1.531   4.085  13.107 -0.1163  0.3414 -0.6884
  281TMC3    C4 4294   1.440   3.842  13.213 -0.3988 -0.1164  0.9903
  281TMC3    C5 4295   1.536   3.851  13.120 -0.3141 -0.6111 -0.5586
  281TMC3    C6 4296   1.583   3.967  13.067 -0.1924  0.3395 -0.7282
  281TMC3     C 4297   1.262   3.945  13.336  0.3874 -0.7660 -0.2813
  281TMC3     O 4298   1.227   3.832  13.372  0.2507  0.0236  0.1123
  281TMC3     H 4299   1.385   4.170  13.242 -1.6689 -0.6504  0.8088
  281TMC3    H1 4300   1.408   3.747  13.254  3.5829 -0.9237  2.2153
  281TMC3    H2 4301   1.671   3.963  13.004  3.3894  0.6315  4.2267
  281TMC3    C7 4302   1.616   3.737  13.114  0.6398  0.4440  0.0485
  281TMC3    C8 4303   1.608   4.208  13.070 -0.2154 -0.0888 -0.3268
  281TMC3    O1 4304   1.732   3.745  13.075 -0.3242 -0.3948 -1.1851
  281TMC3    O2 4305   1.728   4.193  13.049 -0.2334  0.1226  0.6021
  282MPD2     C 4306   3.359   0.653  14.954  0.4563 -0.1854  0.6550
  282MPD2    C1 4307   3.260   0.749  14.952  1.0604  0.4733  0.3206
  282MPD2    C2 4308   3.228   0.796  14.831  1.0984  0.4681 -0.3791
  282MPD2    C3 4309   3.282   0.758  14.713 -0.8750 -0.2957  0.6292
  282MPD2    C4 4310   3.390   0.669  14.718  0.1044  0.1579 -0.0915
  282MPD2    C5 4311   3.424   0.617  14.841  0.6450 -1.7671 -0.5614
  282MPD2     H 4312   3.158   0.878  14.823  2.2899  1.5533  0.4935
  282MPD2    H1 4313   3.453   0.645  14.633 -1.0014 -0.5016 -0.7175
  282MPD2    H2 4314   3.384   0.600  15.045 -0.6005 -0.5037  0.7633
  282MPD2    H3 4315   3.514   0.558  14.856  1.4082 -1.0351 -2.2888
  282MPD2     N 4316   3.239   0.820  14.599  0.1199  0.1910  0.0695
  282MPD2    H5 4317   3.182   0.903  14.609  0.1213  0.1409  0.5221
  282MPD2    N1 4318   3.197   0.797  15.068 -0.2236 -0.2168  0.1699
  282MPD2    H7 4319   3.119   0.860  15.052  0.1030 -0.2793 -1.6475
  283TMC3    C1 4320   3.156   0.861  15.284 -0.7712  0.2637 -0.1322
  283TMC3    C2 4321   3.215   0.922  15.390 -0.5420  0.4718 -0.3639
  283TMC3    C3 4322   3.152   0.959  15.508 -0.0741 -0.3532 -0.6284
  283TMC3    C4 4323   3.023   0.843  15.285 -0.1263 -0.1846  0.2280
  283TMC3    C5 4324   2.957   0.872  15.405  0.3291 -0.4946  0.3258
  283TMC3    C6 4325   3.019   0.929  15.521 -0.0693 -0.2383 -0.0020
  283TMC3     C 4326   3.244   0.780  15.195 -0.1992  0.3317  0.4842
  283TMC3     O 4327   3.351   0.741  15.240  0.2933  0.3190  0.5373
  283TMC3     H 4328   3.322   0.938  15.379 -0.3831  1.1367  2.0478
  283TMC3    H1 4329   2.984   0.795  15.196  1.0768  1.4483 -1.1913
  283TMC3    H2 4330   2.958   0.954  15.607 -0.1947 -1.6885  0.3203
  283TMC3    C7 4331   2.818   0.825  15.423  0.1054 -0.4748 -0.8760
  283TMC3    C8 4332   3.223   1.063  15.594 -0.2618  1.2584 -0.2430
  283TMC3    O1 4333   2.738   0.884  15.498  0.9706  0.4076 -0.0338
  283TMC3    O2 4334   3.202   1.073  15.716  0.3073  0.4450 -0.3084
  284MPD2     C 4335   1.200   4.593  12.169  0.2588  0.7399 -0.4695
  284MPD2    C1 4336   1.316   4.550  12.099  0.6929 -0.2312 -0.0740
  284MPD2    C2 4337   1.388   4.443  12.150 -0.0132  0.1194  0.5168
  284MPD2    C3 4338   1.365   4.366  12.266  0.3093 -0.2763  0.5570
  284MPD2    C4 4339   1.254   4.409  12.335  0.6166  0.2463  0.7916
  284MPD2    C5 4340   1.170   4.513  12.278 -0.2519  0.1408 -0.1006
  284MPD2     H 4341   1.469   4.421  12.081 -1.3648  0.1021 -1.0482
  284MPD2    H1 4342   1.215   4.364  12.425 -1.4979  2.5093  1.0279
  284MPD2    H2 4343   1.128   4.665  12.132 -0.1500  0.6287  0.1270
  284MPD2    H3 4344   1.091   4.544  12.345  0.1692 -0.1073  0.5164
  284MPD2     N 4345   1.448   4.267  12.321 -0.3352  0.0697  0.6064
  284MPD2    H5 4346   1.412   4.210  12.397  0.3490 -0.9754  0.1383
  284MPD2    N1 4347   1.355   4.595  11.969  0.8119  0.0732 -0.8526
  284MPD2    H7 4348   1.432   4.543  11.928  0.8780  0.1088 -0.7748
  285TMC3    C1 4349   1.346   4.692  11.759  0.4949 -0.1222 -0.4795
  285TMC3    C2 4350   1.420   4.589  11.704 -0.0577 -0.0791 -0.1680
  285TMC3    C3 4351   1.508   4.618  11.607  0.1260 -0.0195  0.4783
  285TMC3    C4 4352   1.348   0.078  11.704 -0.2861 -0.0505 -0.2711
  285TMC3    C5 4353   1.427   0.099  11.592 -0.0254 -0.3577  0.5440
  285TMC3    C6 4354   1.519   0.011  11.550  0.0629 -0.7601 -0.1379
  285TMC3     C 4355   1.278   4.676  11.888  0.6996  1.1050  0.0095
  285TMC3     O 4356   1.190   0.017  11.918  0.2061  0.0925  0.1312
  285TMC3     H 4357   1.419   4.494  11.756 -1.7584  0.5574  0.9669
  285TMC3    H1 4358   1.299   0.161  11.754 -0.6818 -0.6619  0.3574
  285TMC3    H2 4359   1.569   0.040  11.458 -2.8604  0.6542 -1.2808
  285TMC3    C7 4360   1.413   0.229  11.514 -0.0954  0.9765 -0.1256
  285TMC3    C8 4361   1.559   4.506  11.525 -0.2605  0.3096 -0.0172
  285TMC3    O1 4362   1.515   0.250  11.451  0.3459 -0.2701 -0.5068
  285TMC3    O2 4363   1.503   4.397  11.542  0.5415 -0.0352 -0.1393
  286MPD2     C 4364   1.452   3.672   1.173  0.8839  0.4147 -0.0446
  286MPD2    C1 4365   1.403   3.567   1.100  0.4997 -0.2475  0.3008
  286MPD2    C2 4366   1.481   3.450   1.092  0.4618 -0.0988 -0.5238
  286MPD2    C3 4367   1.606   3.438   1.142 -0.3527 -0.5915  0.3473
  286MPD2    C4 4368   1.656   3.543   1.212  0.1754 -0.9178 -0.3841
  286MPD2    C5 4369   1.578   3.652   1.228  0.1107  0.2578 -0.7223
  286MPD2     H 4370   1.442   3.373   1.026 -0.8009  1.7804 -1.9543
  286MPD2    H1 4371   1.756   3.545   1.255 -0.4217 -1.4181  1.0149
  286MPD2    H2 4372   1.399   3.766   1.183  1.1208  0.8340 -2.7936
  286MPD2    H3 4373   1.619   3.735   1.284 -0.0995 -0.0528 -0.1159
  286MPD2     N 4374   1.693   3.322   1.137 -0.0434  0.1665  0.3784
  286MPD2    H5 4375   1.781   3.331   1.187  0.8672 -2.3644 -0.7962
  286MPD2    N1 4376   1.279   3.568   1.035  0.1942 -0.2985 -0.4694
  286MPD2    H7 4377   1.243   3.480   0.999  0.0573  0.6944 -2.7820
  287TMC3    C1 4378   1.766   3.100   1.067  0.4355 -0.1434 -0.7043
  287TMC3    C2 4379   1.727   2.984   1.014 -0.3814 -1.1406 -0.3036
  287TMC3    C3 4380   1.818   2.880   1.007  0.6125 -0.5495 -0.2992
  287TMC3    C4 4381   1.890   3.120   1.128 -0.5163 -0.2196  0.9923
  287TMC3    C5 4382   1.981   3.019   1.108 -0.1444  0.1171 -0.5029
  287TMC3    C6 4383   1.946   2.898   1.051 -0.0554  0.1414 -0.2310
  287TMC3     C 4384   1.656   3.201   1.075 -0.1464  0.4256  0.5668
  287TMC3     O 4385   1.553   3.181   1.014 -0.1530  0.0124 -0.3562
  287TMC3     H 4386   1.629   2.965   0.971 -1.1868 -1.1257  1.5559
  287TMC3    H1 4387   1.913   3.208   1.187 -1.3206 -1.3787  3.0356
  287TMC3    H2 4388   2.015   2.814   1.049 -1.7468 -1.2085 -1.7736
  287TMC3    C7 4389   2.116   3.041   1.169  0.5604 -0.2753 -0.0085
  287TMC3    C8 4390   1.792   2.772   0.910  0.1990  0.2955 -0.4506
  287TMC3    O1 4391   2.126   3.141   1.241  0.0302 -0.0697  0.6786
  287TMC3    O2 4392   1.676   2.747   0.878  0.4490 -0.3358  0.6878
  288TMC3    C1 4393   3.575   2.984  14.771 -0.6113 -0.1810  0.1968
  288TMC3    C2 4394   3.468   3.070  14.777 -0.4219 -0.0554 -0.6390
  288TMC3    C3 4395   3.482   3.191  14.721  0.0322 -0.2239 -0.0887
  288TMC3    C4 4396   3.691   3.021  14.707 -0.2850 -0.1780  0.2073
  288TMC3    C5 4397   3.703   3.150  14.666  0.1808 -0.4061  0.7942
  288TMC3    C6 4398   3.600   3.237  14.667  0.0014  0.5130  0.2714
  288TMC3     C 4399   3.539   2.845  14.782  0.4342 -0.2320  0.1029
  288TMC3     O 4400   3.421   2.815  14.794 -0.0589  0.0062 -0.5333
  288TMC3     H 4401   3.370   3.038  14.811 -0.0397 -1.1946 -0.6128
  288TMC3    H1 4402   3.774   2.951  14.708 -1.2869 -1.3652  1.3617
  288TMC3    H2 4403   3.600   3.342  14.643 -2.3119  0.8494  1.7359
  288TMC3    C7 4404   3.817   3.179  14.580  0.2923 -0.0536 -0.4690
  288TMC3    C8 4405   3.373   3.289  14.745  0.1027  0.3602  0.5401
  288TMC3    O1 4406   3.876   3.087  14.527  0.5444  0.2382 -0.1480
  288TMC3    O2 4407   3.388   3.409  14.746 -0.0347 -0.1084 -0.0592
  289MPD2     C 4408   3.505   2.449  14.318 -0.2072  0.4285 -0.0382
  289MPD2    C1 4409   3.435   2.568  14.318 -0.2452 -0.2695  0.5109
  289MPD2    C2 4410   3.301   2.562  14.284 -0.9733 -0.8980  0.2572
  289MPD2    C3 4411   3.240   2.441  14.255 -0.3304  1.2716  0.1624
  289MPD2    C4 4412   3.315   2.320  14.266  0.1108  0.3748  0.0290
  289MPD2    C5 4413   3.445   2.332  14.303  1.1966 -0.3403 -0.0248
  289MPD2     H 4414   3.230   2.643  14.287  0.3048  0.1183  2.5928
  289MPD2    H1 4415   3.261   2.226  14.261  1.0028 -0.2568  2.7698
  289MPD2    H2 4416   3.611   2.446  14.338 -0.0051 -0.6739 -1.2926
  289MPD2    H3 4417   3.501   2.241  14.323  3.2402  1.2918  1.6438
  289MPD2     N 4418   3.099   2.428  14.225  0.1482  0.6624  0.0542
  289MPD2    H5 4419   3.070   2.342  14.179  2.4588  0.9420 -1.9803
  289MPD2    N1 4420   3.506   2.690  14.344 -0.6505 -0.7911  0.7187
  289MPD2    H7 4421   3.608   2.694  14.344 -0.6855  0.1503  1.4503
  290TMC3    C1 4422   2.881   2.488  14.157  0.3008  0.7441  0.3033
  290TMC3    C2 4423   2.823   2.577  14.081  0.1472  0.5078  0.6526
  290TMC3    C3 4424   2.695   2.556  14.039  0.0159  0.7903  0.9198
  290TMC3    C4 4425   2.818   2.378  14.205  0.5426 -0.2704 -0.0696
  290TMC3    C5 4426   2.686   2.361  14.168  0.2756  0.3108  0.8272
  290TMC3    C6 4427   2.629   2.443  14.074 -0.6460 -0.0074 -0.0954
  290TMC3     C 4428   3.009   2.532  14.206  0.0086  0.6839  0.5908
  290TMC3     O 4429   3.029   2.653  14.220  0.8523  0.4950 -0.4984
  290TMC3     H 4430   2.882   2.660  14.045 -0.1493  0.3698 -0.1623
  290TMC3    H1 4431   2.857   2.325  14.291  0.1535 -2.2034 -1.0864
  290TMC3    H2 4432   2.533   2.420  14.029 -0.6841 -0.4686  0.2248
  290TMC3    C7 4433   2.615   2.233  14.182  0.2649  0.5274 -0.5722
  290TMC3    C8 4434   2.605   2.677  14.045 -0.4194 -0.7042 -0.2524
  290TMC3    O1 4435   2.492   2.231  14.167  0.6943  0.0161 -0.2663
  290TMC3    O2 4436   2.481   2.666  14.028 -0.0058  1.1836 -0.3983
  291MPD2     C 4437   2.231   2.432   0.241  0.2674  0.1472 -0.4118
  291MPD2    C1 4438   2.343   2.382   0.297 -0.0311 -0.7001 -0.3059
  291MPD2    C2 4439   2.446   2.469   0.330  0.2691  0.2045 -0.0362
  291MPD2    C3 4440   2.432   2.608   0.316  0.7701  0.2896  0.4058
  291MPD2    C4 4441   2.307   2.657   0.272  0.3891 -0.2666  0.2681
  291MPD2    C5 4442   2.209   2.568   0.233 -0.9506 -1.1517 -0.3927
  291MPD2     H 4443   2.535   2.420   0.368  0.8427  1.8156  0.6797
  291MPD2    H1 4444   2.286   2.763   0.255 -1.6199 -0.6238  0.5284
  291MPD2    H2 4445   2.148   2.374   0.203 -1.6556  2.9995 -0.5995
  291MPD2    H3 4446   2.114   2.605   0.197 -0.3120  0.4264 -0.4384
  291MPD2     N 4447   2.534   2.704   0.347 -0.3723 -0.0508 -0.2196
  291MPD2    H5 4448   2.508   2.802   0.343 -1.4552 -0.3408 -0.1446
  291MPD2    N1 4449   2.370   2.242   0.314  0.2386 -0.3222  0.2673
  291MPD2    H7 4450   2.458   2.225   0.362  0.0222 -1.8777  0.1188
  292TMC3    C1 4451   2.362   2.004   0.284 -0.7487 -0.0700 -0.6547
  292TMC3    C2 4452   2.441   1.976   0.393 -0.3041 -0.0166 -0.3275
  292TMC3    C3 4453   2.475   1.848   0.423  0.2161 -0.3774  0.1893
  292TMC3    C4 4454   2.312   1.907   0.211 -0.1873 -0.2152  0.5504
  292TMC3    C5 4455   2.344   1.782   0.252  0.0899  0.4153  0.4934
  292TMC3    C6 4456   2.430   1.750   0.352  0.6435  0.1934  0.6039
  292TMC3     C 4457   2.299   2.134   0.264 -0.6158 -0.2860 -0.1160
  292TMC3     O 4458   2.194   2.139   0.200  0.5236 -0.5070  0.1632
  292TMC3     H 4459   2.473   2.058   0.457  2.0389  0.2808 -1.8865
  292TMC3    H1 4460   2.245   1.920   0.127 -0.6030  2.2443  1.2719
  292TMC3    H2 4461   2.467   1.649   0.366  0.1501  0.0905  1.1966
  292TMC3    C7 4462   2.299   1.670   0.176 -0.1031 -0.5925  0.2272
  292TMC3    C8 4463   2.572   1.832   0.529  0.2437  0.5566 -0.0032
  292TMC3    O1 4464   2.359   1.563   0.180 -0.1203  0.0565  0.8110
  292TMC3    O2 4465   2.657   1.924   0.541 -0.0287 -0.5060  0.0860
  293MPD2     C 4466   4.500   3.946  12.814 -0.9875 -0.0462 -0.0618
  293MPD2    C1 4467   4.367   3.952  12.829  0.2102 -0.7265 -0.3420
  293MPD2    C2 4468   4.310   3.926  12.955  0.2070  0.4860  0.0815
  293MPD2    C3 4469   4.385   3.906  13.067 -0.0521 -0.0948 -0.0538
  293MPD2    C4 4470   4.520   3.915  13.055 -0.5506  0.5206  0.6894
  293MPD2    C5 4471   4.576   3.925  12.927 -0.1221 -0.7490 -1.2533
  293MPD2     H 4472   4.202   3.926  12.963  0.0592 -0.5063 -1.7959
  293MPD2    H1 4473   4.580   3.905  13.145 -1.9029 -3.6626  1.1246
  293MPD2    H2 4474   4.547   3.968  12.719  0.1278  0.2664  0.5651
  293MPD2    H3 4475   4.684   3.925  12.920 -0.1613  1.3099 -1.9409
  293MPD2     N 4476   4.327   3.888  13.191 -0.1805  0.1349  0.8311
  293MPD2    H5 4477   4.228   3.907  13.201 -0.1388  1.3207 -0.9941
  293MPD2    N1 4478   4.286   3.981  12.712 -0.1492  0.5832 -0.3165
  293MPD2    H7 4479   4.335   3.987  12.623 -0.2128  0.4540 -0.3597
  294TMC3    C1 4480   4.095   4.032  12.580  0.6516  0.1225 -0.1081
  294TMC3    C2 4481   4.008   3.939  12.521  0.5088  0.0838 -0.3406
  294TMC3    C3 4482   4.021   3.918  12.388  0.0983 -0.0642  0.0840
  294TMC3    C4 4483   4.179   4.108  12.501 -0.0847  0.1513  0.2716
  294TMC3    C5 4484   4.164   4.097  12.363  1.0940 -0.0736  0.0271
  294TMC3    C6 4485   4.095   3.998  12.303 -0.1090  0.2194  0.2916
  294TMC3     C 4486   4.150   4.004  12.710 -0.0167  0.6048  0.7765
  294TMC3     O 4487   4.065   3.984  12.794  0.0598  0.0202 -0.8043
  294TMC3     H 4488   3.980   3.853  12.581 -0.2308 -0.1524 -1.0237
  294TMC3    H1 4489   4.251   4.176  12.547  2.9828 -1.8454 -1.5535
  294TMC3    H2 4490   4.080   3.986  12.196  3.3088 -3.4750  0.2505
  294TMC3    C7 4491   4.256   4.179  12.282 -0.3518 -0.5762  0.2755
  294TMC3    C8 4492   3.930   3.824  12.319 -0.3730  0.1543  0.1288
  294TMC3    O1 4493   4.303   4.278  12.333  0.6864 -0.1526  0.0282
  294TMC3    O2 4494   3.954   3.810  12.199  0.3263  0.2266  0.3563
  295MPD2     C 4495   0.120   2.327   1.085  0.4226 -0.0663 -0.3917
  295MPD2    C1 4496   0.041   2.270   0.993  0.2190  0.8637 -0.4016
  295MPD2    C2 4497   4.722   2.145   1.013 -0.0260  0.1789  0.6935
  295MPD2    C3 4498   0.025   2.077   1.126 -0.1954 -0.0456 -0.4988
  295MPD2    C4 4499   0.090   2.139   1.230 -0.1257  0.1619 -0.4472
  295MPD2    C5 4500   0.132   2.270   1.210  0.9745 -0.0474 -0.4436
  295MPD2     H 4501   4.668   2.104   0.929 -0.2093  4.7717 -1.4356
  295MPD2    H1 4502   0.118   2.085   1.319 -0.7569 -1.7881 -1.4459
  295MPD2    H2 4503   0.169   2.423   1.068 -0.9766  0.7144 -0.0153
  295MPD2    H3 4504   0.199   2.326   1.275  0.1822  0.1166  0.2284
  295MPD2     N 4505   4.718   1.944   1.145 -0.2010  0.0137 -0.2912
  295MPD2    H5 4506   0.011   1.898   1.230  0.9211 -1.7601 -1.6582
  295MPD2    N1 4507   4.732   2.343   0.879  0.4235 -0.2830  0.2061
  295MPD2    H7 4508   4.653   2.309   0.825 -0.3410  0.2602  0.9727
  296TMC3    C1 4509   4.609   1.748   1.105  0.4193  0.0807 -0.2441
  296TMC3    C2 4510   4.499   1.704   1.041 -0.4162 -0.3441  0.0368
  296TMC3    C3 4511   4.518   1.593   0.973  0.7833 -0.9964  0.2250
  296TMC3    C4 4512   4.725   1.677   1.122  0.0366  0.3164  0.3641
  296TMC3    C5 4513   4.725   1.548   1.067 -0.4748 -0.4549 -0.8721
  296TMC3    C6 4514   4.627   1.512   0.979  0.7914 -0.2420 -0.2606
  296TMC3     C 4515   4.630   1.880   1.061  0.2152  0.6625 -0.7247
  296TMC3     O 4516   4.568   1.915   0.955 -0.4656  0.2088  0.0441
  296TMC3     H 4517   4.411   1.767   1.032 -1.3434 -1.2807  2.6201
  296TMC3    H1 4518   0.063   1.700   1.195  0.1907 -1.8584  0.9012
  296TMC3    H2 4519   4.623   1.420   0.922  1.1916  0.1126 -0.8670
  296TMC3    C7 4520   0.110   1.476   1.079 -0.1380  0.0245  0.1419
  296TMC3    C8 4521   4.450   1.576   0.841  0.7285 -0.0980  0.1659
  296TMC3    O1 4522   0.214   1.545   1.094  0.1043  0.1934 -1.0543
  296TMC3    O2 4523   4.465   1.475   0.770 -0.1036 -0.0890 -0.4035
  297MPD2     C 4524   2.041   4.696  15.319  0.6207  0.3014 -0.2966
  297MPD2    C1 4525   2.041   0.065  15.410  0.5221  0.6124  0.2672
  297MPD2    C2 4526   2.151   0.091  15.482  0.3711 -0.0812  0.5642
  297MPD2    C3 4527   2.266   0.013  15.467 -0.3659 -0.7667  0.0617
  297MPD2    C4 4528   2.270   4.655  15.366  0.0136  0.5591 -0.1894
  297MPD2    C5 4529   2.155   4.621  15.300  0.7158 -0.2916 -0.0880
  297MPD2     H 4530   2.149   0.171  15.555 -1.3871  1.4681 -1.1475
  297MPD2    H1 4531   2.356   4.596  15.336  0.4318  1.2849 -0.4143
  297MPD2    H2 4532   1.959   4.665  15.255  0.8258  0.0367 -0.4289
  297MPD2    H3 4533   2.162   4.550  15.218 -0.0465 -0.0939 -0.3303
  297MPD2     N 4534   2.375   0.033  15.551 -0.0656  0.0381  0.1217
  297MPD2    H5 4535   2.361   0.111  15.615 -0.6540 -0.1064  0.1727
  297MPD2    N1 4536   1.925   0.135  15.448 -0.3719  0.5515  0.7077
  297MPD2    H7 4537   1.926   0.215  15.511 -0.4273  0.1549  1.2162
  298TMC3    C1 4538   1.692   0.172  15.478 -0.4622 -0.3975  0.0759
  298TMC3    C2 4539   1.718   0.310  15.494  0.5335  0.2396 -0.2429
  298TMC3    C3 4540   1.648   0.381  15.589  0.0254 -0.2377 -0.1489
  298TMC3    C4 4541   1.603   0.110  15.560 -0.1849 -0.5827  0.1622
  298TMC3    C5 4542   1.537   0.187  15.647 -0.2085  0.1325  0.1941
  298TMC3    C6 4543   1.559   0.315  15.671 -0.3760 -0.5476  0.4656
  298TMC3     C 4544   1.795   0.084  15.436  0.1584  0.4153  0.4437
  298TMC3     O 4545   1.754   4.715  15.392  0.2537  0.4284 -0.2041
  298TMC3     H 4546   1.790   0.351  15.424  1.1458  0.7874  0.7160
  298TMC3    H1 4547   1.605   0.002  15.553 -1.7724 -0.4816 -1.8814
  298TMC3    H2 4548   1.513   0.348  15.763  0.3946 -1.2913  1.1148
  298TMC3    C7 4549   1.450   0.126  15.749  0.0912 -0.3395 -0.3876
  298TMC3    C8 4550   1.673   0.519  15.623 -0.3241 -0.0580 -0.0789
  298TMC3    O1 4551   1.380   0.195  15.822 -0.1915 -0.0094 -0.1387
  298TMC3    O2 4552   1.641   0.554  15.736 -0.2039 -0.0923 -0.3546
  299MPD2     C 4553   2.745   3.731  10.653 -0.6328  0.3292 -0.4940
  299MPD2    C1 4554   2.735   3.830  10.558 -0.0656  1.1691  0.0611
  299MPD2    C2 4555   2.627   3.846  10.469  0.1646  0.2249  0.6711
  299MPD2    C3 4556   2.528   3.752  10.478  0.8435 -0.8453  0.0288
  299MPD2    C4 4557   2.544   3.642  10.563  0.3490 -0.2044  0.3992
  299MPD2    C5 4558   2.657   3.628  10.640  0.0386  0.0116 -0.0217
  299MPD2     H 4559   2.616   3.924  10.394  1.1911 -2.1858 -2.0118
  299MPD2    H1 4560   2.469   3.564  10.575  0.3308  0.4227  4.3185
  299MPD2    H2 4561   2.836   3.714  10.710 -1.5748  1.4515  1.3237
  299MPD2    H3 4562   2.669   3.539  10.701 -2.1466 -0.2995 -0.0303
  299MPD2     N 4563   2.415   3.755  10.391 -0.2713  0.0221  0.5669
  299MPD2    H5 4564   2.423   3.818  10.311  1.1192 -0.4644  0.3218
  299MPD2    N1 4565   2.829   3.938  10.571 -0.9870 -0.1677 -0.4976
  299MPD2    H7 4566   2.896   3.919  10.645  0.6573 -0.7818 -2.1334
  300TMC3    C1 4567   2.198   3.712  10.298 -0.5399 -0.0941 -0.1143
  300TMC3    C2 4568   2.197   3.851  10.271  0.2496  0.7339 -0.0547
  300TMC3    C3 4569   2.092   3.904  10.202  0.6075  0.1666  0.0605
  300TMC3    C4 4570   2.085   3.643  10.280  0.5488  0.6238 -0.3334
  300TMC3    C5 4571   1.980   3.696  10.218 -0.2351  0.7591 -0.0094
  300TMC3    C6 4572   1.979   3.828  10.178  0.1267  0.8643 -0.1402
  300TMC3     C 4573   2.299   3.667  10.393 -0.7071 -0.8294 -0.2623
  300TMC3     O 4574   2.275   3.567  10.457  0.1255  0.4775  0.0058
  300TMC3     H 4575   2.278   3.917  10.298 -0.1340  0.8975  0.7054
  300TMC3    H1 4576   2.088   3.539  10.310  0.4449  0.6221 -0.3275
  300TMC3    H2 4577   1.890   3.869  10.130 -0.8923  0.2705  1.2472
  300TMC3    C7 4578   1.845   3.650  10.244 -0.4029  0.0510 -0.6729
  300TMC3    C8 4579   2.079   4.047  10.224  0.6598 -0.8499 -0.1403
  300TMC3    O1 4580   1.754   3.700  10.181  0.0929 -0.4049 -0.5987
  300TMC3    O2 4581   2.171   4.112  10.276 -0.1452  0.0749 -0.1101
  301MPD2     C 4582   0.261   0.716   0.684  0.1536 -0.8344 -0.2777
  301MPD2    C1 4583   0.136   0.673   0.656 -0.9134  0.3818  0.5722
  301MPD2    C2 4584   0.115   0.534   0.634 -0.3047 -0.2970  0.6399
  301MPD2    C3 4585   0.215   0.444   0.647  0.2179  0.6551 -0.4249
  301MPD2    C4 4586   0.344   0.491   0.669 -0.1199  0.7187 -0.1092
  301MPD2    C5 4587   0.369   0.627   0.680 -0.4184  0.0507  0.3648
  301MPD2     H 4588   0.014   0.505   0.609  0.1797  2.0043 -3.9795
  301MPD2    H1 4589   0.427   0.421   0.682 -1.5501 -0.9380  0.1614
  301MPD2    H2 4590   0.283   0.817   0.718  2.0791 -0.8196 -1.5649
  301MPD2    H3 4591   0.469   0.667   0.689 -0.2721 -0.1543 -0.2961
  301MPD2     N 4592   0.200   0.302   0.645 -0.2963 -0.8226  0.1614
  301MPD2    H5 4593   0.281   0.251   0.679  0.6313  0.0169 -0.7653
  301MPD2    N1 4594   0.010   0.739   0.681 -0.3310 -0.4879 -1.1046
  301MPD2    H7 4595   4.668   0.678   0.666  0.4512 -1.4034 -1.5188
  302TMC3    C1 4596   0.087   0.103   0.612  0.2458  0.4482 -0.3897
  302TMC3    C2 4597   0.151   0.021   0.698 -0.0050 -0.4323  0.2616
  302TMC3    C3 4598   0.123   4.625   0.707 -0.0384 -0.2604  0.2068
  302TMC3    C4 4599   4.717   0.054   0.543 -0.4027  0.6975  0.0069
  302TMC3    C5 4600   4.673   4.662   0.564  1.0615  0.5148 -0.0992
  302TMC3    C6 4601   0.009   4.575   0.641 -0.0222 -0.1109  0.8982
  302TMC3     C 4602   0.079   0.247   0.617  0.4422  0.5501 -0.2232
  302TMC3     O 4603   4.712   0.300   0.583  0.1916 -0.0666 -0.1316
  302TMC3     H 4604   0.224   0.064   0.766 -1.5510  0.5431  1.3287
  302TMC3    H1 4605   4.678   0.114   0.461 -2.5019 -2.5513 -1.4027
  302TMC3    H2 4606   4.715   4.476   0.669 -1.1530  0.0357  0.0983
  302TMC3    C7 4607   4.552   4.613   0.501  0.0277 -0.0682 -0.5712
  302TMC3    C8 4608   0.155   4.555   0.831  0.4297 -0.3300 -0.0898
  302TMC3    O1 4609   4.540   4.492   0.505 -0.5561 -0.1516  0.4199
  302TMC3    O2 4610   0.178   4.432   0.821  0.4146 -0.3712 -0.1402
  303MPD2     C 4611   4.541   4.384  10.288  0.0269 -0.3102  0.0216
  303MPD2    C1 4612   4.506   4.251  10.303  0.3332  0.3386  0.1256
  303MPD2    C2 4613   4.570   4.162  10.219 -0.1692 -0.4030 -0.1449
  303MPD2    C3 4614   4.670   4.198  10.140 -0.3825 -0.4223  0.0579
  303MPD2    C4 4615   4.700   4.330  10.125 -0.4327  0.6993  0.2969
  303MPD2    C5 4616   4.643   4.421  10.202  0.3930 -0.9268  0.2777
  303MPD2     H 4617   4.542   4.059  10.242 -0.6161 -0.2608 -0.0520
  303MPD2    H1 4618   0.041   4.361  10.057  1.7580 -0.0813  2.5099
  303MPD2    H2 4619   4.491   4.466  10.338  1.6817  1.5259 -1.3359
  303MPD2    H3 4620   4.661   4.526  10.182 -3.0585 -0.6589 -1.4156
  303MPD2     N 4621   0.006   4.106  10.059  0.4352  0.0284 -0.4364
  303MPD2    H5 4622   0.094   4.132  10.016  1.5413 -0.9804  1.2086
  303MPD2    N1 4623   4.414   4.200  10.397 -0.5654  0.7909 -0.0788
  303MPD2    H7 4624   4.397   4.100  10.400  2.3407  0.3079  0.1453
  304TMC3    C1 4625   4.275   4.202  10.588  0.6470  0.7090  0.4426
  304TMC3    C2 4626   4.190   4.105  10.539  0.1471  0.0062  0.7047
  304TMC3    C3 4627   4.122   4.015  10.614  0.3562 -0.3941 -0.6767
  304TMC3    C4 4628   4.316   4.200  10.716 -0.0649  0.9688  0.1621
  304TMC3    C5 4629   4.257   4.102  10.792 -0.4092 -0.0299  0.0306
  304TMC3    C6 4630   4.151   4.025  10.749 -0.0524  0.2291 -0.3330
  304TMC3     C 4631   4.367   4.276  10.498  0.1573  0.1642  0.0983
  304TMC3     O 4632   4.372   4.394  10.525  0.2071  0.4617  0.3267
  304TMC3     H 4633   4.190   4.099  10.430  1.9621  0.9791  0.6546
  304TMC3    H1 4634   4.401   4.253  10.758 -0.0636  0.2718  1.0229
  304TMC3    H2 4635   4.111   3.947  10.812 -0.1298 -1.6353 -2.7092
  304TMC3    C7 4636   4.350   4.027  10.867 -0.3128  0.0287  0.2095
  304TMC3    C8 4637   4.120   3.878  10.565 -0.1040 -0.3015  0.9014
  304TMC3    O1 4638   4.425   4.088  10.939 -0.3328 -0.2237 -0.6613
  304TMC3    O2 4639   4.176   3.800  10.641  0.4253 -0.2424  0.5431
  305MPD2     C 4640   3.214   1.140  13.607  0.2942 -1.0316  0.3132
  305MPD2    C1 4641   3.340   1.071  13.597  0.1390 -0.7498 -0.3070
  305MPD2    C2 4642   3.364   0.992  13.489 -0.2227  0.3946 -0.6277
  305MPD2    C3 4643   3.270   0.980  13.386 -0.5359  0.4707  0.0256
  305MPD2    C4 4644   3.151   1.050  13.398 -0.1486 -0.1272 -0.6559
  305MPD2    C5 4645   3.119   1.123  13.510  0.6880  0.1972  0.0699
  305MPD2     H 4646   3.458   0.938  13.478 -0.3628  0.2889 -1.2695
  305MPD2    H1 4647   3.074   1.041  13.323 -0.0112 -1.5537 -0.6364
  305MPD2    H2 4648   3.198   1.205  13.692  1.1967 -0.8389  0.3395
  305MPD2    H3 4649   3.013   1.147  13.521  0.7629  0.7009 -0.3114
  305MPD2     N 4650   3.299   0.886  13.286 -0.0686 -0.1026 -0.4712
  305MPD2    H5 4651   3.387   0.836  13.295 -0.9596 -1.3062  1.6141
  305MPD2    N1 4652   3.433   1.078  13.706 -0.6507 -0.2248  0.3081
  305MPD2    H7 4653   3.404   1.147  13.776 -0.1194  1.3850 -1.0574
  306TMC3    C1 4654   3.615   1.022  13.845 -0.4803  0.5250  0.0828
  306TMC3    C2 4655   3.678   0.933  13.928 -0.4250 -0.9518 -0.6550
  306TMC3    C3 4656   3.734   0.970  14.049  0.4943 -0.7525  0.3441
  306TMC3    C4 4657   3.597   1.151  13.895  0.2250  0.4447 -0.1635
  306TMC3    C5 4658   3.652   1.185  14.016  0.1220 -0.2717  0.2914
  306TMC3    C6 4659   3.729   1.100  14.086  0.2733  0.0756 -0.3987
  306TMC3     C 4660   3.535   0.985  13.730  0.3145  0.0134 -0.0069
  306TMC3     O 4661   3.564   0.881  13.671  0.5528  0.1457  0.2601
  306TMC3     H 4662   3.674   0.826  13.910  0.7214 -0.8369 -1.5728
  306TMC3    H1 4663   3.544   1.233  13.849 -1.7877 -1.2271 -0.8095
  306TMC3    H2 4664   3.791   1.124  14.172 -0.1343 -2.1156  0.4991
  306TMC3    C7 4665   3.548   1.243  14.100 -0.7065  0.4882 -0.1860
  306TMC3    C8 4666   3.749   0.865  14.156  0.3173  0.5863  0.0353
  306TMC3    O1 4667   3.432   1.215  14.065  0.1177  1.1463 -0.3804
  306TMC3    O2 4668   3.748   0.749  14.121 -0.4771 -0.7496  0.5702
  307MPD2     C 4669   0.630   3.543   0.377 -0.0353 -0.3734  0.0397
  307MPD2    C1 4670   0.670   3.676   0.378  0.0990 -0.4954  0.0713
  307MPD2    C2 4671   0.634   3.763   0.475 -0.3003 -0.8072  0.1461
  307MPD2    C3 4672   0.565   3.710   0.588 -0.3205 -0.2137  0.3947
  307MPD2    C4 4673   0.522   3.580   0.585 -0.5485 -0.3547  0.1494
  307MPD2    C5 4674   0.553   3.499   0.475 -0.0983  0.6040  0.1977
  307MPD2     H 4675   0.671   3.864   0.468 -0.7088 -0.5427  1.8207
  307MPD2    H1 4676   0.462   3.531   0.660  1.1481 -1.2674  0.9227
  307MPD2    H2 4677   0.645   3.469   0.299  0.2907  1.0707 -1.2905
  307MPD2    H3 4678   0.507   3.400   0.472 -0.7883  0.8995  0.8932
  307MPD2     N 4679   0.536   3.784   0.708 -0.3166  0.5225  0.2023
  307MPD2    H5 4680   0.525   3.885   0.704 -1.1656  0.5164  2.1764
  307MPD2    N1 4681   0.742   3.724   0.268  0.0436 -0.0904  0.5328
  307MPD2    H7 4682   0.757   3.824   0.262  0.7807 -0.1665  1.1081
  308TMC3    C1 4683   0.263   3.810   1.086 -0.0874 -0.5406 -0.3416
  308TMC3    C2 4684   0.274   3.942   1.086 -0.5264 -0.1345 -0.4110
  308TMC3    C3 4685   0.370   4.003   1.008 -0.4595 -0.2917 -0.9657
  308TMC3    C4 4686   0.360   3.736   1.011 -0.7331  0.2878 -0.2793
  308TMC3    C5 4687   0.456   3.803   0.940 -0.2774  0.0934  0.0900
  308TMC3    C6 4688   0.461   3.940   0.933  0.5922  0.1742 -0.0825
  308TMC3     C 4689   0.139   3.745   1.097 -0.3352  0.4450  0.6249
  308TMC3     O 4690   0.133   3.626   1.104 -0.2831 -0.1609  0.5878
  308TMC3     H 4691   0.208   4.006   1.143  1.4435  1.1131  0.4550
  308TMC3    H1 4692   0.339   3.633   0.987 -1.9276  0.2880  0.7642
  308TMC3    H2 4693   0.542   3.992   0.883 -0.8579  1.9102 -0.5967
  308TMC3    C7 4694   0.522   3.721   0.835  0.0568 -0.0796 -0.0853
  308TMC3    C8 4695   0.391   4.148   1.032  0.2831  0.0539  0.5463
  308TMC3    O1 4696   0.551   3.608   0.875  0.7395  0.1056  0.2327
  308TMC3    O2 4697   0.348   4.194   1.136  0.3469 -0.0736 -0.0227
  309MPD2     C 4698   4.677   4.403  17.282 -0.3879 -0.2786  0.2484
  309MPD2    C1 4699   4.598   4.379  17.167 -0.0741 -0.2633 -0.1053
  309MPD2    C2 4700   4.463   4.411  17.169  0.3511 -0.4022 -0.0775
  309MPD2    C3 4701   4.409   4.462  17.292 -0.7448  0.6966  0.3697
  309MPD2    C4 4702   4.488   4.477  17.409 -0.5688  0.0755  0.0624
  309MPD2    C5 4703   4.620   4.453  17.395  0.0099  0.6903 -0.5665
  309MPD2     H 4704   4.402   4.404  17.080 -2.7858  2.3485  1.8488
  309MPD2    H1 4705   4.445   4.511  17.503  0.3519  3.9472 -0.8950
  309MPD2    H2 4706   0.043   4.379  17.299  0.5603  0.2783 -4.7775
  309MPD2    H3 4707   4.683   4.469  17.482  3.3696  1.8461 -3.2151
  309MPD2     N 4708   4.270   4.488  17.304 -0.0716  0.1578 -0.0381
  309MPD2    H5 4709   4.231   4.491  17.398 -0.0255  2.0880 -0.0730
  309MPD2    N1 4710   4.659   4.351  17.041  0.3324 -0.6463  0.5532
  309MPD2    H7 4711   4.604   4.361  16.956 -0.0018  0.7823  0.9340
  310TMC3    C1 4712   0.114   4.325  16.895 -0.0013 -0.1734  0.0256
  310TMC3    C2 4713   0.037   4.355  16.785  0.0856 -0.3378  0.1297
  310TMC3    C3 4714   0.080   4.319  16.658  0.7104  1.0329  0.1488
  310TMC3    C4 4715   0.221   4.248  16.875  0.2861 -0.3111 -0.1389
  310TMC3    C5 4716   0.267   4.215  16.748  0.6295 -0.0034 -0.2077
  310TMC3    C6 4717   0.197   4.254  16.637 -0.4649  0.6019 -0.3451
  310TMC3     C 4718   0.057   4.320  17.032  0.2181 -0.7812 -0.0288
  310TMC3     O 4719   0.133   4.288  17.129  0.2919  0.2316  0.0053
  310TMC3     H 4720   4.682   4.409  16.796  0.5054  0.5242 -0.4915
  310TMC3    H1 4721   0.277   4.222  16.964  0.8331  0.5373 -0.2275
  310TMC3    H2 4722   0.225   4.226  16.536 -0.5141  0.9237 -0.4481
  310TMC3    C7 4723   0.371   4.120  16.740 -0.4858  0.1042  0.3374
  310TMC3    C8 4724   4.732   4.328  16.541 -0.0494  0.7476  0.6516
  310TMC3    O1 4725   0.394   4.044  16.832  0.1931  0.3670  0.0614
  310TMC3    O2 4726   0.017   4.252  16.446 -0.3850 -0.0375 -0.0944
  311MPD2     C 4727   2.460   0.504  12.470 -0.6320 -0.4672 -0.9760
  311MPD2    C1 4728   2.391   0.611  12.428 -0.2038  0.1033  0.4603
  311MPD2    C2 4729   2.267   0.638  12.486  0.3572  0.5637  0.0002
  311MPD2    C3 4730   2.221   0.563  12.591  0.0349  0.1772  0.2068
  311MPD2    C4 4731   2.294   0.458  12.640 -0.1075 -1.0158 -0.7206
  311MPD2    C5 4732   2.412   0.425  12.578  0.3541  0.4577 -0.4968
  311MPD2     H 4733   2.210   0.726  12.456 -0.4013  0.8567  2.3066
  311MPD2    H1 4734   2.253   0.388  12.712 -0.3540 -0.6441 -0.5042
  311MPD2    H2 4735   2.554   0.467  12.431  0.8003  1.9886  0.1609
  311MPD2    H3 4736   2.478   0.345  12.611 -1.2890 -0.2604  1.0336
  311MPD2     N 4737   2.095   0.601  12.642  0.5830 -0.1064  0.4610
  311MPD2    H5 4738   2.038   0.664  12.586  1.7756  0.3224 -0.2766
  311MPD2    N1 4739   2.440   0.717  12.347  0.1140  0.4765  0.4379
  311MPD2    H7 4740   2.372   0.789  12.325 -0.1598 -0.4556 -1.7435
  312TMC3    C1 4741   1.910   0.578  12.777  0.3257  0.1879 -0.0176
  312TMC3    C2 4742   1.825   0.580  12.674 -0.1641 -0.0193 -0.3282
  312TMC3    C3 4743   1.694   0.635  12.687 -0.0255  0.7416  0.6651
  312TMC3    C4 4744   1.866   0.613  12.900 -0.1555  0.0903 -0.3422
  312TMC3    C5 4745   1.742   0.658  12.919  0.6317  0.3923 -0.1464
  312TMC3    C6 4746   1.652   0.671  12.814  0.0649 -0.0401 -0.7030
  312TMC3     C 4747   2.046   0.563  12.766  0.0804  0.4090 -0.1448
  312TMC3     O 4748   2.109   0.522  12.864  0.4840 -0.4851  0.0806
  312TMC3     H 4749   1.857   0.547  12.576  1.1880  1.3132 -0.3234
  312TMC3    H1 4750   1.932   0.604  12.985 -0.2041 -1.2907 -0.4578
  312TMC3    H2 4751   1.549   0.705  12.820  0.2745  0.4559 -0.0108
  312TMC3    C7 4752   1.674   0.628  13.046 -0.7917 -0.1478  0.2236
  312TMC3    C8 4753   1.594   0.600  12.599 -0.2201  0.7005  0.3907
  312TMC3    O1 4754   1.554   0.602  13.026 -0.1353  0.3797 -0.1689
  312TMC3    O2 4755   1.611   0.495  12.542  0.2597 -0.4315 -0.8163
  313MPD2     C 4756   1.298   4.354  11.240  0.3933 -0.3098  0.3035
  313MPD2    C1 4757   1.367   4.419  11.143 -0.7466 -0.6001  0.1522
  313MPD2    C2 4758   1.373   4.352  11.024  0.2646  0.6756 -0.3963
  313MPD2    C3 4759   1.320   4.222  11.006 -1.2630 -0.7972  0.5137
  313MPD2    C4 4760   1.242   4.161  11.109  0.5065  0.1950  0.6117
  313MPD2    C5 4761   1.231   4.234  11.223 -0.1135 -0.3071  0.1568
  313MPD2     H 4762   1.434   4.392  10.944  1.0046 -1.4060 -0.8691
  313MPD2    H1 4763   1.195   4.064  11.096 -1.3079  1.3034 -1.0387
  313MPD2    H2 4764   1.296   4.410  11.332 -1.8784  1.6783 -0.9790
  313MPD2    H3 4765   1.173   4.190  11.303 -0.7293 -0.1751 -0.2180
  313MPD2     N 4766   1.318   4.165  10.877 -0.6289 -0.1156  0.0998
  313MPD2    H5 4767   1.358   4.215  10.798 -2.0600 -2.0914 -1.8648
  313MPD2    N1 4768   1.422   4.544  11.143 -0.4470 -0.4110  0.6453
  313MPD2    H7 4769   1.491   4.572  11.073 -0.7016 -2.5727 -0.4544
  314TMC3    C1 4770   1.409   0.035  11.188  0.2293 -0.1137  0.2257
  314TMC3    C2 4771   1.538   0.057  11.155 -0.2307  0.1535  0.3174
  314TMC3    C3 4772   1.563   0.173  11.085 -0.3135 -0.2453 -0.7429
  314TMC3    C4 4773   1.301   0.112  11.149  0.7500 -0.6059 -0.1935
  314TMC3    C5 4774   1.329   0.220  11.064  0.0300 -0.2299 -0.1880
  314TMC3    C6 4775   1.460   0.255  11.041  0.6647  0.2035  0.6743
  314TMC3     C 4776   1.378   4.638  11.229  0.0848  0.2197 -0.5199
  314TMC3     O 4777   1.288   4.632  11.310  0.8440 -0.8409  0.7252
  314TMC3     H 4778   1.619   0.002  11.201 -1.2408 -0.8118  0.9538
  314TMC3    H1 4779   1.196   0.084  11.159  0.0483  2.1742  0.2486
  314TMC3    H2 4780   1.490   0.345  10.989 -0.1522  1.3899  2.2818
  314TMC3    C7 4781   1.229   0.280  10.989 -0.2780 -0.2012  0.7448
  314TMC3    C8 4782   1.695   0.206  11.041 -0.0052 -0.1281 -0.3263
  314TMC3    O1 4783   1.118   0.268  11.030 -0.0522  0.8643  0.3843
  314TMC3    O2 4784   1.714   0.328  11.018 -0.1507 -0.3502 -0.2506
  315MPD2     C 4785   1.246   3.195  17.642 -0.5256  0.1403 -0.2360
  315MPD2    C1 4786   1.337   3.288  17.678  0.0527 -0.7358  0.2895
  315MPD2    C2 4787   1.320   3.417  17.646  0.2941  0.3565 -0.0012
  315MPD2    C3 4788   1.216   3.455  17.563  0.3281 -0.7920 -0.4306
  315MPD2    C4 4789   1.119   3.360  17.529 -0.4196  0.7696 -0.1556
  315MPD2    C5 4790   1.131   3.234  17.576  0.2742 -0.0222  0.6473
  315MPD2     H 4791   1.395   3.482  17.688  1.6743  0.0722 -2.0373
  315MPD2    H1 4792   1.026   3.396  17.486  0.2341  2.9645  0.2540
  315MPD2    H2 4793   1.251   3.088  17.661 -0.4791  0.1897  0.0263
  315MPD2    H3 4794   1.047   3.167  17.561 -0.2645  0.4028  1.6933
  315MPD2     N 4795   1.213   3.591  17.526  0.0512 -0.3402 -0.5579
  315MPD2    H5 4796   1.293   3.646  17.555 -0.8058 -0.0952  1.3485
  315MPD2    N1 4797   1.450   3.257   0.012  0.2355 -0.6131 -0.0311
  315MPD2    H7 4798   1.524   3.326   0.022 -0.1385 -0.7381  3.7249
  316TMC3    C1 4799   1.187   3.774  17.405  0.0871 -0.4743 -0.0218
  316TMC3    C2 4800   1.328   3.792  17.397  0.0637 -0.5570  0.5438
  316TMC3    C3 4801   1.379   3.900  17.330 -0.0964 -0.4524  0.0262
  316TMC3    C4 4802   1.101   3.873  17.365  0.6901  0.0658  1.1872
  316TMC3    C5 4803   1.154   3.976  17.299  0.5410  0.9334 -0.3829
  316TMC3    C6 4804   1.293   3.987  17.270  0.7280 -0.2288  0.3047
  316TMC3     C 4805   1.125   3.652  17.445 -0.2990 -0.3388  0.1255
  316TMC3     O 4806   1.011   3.622  17.409 -0.5951  0.2431  0.1377
  316TMC3     H 4807   1.392   3.709  17.424  1.2026 -0.7349 -2.6060
  316TMC3    H1 4808   0.995   3.854  17.373  0.2929  1.2186 -1.5400
  316TMC3    H2 4809   1.331   4.074  17.217 -0.6941  0.5876  0.6320
  316TMC3    C7 4810   1.063   4.095  17.285  0.4699  0.3124  0.1534
  316TMC3    C8 4811   1.522   3.920  17.296 -0.5300 -0.4418  0.3361
  316TMC3    O1 4812   0.968   4.099  17.359  0.2269 -0.5162 -0.4617
  316TMC3    O2 4813   1.553   4.025  17.243  0.0171 -0.5966 -0.2631
  317MPD2     C 4814   3.602   2.685  12.421 -0.5893  0.0462 -0.2506
  317MPD2    C1 4815   3.700   2.587  12.429  0.6864  0.0772  0.2898
  317MPD2    C2 4816   3.697   2.497  12.533  0.4388  0.4553 -0.7523
  317MPD2    C3 4817   3.613   2.512  12.636 -0.7346  0.2828  0.2820
  317MPD2    C4 4818   3.514   2.608  12.628 -0.5162  0.3648 -0.1685
  317MPD2    C5 4819   3.511   2.698  12.521 -0.5241  0.4950  0.2709
  317MPD2     H 4820   3.762   2.410  12.530 -0.0847  0.0411  0.3226
  317MPD2    H1 4821   3.451   2.634  12.713 -0.1356 -1.4606  0.6590
  317MPD2    H2 4822   3.588   2.766  12.351 -0.4738  1.1553  1.0126
  317MPD2    H3 4823   3.442   2.782  12.526 -0.1969  0.9015 -2.1628
  317MPD2     N 4824   3.638   2.424  12.747  0.6010 -0.0304 -0.1696
  317MPD2    H5 4825   3.713   2.355  12.748  1.3048  0.7495  0.6320
  317MPD2    N1 4826   3.809   2.579  12.341 -0.3211 -0.0602  0.1564
  317MPD2    H7 4827   3.877   2.505  12.350 -0.0789  0.2383  0.7731
  318TMC3    C1 4828   3.590   2.301  12.945 -0.8774 -0.1480  0.0588
  318TMC3    C2 4829   3.554   2.179  12.896  0.6360  0.2936 -0.3947
  318TMC3    C3 4830   3.567   2.073  12.976 -0.6819 -0.1077  0.1553
  318TMC3    C4 4831   3.629   2.313  13.071  0.4609  0.2691 -0.2183
  318TMC3    C5 4832   3.647   2.202  13.147  0.0012  0.0513  0.4803
  318TMC3    C6 4833   3.613   2.083  13.101  0.1376  0.1232  0.1549
  318TMC3     C 4834   3.571   2.426  12.867  0.2344  0.3518 -0.2207
  318TMC3     O 4835   3.491   2.507  12.920  0.9298  0.0296  0.3154
  318TMC3     H 4836   3.529   2.171  12.791 -0.0869  0.5764 -0.2450
  318TMC3    H1 4837   3.648   2.411  13.115  0.0215  0.8227 -1.2699
  318TMC3    H2 4838   3.627   2.001  13.171  2.1904  0.9997  0.7720
  318TMC3    C7 4839   3.705   2.223  13.281 -0.2405 -0.5435 -0.0798
  318TMC3    C8 4840   3.510   1.953  12.928 -0.1026 -0.2336 -0.4586
  318TMC3    O1 4841   3.705   2.334  13.318  0.8693  0.0086 -0.4384
  318TMC3    O2 4842   3.543   1.849  12.976  0.5286 -0.6219  0.3487
  319MPD2     C 4843   4.013   3.883  16.602  0.9042 -0.3570  0.2832
  319MPD2    C1 4844   4.061   3.754  16.599 -0.9231  1.0124  0.4092
  319MPD2    C2 4845   4.005   3.667  16.503  0.1889  0.1340  0.8812
  319MPD2    C3 4846   3.915   3.717  16.403  0.2111  0.3361  0.3752
  319MPD2    C4 4847   3.864   3.845  16.412 -0.0746  0.7671  0.0216
  319MPD2    C5 4848   3.918   3.931  16.506 -0.0615 -0.6072 -0.0786
  319MPD2     H 4849   4.028   3.562  16.509 -1.2572 -0.2607 -0.3700
  319MPD2    H1 4850   3.781   3.878  16.350 -0.9968 -0.7714  0.4566
  319MPD2    H2 4851   4.044   3.959  16.672 -0.3032  0.5893 -0.2129
  319MPD2    H3 4852   3.872   4.029  16.514  0.5003 -0.2953 -0.6210
  319MPD2     N 4853   3.877   3.638  16.295 -0.2165  1.0274  0.5354
  319MPD2    H5 4854   3.809   3.677  16.231 -0.5358  1.1319  0.9437
  319MPD2    N1 4855   4.134   3.704  16.709  0.5888 -0.0423 -0.3161
  319MPD2    H7 4856   4.141   3.603  16.707 -1.3002 -0.1696 -0.2526
  320TMC3    C1 4857   3.867   3.463  16.141 -0.1070  0.3725 -0.4105
  320TMC3    C2 4858   3.796   3.541  16.061 -0.1956 -0.8276  0.0764
  320TMC3    C3 4859   3.714   3.478  15.972 -0.3115  0.3286  0.4179
  320TMC3    C4 4860   3.846   3.327  16.133 -0.0856  0.6187 -0.7788
  320TMC3    C5 4861   3.768   3.264  16.033 -0.0177  0.0399 -0.6397
  320TMC3    C6 4862   3.696   3.343  15.948  0.1850  0.4896  0.0846
  320TMC3     C 4863   3.930   3.516  16.262 -0.1584 -0.3980 -0.3154
  320TMC3     O 4864   3.998   3.438  16.328  0.4893 -0.4049 -0.3085
  320TMC3     H 4865   3.816   3.648  16.060 -1.3537 -0.5944  3.5108
  320TMC3    H1 4866   3.900   3.255  16.194 -1.3671  0.9371  0.7297
  320TMC3    H2 4867   3.634   3.288  15.878 -0.9450 -0.4416  1.8108
  320TMC3    C7 4868   3.729   3.127  16.046  0.2140 -0.7194 -0.1986
  320TMC3    C8 4869   3.645   3.573  15.889 -0.5925 -0.7575 -0.2010
  320TMC3    O1 4870   3.680   3.075  15.946  0.5646 -0.2074 -0.1545
  320TMC3    O2 4871   3.655   3.694  15.908 -0.1911 -0.6301 -0.2945
  321TMC3    C1 4872   4.260   3.689  16.907 -0.0374  0.6733 -0.3342
  321TMC3    C2 4873   4.232   3.553  16.908 -0.0982 -0.2809 -0.1764
  321TMC3    C3 4874   4.327   3.476  16.966 -0.8856  0.5982 -0.7461
  321TMC3    C4 4875   4.374   3.740  16.967  0.5641  0.0343 -0.0288
  321TMC3    C5 4876   4.474   3.649  17.015 -0.2835  0.2357  0.2219
  321TMC3    C6 4877   4.443   3.520  17.013  0.3578 -0.1199 -0.3411
  321TMC3     C 4878   4.188   3.781  16.814 -0.1421 -0.3058  0.3937
  321TMC3     O 4879   4.191   3.907  16.825 -0.2929 -0.3324 -0.2608
  321TMC3     H 4880   4.141   3.507  16.871 -0.2349  1.9006 -2.5315
  321TMC3    H1 4881   4.382   3.848  16.971  2.4256 -0.2056  2.7547
  321TMC3    H2 4882   4.510   3.439  17.037  1.7953  1.0227 -0.5353
  321TMC3    C7 4883   4.529   3.683  17.138  0.6607 -0.2188 -0.4405
  321TMC3    C8 4884   4.271   3.382  17.068 -0.2856  0.4343 -0.6386
  321TMC3    O1 4885   4.567   3.581  17.193 -0.3706  0.2703  0.1308
  321TMC3    O2 4886   4.159   3.341  17.047 -0.2746  0.3921 -0.3268
  322MPD2     C 4887   3.042   4.602  13.403  0.0468 -0.0812  0.0740
  322MPD2    C1 4888   3.011   4.579  13.533  0.3430 -0.6170 -0.2533
  322MPD2    C2 4889   3.008   4.450  13.581 -0.3587 -0.1083  0.2456
  322MPD2    C3 4890   3.031   4.344  13.490  0.0500 -0.3353  0.6344
  322MPD2    C4 4891   3.065   4.365  13.359  0.0920 -0.6801 -0.5937
  322MPD2    C5 4892   3.068   4.499  13.312 -0.2928  0.3043 -0.4838
  322MPD2     H 4893   2.996   4.433  13.688  3.6004  0.6352  0.8014
  322MPD2    H1 4894   3.090   4.287  13.288  0.4472 -1.2682  0.1801
  322MPD2    H2 4895   3.052   4.699  13.357  0.4366 -0.6563 -1.0589
  322MPD2    H3 4896   3.116   4.526  13.219  0.0082 -0.6032 -0.5930
  322MPD2     N 4897   3.028   4.211  13.544 -0.0427 -0.2709  0.6967
  322MPD2    H5 4898   3.002   4.201  13.641 -0.7378  0.5383  0.5904
  322MPD2    N1 4899   3.019   4.693  13.616 -0.0536 -1.1767 -0.8303
  322MPD2    H7 4900   3.062   0.037  13.575 -0.3282  0.5552  2.3137
  323TMC3    C1 4901   3.023   0.102  13.798  0.5437  0.2718  0.9551
  323TMC3    C2 4902   3.088   0.199  13.725  0.9054  0.1961 -0.5799
  323TMC3    C3 4903   3.161   0.300  13.794  0.1565  0.6702  0.7049
  323TMC3    C4 4904   3.018   0.115  13.935  0.6765 -0.1792  0.1411
  323TMC3    C5 4905   3.088   0.221  14.001 -0.4400 -0.2722 -0.0143
  323TMC3    C6 4906   3.168   0.309  13.932 -0.1380  0.3273  0.1658
  323TMC3     C 4907   2.987   4.708  13.748 -0.0264  0.6001  0.7431
  323TMC3     O 4908   2.950   4.621  13.825  0.3242 -0.3385  0.0752
  323TMC3     H 4909   3.099   0.194  13.617 -2.0912 -0.8338 -0.8542
  323TMC3    H1 4910   2.955   0.053  13.998 -0.2534  0.3132 -0.3206
  323TMC3    H2 4911   3.198   0.404  13.975  0.1639  0.6705 -0.8036
  323TMC3    C7 4912   3.121   0.197  14.138 -0.2898  0.1946  1.2792
  323TMC3    C8 4913   3.271   0.362  13.714 -0.1469  0.7334 -0.2568
  323TMC3    O1 4914   3.072   0.098  14.183 -0.1140 -0.0688 -0.3853
  323TMC3    O2 4915   3.281   0.349  13.595  0.0321 -0.0462  0.4730
  324MPD2     C 4916   4.669   0.894  14.548 -0.4152  0.4343  0.7320
  324MPD2    C1 4917   4.698   1.014  14.490  0.6819  1.1701 -0.2799
  324MPD2    C2 4918   4.600   1.082  14.415  0.2978 -1.1901 -0.0601
  324MPD2    C3 4919   4.477   1.017  14.389 -0.2356 -0.3164  0.0939
  324MPD2    C4 4920   4.456   0.896  14.437 -0.1409 -0.6611 -0.3112
  324MPD2    C5 4921   4.546   0.840  14.525  0.1063 -0.3195 -0.2273
  324MPD2     H 4922   4.629   1.170  14.358 -0.0632 -0.8818  0.2286
  324MPD2    H1 4923   4.365   0.841  14.416 -1.3874  0.7981  1.2373
  324MPD2    H2 4924   4.734   0.839  14.616  1.6748  1.3565 -0.5142
  324MPD2    H3 4925   4.520   0.749  14.578  0.8514  0.4424  1.4324
  324MPD2     N 4926   4.382   1.075  14.302 -0.1538  0.5808 -0.4419
  324MPD2    H5 4927   4.309   1.013  14.270 -0.3023  0.5574 -0.0536
  324MPD2    N1 4928   0.079   1.080  14.501 -0.0848  0.1569 -0.9096
  324MPD2    H7 4929   0.111   1.156  14.441  1.0255  0.2175 -0.2305
  325TMC3    C1 4930   4.269   1.244  14.184  0.1566 -0.8866  0.1796
  325TMC3    C2 4931   4.204   1.145  14.113  0.2028  0.0946  0.7743
  325TMC3    C3 4932   4.106   1.197  14.029  0.0656 -1.0249  0.1666
  325TMC3    C4 4933   4.259   1.375  14.169 -0.7396 -0.2335 -0.1634
  325TMC3    C5 4934   4.147   1.416  14.101  0.3431 -0.1665  0.0298
  325TMC3    C6 4935   4.067   1.329  14.023  0.5047  1.5986  0.9261
  325TMC3     C 4936   4.377   1.206  14.278 -0.6118  0.0037  0.5309
  325TMC3     O 4937   4.435   1.297  14.333 -0.0005 -0.0824  0.0932
  325TMC3     H 4938   4.243   1.046  14.096  0.7296  0.1359  1.7301
  325TMC3    H1 4939   4.315   1.442  14.234 -0.9208  1.2861 -1.5713
  325TMC3    H2 4940   3.991   1.369  13.957  0.3522 -0.8929 -0.4244
  325TMC3    C7 4941   4.148   1.556  14.058  0.0995 -0.6844  0.3752
  325TMC3    C8 4942   4.042   1.103  13.940  0.7338  0.1044  0.3531
  325TMC3    O1 4943   4.259   1.611  14.071 -0.5248 -0.3934  0.3782
  325TMC3    O2 4944   4.063   0.985  13.962 -0.7882 -0.7252  0.0068
  326MPD2     C 4945   1.269   2.152  11.458 -0.1581  0.3509 -0.0429
  326MPD2    C1 4946   1.216   2.175  11.332 -0.0992  0.1119  0.3095
  326MPD2    C2 4947   1.299   2.187  11.220  0.1297  0.3119  0.9083
  326MPD2    C3 4948   1.437   2.181  11.231 -0.2682 -0.5347 -0.2949
  326MPD2    C4 4949   1.487   2.164  11.361  0.2167  0.7957 -0.0545
  326MPD2    C5 4950   1.407   2.140  11.468  0.2390  0.7986 -0.6879
  326MPD2     H 4951   1.265   2.220  11.122  0.1642 -2.7113 -0.1341
  326MPD2    H1 4952   1.593   2.158  11.381 -0.5682 -0.8491  3.6981
  326MPD2    H2 4953   1.212   2.145  11.550  1.2006 -0.4842  0.7301
  326MPD2    H3 4954   1.453   2.110  11.562  0.6950 -0.5506 -1.3460
  326MPD2     N 4955   1.526   2.194  11.122  0.2637  0.2355  0.7455
  326MPD2    H5 4956   1.625   2.206  11.138  0.4407  1.7436 -1.4613
  326MPD2    N1 4957   1.077   2.176  11.314 -0.0792 -0.1533 -0.5980
  326MPD2    H7 4958   1.036   2.198  11.225 -1.1682 -0.8511 -0.2695
  327TMC3    C1 4959   0.851   2.105  11.334 -0.3250  0.1908  0.0872
  327TMC3    C2 4960   0.809   2.212  11.273  0.4876 -0.0071  0.3063
  327TMC3    C3 4961   0.726   2.200  11.161 -0.1136  0.1333 -0.1128
  327TMC3    C4 4962   0.843   1.981  11.275  0.0873 -0.1399 -0.0357
  327TMC3    C5 4963   0.796   1.979  11.143 -0.1651  0.1191  0.7761
  327TMC3    C6 4964   0.719   2.082  11.092 -0.2573 -0.2084 -0.0269
  327TMC3     C 4965   0.985   2.109  11.390  0.1076  0.1504  0.0284
  327TMC3     O 4966   0.992   2.054  11.501  0.6530 -0.4442  0.4254
  327TMC3     H 4967   0.820   2.307  11.324 -0.3175 -0.6115  1.6107
  327TMC3    H1 4968   0.891   1.897  11.323  1.5554 -0.0637 -1.3761
  327TMC3    H2 4969   0.689   2.086  10.988 -1.9478  1.1824  0.5074
  327TMC3    C7 4970   0.879   1.914  11.046 -0.3603  0.0846  0.0284
  327TMC3    C8 4971   0.691   2.322  11.099 -1.1328  0.3857 -0.1270
  327TMC3    O1 4972   0.847   1.921  10.932  0.3597  0.0089  0.8152
  327TMC3    O2 4973   0.695   2.333  10.976  0.3603  0.1279 -0.6126
  328MPD2     C 4974   3.686   2.315  17.083  0.1124 -0.2953  0.1643
  328MPD2    C1 4975   3.571   2.254  17.129  0.4012  1.0015 -0.0764
  328MPD2    C2 4976   3.464   2.238  17.040 -0.2734  0.5372 -0.3265
  328MPD2    C3 4977   3.469   2.306  16.916 -0.1924  0.7183 -0.2283
  328MPD2    C4 4978   3.583   2.370  16.874 -0.3283 -0.3327  0.3687
  328MPD2    C5 4979   3.690   2.368  16.956  0.2070 -0.0030 -0.2283
  328MPD2     H 4980   3.371   2.192  17.069 -0.3575  1.1036  0.3134
  328MPD2    H1 4981   3.604   2.409  16.775  2.0344 -0.8707  0.6604
  328MPD2    H2 4982   3.772   2.310  17.149 -0.6657  0.3040  1.2168
  328MPD2    H3 4983   3.786   2.412  16.930  0.0831  0.9256  0.8746
  328MPD2     N 4984   3.363   2.321  16.826  0.4206 -0.7993 -0.2104
  328MPD2    H5 4985   3.372   2.395  16.758 -1.6991  1.0811  1.5874
  328MPD2    N1 4986   3.568   2.218  17.261  0.9743 -0.7685 -0.6379
  328MPD2    H7 4987   3.643   2.248  17.323 -0.0645  1.6483 -0.5597
  329TMC3    C1 4988   3.459   2.146  17.471  0.0109 -0.6435 -0.2991
  329TMC3    C2 4989   3.517   2.245  17.545  1.0301 -0.2119 -0.2662
  329TMC3    C3 4990   3.486   2.258  17.679 -0.2710  0.2242 -0.6115
  329TMC3    C4 4991   3.368   2.058  17.529 -0.2620 -0.3101  0.0033
  329TMC3    C5 4992   3.356   2.061  17.664  0.7137  0.2507  0.1537
  329TMC3    C6 4993   3.398   2.171  17.738  0.1863  0.4126  0.3477
  329TMC3     C 4994   3.473   2.137  17.321  0.9454 -0.3312  0.7640
  329TMC3     O 4995   3.402   2.057  17.261  0.4379 -0.4578  0.2397
  329TMC3     H 4996   3.571   2.331  17.505 -0.6833 -0.6204 -3.4422
  329TMC3    H1 4997   3.322   1.975  17.477 -0.9704  0.6313 -0.8958
  329TMC3    H2 4998   3.382   2.189   0.093  0.4484  0.0665  0.4487
  329TMC3    C7 4999   3.272   1.970  17.737 -0.3691  0.7168 -0.3473
  329TMC3    C8 5000   3.525   2.387  17.735  0.4128 -0.5215 -0.0727
  329TMC3    O1 5001   3.247   2.003   0.102 -0.1231  0.4900 -0.1504
  329TMC3    O2 5002   3.626   2.445  17.700  0.1477  0.0710 -0.2155
  330TMC3    C1 5003   1.538   2.132   9.451  0.4245  0.1547  0.2724
  330TMC3    C2 5004   1.556   1.998   9.464  0.5993 -0.2850 -0.5412
  330TMC3    C3 5005   1.681   1.951   9.498  0.3737 -0.4559  0.4624
  330TMC3    C4 5006   1.633   2.229   9.463 -0.1350  0.0648  0.0206
  330TMC3    C5 5007   1.758   2.178   9.494 -1.2659 -0.1719 -0.4513
  330TMC3    C6 5008   1.787   2.040   9.508  0.5516  0.5229 -0.1044
  330TMC3     C 5009   1.409   2.193   9.447  0.5100 -0.6664 -1.1832
  330TMC3     O 5010   1.386   2.285   9.529  0.3952  0.4663  0.0528
  330TMC3     H 5011   1.472   1.931   9.450  1.5315 -1.5760  0.0663
  330TMC3    H1 5012   1.605   2.333   9.448 -1.8483 -0.3756  0.2536
  330TMC3    H2 5013   1.888   2.006   9.527 -0.3865 -2.6500 -0.7065
  330TMC3    C7 5014   1.861   2.269   9.535  0.3636  0.4767  0.8938
  330TMC3    C8 5015   1.706   1.812   9.529  1.0575 -0.5356 -0.2369
  330TMC3    O1 5016   1.946   2.233   9.614 -0.0823  0.0099 -0.0666
  330TMC3    O2 5017   1.826   1.780   9.553  0.3261  0.6575  0.1051
  331MPD2     C 5018   4.604   0.423  13.314 -0.2253  0.4350 -0.2819
  331MPD2    C1 5019   4.686   0.446  13.200  0.1765  1.0279  0.0850
  331MPD2    C2 5020   4.659   0.381  13.083  0.2850 -0.5364  0.7072
  331MPD2    C3 5021   4.548   0.291  13.080  0.1121  0.4140 -0.1745
  331MPD2    C4 5022   4.472   0.269  13.189 -0.1851 -1.2895 -0.5647
  331MPD2    C5 5023   4.498   0.336  13.304  0.1998  0.6035  0.1772
  331MPD2     H 5024   4.722   0.396  12.996 -0.4019 -1.5987  0.0387
  331MPD2    H1 5025   4.382   0.207  13.186 -1.8567  1.0149  1.8705
  331MPD2    H2 5026   4.634   0.450  13.414  2.2213 -2.2784 -0.2877
  331MPD2    H3 5027   4.441   0.309  13.392  1.1379 -0.4521  0.4627
  331MPD2     N 5028   4.522   0.244  12.949  0.8015 -0.0065  0.2865
  331MPD2    H5 5029   4.583   0.268  12.872  0.8341  1.5302  0.8053
  331MPD2    N1 5030   0.059   0.537  13.219 -0.1729 -0.2688  0.4598
  331MPD2    H7 5031   0.071   0.587  13.307 -1.5772 -0.3547  0.6983
  332TMC3    C1 5032   4.451   0.131  12.771  0.6725  0.3682  0.0991
  332TMC3    C2 5033   4.494   0.246  12.708  0.3237  0.9091 -0.1393
  332TMC3    C3 5034   4.601   0.249  12.632  0.9106 -0.0363  0.3562
  332TMC3    C4 5035   4.532   0.026  12.764  0.3994  0.2994  0.1597
  332TMC3    C5 5036   4.638   0.030  12.682 -0.1389 -0.0885 -0.3378
  332TMC3    C6 5037   4.674   0.140  12.612  0.1833 -0.2838 -0.4598
  332TMC3     C 5038   4.426   0.153  12.909  0.1553 -0.1770 -0.4823
  332TMC3     O 5039   4.338   0.091  12.971 -0.0556  0.3175  0.5360
  332TMC3     H 5040   4.432   0.333  12.726  2.0951  2.5164 -1.7242
  332TMC3    H1 5041   4.504   4.675  12.819  0.8668 -0.5984 -1.0505
  332TMC3    H2 5042   0.012   0.134  12.535  1.2473  1.7728  0.4340
  332TMC3    C7 5043   4.729   4.667  12.712  0.7202 -0.5008 -0.3798
  332TMC3    C8 5044   4.644   0.367  12.564 -0.4906 -0.2958 -0.5016
  332TMC3    O1 5045   4.681   4.559  12.744  0.3203  0.2038  0.6939
  332TMC3    O2 5046   0.012   0.359  12.504  0.3513 -0.7641 -0.6105
  333MPD2     C 5047   0.459   0.393  11.424  0.0269 -0.0280 -0.0957
  333MPD2    C1 5048   0.374   0.406  11.312 -0.6202  0.4580 -0.3400
  333MPD2    C2 5049   0.260   0.325  11.308 -0.4385 -0.7899  0.5768
  333MPD2    C3 5050   0.249   0.225  11.401 -1.5342 -0.4056 -0.1979
  333MPD2    C4 5051   0.332   0.218  11.508 -0.4250 -0.7978 -0.0746
  333MPD2    C5 5052   0.437   0.299  11.515  0.6740 -0.2322 -0.3285
  333MPD2     H 5053   0.190   0.318  11.226 -0.0822  1.1368  0.1113
  333MPD2    H1 5054   0.327   0.139  11.582  1.0478  2.8028  3.8586
  333MPD2    H2 5055   0.552   0.444  11.448  1.1604 -0.8259 -2.7018
  333MPD2    H3 5056   0.512   0.282  11.593  0.4709 -0.3082 -0.1485
  333MPD2     N 5057   0.159   0.118  11.369 -0.1907  0.3030  0.2364
  333MPD2    H5 5058   0.118   0.127  11.277  1.7079 -0.1197 -0.6436
  333MPD2    N1 5059   0.397   0.510  11.220  0.1267  0.0302  0.1150
  333MPD2    H7 5060   0.467   0.583  11.236  0.5129  0.2162 -2.4667
  334TMC3    C1 5061   0.368   0.644  11.042 -0.0092  0.1437  0.0593
  334TMC3    C2 5062   0.387   0.638  10.910  0.3273 -0.1314 -0.6036
  334TMC3    C3 5063   0.440   0.746  10.841 -0.4102 -0.4989  0.3739
  334TMC3    C4 5064   0.410   0.749  11.124  0.0620  0.5677  0.4102
  334TMC3    C5 5065   0.449   0.858  11.047 -0.1051  0.1682  0.0857
  334TMC3    C6 5066   0.466   0.860  10.918 -0.0610  0.4069  0.1592
  334TMC3     C 5067   0.334   0.519  11.102  0.7102  0.3215  0.3659
  334TMC3     O 5068   0.255   0.450  11.044 -0.0485 -0.4137 -0.0658
  334TMC3     H 5069   0.353   0.551  10.856  0.9356 -0.8438  0.1787
  334TMC3    H1 5070   0.403   0.747  11.232  0.0806  0.0462  0.3993
  334TMC3    H2 5071   0.494   0.949  10.863  1.1645 -0.7799 -1.1651
  334TMC3    C7 5072   0.420   0.992  11.107  0.1119 -0.8944 -0.3965
  334TMC3    C8 5073   0.511   0.715  10.714 -0.0513  0.0422 -0.7934
  334TMC3    O1 5074   0.461   1.083  11.041 -0.4929 -0.1416  0.1338
  334TMC3    O2 5075   0.467   0.630  10.636 -0.1654  0.0201  0.4197
  335TMC3    C1 5076   4.295   2.606  17.431 -0.6057 -1.2386 -0.5886
  335TMC3    C2 5077   4.241   2.535  17.325  0.0109 -0.2579 -0.7079
  335TMC3    C3 5078   4.334   2.486  17.235 -0.6276 -0.7175  0.8262
  335TMC3    C4 5079   4.426   2.616  17.444  0.7991 -0.2529 -0.1500
  335TMC3    C5 5080   4.513   2.560  17.350  0.2612  0.2206  0.6621
  335TMC3    C6 5081   4.468   2.507  17.238 -0.2229  0.3981 -0.1646
  335TMC3     C 5082   4.200   2.640  17.542  0.2528  0.2926 -0.0737
  335TMC3     O 5083   4.111   2.558  17.567  0.7718  0.5935 -0.5570
  335TMC3     H 5084   4.133   2.534  17.315 -0.1095  2.9415  0.0723
  335TMC3    H1 5085   4.470   2.651  17.537  0.2396  1.0006 -0.3624
  335TMC3    H2 5086   4.526   2.463  17.157 -1.8677 -0.5952 -0.8245
  335TMC3    C7 5087   4.625   2.493  17.404  0.5350 -0.1083  0.2933
  335TMC3    C8 5088   4.275   2.412  17.126  0.4180 -0.5144 -0.1282
  335TMC3    O1 5089   4.651   2.399  17.328 -0.4976 -0.3883 -0.4490
  335TMC3    O2 5090   4.323   2.420  17.016 -0.2913 -0.5857 -0.4636
  336MPD2     C 5091   4.142   0.177  15.972 -0.1873  0.4639 -0.0468
  336MPD2    C1 5092   4.034   0.153  15.896 -0.2724 -0.4839  0.1416
  336MPD2    C2 5093   3.982   0.025  15.912 -0.4782 -0.0648 -0.7501
  336MPD2    C3 5094   4.032   4.672  16.001  0.2721  0.4647  0.1396
  336MPD2    C4 5095   4.141   4.701  16.078  0.7532  0.1709  0.4510
  336MPD2    C5 5096   4.188   0.091  16.065 -0.4025 -0.0319 -0.1269
  336MPD2     H 5097   3.893   4.738  15.855  0.2883 -0.1063 -1.9173
  336MPD2    H1 5098   4.172   4.628  16.152  1.7317  0.3138  0.1839
  336MPD2    H2 5099   4.189   0.275  15.983  1.4461 -0.3727  0.4049
  336MPD2    H3 5100   4.271   0.115  16.131 -0.5092  0.0265 -0.0134
  336MPD2     N 5101   3.970   4.543  16.022  0.7826 -0.2091  0.7836
  336MPD2    H5 5102   3.996   4.474  16.092 -0.7578 -0.5812  0.9872
  336MPD2    N1 5103   3.967   0.251  15.819  0.1748  0.1439  0.0889
  336MPD2    H7 5104   3.878   0.229  15.774 -0.2872 -1.0415  1.5675
  337TMC3    C1 5105   3.914   0.444  15.700 -0.7847  0.0810  0.2777
  337TMC3    C2 5106   3.782   0.415  15.722 -0.1880  0.1700 -0.3359
  337TMC3    C3 5107   3.698   0.466  15.629  0.0960  1.1573  0.1843
  337TMC3    C4 5108   3.962   0.510  15.589 -0.2325  0.2089 -0.1248
  337TMC3    C5 5109   3.871   0.558  15.501  0.2637 -0.0334 -1.2063
  337TMC3    C6 5110   3.738   0.548  15.521 -0.4238 -0.5294  0.5892
  337TMC3     C 5111   4.014   0.372  15.784 -0.5700 -0.3199 -0.1989
  337TMC3     O 5112   4.124   0.415  15.808  0.3818  0.2230  0.4464
  337TMC3     H 5113   3.746   0.378  15.818 -0.6782  4.3797  1.0789
  337TMC3    H1 5114   4.069   0.519  15.584 -0.1051 -0.7344  0.7226
  337TMC3    H2 5115   3.665   0.598  15.457 -1.8050 -1.4907  1.4123
  337TMC3    C7 5116   3.922   0.638  15.386  0.2991 -0.0956 -0.0034
  337TMC3    C8 5117   3.557   0.457  15.649 -0.5176  0.2309  0.1670
  337TMC3    O1 5118   4.041   0.661  15.398  0.7857  0.0301 -0.5368
  337TMC3    O2 5119   3.512   0.466  15.759  0.6367 -0.3914  0.2400
  338MPD2     C 5120   4.114   4.631   0.813 -0.5042 -0.0500 -0.0890
  338MPD2    C1 5121   4.065   4.584   0.691 -0.6828 -0.0048  0.7619
  338MPD2    C2 5122   3.946   4.636   0.647  0.9150 -0.0461 -0.0571
  338MPD2    C3 5123   3.865   4.725   0.726 -0.1749  0.5641 -0.5719
  338MPD2    C4 5124   3.916   0.024   0.847 -0.1287 -0.0438 -0.4308
  338MPD2    C5 5125   4.038   4.718   0.888 -0.3413  0.3486  0.3618
  338MPD2     H 5126   3.895   4.601   0.557 -1.8405 -0.7829  1.7907
  338MPD2    H1 5127   3.868   0.093   0.915  0.8626  0.8603 -0.6493
  338MPD2    H2 5128   4.206   4.595   0.858 -0.3530 -2.0268 -1.9322
  338MPD2    H3 5129   4.071   0.000   0.989 -1.1152  0.1158  0.6672
  338MPD2     N 5130   3.741   0.037   0.672 -0.1032  0.1798  0.1916
  338MPD2    H5 5131   3.713   4.737   0.583 -1.6513  1.3588  0.1707
  338MPD2    N1 5132   4.135   4.486   0.616  0.1429 -0.2568 -0.8667
  338MPD2    H7 5133   4.082   4.454   0.536  1.5619 -2.6677 -0.8340
  339TMC3    C1 5134   3.520   0.140   0.670  0.1458  0.1684  0.2881
  339TMC3    C2 5135   3.402   0.135   0.741 -0.0731 -0.3489 -0.3686
  339TMC3    C3 5136   3.286   0.116   0.670 -0.1309 -0.1549 -0.0058
  339TMC3    C4 5137   3.518   0.120   0.531 -0.4704  0.3066  0.2743
  339TMC3    C5 5138   3.394   0.096   0.471  1.2428  0.2796 -0.3063
  339TMC3    C6 5139   3.280   0.102   0.537  0.3930  0.0645  0.3096
  339TMC3     C 5140   3.648   0.114   0.741 -0.0453  0.1051  0.5085
  339TMC3     O 5141   3.635   0.126   0.860  0.1947 -0.0216 -0.2651
  339TMC3     H 5142   3.395   0.158   0.847  1.3335 -1.6184 -0.0001
  339TMC3    H1 5143   3.606   0.111   0.469 -2.0481  2.2831 -2.2742
  339TMC3    H2 5144   3.190   0.068   0.486 -0.4202  1.5085  0.7807
  339TMC3    C7 5145   3.397   0.100   0.325  0.2082 -0.2480 -0.0770
  339TMC3    C8 5146   3.177   0.054   0.743  0.1576  0.2998 -0.3980
  339TMC3    O1 5147   3.495   0.065   0.262  0.7620 -0.4581 -0.2764
  339TMC3    O2 5148   3.067   0.055   0.683  0.3321 -0.7232 -0.1028
  340MPD2     C 5149   0.062   2.380  10.365  0.0970  0.5827  0.0092
  340MPD2    C1 5150   0.011   2.313  10.471  0.4941 -0.2284 -0.2549
  340MPD2    C2 5151   4.736   2.389  10.589  0.2487 -0.2584 -0.1802
  340MPD2    C3 5152   0.024   2.529  10.591  0.0911  0.5798  0.0444
  340MPD2    C4 5153   0.069   2.587  10.479 -0.2040 -0.6687 -0.3014
  340MPD2    C5 5154   0.091   2.515  10.365 -0.2255 -0.0881 -0.4214
  340MPD2     H 5155   4.702   2.341  10.680  0.9461  2.4437  1.4894
  340MPD2    H1 5156   0.092   2.693  10.476  0.4522 -0.8103 -0.1658
  340MPD2    H2 5157   0.075   2.329  10.270 -0.7694  1.2066 -0.4481
  340MPD2    H3 5158   0.132   2.579  10.288  1.4577 -2.6405 -1.6397
  340MPD2     N 5159   0.014   2.601  10.711 -0.5922  0.0281 -0.2417
  340MPD2    H5 5160   0.061   2.690  10.709  1.7279 -1.2442 -2.3781
  340MPD2    N1 5161   4.720   2.175  10.458 -0.4149 -0.0639 -0.4489
  340MPD2    H7 5162   0.003   2.125  10.372  1.7502  0.2589 -0.1044
  341TMC3    C1 5163   4.636   1.959  10.505  0.0034  0.2106 -0.0534
  341TMC3    C2 5164   4.530   1.879  10.545  0.6457  0.3514 -0.3060
  341TMC3    C3 5165   4.553   1.741  10.556 -0.0546 -0.8815 -0.3503
  341TMC3    C4 5166   0.018   1.906  10.454 -0.0615 -0.1225 -0.1939
  341TMC3    C5 5167   0.023   1.769  10.443 -0.8214  0.2360 -0.0096
  341TMC3    C6 5168   4.664   1.683  10.499  0.5921 -0.4193 -0.0782
  341TMC3     C 5169   4.639   2.098  10.542 -0.5629 -0.1166 -0.0689
  341TMC3     O 5170   4.560   2.136  10.628 -0.5883  0.2372 -0.1065
  341TMC3     H 5171   4.435   1.926  10.571 -0.0054 -1.4004  0.4484
  341TMC3    H1 5172   0.090   1.968  10.401 -0.1599 -0.4561 -0.7168
  341TMC3    H2 5173   4.664   1.574  10.492  0.7760 -0.3017 -1.7343
  341TMC3    C7 5174   0.110   1.696  10.356  0.7645  0.4463 -0.3648
  341TMC3    C8 5175   4.436   1.660  10.582 -0.6053  0.4961  0.2304
  341TMC3    O1 5176   0.130   1.578  10.384  0.8418  0.0942  0.4873
  341TMC3    O2 5177   4.329   1.690  10.534  0.0487 -0.0807  0.4722
  342MPD2     C 5178   1.935   0.316  17.628 -0.4258  0.0402  0.3328
  342MPD2    C1 5179   2.020   0.331  17.512 -0.2954  0.4796 -0.2114
  342MPD2    C2 5180   2.067   0.460  17.477  0.0777 -0.3242 -0.2217
  342MPD2    C3 5181   2.033   0.571  17.556 -0.4209 -0.2554  0.0313
  342MPD2    C4 5182   1.939   0.558  17.655 -0.0124 -0.2749 -0.2237
  342MPD2    C5 5183   1.899   0.431  17.702  0.0077 -0.4014 -0.1124
  342MPD2     H 5184   2.130   0.455  17.389  0.1137  1.4479 -0.2848
  342MPD2    H1 5185   1.901   0.640  17.714 -0.0731 -0.1313 -0.4652
  342MPD2    H2 5186   1.902   0.217  17.657  0.5421 -0.3651  0.0286
  342MPD2    H3 5187   1.836   0.422   0.039 -1.8454 -1.4777 -1.5482
  342MPD2     N 5188   2.077   0.698  17.522 -0.1242  0.9909  0.3800
  342MPD2    H5 5189   2.055   0.772  17.588 -0.2476 -0.1906  1.6513
  342MPD2    N1 5190   2.074   0.229  17.430 -0.6753  0.1642  0.3977
  342MPD2    H7 5191   2.125   0.252  17.346 -0.0128 -0.5938  0.5809
  343TMC3    C1 5192   2.145   0.027  17.367 -0.0489 -0.1855 -0.7252
  343TMC3    C2 5193   2.268   0.090  17.337 -1.0356 -0.0941 -0.2224
  343TMC3    C3 5194   2.353   0.036  17.238 -0.2473 -0.4480  0.5725
  343TMC3    C4 5195   2.114   4.644  17.319  0.1369 -0.2424 -0.1933
  343TMC3    C5 5196   2.199   4.599  17.221  0.1101 -0.1251 -0.2708
  343TMC3    C6 5197   2.314   4.658  17.175 -0.5285  0.1627 -0.1272
  343TMC3     C 5198   2.054   0.097  17.450 -0.4838  0.3539 -0.7963
  343TMC3     O 5199   1.959   0.045  17.500 -0.5865 -0.6817 -0.3905
  343TMC3     H 5200   2.310   0.167  17.400 -1.1959  0.0208 -0.2558
  343TMC3    H1 5201   2.026   4.590  17.354 -0.0330  0.5813  0.6344
  343TMC3    H2 5202   2.360   4.619  17.086 -0.4330  2.9040 -1.2674
  343TMC3    C7 5203   2.183   4.460  17.179  0.1274  0.5235  0.6849
  343TMC3    C8 5204   2.441   0.137  17.184  0.4754 -0.1833 -0.5323
  343TMC3    O1 5205   2.068   4.421  17.197  0.4933 -0.2643  0.9091
  343TMC3    O2 5206   2.418   0.251  17.222  0.6661 -0.1153  0.2354
  344MPD2     C 5207   2.994   0.048  10.383 -0.1604  0.4346 -0.5669
  344MPD2    C1 5208   3.094   4.728  10.455 -0.9650  0.1575 -0.0851
  344MPD2    C2 5209   3.211   0.061  10.479 -0.5677  0.3293 -0.4631
  344MPD2    C3 5210   3.236   0.181  10.407 -0.1731 -0.5174 -0.2613
  344MPD2    C4 5211   3.132   0.233  10.327  0.2159 -0.3438 -0.0079
  344MPD2    C5 5212   3.013   0.167  10.321 -0.2184  0.3082  0.1517
  344MPD2     H 5213   3.279   0.007  10.544 -1.0221 -1.0994 -1.1613
  344MPD2    H1 5214   3.145   0.327  10.275 -1.6665  0.2283  0.5823
  344MPD2    H2 5215   2.899   4.735  10.375 -2.4587  4.5945  0.2407
  344MPD2    H3 5216   2.934   0.210  10.261 -0.2718 -0.2277 -0.1665
  344MPD2     N 5217   3.356   0.256  10.420  0.1610  0.1045  0.6194
  344MPD2    H5 5218   3.365   0.327  10.348  0.8851 -0.3263  0.2846
  344MPD2    N1 5219   3.084   4.599  10.513 -0.5603 -0.0845  0.3260
  344MPD2    H7 5220   3.164   4.572  10.569  0.4535  0.6403 -0.7512
  345TMC3    C1 5221   3.536   0.369  10.517  0.3211 -0.3827 -0.3423
  345TMC3    C2 5222   3.597   0.402  10.634 -0.6647 -0.1379  0.7897
  345TMC3    C3 5223   3.652   0.524  10.643 -0.7543  0.1123  0.0584
  345TMC3    C4 5224   3.528   0.455  10.412 -1.1603 -0.2164  0.0627
  345TMC3    C5 5225   3.581   0.582  10.426 -0.9897 -0.2376  0.9066
  345TMC3    C6 5226   3.647   0.619  10.543 -0.4858  0.2544 -0.4659
  345TMC3     C 5227   3.450   0.250  10.517 -0.5337  0.6569  0.4399
  345TMC3     O 5228   3.467   0.166  10.602 -0.4187 -0.3793 -0.0089
  345TMC3     H 5229   3.589   0.332  10.717  3.2270 -0.3190  1.0095
  345TMC3    H1 5230   3.475   0.440  10.318  0.8589  0.9754 -1.2540
  345TMC3    H2 5231   3.700   0.713  10.548  2.0135 -1.1150 -0.7289
  345TMC3    C7 5232   3.514   0.702  10.368  0.6267 -0.2039 -0.2804
  345TMC3    C8 5233   3.635   0.585  10.775 -0.0696  0.4776  0.7464
  345TMC3    O1 5234   3.527   0.806  10.424  0.3370 -0.2208 -0.7194
  345TMC3    O2 5235   3.670   0.528  10.879  0.1933 -0.4835  0.3360
  346MPD2     C 5236   2.966   1.449  13.625  0.9266  0.7593 -0.1969
  346MPD2    C1 5237   3.084   1.507  13.583 -0.4595 -0.6258  0.1393
  346MPD2    C2 5238   3.151   1.597  13.667 -0.3006  0.2933 -0.2844
  346MPD2    C3 5239   3.093   1.642  13.785 -0.1739  0.3677 -0.6457
  346MPD2    C4 5240   2.975   1.586  13.825  0.1721  0.1333  0.1783
  346MPD2    C5 5241   2.913   1.490  13.748  0.3994 -0.3613 -0.0640
  346MPD2     H 5242   3.245   1.644  13.639 -0.8454  0.5541 -1.6644
  346MPD2    H1 5243   2.927   1.607  13.920 -2.5593 -3.2411 -0.4548
  346MPD2    H2 5244   2.918   1.372  13.567  0.5974  0.3984  0.5685
  346MPD2    H3 5245   2.828   1.436  13.788  1.2305  0.4532  2.7944
  346MPD2     N 5246   3.157   1.750  13.845 -0.3143 -0.4109 -0.2821
  346MPD2    H5 5247   3.226   1.796  13.787 -0.1609 -1.4993 -0.9686
  346MPD2    N1 5248   3.142   1.474  13.452  0.1196 -0.0028 -0.1002
  346MPD2    H7 5249   3.240   1.495  13.433  0.3377 -0.1619  0.8890
  347TMC3    C1 5250   3.245   1.879  14.020  0.1329 -0.3033 -0.0828
  347TMC3    C2 5251   3.364   1.889  13.957  0.2012  0.1763  0.3337
  347TMC3    C3 5252   3.466   1.952  14.015 -0.2178  0.2929  0.3330
  347TMC3    C4 5253   3.226   1.928  14.148  0.5125 -0.3778 -0.8800
  347TMC3    C5 5254   3.339   1.983  14.212 -0.0611  0.5763  0.9041
  347TMC3    C6 5255   3.459   1.977  14.147  0.6696 -0.7105 -0.6008
  347TMC3     C 5256   3.138   1.794  13.970  0.6959 -0.2540  0.4278
  347TMC3     O 5257   3.052   1.769  14.053  0.3627  0.1124  0.4159
  347TMC3     H 5258   3.373   1.848  13.857  1.3626 -1.2794  1.0457
  347TMC3    H1 5259   3.129   1.914  14.194  0.6090  0.0713 -0.5448
  347TMC3    H2 5260   3.548   2.011  14.200 -1.4619  1.2304  1.7688
  347TMC3    C7 5261   3.326   1.987  14.356 -0.0418 -0.2246  0.5244
  347TMC3    C8 5262   3.591   1.901  13.974 -1.5125 -0.1577  0.4358
  347TMC3    O1 5263   3.214   1.966  14.393 -0.0601  0.4562 -1.0299
  347TMC3    O2 5264   3.596   1.791  13.916  0.5041  0.7260 -0.0142
  348MPD2     C 5265   2.269   1.366  11.879  0.0543  0.4386  0.1429
  348MPD2    C1 5266   2.292   1.304  11.759 -0.2862  0.6372 -0.1461
  348MPD2    C2 5267   2.290   1.384  11.643 -1.2197 -0.1735  0.2130
  348MPD2    C3 5268   2.251   1.517  11.639 -0.1383 -0.1993  0.0633
  348MPD2    C4 5269   2.224   1.572  11.763 -0.3877  0.6634  0.4455
  348MPD2    C5 5270   2.235   1.499  11.878  0.7011 -0.6063  0.3123
  348MPD2     H 5271   2.316   1.331  11.552 -0.6092  0.3953  0.0561
  348MPD2    H1 5272   2.206   1.678  11.780 -0.8196  0.3863  1.6658
  348MPD2    H2 5273   2.281   1.310  11.971  0.0372  1.6654  0.8873
  348MPD2    H3 5274   2.223   1.558  11.968  2.1852  1.5724 -0.9392
  348MPD2     N 5275   2.248   1.592  11.525  0.2921  0.7168  0.0203
  348MPD2    H5 5276   2.212   1.686  11.539  1.9733  1.2248  0.9247
  348MPD2    N1 5277   2.323   1.168  11.743  0.5693 -0.4054  0.0029
  348MPD2    H7 5278   2.344   1.138  11.648 -1.0468  0.9158 -0.7682
  349TMC3    C1 5279   2.307   0.944  11.794  0.1348 -0.1330 -0.0241
  349TMC3    C2 5280   2.335   0.839  11.875  0.1628  0.0668 -0.4362
  349TMC3    C3 5281   2.339   0.717  11.813  0.2434  0.4444 -0.3936
  349TMC3    C4 5282   2.290   0.930  11.660 -0.0374  0.1011  0.0858
  349TMC3    C5 5283   2.294   0.806  11.605 -0.6022  0.6510  0.1889
  349TMC3    C6 5284   2.318   0.700  11.680 -0.2354  0.9093  0.0227
  349TMC3     C 5285   2.307   1.077  11.840 -0.2269 -0.7373  0.7595
  349TMC3     O 5286   2.294   1.091  11.961  0.0699  0.1286  0.5441
  349TMC3     H 5287   2.344   0.848  11.982 -0.7189  1.3925 -0.4868
  349TMC3    H1 5288   2.246   1.010  11.601  1.4921  2.4116  2.0703
  349TMC3    H2 5289   2.338   0.605  11.632 -1.5721 -0.1011  1.4672
  349TMC3    C7 5290   2.236   0.792  11.470  0.2690  0.3022 -0.0549
  349TMC3    C8 5291   2.351   0.598  11.902  0.1306  0.0521 -0.1708
  349TMC3    O1 5292   2.174   0.689  11.457  0.0052  0.7756  0.3281
  349TMC3    O2 5293   2.410   0.614  12.009  0.6501  0.1609  0.1368
  350MPD2     C 5294   0.754   4.259  10.189 -0.4653 -0.1054 -0.1532
  350MPD2    C1 5295   0.789   4.129  10.172  0.1551 -0.2363  0.7953
  350MPD2    C2 5296   0.915   4.093  10.208  0.2186 -0.2721 -0.0095
  350MPD2    C3 5297   1.001   4.187  10.266 -0.2648  0.2912  0.1582
  350MPD2    C4 5298   0.963   4.313  10.278  0.8180 -0.4582  0.1597
  350MPD2    C5 5299   0.835   4.354  10.239 -0.0480  0.7522 -0.0170
  350MPD2     H 5300   0.946   3.990  10.200 -0.4802 -0.5746  1.0967
  350MPD2    H1 5301   1.020   4.378  10.344  2.8997  0.0865 -2.1696
  350MPD2    H2 5302   0.655   4.297  10.166  0.2761 -0.2845 -3.6368
  350MPD2    H3 5303   0.805   4.458  10.249  1.1445  1.2880 -2.0924
  350MPD2     N 5304   1.125   4.141  10.322 -0.2330  0.2516 -0.2299
  350MPD2    H5 5305   1.134   4.040  10.315 -0.4431  0.2389 -0.3266
  350MPD2    N1 5306   0.704   4.024  10.123  0.2581  0.5464  0.0510
  350MPD2    H7 5307   0.749   3.938  10.093 -1.6902 -0.4259 -0.0916
  351TMC3    C1 5308   0.521   3.873  10.082 -0.6859 -0.4272  0.1264
  351TMC3    C2 5309   0.605   3.785  10.015  0.1103 -0.2638  0.1104
  351TMC3    C3 5310   0.559   3.651  10.021  0.2407  0.4219 -0.0768
  351TMC3    C4 5311   0.397   3.841  10.135 -0.4898  0.0161 -0.4858
  351TMC3    C5 5312   0.356   3.712  10.130  0.2663 -0.7344 -0.7073
  351TMC3    C6 5313   0.437   3.620  10.074  0.7117  1.1460  0.2452
  351TMC3     C 5314   0.564   4.013  10.114  0.1552  0.4970  0.4613
  351TMC3     O 5315   0.480   4.094  10.150  0.0806 -0.2961 -0.1412
  351TMC3     H 5316   0.697   3.824   9.972  0.5083 -0.9090  0.3896
  351TMC3    H1 5317   0.345   3.908  10.202 -3.0707 -1.9899 -0.5098
  351TMC3    H2 5318   0.407   3.516  10.077  1.0347  0.9647 -2.5899
  351TMC3    C7 5319   0.269   3.669  10.240  0.0724 -0.4334  0.1953
  351TMC3    C8 5320   0.631   3.551   9.949 -0.1171 -0.7555  0.1640
  351TMC3    O1 5321   0.177   3.749  10.261  0.4208  0.5200 -0.7332
  351TMC3    O2 5322   0.556   3.470   9.895 -0.5331 -0.2419 -0.2954
  352MPD2     C 5323   4.262   1.550   1.260 -0.7844  0.1859 -0.3903
  352MPD2    C1 5324   4.200   1.532   1.138  0.0078  0.0841 -0.6773
  352MPD2    C2 5325   4.228   1.421   1.056  0.4006  0.2644  0.0619
  352MPD2    C3 5326   4.335   1.341   1.090  0.0171 -0.1172  0.0495
  352MPD2    C4 5327   4.415   1.368   1.197 -0.1017 -0.1792 -0.9013
  352MPD2    C5 5328   4.379   1.472   1.284 -0.5763  0.3416  0.6560
  352MPD2     H 5329   4.175   1.399   0.965  1.7543  2.5522 -1.2825
  352MPD2    H1 5330   4.499   1.304   1.219  0.2748  1.2076  1.6709
  352MPD2    H2 5331   4.252   1.638   1.323  0.3712  1.4792 -2.0111
  352MPD2    H3 5332   4.442   1.504   1.367  1.3021 -0.1544 -0.5776
  352MPD2     N 5333   4.364   1.232   0.999 -0.2823 -0.5389 -0.6051
  352MPD2    H5 5334   4.287   1.200   0.941  0.5037  0.7960 -2.3871
  352MPD2    N1 5335   4.120   1.641   1.115 -0.1626  0.1375 -0.5448
  352MPD2    H7 5336   4.118   1.721   1.177 -0.8721  0.9139 -1.5503
  353TMC3    C1 5337   4.483   1.063   0.876  0.1667 -0.4774  0.0291
  353TMC3    C2 5338   4.597   1.032   0.816 -0.3908 -0.1006  0.4039
  353TMC3    C3 5339   4.602   0.917   0.740  0.2558 -0.4496  0.5032
  353TMC3    C4 5340   4.367   0.986   0.853 -0.5020 -0.2578 -0.3824
  353TMC3    C5 5341   4.376   0.863   0.787  0.2789 -0.1055 -0.7923
  353TMC3    C6 5342   4.494   0.825   0.723 -0.6714  0.0528  0.2076
  353TMC3     C 5343   4.480   1.159   0.984 -0.3275  0.0265  0.1145
  353TMC3     O 5344   4.590   1.174   1.037 -0.4085 -0.0622 -0.7379
  353TMC3     H 5345   4.687   1.091   0.829 -1.0376  1.2638 -1.1590
  353TMC3    H1 5346   4.284   1.010   0.918 -1.7627 -1.3234 -1.6098
  353TMC3    H2 5347   4.505   0.740   0.658  1.6063  0.0000  0.6551
  353TMC3    C7 5348   4.257   0.794   0.735 -0.4779  0.2375  0.1290
  353TMC3    C8 5349   4.735   0.870   0.715  0.2617  0.5976  0.1987
  353TMC3    O1 5350   4.274   0.689   0.668 -0.3132  0.1397 -0.5145
  353TMC3    O2 5351   0.086   0.951   0.723 -0.1267 -0.1118 -0.5687
  354TMC3    C1 5352   1.118   2.301  13.159  0.6035 -0.3224 -0.5120
  354TMC3    C2 5353   1.149   2.419  13.098 -0.1193 -0.2743  0.1975
  354TMC3    C3 5354   1.208   2.411  12.972  0.4914 -0.0638  0.3185
  354TMC3    C4 5355   1.150   2.178  13.105 -0.0930  0.2637 -0.0601
  354TMC3    C5 5356   1.186   2.177  12.979  0.7475  0.7578 -0.0025
  354TMC3    C6 5357   1.234   2.288  12.912 -0.3938 -0.4340  0.4489
  354TMC3     C 5358   1.115   2.298  13.306  0.2391 -0.1584 -0.4894
  354TMC3     O 5359   1.068   2.392  13.366  0.2421 -0.5927  0.3310
  354TMC3     H 5360   1.143   2.502  13.167  2.7001  1.0965 -1.1792
  354TMC3    H1 5361   1.115   2.089  13.156 -2.1608  1.0213 -0.1530
  354TMC3    H2 5362   1.284   2.270  12.818 -0.0706 -2.3926  0.9969
  354TMC3    C7 5363   1.234   2.043  12.935 -0.4416  0.5341  0.0860
  354TMC3    C8 5364   1.218   2.533  12.888 -0.7844 -0.9706  0.3079
  354TMC3    O1 5365   1.162   1.942  12.966  0.4464  0.6531  0.1331
  354TMC3    O2 5366   1.283   2.518  12.776 -0.0449  0.0360 -0.6339
  355MPD2     C 5367   1.374   3.378  11.144  0.7497 -0.1715 -0.2616
  355MPD2    C1 5368   1.477   3.305  11.084  0.1875  0.3960  0.0956
  355MPD2    C2 5369   1.578   3.252  11.163  0.7375  0.0042 -0.5458
  355MPD2    C3 5370   1.590   3.282  11.296 -0.0110 -0.5763  0.6426
  355MPD2    C4 5371   1.487   3.348  11.354 -0.0597  0.1646 -0.3785
  355MPD2    C5 5372   1.383   3.401  11.284 -0.4025 -0.1930  0.0785
  355MPD2     H 5373   1.642   3.180  11.115  0.2245  0.6725 -2.2459
  355MPD2    H1 5374   1.497   3.365  11.461 -3.4043  0.8266 -0.1701
  355MPD2    H2 5375   1.298   3.425  11.083 -0.4205 -0.3733  1.0557
  355MPD2    H3 5376   1.303   3.450  11.338 -2.3008 -3.4923  0.2718
  355MPD2     N 5377   1.703   3.251  11.375 -0.5430 -0.0972 -0.3397
  355MPD2    H5 5378   1.691   3.268  11.474  1.8738 -1.9358  0.2833
  355MPD2    N1 5379   1.475   3.281  10.948  0.0159  0.0921  0.3982
  355MPD2    H7 5380   1.396   3.321  10.899  1.2584  1.6895 -0.3177
  356TMC3    C1 5381   1.921   3.154  11.427  0.5958 -0.1575  0.2912
  356TMC3    C2 5382   2.055   3.147  11.384  0.5719  0.2410  0.0654
  356TMC3    C3 5383   2.147   3.114  11.479  0.4786  0.1876  0.3083
  356TMC3    C4 5384   1.886   3.141  11.561 -0.0651  0.5701  0.2520
  356TMC3    C5 5385   1.986   3.123  11.656 -1.0214 -0.0727  0.6151
  356TMC3    C6 5386   2.115   3.108  11.615  0.0715 -0.6044 -0.1889
  356TMC3     C 5387   1.821   3.201  11.326  0.4078 -0.0880  0.0749
  356TMC3     O 5388   1.847   3.189  11.206 -0.3354  0.2611 -0.0832
  356TMC3     H 5389   2.070   3.162  11.278 -0.9071  1.2156 -0.0039
  356TMC3    H1 5390   1.786   3.168  11.592 -0.2866  0.8258 -0.6886
  356TMC3    H2 5391   2.191   3.081  11.687  1.4192 -0.4969 -1.5532
  356TMC3    C7 5392   1.968   3.199  11.779 -0.3990  0.3380 -0.6994
  356TMC3    C8 5393   2.281   3.136  11.465  0.2845  0.4964 -0.0351
  356TMC3    O1 5394   1.855   3.225  11.804 -0.1899  0.0960  0.1522
  356TMC3    O2 5395   2.369   3.079  11.531 -0.1110 -0.2430 -0.3703
  357MPD2     C 5396   0.257   1.815   1.455  0.6431  0.3393  0.0724
  357MPD2    C1 5397   0.357   1.778   1.366 -0.4816  0.3694 -0.4844
  357MPD2    C2 5398   0.386   1.639   1.355 -0.3386 -0.0590  0.0669
  357MPD2    C3 5399   0.332   1.541   1.437  0.3618  0.0034  0.3319
  357MPD2    C4 5400   0.239   1.587   1.527 -0.3813  0.5896  0.2561
  357MPD2    C5 5401   0.205   1.722   1.540  0.2945  0.1465  0.1317
  357MPD2     H 5402   0.465   1.607   1.288 -0.3840  2.0509 -0.9886
  357MPD2    H1 5403   0.201   1.521   1.604 -2.7835 -0.4171 -1.7903
  357MPD2    H2 5404   0.224   1.918   1.465 -3.2074 -1.0761  1.6335
  357MPD2    H3 5405   0.126   1.753   1.608  0.2061 -3.4064  1.6470
  357MPD2     N 5406   0.360   1.401   1.429  0.9635 -0.0726  0.5456
  357MPD2    H5 5407   0.293   1.341   1.475  1.1601 -0.5972  0.1387
  357MPD2    N1 5408   0.417   1.880   1.287  0.1269 -0.0057  0.1598
  357MPD2    H7 5409   0.371   1.970   1.288  0.9120  0.3994 -0.8036
  358TMC3    C1 5410   0.530   1.969   1.109  0.1995  0.4349  0.2816
  358TMC3    C2 5411   0.417   1.997   1.037 -0.4509  0.1876  0.1328
  358TMC3    C3 5412   0.430   2.095   0.941 -0.4321 -0.5329  0.5204
  358TMC3    C4 5413   0.648   2.040   1.096  0.3193 -0.2169  0.3680
  358TMC3    C5 5414   0.650   2.144   1.006  0.7487  0.5987  0.2704
  358TMC3    C6 5415   0.536   2.173   0.936  0.0640  0.1212  0.4727
  358TMC3     C 5416   0.521   1.858   1.199  0.4268 -1.2815  0.1894
  358TMC3     O 5417   0.615   1.778   1.199 -0.5704  0.0710 -0.0745
  358TMC3     H 5418   0.331   1.935   1.057 -0.8074  1.0578  1.2730
  358TMC3    H1 5419   0.738   2.010   1.148  1.2250 -1.1908 -1.7504
  358TMC3    H2 5420   0.529   2.267   0.882 -2.5266 -1.2724 -1.6286
  358TMC3    C7 5421   0.768   2.219   0.976 -0.1194 -0.0197  0.4678
  358TMC3    C8 5422   0.342   2.103   0.825  0.0948 -0.0938  0.0242
  358TMC3    O1 5423   0.772   2.291   0.876  0.4173 -0.1956  0.5429
  358TMC3    O2 5424   0.360   2.195   0.747 -0.3302  0.5617  0.5857
  359MPD2     C 5425   1.591   1.994  12.449 -0.3706  0.0000 -0.1854
  359MPD2    C1 5426   1.674   1.881  12.453  0.1501 -0.3818  0.2207
  359MPD2    C2 5427   1.617   1.757  12.470  0.2502 -0.3080 -0.0338
  359MPD2    C3 5428   1.478   1.742  12.492 -0.1722  0.3598 -0.1131
  359MPD2    C4 5429   1.404   1.856  12.493 -0.3495 -0.3676 -0.3719
  359MPD2    C5 5430   1.460   1.976  12.472  0.0929  0.3176  0.4930
  359MPD2     H 5431   1.687   1.675  12.462 -0.9324 -1.2083 -1.2058
  359MPD2    H1 5432   1.296   1.854  12.501 -0.2234  1.6121  1.8460
  359MPD2    H2 5433   1.624   2.095  12.430  2.9252 -1.4231 -2.1637
  359MPD2    H3 5434   1.402   2.067  12.468  0.4216  0.5294  0.5256
  359MPD2     N 5435   1.413   1.612  12.508 -0.4690  0.4511 -0.4459
  359MPD2    H5 5436   1.316   1.614  12.537 -0.0673 -0.8377  0.9688
  359MPD2    N1 5437   1.810   1.892  12.424  0.1562 -0.1538  0.2943
  359MPD2    H7 5438   1.859   1.808  12.451 -1.9278 -2.0113 -1.7636
  360TMC3    C1 5439   2.005   1.947  12.333 -0.1926 -1.1569 -0.0335
  360TMC3    C2 5440   2.108   2.035  12.309 -0.1677 -0.6411  0.3420
  360TMC3    C3 5441   2.193   2.012  12.206 -0.2484  0.0925  1.1103
  360TMC3    C4 5442   1.988   1.834  12.253 -0.2167 -0.2185 -0.1526
  360TMC3    C5 5443   2.081   1.813  12.159  0.0138  0.3618  0.4087
  360TMC3    C6 5444   2.187   1.898  12.127  0.4226 -0.0566  0.6383
  360TMC3     C 5445   1.882   1.999  12.381  0.3106  0.2355 -0.4829
  360TMC3     O 5446   1.840   2.108  12.352  0.3817  0.4102 -0.6114
  360TMC3     H 5447   2.101   2.133  12.356 -0.6678 -0.8769  0.7522
  360TMC3    H1 5448   1.899   1.772  12.249  0.7047 -1.5669  0.3339
  360TMC3    H2 5449   2.239   1.873  12.035  1.3396  1.5263  0.7184
  360TMC3    C7 5450   2.031   1.766  12.034 -0.3828 -0.3964  0.8526
  360TMC3    C8 5451   2.311   2.097  12.205  0.2549 -1.1272  0.1708
  360TMC3    O1 5452   2.057   1.828  11.931  0.0265  0.1062 -0.4491
  360TMC3    O2 5453   2.318   2.180  12.290 -0.4574  0.0477  0.2902
  361MPD2     C 5454   3.186   1.332  16.796 -0.2314  0.4622  0.8190
  361MPD2    C1 5455   3.121   1.211  16.784  0.1738  0.1736 -0.5547
  361MPD2    C2 5456   3.185   1.103  16.833  0.6629 -0.0029  0.8001
  361MPD2    C3 5457   3.303   1.107  16.904  0.1918  0.0528  0.0575
  361MPD2    C4 5458   3.363   1.230  16.917  0.1808  0.4867  0.2478
  361MPD2    C5 5459   3.308   1.336  16.855 -0.0893 -0.6526 -0.3581
  361MPD2     H 5460   3.141   1.007  16.810  0.7942 -0.2185  1.4270
  361MPD2    H1 5461   3.462   1.238  16.959  0.0465 -0.2536  0.7017
  361MPD2    H2 5462   3.150   1.433  16.778 -4.7951 -1.3268 -0.3012
  361MPD2    H3 5463   3.358   1.432  16.852 -0.2618 -0.5591 -0.1966
  361MPD2     N 5464   3.372   0.994  16.964  0.1861  0.1816  0.3857
  361MPD2    H5 5465   3.466   1.006  16.998  0.1122  0.6082  0.4414
  361MPD2    N1 5466   2.993   1.191  16.723  1.0440 -0.2043  0.3799
  361MPD2    H7 5467   2.944   1.102  16.727  0.2272  0.3081  2.0905
  362TMC3    C1 5468   2.814   1.237  16.594 -0.2397  0.4661 -0.0159
  362TMC3    C2 5469   2.733   1.164  16.677 -0.1579 -0.0987 -0.4256
  362TMC3    C3 5470   2.635   1.091  16.612 -0.2618 -0.2895 -0.2785
  362TMC3    C4 5471   2.789   1.256  16.461  0.9880 -0.2107  0.7233
  362TMC3    C5 5472   2.699   1.176  16.400 -0.0175  0.5051 -0.5640
  362TMC3    C6 5473   2.622   1.095  16.475 -0.0182 -0.7413 -0.2094
  362TMC3     C 5474   2.930   1.287  16.651  0.3880  0.1067  0.2170
  362TMC3     O 5475   2.955   1.407  16.630 -0.2378  0.5751 -0.0462
  362TMC3     H 5476   2.754   1.174  16.783 -0.9216 -2.0649 -0.0804
  362TMC3    H1 5477   2.858   1.314  16.401 -1.2797  0.4731 -1.2074
  362TMC3    H2 5478   2.545   1.033  16.431  0.7073 -0.7090 -1.5133
  362TMC3    C7 5479   2.642   1.233  16.282  0.1077 -0.0244  0.5837
  362TMC3    C8 5480   2.518   1.050  16.695  0.1438 -0.1754  0.0644
  362TMC3    O1 5481   2.644   1.354  16.269 -0.5875  0.7624  0.2004
  362TMC3    O2 5482   2.452   0.960  16.648 -0.0429  0.0278  0.3732
  363TMC3    C1 5483   1.173   2.693   8.873 -0.3161 -0.2967  0.1143
  363TMC3    C2 5484   1.285   2.763   8.917  0.2069  0.4986 -0.0266
  363TMC3    C3 5485   1.274   2.843   9.027 -0.1668 -0.0269  0.3249
  363TMC3    C4 5486   1.051   2.720   8.938 -0.5136 -0.1085  0.1029
  363TMC3    C5 5487   1.048   2.816   9.038  0.2955  0.0833  0.6860
  363TMC3    C6 5488   1.156   2.884   9.079  0.4343 -0.2229  0.2748
  363TMC3     C 5489   1.180   2.610   8.758 -0.2000  0.8778  0.5051
  363TMC3     O 5490   1.270   2.639   8.678  0.4415 -0.1377  0.1779
  363TMC3     H 5491   1.378   2.756   8.862  0.3148 -0.5007  0.2898
  363TMC3    H1 5492   0.968   2.651   8.930 -0.6186 -0.0019  0.2964
  363TMC3    H2 5493   1.154   2.938   9.173 -0.2295 -1.8825  1.2064
  363TMC3    C7 5494   0.917   2.827   9.101 -0.7345 -0.2202  0.9269
  363TMC3    C8 5495   1.399   2.888   9.090 -0.4995  0.6823 -0.1896
  363TMC3    O1 5496   0.819   2.758   9.064  0.5701  0.0907 -0.4122
  363TMC3    O2 5497   1.397   2.991   9.158 -0.0108  0.2504 -0.7822
  364MPD2     C 5498   0.484   2.796  11.129  0.2124  0.1848  0.4196
  364MPD2    C1 5499   0.575   2.747  11.042  0.4599 -0.0641  0.2251
  364MPD2    C2 5500   0.620   2.617  11.056  0.6816 -0.1382 -0.7111
  364MPD2    C3 5501   0.583   2.537  11.163  0.3209  0.2902 -0.7499
  364MPD2    C4 5502   0.494   2.595  11.247 -0.0276 -0.4200  0.3267
  364MPD2    C5 5503   0.440   2.719  11.231  0.0724 -1.2662  0.1957
  364MPD2     H 5504   0.693   2.576  10.987 -0.9001 -0.5745 -2.1215
  364MPD2    H1 5505   0.464   2.535  11.333  0.1532 -1.7484 -0.5464
  364MPD2    H2 5506   0.455   2.900  11.122 -1.1829 -0.2238  0.2331
  364MPD2    H3 5507   0.370   2.768  11.299 -0.0644  0.8440 -1.4695
  364MPD2     N 5508   0.624   2.401  11.188  0.2437 -0.7287 -0.1031
  364MPD2    H5 5509   0.597   2.366  11.280 -0.6167 -1.0878 -0.4873
  364MPD2    N1 5510   0.602   2.824  10.929  0.1968 -0.7355 -0.1656
  364MPD2    H7 5511   0.550   2.911  10.929 -0.5290 -1.1707  0.4986
  365TMC3    C1 5512   0.702   2.897  10.725 -0.3931 -0.2670  0.1498
  365TMC3    C2 5513   0.787   2.856  10.622  0.6885 -0.3630 -0.0445
  365TMC3    C3 5514   0.777   2.936  10.507  0.0946  0.2626 -0.4703
  365TMC3    C4 5515   0.616   2.998  10.714 -0.1652 -0.8985 -0.1267
  365TMC3    C5 5516   0.628   3.082  10.608 -0.2744  0.0553  0.5252
  365TMC3    C6 5517   0.708   3.052  10.504 -0.2458 -0.5628  0.8166
  365TMC3     C 5518   0.702   2.800  10.837 -0.0459 -0.3525  0.0531
  365TMC3     O 5519   0.784   2.711  10.831  0.4460  0.1607 -0.4170
  365TMC3     H 5520   0.857   2.775  10.635  0.2497 -1.3624 -3.9829
  365TMC3    H1 5521   0.539   3.013  10.788  0.5131  0.4747  0.2910
  365TMC3    H2 5522   0.714   3.124  10.423  2.7938 -2.0814 -0.3221
  365TMC3    C7 5523   0.571   3.212  10.607  0.6421 -0.0364 -0.5872
  365TMC3    C8 5524   0.867   2.902  10.395 -1.0811 -0.2429 -0.0813
  365TMC3    O1 5525   0.573   3.271  10.501 -0.8362 -0.1030  0.2323
  365TMC3    O2 5526   0.885   2.985  10.311 -0.1697  0.4969  0.2684
  366MPD2     C 5527   3.664   3.724  15.268 -0.3921 -0.2226  0.3441
  366MPD2    C1 5528   3.744   3.753  15.162  0.9254 -0.1178  0.4776
  366MPD2    C2 5529   3.854   3.678  15.130  0.1976  0.4291  0.2172
  366MPD2    C3 5530   3.895   3.581  15.218 -0.0989 -0.1377 -0.7890
  366MPD2    C4 5531   3.824   3.548  15.331 -0.1702 -0.5221  0.1328
  366MPD2    C5 5532   3.704   3.618  15.348 -0.6687  0.0436 -0.3778
  366MPD2     H 5533   3.901   3.707  15.036 -0.2521 -1.8883 -0.7146
  366MPD2    H1 5534   3.860   3.476  15.404 -1.2977 -1.7154 -0.4863
  366MPD2    H2 5535   3.581   3.784  15.304  0.2937  1.8768 -1.5945
  366MPD2    H3 5536   3.640   3.599  15.433 -2.2958 -1.5015 -1.9451
  366MPD2     N 5537   4.014   3.514  15.195 -0.2023  0.0725  0.2864
  366MPD2    H5 5538   4.066   3.477  15.273 -1.0830 -2.9498 -0.5612
  366MPD2    N1 5539   3.722   3.866  15.083 -0.0327 -0.1586  0.0238
  366MPD2    H7 5540   3.794   3.899  15.019 -0.1870 -0.3687 -0.2564
  367TMC3    C1 5541   3.632   4.091  15.076  0.5058 -0.1837 -0.9339
  367TMC3    C2 5542   3.764   4.133  15.098 -0.1791  0.0945 -0.4549
  367TMC3    C3 5543   3.784   4.264  15.107 -0.3319  0.1474 -0.2036
  367TMC3    C4 5544   3.528   4.181  15.057 -0.3873 -0.3743  0.1031
  367TMC3    C5 5545   3.563   4.317  15.058  0.4341 -0.5751 -0.4764
  367TMC3    C6 5546   3.683   4.358  15.106  0.2472  0.4124  0.2266
  367TMC3     C 5547   3.608   3.949  15.093 -1.4801  0.6550  1.1268
  367TMC3     O 5548   3.491   3.918  15.119  0.1225 -0.7165  0.8431
  367TMC3     H 5549   3.842   4.070  15.141 -1.4938 -1.7123 -0.7014
  367TMC3    H1 5550   3.424   4.154  15.050 -1.4292  3.6859 -0.4023
  367TMC3    H2 5551   3.703   4.464  15.116 -0.7276  0.7115 -0.9966
  367TMC3    C7 5552   3.478   4.431  15.002  0.5052  0.0169 -0.3241
  367TMC3    C8 5553   3.888   4.285  15.198 -0.2068  0.1780  0.6394
  367TMC3    O1 5554   3.496   4.550  15.036 -0.1327  0.3567 -0.1639
  367TMC3    O2 5555   3.885   4.224  15.301  0.3587 -0.0199  0.0404
  368MPD2     C 5556   0.287   0.762  13.597 -0.2426 -0.3142  0.3778
  368MPD2    C1 5557   0.278   0.898  13.599  0.4331  0.1704 -0.2001
  368MPD2    C2 5558   0.390   0.970  13.569  0.2573  0.3758  0.6556
  368MPD2    C3 5559   0.511   0.910  13.541 -0.1228 -0.5755 -0.8677
  368MPD2    C4 5560   0.518   0.774  13.530  0.1216 -0.0283  0.1948
  368MPD2    C5 5561   0.409   0.701  13.563 -0.4647  0.3969 -0.4481
  368MPD2     H 5562   0.380   1.078  13.559 -0.6989  0.0475 -1.8123
  368MPD2    H1 5563   0.602   0.717  13.493  0.2282 -1.9240  3.3379
  368MPD2    H2 5564   0.196   0.706  13.615  0.0639 -0.1429  2.4305
  368MPD2    H3 5565   0.420   0.594  13.578 -1.0945  0.2983 -0.6934
  368MPD2     N 5566   0.632   0.978  13.506 -0.3355 -0.8994 -0.7235
  368MPD2    H5 5567   0.692   0.929  13.442 -0.8948 -0.1780 -1.7944
  368MPD2    N1 5568   0.150   0.955  13.607 -0.9148  0.2380  0.1672
  368MPD2    H7 5569   0.073   0.897  13.575 -2.3239  1.2800  1.6496
  369TMC3    C1 5570   0.006   1.152  13.553  0.0513 -0.0586 -0.6937
  369TMC3    C2 5571   4.736   1.290  13.547 -0.1702  0.4245  0.4387
  369TMC3    C3 5572   4.644   1.349  13.469  0.2632  0.3132  0.4094
  369TMC3    C4 5573   4.677   1.071  13.475 -0.3269  0.6395  0.0032
  369TMC3    C5 5574   4.580   1.133  13.397  0.4112 -0.4992  0.1608
  369TMC3    C6 5575   4.560   1.270  13.393 -0.1055  0.1241  0.0614
  369TMC3     C 5576   0.124   1.092  13.616 -0.3811  0.1092  0.1889
  369TMC3     O 5577   0.201   1.176  13.663  0.2482 -0.5880  0.1860
  369TMC3     H 5578   0.051   1.353  13.617  0.2393 -0.0421  0.5459
  369TMC3    H1 5579   4.692   0.964  13.470  1.0339  0.8331 -0.1760
  369TMC3    H2 5580   4.487   1.317  13.329 -0.4126 -0.4966 -0.0451
  369TMC3    C7 5581   4.493   1.042  13.320 -0.1447  0.5961  0.1014
  369TMC3    C8 5582   4.698   1.449  13.383 -0.7953  0.2249 -0.8574
  369TMC3    O1 5583   4.528   0.925  13.317  0.5988  0.5151  0.6797
  369TMC3    O2 5584   4.625   1.506  13.295 -0.2911 -0.4987 -0.0600
  370TMC3    C1 5585   4.241   1.721  16.056 -0.4260  0.0154 -0.3859
  370TMC3    C2 5586   4.232   1.688  16.189 -0.2808  0.4419  0.0921
  370TMC3    C3 5587   4.276   1.560  16.222 -0.3161  0.1732 -0.3649
  370TMC3    C4 5588   4.290   1.642  15.961 -0.1251  0.1643  0.2925
  370TMC3    C5 5589   4.342   1.522  15.996  0.3395  0.0034  0.0311
  370TMC3    C6 5590   4.335   1.483  16.125 -0.4382  0.0959  0.3726
  370TMC3     C 5591   4.152   1.832  16.023  0.3041 -0.2025 -0.2972
  370TMC3     O 5592   4.050   1.841  16.088  0.2209  0.2711  0.1091
  370TMC3     H 5593   4.173   1.745  16.260 -0.0005  1.1349 -0.2297
  370TMC3    H1 5594   4.287   1.681  15.860 -2.7766  0.3813  0.4511
  370TMC3    H2 5595   4.360   1.382  16.157 -0.8522  0.0840  0.6588
  370TMC3    C7 5596   4.405   1.454  15.890 -0.1416  0.4235 -0.4343
  370TMC3    C8 5597   4.235   1.496  16.350  0.7546  0.3644  0.3800
  370TMC3    O1 5598   4.368   1.476  15.775  0.1791 -0.4815  0.3079
  370TMC3    O2 5599   4.238   1.373  16.359  0.4159 -0.3485 -0.3656
  371TMC3    C1 5600   1.215   0.233  15.450  0.3288 -0.9296 -0.7557
  371TMC3    C2 5601   1.131   0.191  15.551 -0.7187  0.7410 -0.0858
  371TMC3    C3 5602   1.068   0.299  15.615 -0.4369 -0.3056  0.1474
  371TMC3    C4 5603   1.239   0.363  15.409  0.4488  0.2876 -0.3834
  371TMC3    C5 5604   1.171   0.456  15.480 -1.1908 -0.4373 -0.0299
  371TMC3    C6 5605   1.099   0.432  15.589 -0.5283 -0.7057 -0.5761
  371TMC3     C 5606   1.296   0.133  15.383  0.6421 -0.1562  0.2026
  371TMC3     O 5607   1.406   0.157  15.340  0.2052 -0.3553 -0.0579
  371TMC3     H 5608   1.118   0.087  15.578 -0.1708  0.5858 -0.4252
  371TMC3    H1 5609   1.305   0.379  15.324  2.0034 -1.2585  0.5142
  371TMC3    H2 5610   1.036   0.509  15.633 -0.7003 -1.0019 -0.3062
  371TMC3    C7 5611   1.164   0.590  15.428 -0.1731  0.7630 -0.6846
  371TMC3    C8 5612   0.978   0.263  15.720  0.4327  1.3103  0.0446
  371TMC3    O1 5613   1.146   0.674  15.513 -0.0470  0.2601  0.3905
  371TMC3    O2 5614   1.000   0.161  15.783  0.5792  0.1923 -0.1164
  372MPD2     C 5615   4.688   1.265  14.103 -0.2896 -0.1787 -0.0592
  372MPD2    C1 5616   0.076   1.318  14.082 -0.2504 -0.1278  0.5805
  372MPD2    C2 5617   0.176   1.240  14.045  0.2680 -0.0250  0.1323
  372MPD2    C3 5618   0.155   1.109  14.004  0.4749  0.0278 -0.4293
  372MPD2    C4 5619   0.025   1.059  14.015 -0.1605  0.5199  0.1203
  372MPD2    C5 5620   4.667   1.135  14.074  0.2958  0.5286 -0.1562
  372MPD2     H 5621   0.277   1.276  14.063 -0.9012  3.1341  0.2936
  372MPD2    H1 5622   4.735   0.963  13.973 -2.8822  0.9732  0.8944
  372MPD2    H2 5623   4.606   1.322  14.146 -0.8182 -1.7714  1.0385
  372MPD2    H3 5624   4.568   1.091  14.088  0.4581  0.3076  0.3081
  372MPD2     N 5625   0.259   1.020  13.975 -0.4597 -0.3662 -0.1196
  372MPD2    H5 5626   0.352   1.057  13.959  0.0165 -0.8725  1.5840
  372MPD2    N1 5627   0.109   1.451  14.117 -0.3976  0.0726  0.3153
  372MPD2    H7 5628   0.204   1.484  14.105 -0.2969  0.3328  1.7252
  373TMC3    C1 5629   0.385   0.820  13.970  0.6111  0.0040  0.6128
  373TMC3    C2 5630   0.502   0.890  13.958  0.2016 -0.3666 -1.0727
  373TMC3    C3 5631   0.615   0.847  13.899  0.6367  0.1825  0.1122
  373TMC3    C4 5632   0.383   0.687  13.944  0.6377  0.3667 -0.5341
  373TMC3    C5 5633   0.497   0.636  13.875  0.6196  0.2268  0.0335
  373TMC3    C6 5634   0.613   0.714  13.856  0.2624  0.4375 -0.2335
  373TMC3     C 5635   0.254   0.884  13.991  0.3045 -0.4864  0.3885
  373TMC3     O 5636   0.159   0.809  14.017 -0.1482  0.3115  0.0415
  373TMC3     H 5637   0.509   0.989  14.000 -2.0657 -0.3875 -0.6524
  373TMC3    H1 5638   0.288   0.635  13.942 -0.1712  1.8425 -0.7041
  373TMC3    H2 5639   0.702   0.662  13.822  0.4815  1.1273 -0.7208
  373TMC3    C7 5640   0.495   0.507  13.822  0.3439  0.4061 -0.5683
  373TMC3    C8 5641   0.740   0.931  13.891  0.1528 -1.4995 -0.7614
  373TMC3    O1 5642   0.575   0.483  13.731  0.1061 -0.3714 -0.4621
  373TMC3    O2 5643   0.738   1.040  13.950  0.3417 -0.0261 -0.4638
  374TMC3    C1 5644   0.915   1.453   9.854  0.0777  0.1518 -0.0862
  374TMC3    C2 5645   1.014   1.548   9.838 -0.0500  0.7293 -0.1442
  374TMC3    C3 5646   1.001   1.626   9.727  0.3484  0.5201 -0.5606
  374TMC3    C4 5647   0.813   1.438   9.759  0.6484 -0.7916  0.2437
  374TMC3    C5 5648   0.802   1.525   9.649 -0.5423  0.4066 -0.3422
  374TMC3    C6 5649   0.901   1.616   9.633  0.3733 -0.0769 -0.4070
  374TMC3     C 5650   0.912   1.366   9.965  0.8220  0.4060 -0.1758
  374TMC3     O 5651   0.825   1.279   9.959 -0.5447 -0.2081  0.0892
  374TMC3     H 5652   1.092   1.568   9.912 -0.2352  0.2839  0.1733
  374TMC3    H1 5653   0.729   1.370   9.771  1.9144 -2.2285  0.9955
  374TMC3    H2 5654   0.885   1.698   9.564  0.4508  0.5014  0.2575
  374TMC3    C7 5655   0.740   1.479   9.529  1.4098  0.0516  0.3986
  374TMC3    C8 5656   1.106   1.729   9.696  0.5321 -0.6759 -0.0118
  374TMC3    O1 5657   0.802   1.496   9.424  0.4859 -0.3326  0.5798
  374TMC3    O2 5658   1.079   1.816   9.618 -0.1069  0.3119  0.6190
  375MPD2     C 5659   1.103   1.870  17.357 -0.3954  0.3371  0.1582
  375MPD2    C1 5660   0.998   1.886  17.264 -0.7350  0.6014  0.1078
  375MPD2    C2 5661   1.027   1.877  17.128  0.6567  0.2843  0.7500
  375MPD2    C3 5662   1.159   1.863  17.087  0.3974  0.7483 -0.0164
  375MPD2    C4 5663   1.254   1.859  17.179  0.2672  0.3746  0.1433
  375MPD2    C5 5664   1.234   1.862  17.309 -0.1962 -0.3787  0.3095
  375MPD2     H 5665   0.940   1.872  17.063  2.1422  1.0476 -1.2660
  375MPD2    H1 5666   1.358   1.848  17.149  0.0569 -1.9043  0.2577
  375MPD2    H2 5667   1.103   1.889  17.464 -1.0501 -0.6060  0.3180
  375MPD2    H3 5668   1.308   1.855  17.388  1.2832  1.6243 -0.8981
  375MPD2     N 5669   1.198   1.842  16.955  0.2737  0.0417 -0.2406
  375MPD2    H5 5670   1.297   1.821  16.946 -0.1153 -1.7569 -0.3304
  375MPD2    N1 5671   0.867   1.916  17.299  0.0232  0.1187  0.0806
  375MPD2    H7 5672   0.801   1.894  17.225 -0.6977  0.0561  0.7503
  376TMC3    C1 5673   1.207   1.859  16.717 -0.7797  0.1112  0.3356
  376TMC3    C2 5674   1.348   1.851  16.725  0.5914  0.1308  0.6815
  376TMC3    C3 5675   1.410   1.897  16.609 -0.4869  0.3499  0.0740
  376TMC3    C4 5676   1.137   1.899  16.610  0.0103 -0.3303 -0.2128
  376TMC3    C5 5677   1.213   1.948  16.510 -0.2161  0.4780 -0.3511
  376TMC3    C6 5678   1.352   1.955  16.500  0.3557 -0.8332 -0.1648
  376TMC3     C 5679   1.124   1.845  16.842  0.4982  0.0458  0.1052
  376TMC3     O 5680   1.006   1.875  16.830  0.1408 -0.5172  0.2409
  376TMC3     H 5681   1.407   1.805  16.804 -0.5029  2.0579  2.6216
  376TMC3    H1 5682   1.030   1.918  16.605  0.0254  0.4172  2.5611
  376TMC3    H2 5683   1.406   1.972  16.408  1.3981  0.2392  0.6510
  376TMC3    C7 5684   1.129   1.958  16.391 -0.1483  0.2335 -0.3018
  376TMC3    C8 5685   1.541   1.846  16.588 -0.1955  0.4040  0.0815
  376TMC3    O1 5686   1.157   2.044  16.311 -0.0303  0.0145  0.5671
  376TMC3    O2 5687   1.564   1.730  16.630  0.6452 -0.4513  0.7650
  377MPD2     C 5688   4.386   1.898  12.807  0.4912  0.3758 -0.1302
  377MPD2    C1 5689   4.311   1.930  12.699 -0.0550  0.8189  0.0801
  377MPD2    C2 5690   4.178   1.898  12.701  0.3451 -0.6703  0.3844
  377MPD2    C3 5691   4.120   1.832  12.809  0.0096  0.1083  0.3166
  377MPD2    C4 5692   4.197   1.798  12.917  0.0745  0.1436  0.4558
  377MPD2    C5 5693   4.324   1.839  12.912  0.1610  0.0780  0.4342
  377MPD2     H 5694   4.112   1.914  12.616  0.7028  0.1527  0.2611
  377MPD2    H1 5695   4.169   1.742  13.006 -0.7121 -0.3529 -0.1078
  377MPD2    H2 5696   4.493   1.912  12.816  0.6153 -1.5295  1.3283
  377MPD2    H3 5697   4.389   1.813  12.995 -0.4944  0.1109  0.9574
  377MPD2     N 5698   3.982   1.784  12.804 -0.1299 -0.0125  0.3428
  377MPD2    H5 5699   3.959   1.723  12.882  3.0296 -1.8155 -0.1295
  377MPD2    N1 5700   4.372   1.995  12.590 -0.1042  0.0002  0.1210
  377MPD2    H7 5701   4.473   2.004  12.599 -0.1791  0.1060  0.8624
  378TMC3    C1 5702   4.378   2.170  12.158  0.5184  0.0968 -0.4030
  378TMC3    C2 5703   4.327   2.175  12.293 -0.4665  0.3203 -0.0511
  378TMC3    C3 5704   4.391   2.111  12.391  0.2590 -0.5885 -0.2956
  378TMC3    C4 5705   4.486   2.098  12.131  0.5404 -0.9135 -1.4264
  378TMC3    C5 5706   4.549   2.031  12.237  0.1404 -0.5847  0.3051
  378TMC3    C6 5707   4.506   2.042  12.369 -0.4235 -0.3215 -0.1130
  378TMC3     C 5708   4.302   2.234  12.056 -0.1973 -0.7765 -0.4913
  378TMC3     O 5709   4.187   2.255  12.091  0.1366  0.4819 -0.0361
  378TMC3     H 5710   4.223   2.203  12.302 -0.4644  0.4847 -0.5881
  378TMC3    H1 5711   4.524   2.093  12.029  1.8752  0.9692 -1.0176
  378TMC3    H2 5712   4.544   1.978  12.447 -1.3251  0.5032  1.0146
  378TMC3    C7 5713   4.624   1.909  12.206  0.3602  0.0302 -0.6003
  378TMC3    C8 5714   4.305   2.065  12.497  0.0461 -0.3056 -0.2772
  378TMC3    O1 5715   4.656   1.848  12.304 -0.1016  0.2110  0.3496
  378TMC3    O2 5716   4.187   2.079  12.489  0.4839  0.3675 -0.5370
  379MPD2     C 5717   4.286   4.450  16.323 -0.4716 -0.3849 -1.0657
  379MPD2    C1 5718   4.382   4.358  16.284 -0.4036  0.8581  0.5215
  379MPD2    C2 5719   4.493   4.344  16.365  0.2281  0.5743  0.4609
  379MPD2    C3 5720   4.514   4.420  16.478  0.2167  0.6963  0.9921
  379MPD2    C4 5721   4.405   4.498  16.522  0.3325 -0.6747  0.1983
  379MPD2    C5 5722   4.300   4.524  16.435 -0.3348  0.5425  0.5315
  379MPD2     H 5723   4.578   4.294  16.320  1.1944  1.5590  1.1971
  379MPD2    H1 5724   4.411   4.563  16.608  1.2169 -0.4932 -0.0035
  379MPD2    H2 5725   4.191   4.458  16.271 -0.4160 -2.3449 -1.4636
  379MPD2    H3 5726   4.223   4.592  16.469  0.1133  0.3484  1.9309
  379MPD2     N 5727   4.629   4.420  16.559  0.0398  0.1056  0.4262
  379MPD2    H5 5728   4.635   4.483  16.638 -1.2805  0.3404  0.3260
  379MPD2    N1 5729   4.366   4.274  16.174 -0.3355 -0.2554 -0.2842
  379MPD2    H7 5730   4.437   4.203  16.161  1.0275  0.8417  1.2112
  380TMC3    C1 5731   4.283   4.202  15.963  0.4695 -0.1864 -0.7067
  380TMC3    C2 5732   4.393   4.123  15.950  0.3356  0.0608 -0.1052
  380TMC3    C3 5733   4.432   4.070  15.834  0.1358 -0.0185 -0.4753
  380TMC3    C4 5734   4.214   4.241  15.850  0.3425  0.3653 -0.1268
  380TMC3    C5 5735   4.270   4.202  15.734  0.0245 -0.7867  0.1600
  380TMC3    C6 5736   4.370   4.114  15.716  0.2342 -0.2226  0.5517
  380TMC3     C 5737   4.260   4.277  16.084 -0.0439 -0.4283  0.5063
  380TMC3     O 5738   4.156   4.341  16.082  0.0526 -0.3216 -0.4783
  380TMC3     H 5739   4.446   4.088  16.038 -1.1570 -0.9618  0.3926
  380TMC3    H1 5740   4.152   4.330  15.860 -1.3551 -0.7845 -0.5172
  380TMC3    H2 5741   4.403   4.085  15.617  0.9337  0.4446  0.5894
  380TMC3    C7 5742   4.215   4.249  15.612 -0.2241 -0.0872 -0.0510
  380TMC3    C8 5743   4.555   3.995  15.821 -0.1498  0.3244 -1.0371
  380TMC3    O1 5744   4.092   4.240  15.607 -0.7866  0.0359  0.1763
  380TMC3    O2 5745   4.562   3.923  15.722 -0.2381  0.1646 -0.5040
  381TMC3    C1 5746   4.180   1.025  16.312  0.2094  0.1051 -0.0211
  381TMC3    C2 5747   4.289   1.064  16.250  0.0266  1.0306  0.4384
  381TMC3    C3 5748   4.399   1.081  16.329 -0.1964  0.4608  0.6607
  381TMC3    C4 5749   4.170   1.003  16.444 -0.4596  0.2024  0.1347
  381TMC3    C5 5750   4.280   1.006  16.520  0.2183 -0.1917 -0.6448
  381TMC3    C6 5751   4.397   1.061  16.466  0.3005 -0.8528  0.1521
  381TMC3     C 5752   4.072   0.965  16.236  0.2366 -0.0290 -0.4511
  381TMC3     O 5753   3.960   0.961  16.285  0.1931  0.2541  0.5454
  381TMC3     H 5754   4.297   1.084  16.144  0.3883  0.4843  0.3631
  381TMC3    H1 5755   4.077   0.968  16.487  0.3675 -0.4519  1.3892
  381TMC3    H2 5756   4.485   1.059  16.530 -0.9421 -0.6567  1.8497
  381TMC3    C7 5757   4.271   1.005  16.662 -0.1863 -0.3671  0.7517
  381TMC3    C8 5758   4.497   1.169  16.284 -0.4086 -0.7733  0.4984
  381TMC3    O1 5759   4.356   0.947  16.727 -0.0416 -0.4098  0.3278
  381TMC3    O2 5760   4.520   1.168  16.165 -0.1274 -0.3185  0.3729
  382MPD2     C 5761   3.403   3.427  16.718  0.2611  0.7017 -0.1069
  382MPD2    C1 5762   3.437   3.410  16.851 -0.0048  1.0797 -0.1309
  382MPD2    C2 5763   3.468   3.282  16.898 -0.2085  0.5291  0.6113
  382MPD2    C3 5764   3.447   3.175  16.817 -0.4580  0.0282 -0.0454
  382MPD2    C4 5765   3.417   3.194  16.685 -0.3479 -0.1743  0.1331
  382MPD2    C5 5766   3.395   3.318  16.634  0.1418 -0.4913 -0.0004
  382MPD2     H 5767   3.488   3.271  17.004 -3.8430 -1.1379  1.1323
  382MPD2    H1 5768   3.415   3.110  16.617 -1.2401 -0.1184  0.0805
  382MPD2    H2 5769   3.384   3.523  16.670  1.7884  1.3477  0.5672
  382MPD2    H3 5770   3.371   3.334  16.529  0.0322  1.5693  0.3332
  382MPD2     N 5771   3.479   3.042  16.853 -0.1468 -0.1756 -0.4419
  382MPD2    H5 5772   3.495   2.976  16.777 -4.3497 -1.3752 -0.2792
  382MPD2    N1 5773   3.440   3.523  16.938 -0.0494 -0.2139 -0.6666
  382MPD2    H7 5774   3.476   3.520  17.033 -1.7111 -0.7561 -0.0534
  383TMC3    C1 5775   3.533   2.847  16.980  0.2167  0.5455 -0.4656
  383TMC3    C2 5776   3.432   2.764  16.935  0.3077 -0.3249 -0.1652
  383TMC3    C3 5777   3.408   2.652  17.013  0.1893  0.1673  0.2364
  383TMC3    C4 5778   3.619   2.812  17.077 -0.7362  0.1633  0.2013
  383TMC3    C5 5779   3.603   2.694  17.140  0.4396  1.2494 -0.2147
  383TMC3    C6 5780   3.499   2.614  17.112  0.4597  0.4066  0.7496
  383TMC3     C 5781   3.506   2.992  16.980  0.1421 -0.2114 -0.5338
  383TMC3     O 5782   3.522   3.049  17.089  0.1133 -0.0738 -0.4971
  383TMC3     H 5783   3.361   2.802  16.863 -0.7379  0.4020  1.2506
  383TMC3    H1 5784   3.691   2.888  17.105  0.5588 -0.1744 -2.2553
  383TMC3    H2 5785   3.484   2.541  17.191 -0.8705 -0.0269  0.0901
  383TMC3    C7 5786   3.656   2.680  17.272 -0.5649  0.2486  0.3211
  383TMC3    C8 5787   3.282   2.584  16.996  0.2534  0.1169  0.5893
  383TMC3    O1 5788   3.719   2.581  17.297 -0.1206 -0.1759 -0.2768
  383TMC3    O2 5789   3.211   2.615  16.901 -0.0355 -0.1618  0.1096
  384MPD2     C 5790   0.163   4.361  12.428 -0.3608  0.3625  0.0576
  384MPD2    C1 5791   0.235   4.243  12.422 -0.2656 -0.3417  0.3381
  384MPD2    C2 5792   0.335   4.233  12.328 -0.4877  0.2328 -0.4365
  384MPD2    C3 5793   0.369   4.344  12.248  0.6819  0.4957 -0.0637
  384MPD2    C4 5794   0.302   4.462  12.260 -1.0240  0.3345  0.5345
  384MPD2    C5 5795   0.202   4.463  12.349  0.9551 -0.1823  0.0569
  384MPD2     H 5796   0.395   4.143  12.319  0.1786  0.5391  0.9936
  384MPD2    H1 5797   0.340   4.553  12.216  1.3161 -1.2881 -0.7912
  384MPD2    H2 5798   0.077   4.369  12.494  0.0110  1.3312  0.4249
  384MPD2    H3 5799   0.149   4.557  12.361  2.9181  1.2762 -2.7600
  384MPD2     N 5800   0.489   4.353  12.178 -0.6471 -0.3058  0.4203
  384MPD2    H5 5801   0.509   4.450  12.155 -0.9536  0.4190  3.1968
  384MPD2    N1 5802   0.205   4.147  12.519  0.1146 -0.2625  0.4796
  384MPD2    H7 5803   0.128   4.164  12.583  0.4244  1.4919  0.3820
  385TMC3    C1 5804   0.700   4.272  12.134  0.4406  1.1550  0.1196
  385TMC3    C2 5805   0.776   4.211  12.041  0.4684  0.5487  0.4924
  385TMC3    C3 5806   0.908   4.189  12.073 -0.2864 -1.0921  0.1296
  385TMC3    C4 5807   0.745   4.287  12.264 -0.2887 -0.1843 -0.1283
  385TMC3    C5 5808   0.875   4.256  12.296  0.2570 -0.0093  0.5697
  385TMC3    C6 5809   0.958   4.209  12.196  0.4802 -0.5217  0.5503
  385TMC3     C 5810   0.558   4.246  12.129  0.6985 -0.0230 -0.1103
  385TMC3     O 5811   0.530   4.129  12.113  0.4573 -0.6187 -0.1218
  385TMC3     H 5812   0.742   4.202  11.938 -0.3526  0.9697  0.7313
  385TMC3    H1 5813   0.671   4.303  12.341  0.9790  1.6247  0.7286
  385TMC3    H2 5814   1.064   4.199  12.217  1.0506  0.6906 -1.8206
  385TMC3    C7 5815   0.888   4.231  12.446 -0.7365  0.2475  0.2392
  385TMC3    C8 5816   0.995   4.114  11.983 -0.0131 -0.2330  0.5996
  385TMC3    O1 5817   0.827   4.316  12.510  0.0141 -0.5037 -0.0178
  385TMC3    O2 5818   1.117   4.127  11.995  0.5280  0.1734  0.4192
  386TMC3    C1 5819   0.947   1.433  11.936 -0.2060 -0.5804 -0.0767
  386TMC3    C2 5820   0.895   1.485  11.818  0.6130  0.0562  0.3853
  386TMC3    C3 5821   0.763   1.473  11.795  0.0257  0.2070 -0.7207
  386TMC3    C4 5822   0.858   1.403  12.033  0.1163  0.6620  0.3061
  386TMC3    C5 5823   0.720   1.399  12.011 -0.2376  0.8649 -0.3196
  386TMC3    C6 5824   0.672   1.420  11.883 -0.5853  0.0194  0.2594
  386TMC3     C 5825   1.065   1.482  11.987 -0.1835  0.0746  0.1570
  386TMC3     O 5826   1.111   1.584  11.941 -0.2504 -0.2689  0.0001
  386TMC3     H 5827   0.961   1.536  11.748  0.7854  0.5931  0.9395
  386TMC3    H1 5828   0.888   1.401  12.138 -0.5897 -1.1532  0.4684
  386TMC3    H2 5829   0.567   1.436  11.866 -0.3168  0.5002 -0.8981
  386TMC3    C7 5830   0.624   1.378  12.121  0.1465 -0.2442 -0.3441
  386TMC3    C8 5831   0.715   1.536  11.675 -0.1251  0.3588  0.5231
  386TMC3    O1 5832   0.505   1.410  12.102 -0.1728  0.1628  0.1476
  386TMC3    O2 5833   0.603   1.589  11.674 -0.0264 -0.0926 -0.5685
  387MPD2     C 5834   2.873   2.096   9.943  1.0634 -0.3874 -0.4807
  387MPD2    C1 5835   2.923   2.087  10.074  0.3144  0.3651  0.1997
  387MPD2    C2 5836   2.934   1.970  10.136  0.2139  0.0761 -0.7146
  387MPD2    C3 5837   2.914   1.852  10.061  0.8593  0.9203  0.4791
  387MPD2    C4 5838   2.859   1.862   9.934 -0.0343 -0.2603 -0.4494
  387MPD2    C5 5839   2.840   1.981   9.875  0.0789  0.2100  0.1994
  387MPD2     H 5840   2.986   1.963  10.230  0.1145 -0.3835 -0.6958
  387MPD2    H1 5841   2.828   1.777   9.874 -0.3652  0.1619 -0.8764
  387MPD2    H2 5842   2.874   2.185   9.880  1.4761  0.6528  1.0017
  387MPD2    H3 5843   2.792   1.972   9.778 -2.0493  3.3333  0.9473
  387MPD2     N 5844   2.946   1.729  10.122  0.5877 -0.3679  0.4860
  387MPD2    H5 5845   2.971   1.736  10.220  3.0760  0.2549 -0.1888
  387MPD2    N1 5846   2.985   2.192  10.141 -0.2099  0.0693  0.5354
  387MPD2    H7 5847   3.007   2.172  10.238  1.6122 -0.0545  0.0995
  388TMC3    C1 5848   3.113   2.383  10.168  0.7098  0.2515  0.2100
  388TMC3    C2 5849   3.141   2.515  10.113 -0.0654  0.1218 -0.4127
  388TMC3    C3 5850   3.275   2.556  10.129 -0.1566  0.3745 -0.5162
  388TMC3    C4 5851   3.214   2.311  10.226  0.0337 -0.6362  0.1400
  388TMC3    C5 5852   3.341   2.362  10.239 -0.1326  0.0564 -0.3329
  388TMC3    C6 5853   3.371   2.491  10.201 -0.0389 -0.1831  0.1550
  388TMC3     C 5854   3.014   2.313  10.088 -0.5480  0.3827  0.5259
  388TMC3     O 5855   2.960   2.372   9.994  0.4216 -0.2930  0.3158
  388TMC3     H 5856   3.059   2.579  10.082  1.4173  1.1201 -2.2680
  388TMC3    H1 5857   3.186   2.211  10.259  1.3438 -1.4409 -1.1832
  388TMC3    H2 5858   3.465   2.537  10.229 -0.0850  0.1872 -0.3060
  388TMC3    C7 5859   3.454   2.293  10.297 -0.2409  0.1874 -0.1270
  388TMC3    C8 5860   3.305   2.693  10.086  0.3715 -0.6709  0.1881
  388TMC3    O1 5861   3.568   2.322  10.262 -0.4248 -0.2446  0.0473
  388TMC3    O2 5862   3.404   2.751  10.133  0.4158  0.3150  0.1370
  389MPD2     C 5863   2.581   0.007  10.885  0.3270 -0.6728  0.1429
  389MPD2    C1 5864   2.465   4.681  10.840  0.8380  0.1052  0.0972
  389MPD2    C2 5865   2.417   4.579  10.924  0.0301 -0.4049  0.4480
  389MPD2    C3 5866   2.474   4.547  11.046 -0.2726  0.6164 -0.0925
  389MPD2    C4 5867   2.588   4.621  11.091  0.2944  0.2220  0.1217
  389MPD2    C5 5868   2.636   4.718  11.003 -0.3018 -0.4740 -0.3726
  389MPD2     H 5869   2.327   4.528  10.891  0.0603  0.8193 -1.5088
  389MPD2    H1 5870   2.637   4.599  11.185  0.4822  0.9367  0.1858
  389MPD2    H2 5871   2.617   0.087  10.821  0.9875 -1.2630 -0.2108
  389MPD2    H3 5872   2.728   0.025  11.037 -0.5739  0.3602 -0.7530
  389MPD2     N 5873   2.421   4.445  11.132 -0.5495 -0.2720 -0.5109
  389MPD2    H5 5874   2.455   4.448  11.227 -1.5509  0.0251 -0.1561
  389MPD2    N1 5875   2.422   4.720  10.713  0.3047  0.1675 -0.0169
  389MPD2    H7 5876   2.472   0.056  10.664  1.8603 -1.6689 -1.1835
  390TMC3    C1 5877   2.276   4.273  11.199  0.2427 -0.1156  1.3551
  390TMC3    C2 5878   2.224   4.153  11.172 -1.0712 -0.4689 -0.2975
  390TMC3    C3 5879   2.151   4.092  11.269 -0.5077  0.1927 -0.2762
  390TMC3    C4 5880   2.260   4.333  11.324  0.2763  0.2207 -0.2415
  390TMC3    C5 5881   2.177   4.271  11.420  0.1099 -0.6176  0.5991
  390TMC3    C6 5882   2.119   4.146  11.393 -1.0100 -0.0768 -0.0487
  390TMC3     C 5883   2.327   4.351  11.090 -0.2657 -0.2893 -0.0765
  390TMC3     O 5884   2.295   4.318  10.975 -0.6504  0.0222 -0.5942
  390TMC3     H 5885   2.224   4.122  11.069 -1.0931  1.1443 -0.7916
  390TMC3    H1 5886   2.297   4.435  11.338  1.2819 -0.3204  1.1052
  390TMC3    H2 5887   2.049   4.100  11.462 -1.7392  0.9101 -0.1397
  390TMC3    C7 5888   2.139   4.360  11.528 -0.2613  0.5400  0.1778
  390TMC3    C8 5889   2.109   3.962  11.234 -0.3196  0.0720 -0.2576
  390TMC3    O1 5890   2.158   4.482  11.523  0.2465 -0.1341  0.2473
  390TMC3    O2 5891   2.144   3.909  11.131 -0.4985 -0.3543 -0.6277
  391MPD2     C 5892   2.114   1.336  10.780  0.2829  0.2826  0.2992
  391MPD2    C1 5893   2.134   1.476  10.783 -0.1562 -0.3573  0.7056
  391MPD2    C2 5894   2.120   1.550  10.663  0.3112 -0.2321  0.3912
  391MPD2    C3 5895   2.077   1.488  10.546 -0.0619  0.1160 -0.6099
  391MPD2    C4 5896   2.065   1.352  10.543  0.1366  0.0501 -0.1895
  391MPD2    C5 5897   2.083   1.280  10.653 -0.4979  0.1098  0.4329
  391MPD2     H 5898   2.140   1.656  10.658 -0.0932 -0.1841 -0.4000
  391MPD2    H1 5899   2.052   1.299  10.449  2.4042 -0.4451 -0.2251
  391MPD2    H2 5900   2.130   1.278  10.870 -3.2502  0.6148  1.1671
  391MPD2    H3 5901   2.086   1.172  10.652  1.3925  0.1646  0.7514
  391MPD2     N 5902   2.061   1.563  10.420  0.2603  0.6148 -0.0335
  391MPD2    H5 5903   2.084   1.661  10.424 -0.1428  0.7198 -0.2552
  391MPD2    N1 5904   2.166   1.533  10.906 -0.4087  0.1756 -0.8870
  391MPD2    H7 5905   2.169   1.467  10.984  0.7443  0.7423 -0.4380
  392TMC3    C1 5906   1.975   1.620  10.209 -0.2412  0.1979  0.0416
  392TMC3    C2 5907   1.860   1.631  10.131 -0.3160 -0.0553 -0.1194
  392TMC3    C3 5908   1.831   1.749  10.063  0.7652 -0.6595 -0.0772
  392TMC3    C4 5909   2.065   1.723  10.195 -0.2246 -0.4623  0.8616
  392TMC3    C5 5910   2.021   1.840  10.147 -0.3240  0.6833  0.1350
  392TMC3    C6 5911   1.910   1.859  10.071  0.4561  0.1673 -0.2450
  392TMC3     C 5912   1.999   1.515  10.300 -1.0022  0.5748  0.2325
  392TMC3     O 5913   1.947   1.408  10.272 -0.2679 -0.2915 -0.2081
  392TMC3     H 5914   1.793   1.546  10.128  0.4414 -0.7020  1.6468
  392TMC3    H1 5915   2.169   1.710  10.222  0.5968  0.5563 -1.8102
  392TMC3    H2 5916   1.876   1.952  10.026 -0.3670 -0.0656 -0.1032
  392TMC3    C7 5917   2.108   1.950  10.166 -0.2616 -0.1272  0.0154
  392TMC3    C8 5918   1.696   1.747  10.006  0.3908  0.0720 -0.4303
  392TMC3    O1 5919   2.194   1.941  10.251 -0.4472 -0.0117  0.3415
  392TMC3    O2 5920   1.625   1.650  10.029  0.6033  0.1244 -0.1075
  393TMC3    C1 5921   0.322   4.372  10.458 -0.0749  0.5634 -0.1393
  393TMC3    C2 5922   0.202   4.373  10.518  1.2509 -0.8038 -0.3194
  393TMC3    C3 5923   0.160   4.260  10.585  0.6918 -0.8673  0.1030
  393TMC3    C4 5924   0.394   4.258  10.453 -0.5170  0.2573 -0.1743
  393TMC3    C5 5925   0.339   4.140  10.514 -0.2996  0.1761 -0.1754
  393TMC3    C6 5926   0.228   4.145  10.590  0.8970 -0.5187  0.1890
  393TMC3     C 5927   0.368   4.485  10.385 -0.6254 -0.3955  0.2328
  393TMC3     O 5928   0.283   4.566  10.352 -0.0413  0.4466 -0.3058
  393TMC3     H 5929   0.147   4.466  10.525 -0.2390 -1.8567  2.0682
  393TMC3    H1 5930   0.474   4.247  10.382 -0.1043  0.2382  0.2936
  393TMC3    H2 5931   0.200   4.062  10.655 -1.8130  0.3618  0.1476
  393TMC3    C7 5932   0.399   4.010  10.497  0.2287  0.0810  0.5238
  393TMC3    C8 5933   0.078   4.281  10.703  0.1523 -0.0102 -0.3384
  393TMC3    O1 5934   0.322   3.918  10.483 -0.2058  0.2456 -0.1283
  393TMC3    O2 5935   0.038   4.176  10.758  0.0464  0.0513  0.4566
  394TMC3    C1 5936   2.274   4.736  10.530 -0.1619  0.5919 -0.5749
  394TMC3    C2 5937   2.160   4.694  10.467  0.2010  0.1222 -0.1641
  394TMC3    C3 5938   2.126   0.011  10.350  0.8132  0.0756 -0.0751
  394TMC3    C4 5939   2.369   0.052  10.450  0.3507 -0.3697  0.0797
  394TMC3    C5 5940   2.339   0.094  10.325  0.3376 -0.4603  0.0033
  394TMC3    C6 5941   2.211   0.088  10.277 -0.2280  0.2515 -0.6611
  394TMC3     C 5942   2.302   4.683  10.658  0.6025 -0.2380  1.1093
  394TMC3     O 5943   2.225   4.599  10.697  0.1972 -0.1431  0.4932
  394TMC3     H 5944   2.074   4.654  10.521  0.3258 -1.5974 -1.2578
  394TMC3    H1 5945   2.470   0.073  10.484 -0.1670 -1.4179  2.2035
  394TMC3    H2 5946   2.178   0.132  10.183  2.1643 -1.2454 -2.1860
  394TMC3    C7 5947   2.439   0.160  10.250  0.2194 -0.3682 -0.2549
  394TMC3    C8 5948   2.010   4.695  10.288 -0.6163 -0.0255  0.0087
  394TMC3    O1 5949   2.398   0.253  10.175  0.5076  0.0080  0.0430
  394TMC3    O2 5950   1.939   0.035  10.225 -0.2702 -0.3081  0.6951
  395TMC3    C1 5951   2.095   1.907  15.084  0.0551  0.0274  0.1990
  395TMC3    C2 5952   2.000   1.940  14.992 -0.0949  0.3405  0.4037
  395TMC3    C3 5953   2.031   1.971  14.865  0.3570  0.0454  0.5766
  395TMC3    C4 5954   2.229   1.937  15.061  0.6767  0.2449 -0.1811
  395TMC3    C5 5955   2.261   1.982  14.938 -0.2694  0.6371 -0.0767
  395TMC3    C6 5956   2.165   1.980  14.837 -0.0750 -0.5939  0.4765
  395TMC3     C 5957   2.056   1.922  15.218  0.2148 -0.1822 -0.4687
  395TMC3     O 5958   1.955   1.987  15.234  0.1243 -0.0903  0.2060
  395TMC3     H 5959   1.896   1.919  15.017  0.9236 -2.5541  2.1010
  395TMC3    H1 5960   2.307   1.938  15.136 -0.1593 -2.9142  0.7238
  395TMC3    H2 5961   2.185   2.011  14.735 -0.7825 -2.3794 -0.2020
  395TMC3    C7 5962   2.363   2.085  14.930 -0.3768  0.1845  1.1667
  395TMC3    C8 5963   1.931   1.980  14.763  0.6665 -0.3543 -0.1290
  395TMC3    O1 5964   2.385   2.158  15.029 -0.2893 -0.4155  0.1651
  395TMC3    O2 5965   1.965   2.014  14.650 -0.6441 -0.2487  0.4119
  396MPD2     C 5966   1.421   2.954  16.845  0.5012 -0.0067 -0.2502
  396MPD2    C1 5967   1.559   2.945  16.862 -0.5387  0.2841 -0.4639
  396MPD2    C2 5968   1.641   3.032  16.796  0.0276  0.2122  0.4104
  396MPD2    C3 5969   1.593   3.132  16.714 -0.2874  0.0537  0.1467
  396MPD2    C4 5970   1.453   3.140  16.697 -0.3474 -0.0958  0.0955
  396MPD2    C5 5971   1.371   3.042  16.754 -0.3608 -0.0081 -0.6179
  396MPD2     H 5972   1.745   3.039  16.823  0.2317 -1.6213  0.1037
  396MPD2    H1 5973   1.406   3.212  16.631  1.0584  0.2746 -0.5094
  396MPD2    H2 5974   1.349   2.895  16.899  0.3173  0.1638 -0.3095
  396MPD2    H3 5975   1.265   3.062  16.742 -0.5664 -0.7952 -0.1405
  396MPD2     N 5976   1.673   3.226  16.646  0.6477  0.5891  0.3887
  396MPD2    H5 5977   1.772   3.223  16.665  0.4123 -1.7733  1.2237
  396MPD2    N1 5978   1.601   2.866  16.966  0.2120  0.2523  0.6173
  396MPD2    H7 5979   1.526   2.834  17.026 -0.9372  1.8468  0.0211
  397TMC3    C1 5980   1.727   2.784  17.133  0.6569 -0.2794  0.5995
  397TMC3    C2 5981   1.811   2.674  17.138  0.1443 -0.1572  0.3252
  397TMC3    C3 5982   1.744   2.547  17.151 -0.2879  0.1396 -1.0227
  397TMC3    C4 5983   1.601   2.775  17.195 -0.3803 -0.0497  0.4597
  397TMC3    C5 5984   1.546   2.654  17.227 -0.1822 -0.4775  0.9256
  397TMC3    C6 5985   1.615   2.539  17.202  0.7857  0.3557 -0.4722
  397TMC3     C 5986   1.730   2.846  16.999 -0.2349 -0.4606 -0.5005
  397TMC3     O 5987   1.839   2.851  16.942 -0.1408  0.1169 -0.4192
  397TMC3     H 5988   1.901   2.688  17.080  0.4607 -0.2850  0.7787
  397TMC3    H1 5989   1.548   2.867  17.213 -1.2485  0.0051 -2.4315
  397TMC3    H2 5990   1.569   2.446  17.233  1.5528 -0.5813 -2.1541
  397TMC3    C7 5991   1.432   2.652  17.313  0.1212 -0.3055  0.2982
  397TMC3    C8 5992   1.759   2.463  17.032  0.5044 -1.0112  0.4198
  397TMC3    O1 5993   1.353   2.748  17.318  0.3005 -0.1937  0.4266
  397TMC3    O2 5994   1.862   2.472  16.973 -1.1783  0.3361 -0.1695
  398MPD2     C 5995   4.680   0.040   0.145  0.1553 -0.4954 -0.6837
  398MPD2    C1 5996   0.016   4.671   0.192 -0.8183 -0.1319  0.1571
  398MPD2    C2 5997   0.142   4.674   0.248 -0.6805 -0.5767 -0.2365
  398MPD2    C3 5998   0.195   0.058   0.272  0.4424  0.4213 -0.0215
  398MPD2    C4 5999   0.127   0.178   0.232  0.8133 -0.1871  0.3027
  398MPD2    C5 6000   4.737   0.167   0.171 -0.7257 -0.3860 -0.0300
  398MPD2     H 6001   0.193   4.587   0.287  1.7680 -0.1002 -2.3385
  398MPD2    H1 6002   0.174   0.276   0.228 -1.4382  0.8964  0.9341
  398MPD2    H2 6003   4.582   0.029   0.101 -0.1653  0.4380 -0.1891
  398MPD2    H3 6004   4.689   0.259   0.142 -0.6258  0.6346  3.0280
  398MPD2     N 6005   0.326   0.063   0.320  0.1161  0.5266  0.0761
  398MPD2    H5 6006   0.376   4.712   0.324 -2.7379 -1.1222 -1.2769
  398MPD2    N1 6007   4.701   4.538   0.178  0.4835  0.3487  0.1326
  398MPD2    H7 6008   0.028   4.464   0.204  1.0283  1.0317  0.7094
  399TMC3    C1 6009   4.569   4.355   0.143  0.0516 -0.1923  0.1075
  399TMC3    C2 6010   4.605   4.311   0.271  0.4396 -0.5237  0.4359
  399TMC3    C3 6011   4.600   4.179   0.299 -0.5072  0.0673 -0.5613
  399TMC3    C4 6012   4.516   4.276   0.048 -0.3449  1.0050 -0.0285
  399TMC3    C5 6013   4.500   4.145   0.098  0.5027 -0.3245 -0.2347
  399TMC3    C6 6014   4.550   4.088   0.216 -0.5176 -0.4827 -0.1880
  399TMC3     C 6015   4.586   4.496   0.118  0.6858  0.1287 -1.1218
  399TMC3     O 6016   4.502   4.553   0.051 -0.5157 -0.3410  0.3662
  399TMC3     H 6017   4.642   4.380   0.346  1.8738  0.4566 -1.1656
  399TMC3    H1 6018   4.477   4.313  17.705  1.5476  0.9362 -0.8494
  399TMC3    H2 6019   4.545   3.981   0.229 -0.7205 -0.2064  1.9382
  399TMC3    C7 6020   4.412   4.055   0.022  0.1756  0.0058 -0.2037
  399TMC3    C8 6021   4.689   4.138   0.409  0.1845 -0.5809  0.6068
  399TMC3    O1 6022   4.369   3.961   0.084 -0.2650 -0.0036 -0.0221
  399TMC3    O2 6023   4.731   4.225   0.482  0.0181 -0.0621 -0.6508
  400TMC3    C1 6024   3.134   2.292  16.756  0.2375  0.4662 -0.1618
  400TMC3    C2 6025   3.025   2.209  16.765  0.0926  0.1280 -0.4930
  400TMC3    C3 6026   2.916   2.239  16.684 -0.5567  0.4127 -0.3335
  400TMC3    C4 6027   3.121   2.418  16.698  0.2963 -0.0180 -0.0344
  400TMC3    C5 6028   3.000   2.444  16.638  0.6569 -0.6299 -0.0591
  400TMC3    C6 6029   2.898   2.353  16.620 -0.4186 -0.2185  0.7964
  400TMC3     C 6030   3.248   2.247  16.834  0.1409 -0.1649 -0.1402
  400TMC3     O 6031   3.239   2.141  16.891  0.0244  0.2361 -0.2333
  400TMC3     H 6032   3.037   2.108  16.802 -0.3775  0.9311  1.8543
  400TMC3    H1 6033   3.200   2.491  16.687  0.5823 -0.1586  1.1039
  400TMC3    H2 6034   2.804   2.386  16.578 -0.4484 -0.0603  0.9853
  400TMC3    C7 6035   2.971   2.585  16.614  0.1118  0.2178 -0.2550
  400TMC3    C8 6036   2.798   2.154  16.703 -0.4424  0.0374 -0.5623
  400TMC3    O1 6037   2.883   2.606  16.531  0.1049 -0.0527 -0.0497
  400TMC3    O2 6038   2.787   2.093  16.807  0.1577  0.0831  0.1780
  401MPD2     C 6039   1.806   1.573   1.007 -0.1725  1.3628  0.6393
  401MPD2    C1 6040   1.832   1.439   1.050 -0.4280  0.1986  0.6453
  401MPD2    C2 6041   1.731   1.343   1.019 -0.7206  0.0721  0.1469
  401MPD2    C3 6042   1.614   1.374   0.947  0.1808 -0.2375  0.4338
  401MPD2    C4 6043   1.596   1.506   0.905 -0.0374  0.7786  0.1443
  401MPD2    C5 6044   1.688   1.598   0.938 -0.1293  0.2007 -0.2451
  401MPD2     H 6045   1.734   1.244   1.063 -1.3081 -0.4139 -0.9249
  401MPD2    H1 6046   1.516   1.548   0.846 -2.3784 -0.9062  2.1307
  401MPD2    H2 6047   1.869   1.658   1.033 -0.3114  1.4799  0.5941
  401MPD2    H3 6048   1.672   1.697   0.897 -1.1250 -0.0989 -0.5809
  401MPD2     N 6049   1.541   1.258   0.913 -0.5333  0.2706 -0.3722
  401MPD2    H5 6050   1.583   1.169   0.939  1.4586  1.3801  0.1417
  401MPD2    N1 6051   1.949   1.398   1.124 -0.7950 -0.2111 -0.1128
  401MPD2    H7 6052   1.957   1.299   1.147  2.9920  0.1645  0.2278
  402TMC3    C1 6053   1.362   1.128   0.825 -0.5668 -1.0929  0.5264
  402TMC3    C2 6054   1.390   1.018   0.909  0.1256  0.3946  0.6420
  402TMC3    C3 6055   1.308   0.902   0.901  0.5353 -0.0899 -0.1737
  402TMC3    C4 6056   1.272   1.116   0.728 -0.2483  0.4732 -0.3289
  402TMC3    C5 6057   1.211   0.995   0.704 -0.2255  0.5461 -0.6636
  402TMC3    C6 6058   1.229   0.887   0.789  0.4223 -1.1449  0.1844
  402TMC3     C 6059   1.431   1.258   0.832  0.5698 -0.1222 -0.2839
  402TMC3     O 6060   1.384   1.358   0.775 -0.1319 -0.2682  0.0371
  402TMC3     H 6061   1.451   1.021   0.998  1.5016 -0.7358 -0.2653
  402TMC3    H1 6062   1.272   1.191   0.650 -0.4767  1.4622  0.6192
  402TMC3    H2 6063   1.175   0.795   0.770 -0.8106 -1.0201  3.0593
  402TMC3    C7 6064   1.170   0.971   0.572  0.1323  0.4940  0.4437
  402TMC3    C8 6065   1.345   0.785   0.982  0.2089 -0.9161  0.1395
  402TMC3    O1 6066   1.145   1.068   0.501 -0.2404  0.4222  0.4374
  402TMC3    O2 6067   1.456   0.772   1.030  1.4302  0.2708 -0.6855
  403MPD2     C 6068   4.677   3.968  13.595  0.9411 -0.2722  0.4491
  403MPD2    C1 6069   4.582   3.959  13.694  0.0098  0.5005  0.0075
  403MPD2    C2 6070   4.625   3.903  13.815 -0.8613  0.2550 -0.4176
  403MPD2    C3 6071   0.018   3.859  13.830  0.1516 -0.0026 -0.0457
  403MPD2    C4 6072   0.112   3.878  13.734  0.5571  0.4462 -0.0648
  403MPD2    C5 6073   0.068   3.933  13.614 -0.0136 -0.0218 -0.4566
  403MPD2     H 6074   4.560   3.899  13.902 -0.3258  0.7457  0.0124
  403MPD2    H1 6075   0.215   3.844  13.739  0.0024 -0.7168  3.0251
  403MPD2    H2 6076   4.645   4.008  13.500 -1.7623  2.1900  2.3915
  403MPD2    H3 6077   0.147   3.941  13.539  0.9651 -1.3015  0.4375
  403MPD2     N 6078   0.055   3.799  13.954 -0.4050 -0.1371  0.0388
  403MPD2    H5 6079   4.730   3.800  14.033 -0.9948 -0.1145 -0.4333
  403MPD2    N1 6080   4.451   4.016  13.673 -0.2730 -0.2837 -0.2410
  403MPD2    H7 6081   4.429   4.059  13.584 -1.0551 -0.9623 -0.3776
  404TMC3    C1 6082   4.238   3.909  13.626 -0.0993  0.0715  0.1387
  404TMC3    C2 6083   4.185   3.795  13.674 -0.2088 -0.0568 -0.3231
  404TMC3    C3 6084   4.218   3.681  13.605 -1.2884 -0.2895  0.4399
  404TMC3    C4 6085   4.282   3.924  13.501  0.5732 -0.7524  0.1088
  404TMC3    C5 6086   4.287   3.811  13.418  0.7190 -0.1593  0.6249
  404TMC3    C6 6087   4.266   3.684  13.474  0.0302 -0.0864 -0.2618
  404TMC3     C 6088   4.332   3.960  13.727 -0.4108 -0.2313  0.1327
  404TMC3     O 6089   4.321   3.922  13.843  0.3447 -0.1906  0.2636
  404TMC3     H 6090   4.138   3.795  13.771 -1.4864  0.3627 -0.9506
  404TMC3    H1 6091   4.317   4.018  13.460 -1.5758 -0.8963 -2.0864
  404TMC3    H2 6092   4.262   3.597  13.410  3.0612 -0.4339  0.0186
  404TMC3    C7 6093   4.382   3.822  13.303  0.7323  0.3529  0.7176
  404TMC3    C8 6094   4.248   3.565  13.689  0.2092  0.2945  0.1877
  404TMC3    O1 6095   4.486   3.767  13.324  0.0871  0.0692 -0.2808
  404TMC3    O2 6096   4.233   3.455  13.639  0.0294  0.1712 -0.9242
  405MPD2     C 6097   0.694   4.638  15.631  0.0676 -0.1220  0.2439
  405MPD2    C1 6098   0.564   4.598  15.668  0.0703 -0.0573 -0.2555
  405MPD2    C2 6099   0.459   4.687  15.664 -0.8810  0.4985  0.2651
  405MPD2    C3 6100   0.470   0.073  15.611  0.0311  0.6508  0.3229
  405MPD2    C4 6101   0.598   0.109  15.578 -1.1030 -0.2591  0.7851
  405MPD2    C5 6102   0.708   0.028  15.600  0.0497  0.1751  0.1829
  405MPD2     H 6103   0.358   4.669  15.700 -1.5805  2.5454 -0.6761
  405MPD2    H1 6104   0.616   0.207  15.536 -1.0262 -0.7418 -0.2870
  405MPD2    H2 6105   0.784   4.579  15.625 -0.7465 -1.1374 -1.8926
  405MPD2    H3 6106   0.805   0.070  15.579 -0.3530  0.3483 -1.3265
  405MPD2     N 6107   0.352   0.147  15.604 -0.1480 -0.0543  0.3147
  405MPD2    H5 6108   0.270   0.102  15.643  0.1219  1.7528  2.9772
  405MPD2    N1 6109   0.555   4.469  15.721  0.2756  0.5621 -0.2989
  405MPD2    H7 6110   0.636   4.410  15.706 -0.2495 -0.4470  0.9150
  406TMC3    C1 6111   0.037   0.316  15.313 -0.4659  0.5593  0.1753
  406TMC3    C2 6112   4.678   0.235  15.369 -0.4289 -0.6807  0.2511
  406TMC3    C3 6113   4.706   0.160  15.481  0.5350  0.3676 -0.2114
  406TMC3    C4 6114   0.169   0.315  15.360 -0.1288 -0.0716 -0.0034
  406TMC3    C5 6115   0.186   0.261  15.487 -0.0944 -0.5870  0.0186
  406TMC3    C6 6116   0.090   0.181  15.540  0.1912 -0.7507 -0.7392
  406TMC3     C 6117   0.020   0.366  15.177 -0.0746  0.2252  0.4736
  406TMC3     O 6118   0.122   0.413  15.123  0.4348  0.1070 -0.2661
  406TMC3     H 6119   4.583   0.220  15.318  0.0594  0.3916 -0.9682
  406TMC3    H1 6120   0.244   0.373  15.307 -1.6174  0.1934 -1.8192
  406TMC3    H2 6121   0.101   0.145  15.642  1.1295  0.2722 -0.4666
  406TMC3    C7 6122   0.329   0.249  15.521 -0.5324  0.7872  0.0318
  406TMC3    C8 6123   4.675   0.021  15.453  0.5859 -0.4668  0.5030
  406TMC3    O1 6124   0.407   0.289  15.435  0.1217  0.0826  0.1761
  406TMC3    O2 6125   4.579   0.007  15.376 -0.0548 -0.5059 -0.1652
  407MPD2     C 6126   2.598   1.379   9.653 -0.8683 -0.2825 -0.5251
  407MPD2    C1 6127   2.682   1.426   9.752 -0.7251 -0.3291 -0.3234
  407MPD2    C2 6128   2.626   1.500   9.857  0.2316  0.2114 -0.5605
  407MPD2    C3 6129   2.490   1.510   9.869  0.2880 -0.2529  0.4644
  407MPD2    C4 6130   2.411   1.475   9.760  0.5798 -0.3092 -0.2056
  407MPD2    C5 6131   2.461   1.396   9.662 -0.0752  0.2325 -0.4981
  407MPD2     H 6132   2.690   1.545   9.932 -0.4473 -0.8506  0.6536
  407MPD2    H1 6133   2.303   1.489   9.757  0.9757  2.6071 -1.0095
  407MPD2    H2 6134   2.628   1.317   9.568  0.8247 -2.6443  1.8034
  407MPD2    H3 6135   2.399   1.356   9.584 -0.8540 -1.0139  0.7585
  407MPD2     N 6136   2.442   1.598   9.964 -0.0051 -0.1229  0.5281
  407MPD2    H5 6137   2.351   1.636   9.941 -0.7028 -0.1777  3.1815
  407MPD2    N1 6138   2.818   1.420   9.743 -0.1640  0.0790 -0.3562
  407MPD2    H7 6139   2.873   1.468   9.813 -1.2045 -1.5628  1.5761
  408TMC3    C1 6140   3.035   1.348   9.687  0.8961 -0.8453  0.3722
  408TMC3    C2 6141   3.112   1.245   9.671  0.3978 -0.2617  0.1635
  408TMC3    C3 6142   3.244   1.246   9.704  0.3452  0.2065  0.0095
  408TMC3    C4 6143   3.088   1.463   9.742 -0.6058 -0.2282 -0.2046
  408TMC3    C5 6144   3.221   1.461   9.772 -0.2189  0.2244  0.5551
  408TMC3    C6 6145   3.305   1.359   9.753 -0.0293 -0.3135  0.0618
  408TMC3     C 6146   2.890   1.330   9.670 -0.1057  1.1387 -0.6709
  408TMC3     O 6147   2.850   1.240   9.595  0.3322 -0.3907 -0.1894
  408TMC3     H 6148   3.072   1.157   9.621 -1.3524 -0.7305  2.3875
  408TMC3    H1 6149   3.031   1.555   9.744 -0.5518 -0.1998  0.0283
  408TMC3    H2 6150   3.401   1.360   9.804  0.2835  0.3129 -0.5216
  408TMC3    C7 6151   3.273   1.583   9.844  0.1297  0.1024  0.1063
  408TMC3    C8 6152   3.319   1.126   9.674  0.9049  0.3175 -0.6441
  408TMC3    O1 6153   3.380   1.564   9.906  0.1702 -0.6994 -0.2606
  408TMC3    O2 6154   3.257   1.028   9.637  0.2595  0.0829 -0.1532
  409MPD2     C 6155   1.867   2.047  16.814  0.0061 -0.3049  0.6351
  409MPD2    C1 6156   1.979   1.990  16.869  0.1751 -0.2745 -0.0794
  409MPD2    C2 6157   2.106   2.049  16.860  0.1788 -1.0727 -0.8189
  409MPD2    C3 6158   2.113   2.171  16.796 -0.6692 -0.3553 -0.1653
  409MPD2    C4 6159   2.008   2.222  16.730  0.1155 -0.0335  0.5258
  409MPD2    C5 6160   1.886   2.162  16.738  0.9402  0.3609 -0.3684
  409MPD2     H 6161   2.194   2.008  16.910  1.4937  0.0299 -2.2337
  409MPD2    H1 6162   2.020   2.322  16.691 -1.5312  0.3279  0.9413
  409MPD2    H2 6163   1.773   1.993  16.806 -1.6129  2.6880 -0.2457
  409MPD2    H3 6164   1.808   2.197  16.672  0.1219  0.4621  0.6569
  409MPD2     N 6165   2.232   2.250  16.781  0.4631 -0.3258  0.1398
  409MPD2    H5 6166   2.220   2.332  16.722  1.3127 -2.2014 -2.6518
  409MPD2    N1 6167   1.983   1.866  16.929  0.2109 -0.5918  0.0269
  409MPD2    H7 6168   2.071   1.839  16.971 -0.2173 -0.0939  1.2439
  410TMC3    C1 6169   2.450   2.329  16.803 -0.0786 -0.2304  0.1099
  410TMC3    C2 6170   2.540   2.372  16.898 -0.7354  0.4803  0.2497
  410TMC3    C3 6171   2.612   2.482  16.875 -0.1037  0.1356 -0.5548
  410TMC3    C4 6172   2.440   2.392  16.679 -0.9393  0.1907  0.6348
  410TMC3    C5 6173   2.509   2.510  16.665 -0.3878 -0.4043 -0.1531
  410TMC3    C6 6174   2.589   2.557  16.763  0.5444  0.3911 -0.4779
  410TMC3     C 6175   2.347   2.234  16.846  0.4974 -0.4899 -0.1725
  410TMC3     O 6176   2.377   2.155  16.935 -0.2792 -0.0254  0.3220
  410TMC3     H 6177   2.538   2.330  16.999  1.6444  2.7213  1.2294
  410TMC3    H1 6178   2.378   2.361  16.595 -0.1971  0.5794 -0.0588
  410TMC3    H2 6179   2.638   2.654  16.752  1.2826  0.1746  0.9185
  410TMC3    C7 6180   2.506   2.582  16.536  0.8488  0.5797 -0.4272
  410TMC3    C8 6181   2.745   2.494  16.931  0.3215 -0.3872 -0.3827
  410TMC3    O1 6182   2.464   2.516  16.442  0.7048  0.4987  0.5483
  410TMC3    O2 6183   2.814   2.590  16.898 -0.0555 -0.0675  0.2981
  411MPD2     C 6184   2.683   2.870  14.431 -0.7633  0.1835 -0.8444
  411MPD2    C1 6185   2.577   2.931  14.495  0.4637 -0.9109  0.6148
  411MPD2    C2 6186   2.470   2.853  14.530 -0.1516  0.2402  0.4865
  411MPD2    C3 6187   2.473   2.712  14.502 -0.2195 -0.1330 -0.3699
  411MPD2    C4 6188   2.586   2.655  14.452  0.1974  0.2927 -0.0644
  411MPD2    C5 6189   2.687   2.735  14.412  0.2144 -0.2280 -0.1402
  411MPD2     H 6190   2.375   2.897  14.561 -0.2181 -0.5247  1.3540
  411MPD2    H1 6191   2.586   2.548  14.436  0.7689  0.7032 -2.7596
  411MPD2    H2 6192   2.780   2.912  14.404 -1.1675  0.3188 -2.0384
  411MPD2    H3 6193   2.774   2.702  14.358 -0.4518 -0.9737 -0.7556
  411MPD2     N 6194   2.365   2.625  14.530 -0.1310 -0.2063 -0.5239
  411MPD2    H5 6195   2.372   2.532  14.491  0.6955  0.0662 -1.0081
  411MPD2    N1 6196   2.588   3.069  14.525 -0.5573  0.2304 -0.5306
  411MPD2    H7 6197   2.667   3.111  14.477 -0.8012 -1.4179 -2.4057
  412TMC3    C1 6198   2.160   2.553  14.596  0.5517  0.2727 -0.7798
  412TMC3    C2 6199   2.023   2.572  14.584 -0.3049  0.0770  0.7304
  412TMC3    C3 6200   1.934   2.467  14.593 -0.0284 -0.0723 -0.7166
  412TMC3    C4 6201   2.206   2.422  14.608 -0.1342 -0.0134  0.2839
  412TMC3    C5 6202   2.118   2.321  14.613 -0.0875  0.7159 -0.3522
  412TMC3    C6 6203   1.983   2.343  14.620  0.8067 -0.1612  0.0726
  412TMC3     C 6204   2.249   2.661  14.590  0.4068  0.1836  0.3816
  412TMC3     O 6205   2.205   2.765  14.635  0.6493  0.0697  0.2794
  412TMC3     H 6206   1.980   2.671  14.581 -0.3678  0.0431  0.5106
  412TMC3    H1 6207   2.314   2.410  14.618 -0.0723 -0.6730 -1.1170
  412TMC3    H2 6208   1.925   2.255  14.647 -0.2695  1.0435  1.7024
  412TMC3    C7 6209   2.151   2.217  14.520 -1.0305  0.8259  0.4895
  412TMC3    C8 6210   1.812   2.460  14.509 -0.7262 -0.4174 -0.2922
  412TMC3    O1 6211   2.268   2.184  14.509  0.5951  0.7480 -0.2669
  412TMC3    O2 6212   1.769   2.348  14.495  0.3922 -0.2303  0.4090
  413MPD2     C 6213   4.317   1.505  15.251  0.3811 -0.2950  0.6492
  413MPD2    C1 6214   4.253   1.402  15.181 -0.3714 -0.6527  1.4295
  413MPD2    C2 6215   4.331   1.297  15.147  0.4936  0.1037  0.3986
  413MPD2    C3 6216   4.458   1.282  15.198  0.2613 -0.2506 -0.7979
  413MPD2    C4 6217   4.519   1.380  15.263  0.1237  0.6121 -0.5939
  413MPD2    C5 6218   4.449   1.493  15.287  0.3328 -0.0672  1.0871
  413MPD2     H 6219   4.305   1.218  15.077 -0.1527  0.5265  0.1646
  413MPD2    H1 6220   4.624   1.376  15.293  0.3929  0.8917 -1.5131
  413MPD2    H2 6221   4.267   1.599  15.273  2.2191  0.9627 -0.5642
  413MPD2    H3 6222   4.486   1.572  15.350 -2.3299  1.4562  0.7653
  413MPD2     N 6223   4.521   1.161  15.168 -0.3675 -0.0917  0.1539
  413MPD2    H5 6224   4.488   1.089  15.104  3.0073  0.5008 -2.2457
  413MPD2    N1 6225   4.132   1.435  15.119  0.4211 -0.4400  0.4301
  413MPD2    H7 6226   4.088   1.521  15.147 -1.5473 -1.2447 -0.1366
  414TMC3    C1 6227   4.662   0.979  15.189 -0.4812  0.3063  0.1403
  414TMC3    C2 6228   4.717   0.905  15.292  0.3175  0.1327  0.1958
  414TMC3    C3 6229   4.736   0.772  15.265 -1.4527  0.1338 -0.4008
  414TMC3    C4 6230   4.639   0.931  15.064  0.4602 -0.0742 -0.7808
  414TMC3    C5 6231   4.654   0.794  15.044 -0.3806 -1.0433 -0.0104
  414TMC3    C6 6232   4.713   0.720  15.139  0.4166 -0.1273 -0.6082
  414TMC3     C 6233   4.641   1.120  15.222 -0.6675 -0.4182 -0.2072
  414TMC3     O 6234   4.710   1.170  15.307 -0.8568  0.4062 -1.3389
  414TMC3     H 6235   4.699   0.927  15.397  1.5435  0.7598  0.2767
  414TMC3    H1 6236   4.600   1.000  14.989 -0.1839 -0.3459 -0.6969
  414TMC3    H2 6237   4.729   0.615  15.118  0.3590 -0.1053 -0.7631
  414TMC3    C7 6238   4.716   0.761  14.919  0.1370  0.4577 -0.2288
  414TMC3    C8 6239   4.702   0.683  15.370  0.2189 -0.3909  0.0488
  414TMC3    O1 6240   4.662   0.748  14.809  0.1539 -0.1219  0.1069
  414TMC3    O2 6241   4.609   0.603  15.355  0.2776  0.3447 -0.5986
  415TMC3    C1 6242   0.059   3.901   9.959 -0.1565 -0.2701  0.4268
  415TMC3    C2 6243   0.145   3.959   9.875  1.0478 -0.1277 -0.1868
  415TMC3    C3 6244   0.214   3.873   9.790  0.0355  0.0894 -0.2160
  415TMC3    C4 6245   0.028   3.769   9.951  0.9930  0.1254 -0.5137
  415TMC3    C5 6246   0.093   3.690   9.858 -0.3959 -0.6216 -0.4844
  415TMC3    C6 6247   0.185   3.743   9.777 -0.9439 -0.3098  0.2502
  415TMC3     C 6248   4.711   3.975  10.051 -0.5707 -0.4967  0.3345
  415TMC3     O 6249   4.610   3.914  10.094 -0.3494 -0.5903 -0.7287
  415TMC3     H 6250   0.157   4.066   9.869 -0.4178  0.0001 -0.7352
  415TMC3    H1 6251   4.705   3.724  10.028  0.5107  2.3065  0.3671
  415TMC3    H2 6252   0.242   3.677   9.712  0.7005 -0.3782  1.7443
  415TMC3    C7 6253   0.114   3.545   9.873  0.1147 -0.1610  0.3950
  415TMC3    C8 6254   0.330   3.923   9.704  0.0760  0.6630  0.1509
  415TMC3    O1 6255   0.193   3.484   9.803 -0.3716 -0.3819  0.1598
  415TMC3    O2 6256   0.376   3.845   9.623  0.2551  0.1752 -0.4109
  416MPD2     C 6257   2.130   2.489  11.377  0.0500 -0.3759 -0.0003
  416MPD2    C1 6258   2.017   2.476  11.296 -0.0981 -0.4147 -0.7326
  416MPD2    C2 6259   1.971   2.351  11.266 -0.0953 -0.0406 -0.7487
  416MPD2    C3 6260   2.029   2.239  11.321 -0.1864  0.2080 -0.5332
  416MPD2    C4 6261   2.146   2.252  11.400  0.0032  0.3365  0.6408
  416MPD2    C5 6262   2.189   2.373  11.434  0.3230 -0.3851 -0.6254
  416MPD2     H 6263   1.886   2.343  11.198  0.6704 -3.6871 -1.2769
  416MPD2    H1 6264   2.193   2.173  11.457 -0.6163 -0.1287  0.5035
  416MPD2    H2 6265   2.173   2.586  11.400  1.2955  0.0952 -4.3630
  416MPD2    H3 6266   2.282   2.388  11.489 -1.5035 -0.5739  2.5040
  416MPD2     N 6267   1.977   2.111  11.305 -0.2557  0.6788  0.2292
  416MPD2    H5 6268   2.025   2.044  11.364  0.5739 -1.9389 -3.3928
  416MPD2    N1 6269   1.941   2.593  11.267 -0.1431 -0.1488 -0.6968
  416MPD2    H7 6270   1.984   2.682  11.294 -2.5110  1.1789 -1.3346
  417TMC3    C1 6271   1.760   2.729  11.240 -0.2156  0.8613 -0.6682
  417TMC3    C2 6272   1.774   2.769  11.368  0.2108 -0.4276  0.3988
  417TMC3    C3 6273   1.676   2.850  11.415  0.5842  0.5047  0.1455
  417TMC3    C4 6274   1.665   2.787  11.160  1.1573  0.0515  0.5798
  417TMC3    C5 6275   1.563   2.866  11.210  0.1454  0.5727  0.0856
  417TMC3    C6 6276   1.570   2.902  11.344  0.4220 -0.3685  0.3418
  417TMC3     C 6277   1.819   2.607  11.204  0.4522  0.1963 -0.6443
  417TMC3     O 6278   1.752   2.520  11.149 -0.2700 -0.3148  0.5344
  417TMC3     H 6279   1.839   2.724  11.443  2.5513  1.7712 -0.3029
  417TMC3    H1 6280   1.663   2.753  11.057  2.7883  2.7366 -0.3389
  417TMC3    H2 6281   1.485   2.952  11.389  0.4071 -0.4858  0.4449
  417TMC3    C7 6282   1.450   2.905  11.127  0.8830  0.0662  0.2695
  417TMC3    C8 6283   1.662   2.855  11.557 -0.5025 -0.0226 -0.0126
  417TMC3    O1 6284   1.485   2.919  11.009  0.3132 -0.8191 -0.5625
  417TMC3    O2 6285   1.571   2.927  11.595  0.4874 -0.4584 -0.6939
  418TMC3    C1 6286   0.698   0.006   0.280 -0.4934 -0.2739  0.1812
  418TMC3    C2 6287   0.613   0.111   0.278  0.8304  0.0220 -0.5892
  418TMC3    C3 6288   0.531   0.131   0.384  0.0500 -0.0809 -0.6803
  418TMC3    C4 6289   0.705   4.655   0.385 -0.2600 -0.2569  0.4078
  418TMC3    C5 6290   0.634   4.691   0.502  0.2075  0.0018 -0.2336
  418TMC3    C6 6291   0.539   0.054   0.499 -0.4997 -0.3530 -1.1237
  418TMC3     C 6292   0.772   4.713   0.157 -0.1666  0.0765  0.3929
  418TMC3     O 6293   0.795   0.068   0.085 -0.4096 -0.1850 -0.2788
  418TMC3     H 6294   0.595   0.183   0.199 -1.3741  1.0213  0.8194
  418TMC3    H1 6295   0.771   4.569   0.381 -1.7408 -1.3488 -0.3034
  418TMC3    H2 6296   0.456   0.070   0.567 -1.0421  0.2637 -1.9327
  418TMC3    C7 6297   0.625   4.586   0.602 -0.7824 -0.3554 -0.6913
  418TMC3    C8 6298   0.405   0.170   0.348 -0.3580  0.0600  0.7289
  418TMC3    O1 6299   0.653   4.471   0.568  0.1290  0.1264 -0.1497
  418TMC3    O2 6300   0.400   0.292   0.328  0.0433 -0.5556 -0.3696
  419MPD2     C 6301   4.137   2.748  12.574 -0.7196 -0.2992 -0.0621
  419MPD2    C1 6302   4.039   2.843  12.541 -1.0578  0.4442 -0.0165
  419MPD2    C2 6303   3.927   2.849  12.617 -0.3719 -0.2365 -0.4625
  419MPD2    C3 6304   3.915   2.782  12.735  0.3250 -0.0528  0.4609
  419MPD2    C4 6305   4.013   2.692  12.768  0.6884 -0.3847 -0.3251
  419MPD2    C5 6306   4.124   2.675  12.682 -0.0869  0.1638 -0.0782
  419MPD2     H 6307   3.850   2.921  12.591 -0.9770 -0.6480  0.2145
  419MPD2    H1 6308   4.018   2.639  12.862 -0.4158  0.3193  0.1199
  419MPD2    H2 6309   4.225   2.737  12.511 -1.6362  0.9843 -1.5612
  419MPD2    H3 6310   4.203   2.611  12.720 -1.0323 -0.0954  1.4407
  419MPD2     N 6311   3.801   2.809  12.818  0.1751  0.0003  0.4498
  419MPD2    H5 6312   3.748   2.893  12.797  1.7413  0.5722 -1.2521
  419MPD2    N1 6313   4.044   2.923  12.428 -0.1247  0.1188 -0.8256
  419MPD2    H7 6314   3.958   2.972  12.404 -0.8921 -0.7718  0.0922
  420TMC3    C1 6315   3.664   2.815  13.007 -0.1975  0.3456  0.0538
  420TMC3    C2 6316   3.571   2.882  12.931 -0.0059 -0.0149  0.2297
  420TMC3    C3 6317   3.502   2.988  12.990  0.6762 -0.5968 -0.3256
  420TMC3    C4 6318   3.695   2.844  13.136 -0.3186 -0.0344  0.8847
  420TMC3    C5 6319   3.622   2.951  13.191  0.3764 -0.1602  0.9624
  420TMC3    C6 6320   3.526   3.024  13.116 -0.2134 -0.2815  0.2970
  420TMC3     C 6321   3.770   2.742  12.933 -0.0637  0.5200 -0.7685
  420TMC3     O 6322   3.841   2.665  12.999  0.0357 -0.0627 -0.2492
  420TMC3     H 6323   3.562   2.860  12.826  0.2794  2.8346 -0.3733
  420TMC3    H1 6324   3.778   2.797  13.188  0.0384 -1.0841 -0.6502
  420TMC3    H2 6325   3.474   3.109  13.157  0.2042 -0.9354  2.2274
  420TMC3    C7 6326   3.594   2.923  13.332 -0.5885 -0.1244  0.8838
  420TMC3    C8 6327   3.400   3.055  12.909  0.0083  0.8903  0.5951
  420TMC3    O1 6328   3.665   2.836  13.390  0.5913 -0.1558 -0.9013
  420TMC3    O2 6329   3.373   3.174  12.929 -0.5475  0.0997 -0.1768
  421TMC3    C1 6330   0.213   3.757  14.127 -0.2551  0.5692  0.4124
  421TMC3    C2 6331   0.214   3.891  14.166  0.9875 -0.0858 -0.0073
  421TMC3    C3 6332   0.331   3.942  14.208 -0.1341  0.5675 -0.1089
  421TMC3    C4 6333   0.320   3.674  14.159 -0.2534 -0.4323 -0.2919
  421TMC3    C5 6334   0.437   3.728  14.193  0.1114  0.5471  0.3032
  421TMC3    C6 6335   0.443   3.865  14.215  0.2020  0.2617 -0.3182
  421TMC3     C 6336   0.176   3.739  13.983 -1.3529 -0.2994  0.7352
  421TMC3     O 6337   0.256   3.687  13.902 -0.3786  0.1513 -0.0177
  421TMC3     H 6338   0.136   3.958  14.131  1.1793  0.4685  0.6348
  421TMC3    H1 6339   0.316   3.577  14.111 -0.6362 -0.1870 -0.7576
  421TMC3    H2 6340   0.539   3.908  14.242  1.2096 -0.6233 -2.4863
  421TMC3    C7 6341   0.564   3.666  14.163 -0.2161  0.1798 -0.5499
  421TMC3    C8 6342   0.350   4.083  14.253  0.6131 -0.2438 -0.1476
  421TMC3    O1 6343   0.645   3.743  14.115  0.2226  0.1516 -0.2857
  421TMC3    O2 6344   0.457   4.104  14.311 -0.2123 -0.5836  0.1273
  422TMC3    C1 6345   2.726   0.905  12.030  0.1246  0.0240  0.2616
  422TMC3    C2 6346   2.688   1.037  12.051 -0.7673 -0.3013 -0.2875
  422TMC3    C3 6347   2.601   1.059  12.147  0.1625  0.0694 -0.4066
  422TMC3    C4 6348   2.662   0.801  12.089 -0.1138 -0.3660  0.1199
  422TMC3    C5 6349   2.572   0.833  12.187  0.1361  0.8944  0.6322
  422TMC3    C6 6350   2.546   0.960  12.224 -0.0435 -0.1525  0.4711
  422TMC3     C 6351   2.853   0.881  11.965  0.6357  0.8654  0.5791
  422TMC3     O 6352   2.933   0.976  11.970  0.7523 -0.3159 -0.7172
  422TMC3     H 6353   2.742   1.119  12.005 -1.9090  0.7058  0.1699
  422TMC3    H1 6354   2.707   0.703  12.082  2.2229  0.9088 -2.4718
  422TMC3    H2 6355   2.476   0.979  12.305  0.1441 -0.6514  0.7493
  422TMC3    C7 6356   2.556   0.720  12.281  0.0418  0.1630 -0.2863
  422TMC3    C8 6357   2.582   1.201  12.190  1.2215 -0.9221  0.0566
  422TMC3    O1 6358   2.653   0.649  12.297 -0.0594 -0.2170  0.2349
  422TMC3    O2 6359   2.677   1.272  12.189  0.3812  0.5564  0.4079
  423MPD2     C 6360   3.889   2.037   0.430  1.0362  1.0570 -0.7972
  423MPD2    C1 6361   3.869   1.909   0.474  0.3924  0.1594  0.3428
  423MPD2    C2 6362   3.885   1.808   0.385 -0.5983  0.7933 -0.7515
  423MPD2    C3 6363   3.924   1.832   0.254 -0.5538 -0.2391 -0.2522
  423MPD2    C4 6364   3.944   1.961   0.214 -0.0960  0.1601 -0.4002
  423MPD2    C5 6365   3.928   2.059   0.303 -0.1460  0.0193  0.0362
  423MPD2     H 6366   3.860   1.710   0.423  5.1223 -0.1094  0.7263
  423MPD2    H1 6367   3.962   1.966   0.107 -0.4872  0.3845 -0.4574
  423MPD2    H2 6368   3.863   2.120   0.493  0.2293 -0.2280  0.5679
  423MPD2    H3 6369   3.924   2.157   0.257  0.6253  0.9081  1.8555
  423MPD2     N 6370   3.929   1.736   0.146 -0.9044  0.3502 -0.4048
  423MPD2    H5 6371   3.973   1.774   0.063  0.3506  0.4758  0.3288
  423MPD2    N1 6372   3.844   1.880   0.610 -0.0499  0.0156 -0.4179
  423MPD2    H7 6373   3.841   1.782   0.638  1.7516  0.2939  0.7525
  424TMC3    C1 6374   3.854   1.911   0.838  0.0069  1.0683  0.2893
  424TMC3    C2 6375   3.955   1.824   0.846  0.5249  0.5123  0.6750
  424TMC3    C3 6376   3.979   1.766   0.971 -0.6455  0.0049 -0.5662
  424TMC3    C4 6377   3.784   1.956   0.940 -0.3217  0.1152 -0.5003
  424TMC3    C5 6378   3.813   1.906   1.066 -0.0111 -0.5103  0.1222
  424TMC3    C6 6379   3.910   1.807   1.079 -0.2051 -0.5846 -0.2834
  424TMC3     C 6380   3.821   1.968   0.710  0.1816  0.0868 -0.2595
  424TMC3     O 6381   3.795   2.084   0.707 -0.4419 -0.7596 -0.1045
  424TMC3     H 6382   4.020   1.789   0.766 -2.3194 -0.6358 -1.1407
  424TMC3    H1 6383   3.714   2.039   0.930  0.2140  0.2967 -2.6081
  424TMC3    H2 6384   3.911   1.760   1.177 -0.5286  0.0161  0.0093
  424TMC3    C7 6385   3.714   1.906   1.165 -0.2175  0.0009 -0.1702
  424TMC3    C8 6386   4.067   1.655   0.985 -0.4456  0.6037  0.3292
  424TMC3    O1 6387   3.741   1.884   1.281  0.3383 -0.1809 -0.1837
  424TMC3    O2 6388   4.080   1.598   0.880 -0.0508 -0.1994 -0.5236
  425MPD2     C 6389   2.934   1.027  17.071  0.3431  0.1567  0.3124
  425MPD2    C1 6390   2.866   0.913  17.064 -0.4716 -0.2249 -0.1167
  425MPD2    C2 6391   2.730   0.908  17.100  0.2520  0.0012  0.0256
  425MPD2    C3 6392   2.662   1.013  17.159 -0.1200 -0.7617 -0.0855
  425MPD2    C4 6393   2.735   1.130  17.161  0.4335  0.1668  0.1895
  425MPD2    C5 6394   2.864   1.138  17.112 -0.2884  0.2851 -0.3059
  425MPD2     H 6395   2.672   0.818  17.081  0.3209  0.1211 -0.7442
  425MPD2    H1 6396   2.692   1.226  17.187 -1.0888  0.0740 -2.0278
  425MPD2    H2 6397   3.038   1.039  17.043  0.0465 -0.2146 -0.9452
  425MPD2    H3 6398   2.911   1.235  17.099 -0.6326  0.4229 -0.5076
  425MPD2     N 6399   2.537   0.994  17.220 -0.1860 -0.0749 -0.0868
  425MPD2    H5 6400   2.490   0.906  17.201 -1.0999  0.2069  0.8908
  425MPD2    N1 6401   2.941   0.807  17.022 -0.0141  0.0090 -0.2733
  425MPD2    H7 6402   3.034   0.826  16.986 -1.1577  1.9420 -2.2458
  426TMC3    C1 6403   3.002   0.568  16.983  0.0254 -0.0168 -0.1666
  426TMC3    C2 6404   3.023   0.577  16.846 -1.2712 -0.1188  0.1630
  426TMC3    C3 6405   3.043   0.462  16.783  0.7004  0.5029  0.3100
  426TMC3    C4 6406   2.982   0.447  17.047 -0.3577 -0.0479 -0.3955
  426TMC3    C5 6407   2.995   0.331  16.974 -0.1756 -0.6877  0.8024
  426TMC3    C6 6408   3.028   0.341  16.841  0.0153 -0.0540 -0.1372
  426TMC3     C 6409   2.908   0.667  17.035  0.0631  0.8893  0.6252
  426TMC3     O 6410   2.805   0.613  17.078  0.2625 -0.6103 -0.2293
  426TMC3     H 6411   3.047   0.672  16.799 -0.8968 -0.7493 -0.9189
  426TMC3    H1 6412   2.963   0.452  17.153  1.2252  0.2350 -0.1170
  426TMC3    H2 6413   3.021   0.253  16.779  0.3708 -0.1391 -0.0579
  426TMC3    C7 6414   2.954   0.207  17.028  0.2237 -0.2404  0.6776
  426TMC3    C8 6415   3.116   0.449  16.654  0.2703 -0.0259  0.0072
  426TMC3    O1 6416   2.980   0.111  16.953  0.1978  0.3182  0.1134
  426TMC3    O2 6417   3.094   0.526  16.561 -0.1391 -0.1514 -0.0943
  427MPD2     C 6418   1.632   3.241  15.004 -0.1445  0.3828  0.1098
  427MPD2    C1 6419   1.595   3.130  15.091  0.6045 -0.3627 -0.5789
  427MPD2    C2 6420   1.467   3.097  15.116  0.1463  0.4787  0.1649
  427MPD2    C3 6421   1.364   3.170  15.047 -0.6710 -0.1319 -0.2457
  427MPD2    C4 6422   1.397   3.276  14.968 -0.3162 -0.1805  0.8499
  427MPD2    C5 6423   1.530   3.307  14.941  0.1196 -0.2526  0.1342
  427MPD2     H 6424   1.450   3.007  15.173 -2.6090 -0.1956 -1.7225
  427MPD2    H1 6425   1.319   3.339  14.929  1.4783  1.2613 -0.3889
  427MPD2    H2 6426   1.736   3.269  14.987 -0.6799  1.1921 -1.7691
  427MPD2    H3 6427   1.557   3.390  14.877 -1.7994 -1.7564 -2.6108
  427MPD2     N 6428   1.224   3.136  15.056  0.6487 -0.2307 -0.7618
  427MPD2    H5 6429   1.162   3.203  15.012  0.2971 -2.2372 -3.3210
  427MPD2    N1 6430   1.694   3.068  15.171  0.4210 -0.1144 -0.0003
  427MPD2    H7 6431   1.666   3.018  15.255  2.0745  0.8243  1.1043
  428TMC3    C1 6432   1.897   3.034  15.280 -0.4182  0.9661  0.4879
  428TMC3    C2 6433   1.835   2.965  15.379 -0.0683  1.5181  0.0826
  428TMC3    C3 6434   1.906   2.926  15.489 -0.7881 -0.4785  0.2053
  428TMC3    C4 6435   2.035   3.060  15.292  0.8511 -0.0506  0.4801
  428TMC3    C5 6436   2.103   3.004  15.392  0.2421  0.0043 -0.1870
  428TMC3    C6 6437   2.048   2.920  15.485 -0.4573 -0.2884  1.1647
  428TMC3     C 6438   1.828   3.092  15.167  0.1483  0.0118 -0.0974
  428TMC3     O 6439   1.897   3.131  15.072  0.7515 -0.4853  0.1140
  428TMC3     H 6440   1.727   2.966  15.381 -0.0774 -2.4503  3.1717
  428TMC3    H1 6441   2.084   3.127  15.222 -0.2308  0.4826  0.2336
  428TMC3    H2 6442   2.105   2.885  15.571 -0.1738 -0.9438  0.7144
  428TMC3    C7 6443   2.223   3.070  15.440 -0.5151 -0.8720  0.2530
  428TMC3    C8 6444   1.845   2.842  15.591  0.4571 -0.0999  0.0609
  428TMC3    O1 6445   2.241   3.060  15.560  0.3126 -0.1300 -0.4664
  428TMC3    O2 6446   1.922   2.773  15.653  0.0105  0.5425  0.2431
  429MPD2     C 6447   2.545   2.778  17.443  0.4627  0.0226 -0.5370
  429MPD2    C1 6448   2.666   2.710  17.437  0.4306 -0.2308 -0.2880
  429MPD2    C2 6449   2.777   2.785  17.405  0.4516 -0.0864 -0.0871
  429MPD2    C3 6450   2.776   2.922  17.395  0.6235  0.8559 -0.3346
  429MPD2    C4 6451   2.655   2.989  17.410  0.2794 -0.1412 -0.2034
  429MPD2    C5 6452   2.540   2.914  17.430 -0.1054  0.0670 -0.3324
  429MPD2     H 6453   2.872   2.739  17.382  0.5255  0.1307 -0.2192
  429MPD2    H1 6454   2.634   3.093  17.385  1.8752  0.2713  0.1805
  429MPD2    H2 6455   2.450   2.726  17.447 -0.6168  2.0263  0.2789
  429MPD2    H3 6456   2.442   2.958  17.415 -0.3835  0.1229  1.6026
  429MPD2     N 6457   2.899   2.988  17.382  0.5107 -0.6694 -0.4727
  429MPD2    H5 6458   2.982   2.931  17.381  0.4928 -0.7137  0.5529
  429MPD2    N1 6459   2.682   2.566  17.435 -0.4253  0.0289 -0.2198
  429MPD2    H7 6460   2.772   2.533  17.402 -1.7659 -2.0134 -1.8205
  430TMC3    C1 6461   3.026   3.176  17.307 -0.7785 -0.2277  0.4020
  430TMC3    C2 6462   3.015   3.306  17.266 -0.0069  0.2548  0.0252
  430TMC3    C3 6463   3.091   3.349  17.162 -0.8880  0.1779 -0.0880
  430TMC3    C4 6464   3.109   3.086  17.246  0.1953  0.1552  0.4086
  430TMC3    C5 6465   3.181   3.130  17.138 -0.2200  0.1818 -1.3438
  430TMC3    C6 6466   3.161   3.257  17.092  0.3736  0.3527 -0.1657
  430TMC3     C 6467   2.913   3.124  17.383  0.2410 -0.0662  0.3193
  430TMC3     O 6468   2.836   3.209  17.426  0.2073 -0.5447 -0.2054
  430TMC3     H 6469   2.959   3.367  17.336  0.1649 -0.6845  0.9793
  430TMC3    H1 6470   3.115   2.980  17.271  2.0543  0.4506  1.2125
  430TMC3    H2 6471   3.231   3.286  17.014  1.6556 -0.0110  0.8411
  430TMC3    C7 6472   3.194   3.044  17.025 -0.0074 -0.2616  0.4313
  430TMC3    C8 6473   3.010   3.419  17.067  0.2019 -0.0795  0.2232
  430TMC3    O1 6474   3.231   2.931  17.053  0.3919  0.1138  0.1167
  430TMC3    O2 6475   3.018   3.377  16.948 -0.1576  0.2108 -0.4793
  431MPD2     C 6476   3.661   3.607  12.457 -0.4626 -0.1350  0.1794
  431MPD2    C1 6477   3.762   3.648  12.369  0.6923  0.3961  0.4108
  431MPD2    C2 6478   3.819   3.555  12.285  0.6298 -0.0498  0.4895
  431MPD2    C3 6479   3.771   3.429  12.286  0.3670  0.3511  0.5738
  431MPD2    C4 6480   3.669   3.380  12.372 -0.5712  0.3879  0.5996
  431MPD2    C5 6481   3.618   3.477  12.455 -0.1982  0.3334 -0.2763
  431MPD2     H 6482   3.912   3.581  12.235  0.9433  1.1922  1.7068
  431MPD2    H1 6483   3.630   3.279  12.366 -3.0710  1.3808 -0.0012
  431MPD2    H2 6484   3.638   3.681  12.533  2.1927  0.3183  0.5601
  431MPD2    H3 6485   3.543   3.444  12.526  0.0892 -0.7206 -0.4597
  431MPD2     N 6486   3.833   3.321  12.205 -0.6996  0.0551  0.7836
  431MPD2    H5 6487   3.801   3.229  12.231  1.8718 -1.2179 -0.5540
  431MPD2    N1 6488   3.829   3.766  12.399 -0.3173  0.1961 -0.8784
  431MPD2    H7 6489   3.818   3.812  12.489  0.6664 -0.5306 -0.3871
  432TMC3    C1 6490   4.039   3.225  12.129  0.2123  0.4156  0.0004
  432TMC3    C2 6491   4.143   3.233  12.043 -0.0373 -0.2538 -0.1638
  432TMC3    C3 6492   4.244   3.142  12.057 -0.4491  0.5112 -0.0892
  432TMC3    C4 6493   4.031   3.139  12.233 -0.3066 -0.6957  0.6538
  432TMC3    C5 6494   4.134   3.044  12.241 -0.6223 -0.0958 -0.0156
  432TMC3    C6 6495   4.240   3.046  12.154 -0.1651 -0.1106  1.1141
  432TMC3     C 6496   3.942   3.333  12.123  0.4272  0.1302 -0.2456
  432TMC3     O 6497   3.979   3.433  12.062  0.7254 -0.2656 -0.4102
  432TMC3     H 6498   4.153   3.309  11.967  1.8370  0.8615  1.2062
  432TMC3    H1 6499   3.955   3.139  12.311 -2.1366  0.4352 -1.1331
  432TMC3    H2 6500   4.320   2.973  12.165  0.4460  0.5503  1.1091
  432TMC3    C7 6501   4.150   2.942  12.345  0.2691  0.1995  0.7672
  432TMC3    C8 6502   4.353   3.145  11.962 -0.1080  0.6202  0.1230
  432TMC3    O1 6503   4.259   2.886  12.350 -0.4675  0.4692 -0.5263
  432TMC3    O2 6504   4.340   3.217  11.862 -0.0580  0.5814 -0.2888
  433MPD2     C 6505   2.587   1.923  10.931  0.3110 -0.2170  0.0971
  433MPD2    C1 6506   2.575   1.795  10.986 -0.5799  0.0391  0.3799
  433MPD2    C2 6507   2.632   1.763  11.112 -0.4095 -0.5147  0.0071
  433MPD2    C3 6508   2.707   1.858  11.180  0.3305  0.2905 -0.1613
  433MPD2    C4 6509   2.714   1.986  11.119 -0.4743 -0.4533  0.2049
  433MPD2    C5 6510   2.641   2.025  11.010  0.8441 -0.4838 -0.8797
  433MPD2     H 6511   2.624   1.665  11.157  0.4234  0.6025  2.5664
  433MPD2    H1 6512   2.776   2.071  11.146 -1.7689  0.8229 -0.8515
  433MPD2    H2 6513   2.556   1.951  10.832  1.8420  2.2020  0.2907
  433MPD2    H3 6514   2.648   2.124  10.967  1.3007  0.5613  1.6338
  433MPD2     N 6515   2.776   1.823  11.297 -0.8682  0.0480 -0.0270
  433MPD2    H5 6516   2.761   1.732  11.340  0.5398  0.1567  0.6754
  433MPD2    N1 6517   2.508   1.697  10.902 -0.5448 -0.1964 -0.0411
  433MPD2    H7 6518   2.493   1.728  10.807 -1.2894 -0.9995 -0.1844
  434TMC3    C1 6519   2.478   1.486  10.811  0.3148 -0.1390 -0.3936
  434TMC3    C2 6520   2.550   1.368  10.825 -0.7223  0.6208  0.1886
  434TMC3    C3 6521   2.622   1.326  10.716 -0.2078  0.7437 -0.3888
  434TMC3    C4 6522   2.466   1.555  10.689 -0.1844 -0.7357  0.0624
  434TMC3    C5 6523   2.526   1.495  10.585 -0.1683  0.2709  0.5489
  434TMC3    C6 6524   2.610   1.385  10.597  0.5391 -0.0887  0.1112
  434TMC3     C 6525   2.485   1.565  10.935 -0.1555  0.4357 -0.1223
  434TMC3     O 6526   2.507   1.497  11.032  0.1201 -0.3523  0.1525
  434TMC3     H 6527   2.562   1.316  10.920 -1.4360  0.0812 -0.0196
  434TMC3    H1 6528   2.392   1.634  10.685  0.4367 -0.1252  0.6676
  434TMC3    H2 6529   2.671   1.350  10.515  0.0587  0.0295 -0.2915
  434TMC3    C7 6530   2.453   1.499  10.458 -0.2253 -0.7147 -0.4849
  434TMC3    C8 6531   2.743   1.254  10.744 -0.1715 -0.3485 -0.5225
  434TMC3    O1 6532   2.409   1.608  10.420  0.1478 -0.2939  0.4028
  434TMC3    O2 6533   2.804   1.282  10.847 -0.2172 -0.2479 -0.2495
  435MPD2     C 6534   4.541   1.789  15.434 -0.1416 -0.1524  0.1384
  435MPD2    C1 6535   4.503   1.720  15.547  0.0679  0.3322 -0.7102
  435MPD2    C2 6536   4.596   1.655  15.628 -0.4520 -0.4046 -1.2110
  435MPD2    C3 6537   4.731   1.657  15.589  0.0250  0.0863 -0.4488
  435MPD2    C4 6538   0.033   1.717  15.477 -0.3655 -0.4344 -0.8534
  435MPD2    C5 6539   4.672   1.781  15.406  0.1688 -0.0614 -0.1235
  435MPD2     H 6540   4.567   1.606  15.720 -3.0172  3.1194 -0.1682
  435MPD2    H1 6541   0.138   1.729  15.451  0.4045 -3.0569  1.0720
  435MPD2    H2 6542   4.472   1.844  15.372 -0.2474 -1.4851 -0.9232
  435MPD2    H3 6543   4.700   1.829  15.312  0.6831  0.4143  0.2698
  435MPD2     N 6544   0.089   1.593  15.673  0.7954  0.3168 -0.3215
  435MPD2    H5 6545   0.058   1.548  15.758 -0.4683  1.1895 -0.3169
  435MPD2    N1 6546   4.364   1.713  15.589  0.1974  0.9310  0.3522
  435MPD2    H7 6547   4.348   1.642  15.660 -2.6988  1.5584  0.2944
  436TMC3    C1 6548   3.978   1.604  15.682 -0.3067  0.0862 -0.2826
  436TMC3    C2 6549   4.105   1.624  15.641  0.5609  0.1619  0.2681
  436TMC3    C3 6550   4.127   1.730  15.556 -0.0286  0.2569 -0.4460
  436TMC3    C4 6551   3.872   1.691  15.655 -0.1054 -0.3022 -1.0785
  436TMC3    C5 6552   3.900   1.783  15.561  0.3604  0.4361 -0.4874
  436TMC3    C6 6553   4.022   1.812  15.510 -0.0114  0.1121  0.0665
  436TMC3     C 6554   3.978   1.531  15.809 -0.0026 -0.2411  0.4081
  436TMC3     O 6555   4.058   1.442  15.823  0.2454  0.2553 -0.5284
  436TMC3     H 6556   4.186   1.558  15.668 -1.1822 -1.1216  2.3680
  436TMC3    H1 6557   3.776   1.676  15.703 -0.2748 -0.4296 -1.4605
  436TMC3    H2 6558   4.041   1.901  15.452 -0.3031 -0.6222 -1.1657
  436TMC3    C7 6559   3.785   1.831  15.482 -0.1895 -0.9534 -0.3778
  436TMC3    C8 6560   4.262   1.778  15.524 -0.1791  0.9095 -0.5889
  436TMC3    O1 6561   3.673   1.781  15.505  0.4488 -0.8635 -0.3977
  436TMC3    O2 6562   4.262   1.870  15.446 -0.0679  0.1506  0.5578
  437TMC3    C1 6563   3.313   4.302  12.221  0.5562 -1.1589 -0.3871
  437TMC3    C2 6564   3.291   4.338  12.095 -0.3017  0.2030  0.6587
  437TMC3    C3 6565   3.379   4.402  12.027 -0.2317  0.2061  0.6469
  437TMC3    C4 6566   3.429   4.338  12.285 -0.1849 -0.0361 -0.1575
  437TMC3    C5 6567   3.521   4.416  12.217  0.4056  0.3239 -0.6124
  437TMC3    C6 6568   3.504   4.446  12.079 -0.0533  0.5079 -0.8139
  437TMC3     C 6569   3.200   4.242  12.294  0.3572  0.5925  0.7626
  437TMC3     O 6570   3.090   4.271  12.256  0.0369 -0.1897  0.1485
  437TMC3     H 6571   3.192   4.314  12.058  0.1805 -1.4201  0.4176
  437TMC3    H1 6572   3.442   4.326  12.392 -2.4038  0.1997  0.1471
  437TMC3    H2 6573   3.560   4.523  12.027  1.2695 -0.1738 -0.4124
  437TMC3    C7 6574   3.633   4.493  12.286 -0.2795  0.4321  0.4381
  437TMC3    C8 6575   3.342   4.441  11.895 -0.5489  0.1281  0.2689
  437TMC3    O1 6576   3.673   4.585  12.219 -0.4977 -0.1249 -0.1023
  437TMC3    O2 6577   3.235   4.497  11.894  0.0760  0.0126  0.4696
  438MPD2     C 6578   0.507   4.479  16.710  0.0340  1.2396  0.4126
  438MPD2    C1 6579   0.601   4.392  16.766  0.1457  0.0679  0.4488
  438MPD2    C2 6580   0.594   4.361  16.899  0.2444  0.3224 -0.0033
  438MPD2    C3 6581   0.511   4.425  16.989  0.2662  0.1860  0.2996
  438MPD2    C4 6582   0.429   4.516  16.937 -0.1403 -0.6452 -0.0050
  438MPD2    C5 6583   0.422   4.542  16.798 -0.0684 -0.1748  0.0580
  438MPD2     H 6584   0.669   4.289  16.931 -1.9329 -2.2233 -0.6428
  438MPD2    H1 6585   0.361   4.578  16.994  1.8660  0.2644  1.4201
  438MPD2    H2 6586   0.512   4.506  16.606 -0.6417  3.7138  1.0328
  438MPD2    H3 6587   0.360   4.616  16.748 -2.6694 -1.1921  1.7587
  438MPD2     N 6588   0.505   4.399  17.134  0.0965  0.3247  0.0613
  438MPD2    H5 6589   0.447   4.461  17.190 -0.2677  0.1029 -0.0690
  438MPD2    N1 6590   0.712   4.339  16.696 -0.1522  0.0984 -0.1597
  438MPD2    H7 6591   0.779   4.284  16.749 -1.0970 -2.0078 -1.1438
  439TMC3    C1 6592   0.857   4.290  16.502  1.0618  0.4414  0.3675
  439TMC3    C2 6593   0.863   4.265  16.363  0.5683 -0.3294  0.2289
  439TMC3    C3 6594   0.951   4.168  16.327 -0.1392  0.3299  0.3045
  439TMC3    C4 6595   0.939   4.231  16.595  0.1857  0.5329 -0.1370
  439TMC3    C5 6596   1.029   4.143  16.549 -0.2845 -1.1964 -0.5356
  439TMC3    C6 6597   1.043   4.123  16.417  0.2098 -0.7973 -0.5491
  439TMC3     C 6598   0.737   4.353  16.556  0.5303 -0.7740 -0.2180
  439TMC3     O 6599   0.667   4.410  16.473  0.5969 -0.8443  0.0414
  439TMC3     H 6600   0.785   4.301  16.296 -0.5325 -1.6698  0.7920
  439TMC3    H1 6601   0.947   4.258  16.700 -1.4151 -2.1438  0.6757
  439TMC3    H2 6602   1.122   4.061  16.377  1.2012  0.1030  0.0281
  439TMC3    C7 6603   1.111   4.062  16.643  0.3721  0.7990 -0.0860
  439TMC3    C8 6604   0.966   4.129  16.186  0.2462  0.1731  0.2095
  439TMC3    O1 6605   1.211   4.012  16.595  0.0242  0.4189 -0.1170
  439TMC3    O2 6606   1.034   4.034  16.166  0.5848 -0.4735  0.0321
  440MPD2     C 6607   3.977   0.162  15.224  0.0382 -0.3902  0.3668
  440MPD2    C1 6608   4.036   0.267  15.288 -0.1330  0.7115  0.6807
  440MPD2    C2 6609   4.100   0.241  15.409 -0.0834  0.2076  0.1518
  440MPD2    C3 6610   4.106   0.106  15.450  0.6979  0.5882  0.4283
  440MPD2    C4 6611   4.028   0.002  15.387  0.1198  0.5550  0.3255
  440MPD2    C5 6612   3.967   0.035  15.274 -0.4223 -0.3891  0.0391
  440MPD2     H 6613   4.155   0.326  15.448  2.2397 -1.1777 -0.0966
  440MPD2    H1 6614   4.038   4.640  15.429 -1.8641 -0.5885 -1.9844
  440MPD2    H2 6615   3.937   0.170  15.123  0.4729 -0.4387  0.1913
  440MPD2    H3 6616   3.930   4.694  15.210 -1.1487  1.3424 -1.6620
  440MPD2     N 6617   4.194   0.065  15.554 -0.1997 -0.0378  0.0620
  440MPD2    H5 6618   4.182   4.710  15.593  1.6579 -0.2478  0.1219
  440MPD2    N1 6619   4.074   0.388  15.221 -0.4205 -0.3961  0.1515
  440MPD2    H7 6620   4.143   0.444  15.271 -0.4075  0.1037 -0.4280
  441TMC3    C1 6621   4.374   0.098  15.713 -0.0815  0.7598 -0.3540
  441TMC3    C2 6622   4.442   0.197  15.777 -0.2305 -0.1714  0.1859
  441TMC3    C3 6623   4.537   0.166  15.874  1.0041 -1.1362  0.6265
  441TMC3    C4 6624   4.398   4.704  15.737 -0.2348  0.2730 -0.0146
  441TMC3    C5 6625   4.489   4.677  15.839 -0.1053 -1.1736  0.2571
  441TMC3    C6 6626   4.553   0.031  15.910  0.1807 -0.1053 -0.9149
  441TMC3     C 6627   4.298   0.141  15.601  0.0273 -0.5217  0.2015
  441TMC3     O 6628   4.337   0.251  15.573  0.2377 -0.4448  0.4068
  441TMC3     H 6629   4.417   0.302  15.766 -2.3484 -0.8446 -1.4499
  441TMC3    H1 6630   4.356   4.624  15.677  0.6355  0.5400 -0.9829
  441TMC3    H2 6631   4.632   0.011  15.981  1.3263 -0.1482 -2.1977
  441TMC3    C7 6632   4.518   4.530  15.856 -0.0630 -0.8615  0.6723
  441TMC3    C8 6633   4.647   0.250  15.880 -0.1105  0.0522  0.1529
  441TMC3    O1 6634   4.478   4.455  15.770 -0.4152  0.3932 -0.5857
  441TMC3    O2 6635   0.011   0.200  15.930  0.2878  0.1801 -0.0751
  442MPD2     C 6636   2.388   0.059  16.442  0.2640  0.3814 -0.0361
  442MPD2    C1 6637   2.443   0.175  16.394  0.1565  0.2301  1.1091
  442MPD2    C2 6638   2.483   0.184  16.264  0.0054  0.3132 -0.0032
  442MPD2    C3 6639   2.471   0.084  16.172  0.0022 -0.0101  0.6671
  442MPD2    C4 6640   2.424   4.704  16.225  0.1980 -0.9242  0.0097
  442MPD2    C5 6641   2.386   4.693  16.357 -0.6398 -0.5621  0.5348
  442MPD2     H 6642   2.527   0.279  16.234  0.9080  0.9511  3.3972
  442MPD2    H1 6643   2.394   4.616  16.170  2.5474 -1.6077 -0.1941
  442MPD2    H2 6644   2.341   0.041  16.539  1.0562  3.4333  0.9121
  442MPD2    H3 6645   2.319   4.611  16.382 -0.3236 -0.4141  1.8676
  442MPD2     N 6646   2.520   0.086  16.041  0.1207  0.7091 -0.0044
  442MPD2    H5 6647   2.504   4.737  15.991 -1.0862  0.5372  0.6822
  442MPD2    N1 6648   2.463   0.281  16.482 -0.8366 -0.3186 -0.7279
  442MPD2    H7 6649   2.521   0.357  16.446  1.1458 -1.4369  0.1476
  443TMC3    C1 6650   2.400   0.437  16.644 -0.1449 -0.1370 -0.1362
  443TMC3    C2 6651   2.425   0.534  16.544 -0.7479 -0.8672 -0.4661
  443TMC3    C3 6652   2.356   0.647  16.553  0.5177  0.0178  0.0525
  443TMC3    C4 6653   2.322   0.471  16.749  0.2493 -0.1964  0.1518
  443TMC3    C5 6654   2.262   0.593  16.758  0.8404 -0.1963 -0.5245
  443TMC3    C6 6655   2.285   0.691  16.661 -0.0314 -0.2270 -0.2444
  443TMC3     C 6656   2.407   0.302  16.604 -0.3428  0.5639  0.1733
  443TMC3     O 6657   2.332   0.229  16.671 -0.2121  0.0843 -0.1277
  443TMC3     H 6658   2.478   0.514  16.452  1.9224 -3.0863  1.5393
  443TMC3    H1 6659   2.281   0.388  16.807 -0.8980  1.5982  1.9235
  443TMC3    H2 6660   2.216   0.774  16.660  0.9283  0.6007  1.1820
  443TMC3    C7 6661   2.119   0.586  16.794  0.3536 -0.4865 -0.4663
  443TMC3    C8 6662   2.325   0.714  16.424  1.0610 -0.6280  0.4255
  443TMC3    O1 6663   2.038   0.628  16.717 -0.0393 -0.6120 -0.0230
  443TMC3    O2 6664   2.340   0.651  16.325  0.3205  0.1774 -0.1478
  444MPD2     C 6665   2.569   0.315  16.980 -0.2399  0.6484  0.4635
  444MPD2    C1 6666   2.559   0.175  16.972 -0.1623  0.4316 -0.3447
  444MPD2    C2 6667   2.617   0.119  16.861  0.2519 -0.3048  0.6018
  444MPD2    C3 6668   2.683   0.190  16.761 -0.1659  0.9372  0.1954
  444MPD2    C4 6669   2.693   0.329  16.776  0.5147 -0.0191 -0.8820
  444MPD2    C5 6670   2.644   0.386  16.889  0.2630  0.4726 -0.2866
  444MPD2     H 6671   2.607   0.012  16.853 -0.3282 -0.2412  0.5335
  444MPD2    H1 6672   2.752   0.394  16.711  2.3412 -1.2277 -0.4302
  444MPD2    H2 6673   2.521   0.370  17.061 -0.1915  1.3798 -0.0037
  444MPD2    H3 6674   2.652   0.493  16.906  2.0095  0.2765  0.0860
  444MPD2     N 6675   2.745   0.119  16.656 -0.5213  0.3042 -0.0319
  444MPD2    H5 6676   2.719   0.022  16.644  4.8646 -1.0038 -1.0223
  444MPD2    N1 6677   2.505   0.092  17.075  0.7979  0.3430 -0.6624
  444MPD2    H7 6678   2.520   4.731  17.056  2.2020  0.1903  1.2047
  445TMC3    C1 6679   2.883   0.051  16.493 -0.1714 -0.0999  0.2198
  445TMC3    C2 6680   2.798   4.697  16.442 -0.5684 -0.2426 -0.2085
  445TMC3    C3 6681   2.840   4.605  16.354  0.0213  0.2945 -0.6779
  445TMC3    C4 6682   3.018   0.047  16.466  0.5449  0.2511 -0.3870
  445TMC3    C5 6683   3.060   4.690  16.373  0.1409  0.1199 -0.4442
  445TMC3    C6 6684   2.971   4.602  16.313  0.6183 -0.6029 -0.2585
  445TMC3     C 6685   2.846   0.163  16.578  0.3599  0.1370  0.2545
  445TMC3     O 6686   2.914   0.262  16.575 -0.0582 -0.4639 -0.0463
  445TMC3     H 6687   2.693   4.717  16.457 -0.8220 -2.3852  0.8823
  445TMC3    H1 6688   3.089   0.109  16.519  0.7827 -0.4095  0.0703
  445TMC3    H2 6689   3.006   4.523  16.248 -0.2621 -0.2655 -1.1420
  445TMC3    C7 6690   3.198   4.665  16.358  0.0374  0.6069  0.1567
  445TMC3    C8 6691   2.757   4.496  16.309  0.0105  0.0519  0.0600
  445TMC3    O1 6692   3.233   4.631  16.243 -0.7746  0.3667 -0.2558
  445TMC3    O2 6693   2.811   4.426  16.225  0.5645 -0.7135  0.0885
  446MPD2     C 6694   2.630   0.840  11.214  0.2121 -0.4235  0.4345
  446MPD2    C1 6695   2.627   0.891  11.077  0.2709  0.0260  0.1733
  446MPD2    C2 6696   2.688   1.017  11.050 -0.0329  0.5923  0.1360
  446MPD2    C3 6697   2.734   1.097  11.154  0.7968 -0.0937  0.0826
  446MPD2    C4 6698   2.727   1.049  11.283  0.6395 -0.2414 -0.0546
  446MPD2    C5 6699   2.674   0.928  11.307  0.1641 -0.2350  0.3633
  446MPD2     H 6700   2.694   1.054  10.948 -0.9027 -0.6291 -0.3555
  446MPD2    H1 6701   2.752   1.111  11.368  2.7088 -0.3718 -0.5518
  446MPD2    H2 6702   2.587   0.748  11.250  0.8912 -0.1442  1.9561
  446MPD2    H3 6703   2.677   0.898  11.411 -1.6779  1.3309  0.8670
  446MPD2     N 6704   2.785   1.228  11.114 -0.5069 -0.2253  0.2697
  446MPD2    H5 6705   2.791   1.260  11.018  1.8905  1.1573  0.8823
  446MPD2    N1 6706   2.569   0.817  10.975  0.9468 -0.0899 -0.5246
  446MPD2    H7 6707   2.565   0.863  10.884  1.7774  0.6251 -0.1981
  447TMC3    C1 6708   2.898   1.432  11.138 -0.0466  0.4447 -1.1326
  447TMC3    C2 6709   2.847   1.511  11.034  0.2930  0.5911  0.1966
  447TMC3    C3 6710   2.916   1.613  10.988 -0.4835 -0.5354  0.4184
  447TMC3    C4 6711   3.023   1.449  11.184  0.1949  0.1463 -0.0124
  447TMC3    C5 6712   3.092   1.558  11.131 -0.4265 -0.2624  0.3728
  447TMC3    C6 6713   3.044   1.638  11.028 -0.1260  0.3445 -0.1889
  447TMC3     C 6714   2.816   1.328  11.201  0.3147 -0.1515 -0.2425
  447TMC3     O 6715   2.796   1.332  11.319 -0.3788 -0.5062 -0.2608
  447TMC3     H 6716   2.750   1.487  10.992  1.9977 -0.8666 -2.8107
  447TMC3    H1 6717   3.065   1.376  11.251 -3.6158 -1.5243  0.5420
  447TMC3    H2 6718   3.104   1.709  10.974 -0.5973 -1.0441 -2.5358
  447TMC3    C7 6719   3.231   1.526  11.109 -0.6943  0.3788 -0.1321
  447TMC3    C8 6720   2.868   1.675  10.859  0.3788  1.0573 -0.9166
  447TMC3    O1 6721   3.254   1.411  11.075 -0.0541 -0.1927  0.1879
  447TMC3    O2 6722   2.801   1.610  10.784  0.2192  0.1677  0.5451
  448TMC3    C1 6723   0.721   0.952  16.774 -0.3122 -1.1360  0.2729
  448TMC3    C2 6724   0.686   0.840  16.713  0.0290 -0.3397 -0.7310
  448TMC3    C3 6725   0.702   0.724  16.787  0.3016  0.1641  0.0177
  448TMC3    C4 6726   0.767   0.957  16.898  0.2715 -0.6942 -0.2709
  448TMC3    C5 6727   0.787   0.839  16.958  0.1844 -0.3818 -0.3664
  448TMC3    C6 6728   0.758   0.716  16.909 -1.2959  0.1896  0.2714
  448TMC3     C 6729   0.667   1.080  16.726  0.2656  0.4525  0.3270
  448TMC3     O 6730   0.639   1.081  16.608 -0.2518 -0.3639  0.0322
  448TMC3     H 6731   0.626   0.839  16.622 -1.8918  2.4237  0.5058
  448TMC3    H1 6732   0.795   1.051  16.943  0.1814 -1.5952  1.6563
  448TMC3    H2 6733   0.810   0.631  16.951 -0.9258  0.4143  0.2625
  448TMC3    C7 6734   0.855   0.851  17.087 -0.7204 -0.0808  0.7022
  448TMC3    C8 6735   0.726   0.603  16.704 -0.5564  0.4860  0.0398
  448TMC3    O1 6736   0.923   0.950  17.114  0.1261  0.3135 -0.5042
  448TMC3    O2 6737   0.736   0.499  16.772 -0.7608  0.3426 -0.0088
  449MPD2     C 6738   2.129   4.408  14.419 -0.1877  0.2038 -0.0326
  449MPD2    C1 6739   2.078   4.449  14.295  0.4538 -0.1945 -0.6274
  449MPD2    C2 6740   1.961   4.390  14.256  0.2891  0.3355  0.3368
  449MPD2    C3 6741   1.897   4.287  14.324 -0.0386  0.1128 -0.6683
  449MPD2    C4 6742   1.954   4.240  14.440 -0.6713  0.4621  0.1085
  449MPD2    C5 6743   2.065   4.309  14.490  0.8263  0.0502  0.0970
  449MPD2     H 6744   1.915   4.423  14.163 -1.4599  0.0700  1.1214
  449MPD2    H1 6745   1.917   4.162  14.505 -0.1153  0.6910  0.7082
  449MPD2    H2 6746   2.216   4.458  14.460 -0.8724  1.7185 -0.4283
  449MPD2    H3 6747   2.116   4.282  14.582 -1.8579 -1.1292  1.2123
  449MPD2     N 6748   1.774   4.230  14.270  0.1846  0.1004  0.6154
  449MPD2    H5 6749   1.742   4.273  14.184  1.2878 -0.7262 -0.2093
  449MPD2    N1 6750   2.142   4.546  14.217  0.0358 -0.1788  0.7499
  449MPD2    H7 6751   2.090   4.559  14.131  1.4027  1.2025  0.1295
  450TMC3    C1 6752   2.299   4.671  14.119  0.9017 -0.0507 -0.1687
  450TMC3    C2 6753   2.404   4.597  14.075 -0.2630 -0.3200  0.2699
  450TMC3    C3 6754   2.398   4.562  13.941 -0.4038  0.1692  0.8277
  450TMC3    C4 6755   2.200   4.713  14.035 -0.2593 -0.3148  0.6430
  450TMC3    C5 6756   2.197   4.673  13.902  0.1762  0.0821 -0.3936
  450TMC3    C6 6757   2.301   4.604  13.850 -0.1386  0.2599 -0.6321
  450TMC3     C 6758   2.262   4.606  14.242 -0.5562  0.3382  0.3998
  450TMC3     O 6759   2.337   4.592  14.332 -0.6983  0.5335  0.2651
  450TMC3     H 6760   2.488   4.567  14.136  0.6997  0.9858 -0.4135
  450TMC3    H1 6761   2.117   0.031  14.076 -1.2864 -3.0441  2.3044
  450TMC3    H2 6762   2.293   4.548  13.757 -0.5926 -1.7265  0.5966
  450TMC3    C7 6763   2.065   4.629  13.860 -0.4438 -0.6469  0.2235
  450TMC3    C8 6764   2.481   4.443  13.918 -0.5195  0.6079 -0.1087
  450TMC3    O1 6765   2.002   4.611  13.965  0.2091  0.3644 -0.1995
  450TMC3    O2 6766   2.508   4.371  14.013 -0.2789  0.0788 -0.9325
  451MPD2     C 6767   3.146   3.067   1.262  0.1951 -0.5131 -0.1495
  451MPD2    C1 6768   3.219   3.163   1.188  0.5420 -0.0075 -0.4611
  451MPD2    C2 6769   3.300   3.112   1.082  0.4067 -0.1706  0.0104
  451MPD2    C3 6770   3.307   2.976   1.055  0.2600  0.1407 -0.5880
  451MPD2    C4 6771   3.238   2.885   1.122  0.5684  0.2510 -0.1726
  451MPD2    C5 6772   3.151   2.933   1.223 -0.3840  0.8416 -0.3724
  451MPD2     H 6773   3.352   3.186   1.023  0.8828 -0.3962  0.1446
  451MPD2    H1 6774   3.243   2.780   1.095 -1.3936  0.3977 -1.1289
  451MPD2    H2 6775   3.082   3.105   1.341  0.1700 -2.3081  0.6721
  451MPD2    H3 6776   3.090   2.871   1.287 -0.3418  1.1761 -0.0111
  451MPD2     N 6777   3.384   2.919   0.953 -0.2534 -0.9165 -0.2981
  451MPD2    H5 6778   3.378   2.818   0.941 -0.5437 -0.5246 -3.3410
  451MPD2    N1 6779   3.193   3.299   1.200 -0.5739  0.7019  0.1999
  451MPD2    H7 6780   3.131   3.328   1.274 -2.5368 -0.3141 -1.0354
  452TMC3    C1 6781   3.532   2.904   0.762  0.0340  1.0101 -0.2083
  452TMC3    C2 6782   3.462   2.794   0.709  0.0057  0.7390 -0.1479
  452TMC3    C3 6783   3.509   2.724   0.596  0.6742 -0.0998  0.2264
  452TMC3    C4 6784   3.645   2.944   0.697  0.4951  0.2879  0.3856
  452TMC3    C5 6785   3.692   2.869   0.594  0.1065 -0.4473 -0.4746
  452TMC3    C6 6786   3.627   2.760   0.535  0.1182 -0.6899 -0.7302
  452TMC3     C 6787   3.466   2.989   0.863  0.0161  0.3804  0.8934
  452TMC3     O 6788   3.503   3.104   0.865 -0.7454  0.1755 -0.3535
  452TMC3     H 6789   3.368   2.769   0.758 -1.0152  0.9976 -1.9688
  452TMC3    H1 6790   3.678   3.045   0.717 -2.0273  1.0351  0.8627
  452TMC3    H2 6791   3.651   2.718   0.438  1.0310  2.3129 -1.7980
  452TMC3    C7 6792   3.790   2.929   0.509  0.4853 -0.3841 -0.3008
  452TMC3    C8 6793   3.440   2.601   0.557  0.1831  0.5530  0.2002
  452TMC3    O1 6794   3.808   2.885   0.391 -0.0378 -0.1026  0.1684
  452TMC3    O2 6795   3.331   2.585   0.611  0.1725 -0.4663  0.2585
  453TMC3    C1 6796   0.319   0.283  12.119  0.2589  0.2164  0.4175
  453TMC3    C2 6797   0.210   0.217  12.172 -0.4490 -0.2418  0.2182
  453TMC3    C3 6798   0.090   0.286  12.175  0.2779 -0.3828 -0.1217
  453TMC3    C4 6799   0.300   0.402  12.054  0.0941 -0.2408 -0.3970
  453TMC3    C5 6800   0.185   0.468  12.065  0.0477 -0.0350  0.3377
  453TMC3    C6 6801   0.082   0.415  12.130 -0.7131  0.5625  0.2209
  453TMC3     C 6802   0.452   0.236  12.126  0.0182 -0.5119 -0.2114
  453TMC3     O 6803   0.535   0.281  12.045 -0.0813 -0.3158 -0.5186
  453TMC3     H 6804   0.208   0.127  12.232 -2.4693  0.5264  1.2903
  453TMC3    H1 6805   0.387   0.449  12.010  1.7437 -2.2247  0.7592
  453TMC3    H2 6806   4.724   0.464  12.137 -0.2503  1.5477 -0.3996
  453TMC3    C7 6807   0.182   0.603  12.003 -0.1738  0.7323  0.1420
  453TMC3    C8 6808   4.700   0.224  12.218  0.5846  0.2426 -0.7980
  453TMC3    O1 6809   0.290   0.650  11.973  0.3006 -0.3884 -0.5061
  453TMC3    O2 6810   4.606   0.302  12.235 -0.2128 -0.4376 -0.0073
  454MPD2     C 6811   3.514   4.190  15.916  0.0444  0.8581  0.1239
  454MPD2    C1 6812   3.543   4.302  15.835 -0.1301  0.3904 -0.9506
  454MPD2    C2 6813   3.500   4.428  15.876 -0.5742 -0.0466 -0.2386
  454MPD2    C3 6814   3.419   4.446  15.989  0.2869  0.9420 -0.4725
  454MPD2    C4 6815   3.399   4.332  16.064 -0.5702 -0.9503 -0.1318
  454MPD2    C5 6816   3.445   4.205  16.031  0.4036 -0.1595 -0.0429
  454MPD2     H 6817   3.531   4.513  15.815  0.7987 -2.2635 -2.6140
  454MPD2    H1 6818   3.341   4.343  16.155 -1.5654  1.6733 -1.0804
  454MPD2    H2 6819   3.547   4.089  15.892 -0.5750  0.7579 -0.3159
  454MPD2    H3 6820   3.417   4.118  16.089  0.6317 -0.8178 -0.9251
  454MPD2     N 6821   3.363   4.569  16.018  0.6567 -0.6705 -0.3980
  454MPD2    H5 6822   3.297   4.583  16.094  0.8145  0.1818 -0.4217
  454MPD2    N1 6823   3.610   4.288  15.708  0.6400  0.3963 -0.2913
  454MPD2    H7 6824   3.630   4.371  15.654 -0.3062  1.4048  0.9050
  455TMC3    C1 6825   3.270   0.036  15.948  0.6832  0.1019 -0.3856
  455TMC3    C2 6826   3.288   0.172  15.983  0.0665 -0.0420  1.1896
  455TMC3    C3 6827   3.174   0.237  16.022 -0.0354 -0.0240 -0.3016
  455TMC3    C4 6828   3.153   4.709  15.934 -0.3299 -0.4759  0.1113
  455TMC3    C5 6829   3.050   0.039  15.980 -1.0228 -0.0416  0.3913
  455TMC3    C6 6830   3.056   0.170  16.020 -0.1207 -0.2150  0.3202
  455TMC3     C 6831   3.381   4.683  15.941  0.2189  0.0132  0.2913
  455TMC3     O 6832   3.477   4.721  15.881  0.0501 -0.1678  0.3019
  455TMC3     H 6833   3.383   0.223  15.975 -0.4264  0.7512  0.4444
  455TMC3    H1 6834   3.154   4.605  15.905  1.4338 -0.4089 -0.0643
  455TMC3    H2 6835   2.961   0.211  16.054 -0.5952 -0.9859 -0.0727
  455TMC3    C7 6836   2.921   4.712  15.969  0.5808  0.2412 -0.8666
  455TMC3    C8 6837   3.189   0.314  16.141 -0.0383  0.1117 -0.5580
  455TMC3    O1 6838   2.831   0.020  16.041  0.2185 -0.1441 -0.5008
  455TMC3    O2 6839   3.084   0.352  16.191 -0.7362  0.4087  0.0064
  456MPD2     C 6840   1.345   4.514  15.782  0.6952 -0.1117  0.0464
  456MPD2    C1 6841   1.361   4.644  15.822  0.6010 -0.4240 -0.6417
  456MPD2    C2 6842   1.327   4.680  15.953 -0.0850 -0.1181 -0.3007
  456MPD2    C3 6843   1.271   4.592  16.044 -0.2479 -0.4168 -0.5852
  456MPD2    C4 6844   1.249   4.465  15.997  0.2864 -0.4842  0.1323
  456MPD2    C5 6845   1.284   4.432  15.872  0.4316 -0.1469 -0.3651
  456MPD2     H 6846   1.356   0.041  15.985  1.3848 -1.3307  2.0659
  456MPD2    H1 6847   1.198   4.387  16.052  0.7057  0.3432  1.6932
  456MPD2    H2 6848   1.364   4.484  15.679  1.7435 -2.0313  0.7997
  456MPD2    H3 6849   1.254   4.332  15.844  1.6610 -0.6530  0.1379
  456MPD2     N 6850   1.247   4.636  16.177 -0.1026 -0.5072 -0.1221
  456MPD2    H5 6851   1.250   4.737  16.192 -1.4506 -0.9797  3.3157
  456MPD2    N1 6852   1.434   4.730  15.728 -0.6915  0.5553 -0.0607
  456MPD2    H7 6853   1.464   4.685  15.642 -1.6902 -0.2780  0.0203
  457TMC3    C1 6854   1.186   4.618  16.404  0.4128  0.1282 -0.6660
  457TMC3    C2 6855   1.125   0.006  16.404 -0.3827  0.7138  0.0262
  457TMC3    C3 6856   1.066   0.042  16.523 -0.1135  0.6310 -0.5398
  457TMC3    C4 6857   1.185   4.537  16.511  0.2069  0.1602  0.3470
  457TMC3    C5 6858   1.130   4.577  16.629  0.1133  0.0782  0.4966
  457TMC3    C6 6859   1.073   4.711  16.638  0.1588 -0.3754  0.4993
  457TMC3     C 6860   1.211   4.549  16.278 -0.5170  0.4081  0.6008
  457TMC3     O 6861   1.219   4.426  16.282  0.7796 -0.4777  0.4326
  457TMC3     H 6862   1.131   0.079  16.325 -0.6191 -0.3552 -0.9827
  457TMC3    H1 6863   1.213   4.432  16.508  3.2456  0.9632  1.0533
  457TMC3    H2 6864   1.039   0.004  16.736  1.5880  0.8475  0.6180
  457TMC3    C7 6865   1.119   4.477  16.737  0.4135 -0.4426 -0.3004
  457TMC3    C8 6866   1.002   0.170  16.524 -0.1913 -0.0256  0.0694
  457TMC3    O1 6867   1.173   4.369  16.724  0.0034  0.4005 -0.3905
  457TMC3    O2 6868   0.989   0.217  16.635 -0.0249  0.9921  0.6361
  458MPD2     C 6869   4.077   4.464  12.523 -0.3287 -0.3412  0.3040
  458MPD2    C1 6870   3.980   4.422  12.613 -0.2812  0.3437 -0.5969
  458MPD2    C2 6871   3.841   4.413  12.567 -0.1340 -0.5067 -0.0579
  458MPD2    C3 6872   3.811   4.452  12.439  0.5588  0.2955 -0.3939
  458MPD2    C4 6873   3.905   4.504  12.354 -0.1140 -0.0305  0.1539
  458MPD2    C5 6874   4.034   4.508  12.402 -0.4365  0.0415  0.7899
  458MPD2     H 6875   3.758   4.391  12.634  1.7131  1.3975  2.8680
  458MPD2    H1 6876   3.894   4.535  12.250  1.5034  2.6812  0.7981
  458MPD2    H2 6877   4.182   4.472  12.551  0.2110  1.3890 -2.2488
  458MPD2    H3 6878   4.106   4.550  12.332 -2.2153 -0.1922 -1.1954
  458MPD2     N 6879   3.674   4.441  12.401  0.0341 -0.2524 -0.1051
  458MPD2    H5 6880   3.605   4.390  12.456  2.2244 -2.4711  0.6257
  458MPD2    N1 6881   4.024   4.381  12.744 -0.2509  0.7802 -0.1855
  458MPD2    H7 6882   4.124   4.374  12.758 -0.6328 -2.3652  1.0601
  459TMC3    C1 6883   4.015   4.296  12.965 -0.1376 -0.0316 -0.2329
  459TMC3    C2 6884   4.142   4.338  12.990 -0.4765  0.7744 -0.0431
  459TMC3    C3 6885   4.202   4.294  13.110 -0.1505  0.7635 -0.3484
  459TMC3    C4 6886   3.949   4.215  13.052  0.2359 -0.2471 -0.0634
  459TMC3    C5 6887   4.016   4.184  13.171 -0.0229 -0.0716  0.1645
  459TMC3    C6 6888   4.146   4.211  13.201 -0.0633 -0.4452  1.3426
  459TMC3     C 6889   3.951   4.322  12.844 -0.2593  0.2746 -0.1702
  459TMC3     O 6890   3.831   4.297  12.837  0.5147 -0.5240 -0.0005
  459TMC3     H 6891   4.198   4.409  12.930  1.6249  1.1415  2.3287
  459TMC3    H1 6892   3.852   4.175  13.024 -0.7820  2.7299 -0.7842
  459TMC3    H2 6893   4.184   4.165  13.291 -1.7566 -1.7442  1.3906
  459TMC3    C7 6894   3.978   4.061  13.224 -0.6410  0.3557 -0.0462
  459TMC3    C8 6895   4.343   4.322  13.118  0.7437 -0.6559  0.5276
  459TMC3    O1 6896   4.070   3.985  13.250 -0.2386  0.1012 -0.3648
  459TMC3    O2 6897   4.393   4.346  13.007  0.1904  0.8597  0.3055
  460MPD2     C 6898   2.891   2.032  10.785  0.1489  0.1018  0.4333
  460MPD2    C1 6899   2.868   1.900  10.757 -0.2341  0.3357 -0.0687
  460MPD2    C2 6900   2.793   1.864  10.642 -0.2562 -0.6135 -0.3275
  460MPD2    C3 6901   2.757   1.960  10.553  0.2499  0.4733 -0.0388
  460MPD2    C4 6902   2.801   2.090  10.575  0.1422  0.2865 -0.0841
  460MPD2    C5 6903   2.857   2.126  10.694 -0.2749 -0.5434  0.5124
  460MPD2     H 6904   2.765   1.762  10.621  1.3732 -0.9416 -0.9257
  460MPD2    H1 6905   2.786   2.172  10.506  2.1779  0.9710  0.2776
  460MPD2    H2 6906   2.918   2.064  10.885 -2.9765  2.8386  0.3748
  460MPD2    H3 6907   2.871   2.231  10.716  2.0524 -0.2927 -2.2150
  460MPD2     N 6908   2.691   1.920  10.434 -0.2911  0.9283 -0.4876
  460MPD2    H5 6909   2.677   1.821  10.421 -0.8597  0.8647  0.6182
  460MPD2    N1 6910   2.908   1.803  10.851  0.3669  0.6542 -0.1327
  460MPD2    H7 6911   2.960   1.835  10.931  0.5919 -0.4061  0.1437
  461TMC3    C1 6912   2.558   1.959  10.230 -0.4495 -0.1157  0.4360
  461TMC3    C2 6913   2.516   1.823  10.229  0.4360  0.9009  0.7350
  461TMC3    C3 6914   2.463   1.780  10.107 -0.0733  0.6755  0.9242
  461TMC3    C4 6915   2.531   2.047  10.129  0.1617 -0.3595 -0.2286
  461TMC3    C5 6916   2.481   1.994  10.018  0.2923  0.2047  0.4462
  461TMC3    C6 6917   2.443   1.860  10.002 -0.5068  0.4921  0.3885
  461TMC3     C 6918   2.630   2.014  10.346  0.3991  0.6350 -0.4583
  461TMC3     O 6919   2.618   2.135  10.362  0.0538 -0.3351  0.8674
  461TMC3     H 6920   2.549   1.749  10.300 -0.7444 -0.5265 -0.1866
  461TMC3    H1 6921   2.554   2.151  10.149 -0.9143 -0.3247  0.8086
  461TMC3    H2 6922   2.415   1.816   9.907  0.2923  2.0270 -0.5518
  461TMC3    C7 6923   2.458   2.074   9.910  0.1863  0.8958  0.3516
  461TMC3    C8 6924   2.514   1.651  10.071 -0.7540 -1.2449  0.7857
  461TMC3    O1 6925   2.397   2.019   9.817  0.1877  0.4670  0.1025
  461TMC3    O2 6926   2.602   1.602  10.134 -0.1347 -0.0615 -0.5846
  462TMC3    C1 6927   2.767   3.022   0.388 -0.2533 -0.2824 -0.0691
  462TMC3    C2 6928   2.902   3.025   0.359  0.0746 -0.0181 -0.1500
  462TMC3    C3 6929   2.961   2.901   0.332 -0.1783 -0.5653  0.4385
  462TMC3    C4 6930   2.687   2.913   0.399  0.2227 -0.4794 -0.1443
  462TMC3    C5 6931   2.754   2.794   0.384 -0.7087  0.1259 -0.4383
  462TMC3    C6 6932   2.888   2.787   0.347  0.4051  0.2882 -0.1276
  462TMC3     C 6933   2.719   3.146   0.448 -0.5655 -0.6836 -0.2687
  462TMC3     O 6934   2.798   3.215   0.509  0.0682  0.1885  0.1448
  462TMC3     H 6935   2.954   3.119   0.341  0.9616  0.0861  2.9328
  462TMC3    H1 6936   2.588   2.917   0.443 -0.3530  0.8117 -1.5581
  462TMC3    H2 6937   2.921   2.696   0.298 -0.4680  0.7645 -1.5787
  462TMC3    C7 6938   2.669   2.676   0.365 -0.1108  0.0842  0.1363
  462TMC3    C8 6939   3.103   2.893   0.306 -0.0552  0.0495  0.2675
  462TMC3    O1 6940   2.725   2.568   0.352  0.8332  0.3482  0.5315
  462TMC3    O2 6941   3.175   2.986   0.350  0.5459  0.4844  0.1112
  463MPD2     C 6942   4.213   0.278   0.791 -0.1436  0.6549  0.1772
  463MPD2    C1 6943   4.227   0.397   0.860  0.5730 -0.2583 -0.9207
  463MPD2    C2 6944   4.351   0.453   0.885  0.0167  0.7092  0.3542
  463MPD2    C3 6945   4.467   0.392   0.840 -0.0091 -0.0351  0.7566
  463MPD2    C4 6946   4.446   0.271   0.775  0.4505  0.2057 -0.5590
  463MPD2    C5 6947   4.328   0.211   0.751 -0.2663 -0.4584 -0.8307
  463MPD2     H 6948   4.348   0.547   0.940  0.1957  0.5842  0.5743
  463MPD2    H1 6949   4.541   0.226   0.747 -1.3296 -4.2962  0.6953
  463MPD2    H2 6950   4.122   0.224   0.765  0.5574 -0.1541 -0.5858
  463MPD2    H3 6951   4.317   0.108   0.721 -2.9769  0.4262 -2.8978
  463MPD2     N 6952   4.594   0.434   0.873 -0.3184 -0.1731 -0.2551
  463MPD2    H5 6953   4.669   0.366   0.868 -1.5858 -1.5176 -0.8218
  463MPD2    N1 6954   4.115   0.455   0.915 -0.4826  0.0984  0.4067
  463MPD2    H7 6955   4.138   0.532   0.977 -1.0326  1.3427 -0.9289
  464TMC3    C1 6956   3.891   0.498   0.965  0.5525  0.2175 -0.0851
  464TMC3    C2 6957   3.929   0.625   1.015  0.0645  0.3735 -0.7204
  464TMC3    C3 6958   3.834   0.718   1.044 -0.6359  0.4755  0.1485
  464TMC3    C4 6959   3.760   0.461   0.962  0.0342 -0.3994 -0.6634
  464TMC3    C5 6960   3.672   0.565   0.991 -0.0057 -0.8653 -0.6760
  464TMC3    C6 6961   3.703   0.687   1.020 -0.3241 -0.6727 -0.4041
  464TMC3     C 6962   3.985   0.419   0.891 -0.3826 -0.1810 -0.0961
  464TMC3     O 6963   3.935   0.348   0.810 -0.3409  0.6140 -0.1678
  464TMC3     H 6964   4.034   0.653   1.007  0.5367 -0.6002  1.9097
  464TMC3    H1 6965   3.724   0.367   0.921 -2.0362  0.4212 -0.7717
  464TMC3    H2 6966   3.616   0.743   1.051 -1.3654 -2.1121 -0.7089
  464TMC3    C7 6967   3.531   0.543   0.957  0.1514  0.0165 -0.1389
  464TMC3    C8 6968   3.856   0.853   1.091 -0.3578  0.2936  0.0508
  464TMC3    O1 6969   3.464   0.636   0.915 -0.3557  0.0789  0.1735
  464TMC3    O2 6970   3.763   0.930   1.077 -0.0054  0.1025 -0.7397
  465MPD2     C 6971   0.508   0.189  16.840 -1.0485 -0.4587  0.4744
  465MPD2    C1 6972   0.372   0.169  16.839  0.0405 -0.5194 -0.5037
  465MPD2    C2 6973   0.298   0.149  16.723 -0.1817 -0.1385  0.0483
  465MPD2    C3 6974   0.356   0.177  16.607 -0.0911 -0.1684  0.1652
  465MPD2    C4 6975   0.489   0.203  16.602  0.0556  0.3874  0.1372
  465MPD2    C5 6976   0.564   0.202  16.717  0.7601  0.4822  0.0631
  465MPD2     H 6977   0.193   0.125  16.719 -0.4442  1.0951 -0.4640
  465MPD2    H1 6978   0.538   0.230  16.509 -0.4198  1.4840  0.2076
  465MPD2    H2 6979   0.575   0.184  16.925  1.8570 -0.3965 -1.8026
  465MPD2    H3 6980   0.668   0.223  16.696  0.8053 -0.5798 -0.8105
  465MPD2     N 6981   0.276   0.171  16.490  0.3781  0.7060 -0.2207
  465MPD2    H5 6982   0.180   0.162  16.520  0.8051 -4.2908 -0.3830
  465MPD2    N1 6983   0.302   0.144  16.963  0.3364  0.9618 -0.3640
  465MPD2    H7 6984   0.223   0.080  16.968  0.0023  1.4204  0.2036
  466TMC3    C1 6985   4.712   0.205  16.321 -0.9893 -0.4631  0.6222
  466TMC3    C2 6986   4.705   0.327  16.252  0.0003 -0.8951  0.3321
  466TMC3    C3 6987   0.080   0.381  16.195  0.4634 -0.4161 -0.1796
  466TMC3    C4 6988   0.094   0.139  16.322  0.2614  0.0639  0.0860
  466TMC3    C5 6989   0.206   0.193  16.265  0.4270 -0.0640  0.5826
  466TMC3    C6 6990   0.198   0.311  16.199  0.3193 -0.0970 -0.6637
  466TMC3     C 6991   4.609   0.157  16.410 -0.1851  0.3556  0.1195
  466TMC3     O 6992   4.646   0.064  16.477  0.5726 -0.2840 -0.2885
  466TMC3     H 6993   4.617   0.390  16.261 -0.4181 -1.7447  2.0407
  466TMC3    H1 6994   0.097   0.040  16.367 -0.6732 -0.5521 -1.1935
  466TMC3    H2 6995   0.290   0.360  16.170 -1.2695  2.2934 -1.5893
  466TMC3    C7 6996   0.318   0.195  16.361 -0.4210 -0.1643 -0.4045
  466TMC3    C8 6997   0.086   0.524  16.192  0.8601 -0.2891  0.0049
  466TMC3    O1 6998   0.426   0.228  16.309  0.6344  0.1292 -0.1314
  466TMC3    O2 6999   0.137   0.572  16.092  1.0862  0.4201  0.0237
  467TMC3    C1 7000   1.173   3.016  13.442  0.2119  0.3273 -0.0376
  467TMC3    C2 7001   1.259   3.045  13.339  0.2784  0.3345  0.4226
  467TMC3    C3 7002   1.211   3.110  13.226  0.1903 -0.3786 -0.7055
  467TMC3    C4 7003   1.040   3.025  13.427  0.2841 -0.3004 -0.2319
  467TMC3    C5 7004   0.995   3.077  13.308  0.2104 -0.4148 -0.2488
  467TMC3    C6 7005   1.079   3.108  13.204 -0.4221  0.3711  0.2148
  467TMC3     C 7006   1.216   2.920  13.546 -0.2624  0.1131  0.4748
  467TMC3     O 7007   1.157   2.919  13.658 -0.2260  0.0900 -0.1130
  467TMC3     H 7008   1.362   3.060  13.367  0.7437 -1.2368 -0.3994
  467TMC3    H1 7009   0.958   2.984  13.485 -0.9764  0.5910 -1.3605
  467TMC3    H2 7010   1.039   3.152  13.113  1.0507  1.2948  0.0022
  467TMC3    C7 7011   0.860   3.126  13.280 -0.4026  1.0458 -0.5793
  467TMC3    C8 7012   1.290   3.189  13.135  0.4588  0.4355 -0.1619
  467TMC3    O1 7013   0.822   3.122  13.165  0.4840 -0.4202 -0.2755
  467TMC3    O2 7014   1.239   3.275  13.058  0.4090  0.1248  0.0630
  468MPD2     C 7015   0.048   1.270  11.334  0.7661  0.5800 -0.2455
  468MPD2    C1 7016   0.147   1.313  11.254  0.5442 -0.8095 -0.3315
  468MPD2    C2 7017   0.234   1.217  11.203  0.2085 -0.4418 -0.8019
  468MPD2    C3 7018   0.233   1.091  11.248 -0.1585  0.7347 -0.0975
  468MPD2    C4 7019   0.134   1.054  11.334  0.0613 -0.3667 -0.7842
  468MPD2    C5 7020   0.037   1.144  11.373  0.3172 -0.0904  0.2346
  468MPD2     H 7021   0.314   1.251  11.137  1.3299 -2.5557 -0.5200
  468MPD2    H1 7022   0.130   0.954  11.375 -1.6506  0.1778  0.3781
  468MPD2    H2 7023   4.716   1.341  11.377 -0.3818 -0.8647  0.2611
  468MPD2    H3 7024   4.704   1.119  11.451 -0.1741 -1.7851 -0.7431
  468MPD2     N 7025   0.314   0.982  11.204 -0.0307  0.1515  0.4946
  468MPD2    H5 7026   0.279   0.893  11.238 -0.1922  0.0037 -0.0631
  468MPD2    N1 7027   0.157   1.446  11.213 -0.1600 -0.0147  0.3697
  468MPD2    H7 7028   0.245   1.486  11.183 -0.5039 -0.7174 -1.5542
  469TMC3    C1 7029   0.125   1.674  11.225 -0.0330 -0.7715 -0.0689
  469TMC3    C2 7030   0.233   1.686  11.144 -0.2638  0.2408  0.6506
  469TMC3    C3 7031   0.313   1.793  11.177  0.2244  0.3491 -0.1477
  469TMC3    C4 7032   0.075   1.766  11.316  0.0534  0.5959  0.1931
  469TMC3    C5 7033   0.156   1.871  11.340  0.1945 -0.3995  0.1775
  469TMC3    C6 7034   0.276   1.884  11.276 -0.1511 -0.0801  0.0749
  469TMC3     C 7035   0.061   1.544  11.237  0.5282 -0.1272  0.8536
  469TMC3     O 7036   4.686   1.545  11.279  0.1209  0.4484 -0.1027
  469TMC3     H 7037   0.253   1.621  11.060 -3.0277 -0.0891  0.2475
  469TMC3    H1 7038   4.716   1.752  11.362  0.9512  2.0785  2.5069
  469TMC3    H2 7039   0.348   1.964  11.294 -1.9529  1.7958 -1.0580
  469TMC3    C7 7040   0.116   1.955  11.449  0.3667  0.0076  0.2915
  469TMC3    C8 7041   0.455   1.774  11.150  0.5522 -0.6235 -0.4374
  469TMC3    O1 7042   0.082   2.071  11.417 -0.2148 -0.2838  0.5333
  469TMC3    O2 7043   0.477   1.725  11.041 -0.3622 -0.6141  1.0609
  470TMC3    C1 7044   2.395   2.208   0.722  0.2355  0.1086  0.1693
  470TMC3    C2 7045   2.398   2.338   0.677  0.0835  0.2992  0.1702
  470TMC3    C3 7046   2.494   2.421   0.722 -0.0941 -0.0317 -0.1321
  470TMC3    C4 7047   2.485   2.168   0.811 -0.0118  0.0484  0.1188
  470TMC3    C5 7048   2.577   2.257   0.864  0.2158  0.3330 -0.3145
  470TMC3    C6 7049   2.586   2.384   0.818 -0.2843 -0.4221 -0.1850
  470TMC3     C 7050   2.280   2.127   0.686 -0.2075  0.3794  0.6933
  470TMC3     O 7051   2.234   2.150   0.575 -0.4262  0.4745  0.0671
  470TMC3     H 7052   2.333   2.380   0.602  1.1173 -0.8273 -1.3644
  470TMC3    H1 7053   2.507   2.066   0.842  3.3093  0.5222 -0.6247
  470TMC3    H2 7054   2.663   2.451   0.855 -0.4799  0.5927 -1.5961
  470TMC3    C7 7055   2.672   2.199   0.960 -0.3283 -0.8820 -0.5828
  470TMC3    C8 7056   2.490   2.564   0.701  0.5714  0.1052 -0.1521
  470TMC3    O1 7057   2.786   2.239   0.948 -0.5806  0.3116 -0.2473
  470TMC3    O2 7058   2.382   2.613   0.674 -0.0927  0.1817  0.5625
  471MPD2     C 7059   2.676   3.787  16.954 -0.4279  0.7228 -0.0925
  471MPD2    C1 7060   2.715   3.672  16.892 -0.3375 -0.3695  0.1746
  471MPD2    C2 7061   2.811   3.592  16.948 -0.1210 -0.3193 -0.2244
  471MPD2    C3 7062   2.876   3.622  17.063  0.2225 -0.9168 -0.7286
  471MPD2    C4 7063   2.836   3.740  17.130 -0.4463 -0.1756  0.1250
  471MPD2    C5 7064   2.744   3.823  17.069 -0.1332  0.0292  0.3694
  471MPD2     H 7065   2.835   3.499  16.898  0.3233 -0.0981 -0.4206
  471MPD2    H1 7066   2.876   3.771  17.226  1.1494  0.8418 -0.8637
  471MPD2    H2 7067   2.598   3.850  16.912  0.9252  1.7309 -1.0975
  471MPD2    H3 7068   2.711   3.911  17.121  1.1195  0.3985  0.5402
  471MPD2     N 7069   2.967   3.539  17.124 -1.0326 -0.4014  0.2734
  471MPD2    H5 7070   3.008   3.563  17.214  0.9325 -0.7601 -0.5325
  471MPD2    N1 7071   2.669   3.623  16.770 -0.1973  0.5380 -0.9400
  471MPD2    H7 7072   2.717   3.544  16.728  1.2605  0.1070  1.5340
  472TMC3    C1 7073   2.503   3.564  16.609 -0.1284  0.9854 -0.1627
  472TMC3    C2 7074   2.408   3.607  16.520  0.3605 -0.4236  0.1180
  472TMC3    C3 7075   2.375   3.520  16.416 -0.5789 -0.0162 -0.7369
  472TMC3    C4 7076   2.566   3.441  16.604 -0.4384  0.1565 -0.3295
  472TMC3    C5 7077   2.528   3.359  16.499 -0.3281  0.4715 -0.0151
  472TMC3    C6 7078   2.437   3.404  16.403 -0.0158 -0.2604 -0.4192
  472TMC3     C 7079   2.557   3.668  16.705 -0.2849  0.4486 -0.7152
  472TMC3     O 7080   2.493   3.772  16.720 -0.9641  0.3581  0.4271
  472TMC3     H 7081   2.354   3.701  16.519  0.3764 -0.4127  0.8572
  472TMC3    H1 7082   2.628   3.404  16.685  0.3591 -1.6932 -1.7979
  472TMC3    H2 7083   2.413   3.335  16.323 -2.1227  2.8940 -2.5436
  472TMC3    C7 7084   2.588   3.223  16.500  0.2365  0.3784  0.6500
  472TMC3    C8 7085   2.254   3.541  16.345 -0.0304 -0.3967 -0.4613
  472TMC3    O1 7086   2.632   3.179  16.609  0.2884  0.0482 -0.2445
  472TMC3    O2 7087   2.216   3.655  16.331  0.2831 -1.0769  0.4028
  473MPD2     C 7088   3.254   0.765  13.833  0.3718 -0.2828  0.2028
  473MPD2    C1 7089   3.138   0.825  13.795  0.1966  0.1442 -0.0895
  473MPD2    C2 7090   3.098   0.942  13.855 -0.4992  0.3172 -0.0920
  473MPD2    C3 7091   3.188   0.998  13.944  0.6487 -0.1367  1.0827
  473MPD2    C4 7092   3.312   0.940  13.971 -0.1056 -0.5107 -0.9127
  473MPD2    C5 7093   3.338   0.816  13.928  0.4011  0.0963 -0.1945
  473MPD2     H 7094   3.003   0.989  13.831  0.2212  1.4249 -0.7610
  473MPD2    H1 7095   3.378   0.981  14.046 -0.0143 -2.0958 -0.1100
  473MPD2    H2 7096   3.287   0.674  13.783  1.6074 -0.1387  0.7645
  473MPD2    H3 7097   3.433   0.767  13.949  1.4366  1.5295 -1.5139
  473MPD2     N 7098   3.172   1.130  13.993 -0.6341  0.0725  0.2496
  473MPD2    H5 7099   3.252   1.174  14.037  0.7205 -0.5033 -1.6341
  473MPD2    N1 7100   3.064   0.771  13.686 -0.0573 -0.1716 -0.1294
  473MPD2    H7 7101   2.969   0.805  13.676 -0.5297 -1.4947 -0.1330
  474TMC3    C1 7102   3.061   1.340  14.057 -0.1491 -0.6790  0.3456
  474TMC3    C2 7103   2.955   1.379  14.132  0.0636 -0.1332  0.5926
  474TMC3    C3 7104   2.968   1.482  14.221  0.5559  0.1819 -0.0442
  474TMC3    C4 7105   3.182   1.402  14.066 -0.0265 -0.1022  0.1284
  474TMC3    C5 7106   3.190   1.508  14.153 -0.3421  0.5117 -0.7146
  474TMC3    C6 7107   3.083   1.552  14.230 -0.4258 -0.9289  0.3139
  474TMC3     C 7108   3.053   1.206  13.991 -0.9127 -0.0568  0.2965
  474TMC3     O 7109   2.943   1.171  13.956  0.0201 -0.1514  0.1548
  474TMC3     H 7110   2.858   1.339  14.104 -0.2795  0.3870  1.0209
  474TMC3    H1 7111   3.266   1.372  14.003 -0.0535 -0.0535  0.0689
  474TMC3    H2 7112   3.082   1.639  14.296  1.3231 -1.7780  1.4374
  474TMC3    C7 7113   3.325   1.566  14.172  0.8143  0.5359  0.0954
  474TMC3    C8 7114   2.848   1.548  14.256  0.4387 -0.1517  0.4582
  474TMC3    O1 7115   3.406   1.556  14.080  0.0686 -0.7729  0.1234
  474TMC3    O2 7116   2.754   1.471  14.273  0.0632 -0.0941 -0.1104
  475MPD2     C 7117   0.810   3.727  10.430 -0.5043 -0.0116  0.2234
  475MPD2    C1 7118   0.858   3.853  10.479 -0.2131  0.2191  0.3778
  475MPD2    C2 7119   0.766   3.954  10.485 -0.3403  0.2162  0.2674
  475MPD2    C3 7120   0.630   3.934  10.452  0.0183 -0.6349 -0.8700
  475MPD2    C4 7121   0.592   3.809  10.400 -0.4202  0.6307 -0.7735
  475MPD2    C5 7122   0.682   3.709  10.388 -0.7931 -0.2490  0.0332
  475MPD2     H 7123   0.788   4.052  10.526 -0.3631  0.3582 -0.0612
  475MPD2    H1 7124   0.488   3.787  10.377 -0.9980  1.3746  1.0462
  475MPD2    H2 7125   0.873   3.638  10.429 -0.2484  0.1546  1.0270
  475MPD2    H3 7126   0.653   3.620  10.334  2.1057 -0.0819 -1.7817
  475MPD2     N 7127   0.538   4.035  10.481  1.2688  0.3697  0.4944
  475MPD2    H5 7128   0.574   4.118  10.526  0.4560  0.7769  0.3936
  475MPD2    N1 7129   0.997   3.884  10.516  0.4737 -0.2728 -0.4872
  475MPD2    H7 7130   1.022   3.969  10.567 -0.8618  0.6874 -1.4394
  476TMC3    C1 7131   1.220   3.874  10.528  0.2941 -0.5006  0.5381
  476TMC3    C2 7132   1.256   3.976  10.446 -0.3716  0.3016 -0.0578
  476TMC3    C3 7133   1.282   4.103  10.481 -0.3635 -0.5579 -0.1922
  476TMC3    C4 7134   1.218   3.899  10.660  0.0289  0.0330  1.2282
  476TMC3    C5 7135   1.260   4.022  10.704  0.3901 -0.5851  0.4523
  476TMC3    C6 7136   1.287   4.125  10.621 -0.0489  0.0121 -0.4252
  476TMC3     C 7137   1.099   3.804  10.487 -0.2180 -0.3926 -0.3054
  476TMC3     O 7138   1.109   3.724  10.396 -0.3309  0.4083  0.1160
  476TMC3     H 7139   1.257   3.942  10.343 -2.5412  3.2790 -1.0278
  476TMC3    H1 7140   1.177   3.835  10.737 -2.7501  0.6533  0.2397
  476TMC3    H2 7141   1.296   4.230  10.647  2.1584 -0.3499  0.2910
  476TMC3    C7 7142   1.232   4.059  10.840 -0.1743 -0.5260 -0.0450
  476TMC3    C8 7143   1.206   4.203  10.414 -0.0657 -0.3751 -0.8008
  476TMC3    O1 7144   1.142   4.003  10.898 -0.5951  0.1118 -0.4211
  476TMC3    O2 7145   1.194   4.315  10.466 -0.1068 -0.0572  0.6346
  477MPD2     C 7146   3.658   0.484  11.193 -0.1253 -0.0220 -0.7104
  477MPD2    C1 7147   3.587   0.492  11.306 -0.2030  0.1631  0.6458
  477MPD2    C2 7148   3.644   0.466  11.426 -0.1986 -0.8599  0.1378
  477MPD2    C3 7149   3.781   0.437  11.435 -0.0216 -0.0709  0.1563
  477MPD2    C4 7150   3.851   0.414  11.316  0.0152 -0.3488 -0.1640
  477MPD2    C5 7151   3.787   0.442  11.198  0.5268 -0.3727  0.2045
  477MPD2     H 7152   3.579   0.479  11.512 -0.7531 -0.0806 -0.3961
  477MPD2    H1 7153   3.957   0.392  11.316  0.4598  1.7652 -1.4975
  477MPD2    H2 7154   3.613   0.508  11.098 -0.6466 -1.3093 -0.7967
  477MPD2    H3 7155   3.842   0.439  11.105 -0.8667  1.0435 -0.6776
  477MPD2     N 7156   3.836   0.409  11.558 -0.1533 -0.1757  0.7094
  477MPD2    H5 7157   3.781   0.413  11.643  0.7470  0.4114  1.2581
  477MPD2    N1 7158   3.450   0.533  11.288 -0.9195 -0.6409 -0.3898
  477MPD2    H7 7159   3.425   0.535  11.190 -0.4045 -0.4754 -0.5180
  478TMC3    C1 7160   3.268   0.672  11.320 -0.4138 -0.2549  0.5651
  478TMC3    C2 7161   3.176   0.723  11.410  0.1732 -0.8650  0.7931
  478TMC3    C3 7162   3.095   0.818  11.354  0.1745  0.4375  0.3770
  478TMC3    C4 7163   3.282   0.725  11.197 -1.1424 -0.2317  0.2191
  478TMC3    C5 7164   3.205   0.831  11.149 -0.0648  0.4681  0.0161
  478TMC3    C6 7165   3.103   0.885  11.230 -0.3326 -0.1052 -0.6924
  478TMC3     C 7166   3.361   0.583  11.382  0.0807  0.2899 -0.1030
  478TMC3     O 7167   3.379   0.580  11.507 -0.0709 -0.3021  0.2722
  478TMC3     H 7168   3.162   0.683  11.510  0.7886  0.1125  1.2741
  478TMC3    H1 7169   3.362   0.690  11.133  0.6727  1.0891  1.7636
  478TMC3    H2 7170   3.033   0.963  11.203 -1.1956 -0.7002 -0.1721
  478TMC3    C7 7171   3.160   0.802  11.014 -0.5848  0.3448  0.1206
  478TMC3    C8 7172   2.987   0.865  11.440 -0.4612 -0.5872 -0.1254
  478TMC3    O1 7173   3.186   0.693  10.963 -0.6302  0.3821 -0.8591
  478TMC3    O2 7174   2.917   0.781  11.496  0.3376 -0.0197  0.2358
  479MPD2     C 7175   2.450   3.290  15.254  0.1243 -0.5494  0.5367
  479MPD2    C1 7176   2.388   3.225  15.361 -0.1934  1.1619  0.2048
  479MPD2    C2 7177   2.397   3.296  15.478 -0.3173 -0.0877  0.0891
  479MPD2    C3 7178   2.451   3.420  15.488  0.2296  0.0922 -0.2379
  479MPD2    C4 7179   2.515   3.477  15.382  0.1381  0.9624  1.1698
  479MPD2    C5 7180   2.529   3.402  15.263 -0.0954  0.3236 -0.1045
  479MPD2     H 7181   2.359   3.245  15.566 -0.1018 -0.6174 -0.1252
  479MPD2    H1 7182   2.557   3.576  15.395  1.4496  0.6812 -0.8812
  479MPD2    H2 7183   2.448   3.242  15.157  0.6000  2.1128 -0.7833
  479MPD2    H3 7184   2.591   3.434  15.180 -0.5191  1.1247 -0.1049
  479MPD2     N 7185   2.429   3.498  15.610  0.1772 -0.0230 -0.1799
  479MPD2    H5 7186   2.479   3.586  15.608 -0.5013  0.3799  1.0487
  479MPD2    N1 7187   2.300   3.114  15.340  0.4503 -0.9535 -0.5028
  479MPD2    H7 7188   2.286   3.079  15.246 -0.9902  2.1949 -1.4493
  480TMC3    C1 7189   2.057   3.261  15.757 -0.0191  0.8249  0.4664
  480TMC3    C2 7190   1.977   3.285  15.651  0.4717  0.1965  0.4757
  480TMC3    C3 7191   2.030   3.369  15.557 -0.0344 -0.3661  0.5297
  480TMC3    C4 7192   2.175   3.324  15.784  0.0215 -0.6149  0.1720
  480TMC3    C5 7193   2.218   3.411  15.694 -0.5924 -0.1066 -0.1174
  480TMC3    C6 7194   2.153   3.434  15.576 -0.0907  0.7426  0.1743
  480TMC3     C 7195   2.045   3.144  15.836  0.4578  0.1372  0.0116
  480TMC3     O 7196   2.150   3.102  15.891 -0.3216  0.5283  0.6840
  480TMC3     H 7197   1.885   3.232  15.632  1.3202 -0.6580 -1.3037
  480TMC3    H1 7198   2.229   3.330  15.878  0.3307  4.1747 -0.2811
  480TMC3    H2 7199   2.193   3.517  15.519  1.4127 -1.0219 -1.3617
  480TMC3    C7 7200   2.343   3.475  15.716 -0.3429 -0.5759  0.2653
  480TMC3    C8 7201   1.974   3.369  15.426  0.3285 -0.2388 -0.3149
  480TMC3    O1 7202   2.369   3.522  15.825 -0.0442  0.2708 -0.1126
  480TMC3    O2 7203   1.862   3.327  15.426 -0.4259  0.0307 -0.3451
  481MPD2     C 7204   3.917   2.548  13.847 -0.1374  0.0474  0.2211
  481MPD2    C1 7205   3.858   2.456  13.918 -0.3507  0.1067  0.4330
  481MPD2    C2 7206   3.900   2.427  14.050 -0.3616  0.3210  0.4477
  481MPD2    C3 7207   4.009   2.491  14.097  0.1626 -0.6323  0.7934
  481MPD2    C4 7208   4.077   2.582  14.020  0.3947 -0.0720  0.1044
  481MPD2    C5 7209   4.025   2.610  13.900 -0.2024  0.0199  0.0705
  481MPD2     H 7210   3.849   2.364  14.122 -0.5586 -0.5135 -0.4096
  481MPD2    H1 7211   4.174   2.624  14.046 -0.0606  0.1257  1.4517
  481MPD2    H2 7212   3.880   2.584  13.751  3.4458 -3.8864 -2.6179
  481MPD2    H3 7213   4.075   2.688  13.845  1.2292 -1.2606 -0.4496
  481MPD2     N 7214   4.055   2.475  14.228 -0.1281  0.4674  0.0657
  481MPD2    H5 7215   4.118   2.546  14.263 -0.5780  0.0451  1.7229
  481MPD2    N1 7216   3.736   2.401  13.862  0.1817 -0.0719 -0.0512
  481MPD2    H7 7217   3.703   2.438  13.774  0.4102 -0.1675 -0.1785
  482TMC3    C1 7218   3.529   2.300  13.853 -0.6273 -0.5260  0.1068
  482TMC3    C2 7219   3.530   2.242  13.732 -0.4468  0.0139  0.3470
  482TMC3    C3 7220   3.444   2.280  13.635  0.0107 -0.9189  0.5090
  482TMC3    C4 7221   3.452   2.408  13.876  0.3322  0.0341 -0.0518
  482TMC3    C5 7222   3.359   2.444  13.779 -0.0559 -0.0488  0.0234
  482TMC3    C6 7223   3.353   2.380  13.655  0.3430 -0.5525 -0.1826
  482TMC3     C 7224   3.650   2.308  13.918 -0.0970 -0.0699 -0.2223
  482TMC3     O 7225   3.652   2.249  14.023  0.2494  0.1269 -0.0559
  482TMC3     H 7226   3.603   2.164  13.711 -0.0310  0.3087  0.6843
  482TMC3    H1 7227   3.466   2.464  13.968 -0.8527 -2.1449  1.4513
  482TMC3    H2 7228   3.284   2.409  13.577 -0.5778 -1.9448  0.1000
  482TMC3    C7 7229   3.301   2.571  13.784 -0.4810  0.0388  0.0738
  482TMC3    C8 7230   3.431   2.185  13.527  0.1167 -0.0424  0.1613
  482TMC3    O1 7231   3.225   2.612  13.870  0.0422 -0.4110  0.0145
  482TMC3    O2 7232   3.475   2.074  13.543 -0.7207  0.1719 -0.4348
  483TMC3    C1 7233   2.159   1.398   1.219 -0.8682 -0.0013 -0.8351
  483TMC3    C2 7234   2.281   1.444   1.180  0.0675  0.0488 -0.0018
  483TMC3    C3 7235   2.362   1.358   1.126  0.3774 -0.2929  0.2641
  483TMC3    C4 7236   2.131   1.265   1.234 -0.4435  0.1493 -0.6082
  483TMC3    C5 7237   2.224   1.178   1.188 -0.3649  0.3407  0.0165
  483TMC3    C6 7238   2.345   1.221   1.136  0.3917  0.6067  0.2783
  483TMC3     C 7239   2.052   1.478   1.161 -1.2610 -0.2886 -0.1547
  483TMC3     O 7240   2.059   1.599   1.144  0.0348 -0.1782 -0.0286
  483TMC3     H 7241   2.281   1.543   1.136  0.7401 -0.4108 -1.0462
  483TMC3    H1 7242   2.043   1.240   1.292  0.7441  0.0983  1.1668
  483TMC3    H2 7243   2.412   1.152   1.087  0.9312  1.8612 -0.7521
  483TMC3    C7 7244   2.171   1.050   1.151  0.1350  0.1285 -0.1407
  483TMC3    C8 7245   2.425   1.411   1.007  0.0797 -0.1075 -0.1236
  483TMC3    O1 7246   2.049   1.047   1.133 -0.3180 -0.4201 -0.6568
  483TMC3    O2 7247   2.417   1.353   0.899 -0.0628  0.1132  0.5244
  484MPD2     C 7248   4.602   4.286  13.370 -0.1145 -0.3695 -0.6106
  484MPD2    C1 7249   4.544   4.271  13.246 -0.1718  0.9397 -0.6955
  484MPD2    C2 7250   4.632   4.232  13.147 -0.4446  0.0133 -0.1687
  484MPD2    C3 7251   0.029   4.213  13.175 -0.3848 -0.2029 -0.4427
  484MPD2    C4 7252   0.079   4.237  13.298  0.3038 -0.0450 -0.1820
  484MPD2    C5 7253   4.735   4.271  13.402  0.1985  0.2016 -0.0511
  484MPD2     H 7254   4.595   4.201  13.050  0.7756  0.7134 -0.8574
  484MPD2    H1 7255   0.185   4.228  13.318  0.0282 -2.4573  0.2561
  484MPD2    H2 7256   4.550   4.313  13.461 -1.2780 -0.6909 -1.1930
  484MPD2    H3 7257   0.039   4.310  13.494 -0.7478  3.4383 -1.0110
  484MPD2     N 7258   0.118   4.157  13.076 -0.1172 -0.1880  0.0645
  484MPD2    H5 7259   0.194   4.104  13.117  1.1006  0.7316 -0.9886
  484MPD2    N1 7260   4.403   4.287  13.236 -0.2101 -0.1744 -0.3229
  484MPD2    H7 7261   4.352   4.299  13.323  0.5403 -1.9805  0.3648
  485TMC3    C1 7262   0.216   4.121  12.874  0.1194 -0.4654  0.6912
  485TMC3    C2 7263   0.340   4.081  12.921  0.5698  0.5160 -0.2677
  485TMC3    C3 7264   0.424   3.991  12.852 -0.6713  0.8294  0.3846
  485TMC3    C4 7265   0.174   4.072  12.749 -0.6414  0.3995 -0.1126
  485TMC3    C5 7266   0.261   3.988  12.678 -0.1047  0.1017 -0.7815
  485TMC3    C6 7267   0.376   3.941  12.732 -0.0178 -0.3897 -0.1083
  485TMC3     C 7268   0.111   4.178  12.943 -0.1557  0.2525  0.5507
  485TMC3     O 7269   0.013   4.223  12.879 -0.1092 -0.7474  0.6945
  485TMC3     H 7270   0.372   4.120  13.017  0.1695  1.4969 -0.5442
  485TMC3    H1 7271   0.072   4.076  12.710 -0.6182 -0.0316 -0.2163
  485TMC3    H2 7272   0.451   3.905  12.664  0.4205 -0.2093  0.2790
  485TMC3    C7 7273   0.283   4.032  12.539 -0.2790 -0.2193  0.1343
  485TMC3    C8 7274   0.563   4.030  12.852 -0.3115 -0.0495 -0.4381
  485TMC3    O1 7275   0.375   3.983  12.475 -0.4115  0.1606  0.0293
  485TMC3    O2 7276   0.587   4.148  12.860 -0.2484 -0.1204  0.6888
  486MPD2     C 7277   2.339   2.692  12.699  0.0543  0.5793 -0.0374
  486MPD2    C1 7278   2.209   2.637  12.690  0.3196 -0.0345  0.3730
  486MPD2    C2 7279   2.098   2.720  12.664  0.5127  0.4414 -0.4937
  486MPD2    C3 7280   2.115   2.853  12.651  0.4170 -0.2349  0.6661
  486MPD2    C4 7281   2.243   2.903  12.661  0.1485 -0.5678  0.0079
  486MPD2    C5 7282   2.352   2.826  12.694  0.0618  0.1266 -0.2228
  486MPD2     H 7283   2.000   2.674  12.655  0.0383  0.9947  1.7750
  486MPD2    H1 7284   2.271   3.007  12.651  1.6994 -0.8808  1.0401
  486MPD2    H2 7285   2.426   2.627  12.711 -1.2534 -1.3494 -1.0059
  486MPD2    H3 7286   2.453   2.867  12.700 -0.2588  0.8767 -0.0348
  486MPD2     N 7287   2.000   2.941  12.640 -0.2119 -0.5758  0.4693
  486MPD2    H5 7288   1.913   2.897  12.611 -0.5700  1.8719 -2.1083
  486MPD2    N1 7289   2.204   2.494  12.720  0.0298 -0.3726  0.0035
  486MPD2    H7 7290   2.291   2.449  12.747 -0.0682 -0.3039  0.4260
  487TMC3    C1 7291   2.094   2.291  12.762 -0.1231 -0.1220  0.5460
  487TMC3    C2 7292   2.029   2.190  12.699 -0.0620  0.2045  1.1803
  487TMC3    C3 7293   1.996   2.078  12.775 -0.7153 -0.7069  0.6538
  487TMC3    C4 7294   2.131   2.290  12.893 -0.0968  0.2596  0.2945
  487TMC3    C5 7295   2.103   2.176  12.965  0.5554 -0.6868  0.3976
  487TMC3    C6 7296   2.048   2.074  12.899 -0.0714 -0.0964 -0.1793
  487TMC3     C 7297   2.088   2.424  12.712 -0.4523 -0.7048 -1.2769
  487TMC3     O 7298   1.972   2.448  12.673  0.2344 -0.2606 -0.5607
  487TMC3     H 7299   1.991   2.201  12.598  1.1654 -0.3198  0.6546
  487TMC3    H1 7300   2.149   2.387  12.939  0.9946 -0.8459  2.1624
  487TMC3    H2 7301   2.020   1.996  12.969  1.5642 -1.8495 -1.4956
  487TMC3    C7 7302   2.072   2.183  13.108  0.5605 -0.5072  0.2718
  487TMC3    C8 7303   1.853   2.064  12.760  0.2979  0.5172 -0.4975
  487TMC3    O1 7304   1.973   2.115  13.138 -0.0012 -0.3220  0.0866
  487TMC3    O2 7305   1.794   2.158  12.704 -0.3610  0.3562 -0.0505
  488MPD2     C 7306   1.849   0.160  15.803 -0.8682 -0.1210  0.4546
  488MPD2    C1 7307   1.855   0.274  15.891  0.1294  0.0322  0.5964
  488MPD2    C2 7308   1.811   0.266  16.019  0.1279  0.6047  0.1217
  488MPD2    C3 7309   1.739   0.148  16.060  0.6052 -0.1533 -0.1095
  488MPD2    C4 7310   1.741   0.043  15.978  0.3735  0.7845 -0.6328
  488MPD2    C5 7311   1.794   0.045  15.853  0.6853 -0.3391  0.5673
  488MPD2     H 7312   1.817   0.355  16.080 -0.4981  0.0570  0.9851
  488MPD2    H1 7313   1.706   4.685  16.014  1.0243 -0.3658 -3.1071
  488MPD2    H2 7314   1.901   0.154  15.708  0.6301  1.5925  1.1692
  488MPD2    H3 7315   1.802   4.694  15.792 -3.2169 -0.0594 -0.3740
  488MPD2     N 7316   1.690   0.146  16.194 -0.1554 -0.0529  0.0591
  488MPD2    H5 7317   1.720   0.223  16.253  1.7481 -2.5337  2.3510
  488MPD2    N1 7318   1.903   0.402  15.854 -0.1305 -0.9554 -0.2534
  488MPD2    H7 7319   1.904   0.470  15.930  0.4988 -0.5285 -0.6462
  489TMC3    C1 7320   1.571   0.075  16.385  0.0305  0.0352  0.1434
  489TMC3    C2 7321   1.587   0.195  16.450  0.2663 -0.2721  0.0868
  489TMC3    C3 7322   1.598   0.193  16.590 -0.4028  0.0924 -0.6242
  489TMC3    C4 7323   1.565   4.693  16.453 -0.0835  0.1366  0.4556
  489TMC3    C5 7324   1.553   4.697  16.595  0.3621  0.8362 -0.2971
  489TMC3    C6 7325   1.570   0.079  16.660  0.1655  0.1840 -0.2007
  489TMC3     C 7326   1.602   0.051  16.245 -0.0670  0.2191  0.1160
  489TMC3     O 7327   1.574   4.682  16.199  0.1271 -0.0998  0.1427
  489TMC3     H 7328   1.590   0.291  16.400  1.7474 -0.6114 -0.4764
  489TMC3    H1 7329   1.556   4.598  16.402  2.7729  0.5449 -0.8041
  489TMC3    H2 7330   1.593   0.078  16.766  2.9775  1.8142 -0.8095
  489TMC3    C7 7331   1.532   4.575  16.674  0.3920  1.1932 -0.3437
  489TMC3    C8 7332   1.680   0.295  16.657 -0.3594  0.9124  0.0534
  489TMC3    O1 7333   1.547   4.466  16.617 -0.9146 -0.3801  0.2971
  489TMC3    O2 7334   1.728   0.378  16.583  0.1731  0.4403  0.5316
  490MPD2     C 7335   2.358   4.272  17.513 -0.0150  0.2737 -0.3437
  490MPD2    C1 7336   2.480   4.210  17.489  0.1975  0.6957 -0.5657
  490MPD2    C2 7337   2.590   4.269  17.553 -0.3327 -0.2624 -0.1754
  490MPD2    C3 7338   2.576   4.367  17.647  0.6315  0.2684 -0.0039
  490MPD2    C4 7339   2.456   4.426  17.667  0.2309  0.5750 -0.5427
  490MPD2    C5 7340   2.348   4.380  17.602 -0.4581  1.1035 -0.3042
  490MPD2     H 7341   2.684   4.217  17.539 -0.0307  0.5666 -1.2606
  490MPD2    H1 7342   2.443   4.518  17.723 -1.1020 -0.3534  0.6607
  490MPD2    H2 7343   2.262   4.240  17.471  0.3729 -1.4269  0.0505
  490MPD2    H3 7344   2.252   4.424  17.625  0.1905  1.3676  1.9039
  490MPD2     N 7345   2.685   4.427  17.716  0.4096  0.0246  0.1793
  490MPD2    H5 7346   2.668   4.497   0.038 -1.0421  0.9191 -1.0202
  490MPD2    N1 7347   2.497   4.089  17.420  0.0901  0.5583 -0.8104
  490MPD2    H7 7348   2.587   4.042  17.411 -0.8004 -1.7550  2.0716
  491TMC3    C1 7349   2.440   3.886  17.336 -0.5468 -0.1907  0.0134
  491TMC3    C2 7350   2.544   3.823  17.404 -0.1366 -0.1576  0.5229
  491TMC3    C3 7351   2.578   3.696  17.366  0.0085  0.2146  0.1789
  491TMC3    C4 7352   2.377   3.825  17.230  0.2103  0.4310  0.7717
  491TMC3    C5 7353   2.422   3.701  17.187  0.0570  0.6651 -0.7753
  491TMC3    C6 7354   2.533   3.639  17.248 -0.0320 -0.3215 -0.4330
  491TMC3     C 7355   2.394   4.014  17.375 -0.0832  0.5712  0.5215
  491TMC3     O 7356   2.277   4.040  17.347 -0.5138  0.0657 -0.1069
  491TMC3     H 7357   2.576   3.847  17.505 -1.0022 -0.4615  0.8642
  491TMC3    H1 7358   2.294   3.871  17.177 -1.3819 -2.9936  0.2683
  491TMC3    H2 7359   2.557   3.535  17.230  0.0850 -0.1825 -1.0824
  491TMC3    C7 7360   2.358   3.648  17.074 -0.4192  0.0133  0.2252
  491TMC3    C8 7361   2.587   3.603  17.475 -0.4935  0.5366 -0.3375
  491TMC3    O1 7362   2.261   3.710  17.034  0.0685 -0.1170  0.0223
  491TMC3    O2 7363   2.527   3.498  17.463  0.5398 -0.4909  0.2479
  492MPD2     C 7364   3.429   4.382  11.013 -0.1013  0.0071  0.1458
  492MPD2    C1 7365   3.342   4.278  10.994 -0.7585  0.2453  0.2723
  492MPD2    C2 7366   3.348   4.165  11.081  0.1184 -0.3511 -0.7959
  492MPD2    C3 7367   3.426   4.163  11.195 -0.0481  0.4039  0.2060
  492MPD2    C4 7368   3.521   4.261  11.206 -0.2666  0.0348  0.0106
  492MPD2    C5 7369   3.521   4.367  11.115 -0.9401  0.0907 -0.8808
  492MPD2     H 7370   3.287   4.078  11.060 -0.1330 -0.7836  1.8256
  492MPD2    H1 7371   3.589   4.275  11.288 -1.4165  0.8735  0.8251
  492MPD2    H2 7372   3.428   4.464  10.942 -0.2598 -1.2698 -1.3210
  492MPD2    H3 7373   3.602   4.438  11.127 -0.8540 -0.0474 -0.6510
  492MPD2     N 7374   3.430   4.065  11.294  0.1061  0.4150 -0.3300
  492MPD2    H5 7375   3.482   4.080  11.380  1.2882 -0.2168 -0.9412
  492MPD2    N1 7376   3.267   4.280  10.871 -0.3049  0.0291  0.2119
  492MPD2    H7 7377   3.289   4.354  10.805  3.4498 -0.9191  0.3997
  493TMC3    C1 7378   3.096   4.226  10.711 -0.0211 -0.5151  0.4028
  493TMC3    C2 7379   3.081   4.350  10.665  0.1521 -0.3237 -0.1003
  493TMC3    C3 7380   2.998   4.378  10.564 -1.2266 -0.5021 -0.8094
  493TMC3    C4 7381   3.029   4.124  10.656 -1.0017 -0.3808 -0.4572
  493TMC3    C5 7382   2.943   4.151  10.551  0.0744 -0.5033 -0.3826
  493TMC3    C6 7383   2.929   4.278  10.503  0.0309  0.4638 -0.0277
  493TMC3     C 7384   3.162   4.192  10.837 -0.3243 -0.0120  0.3352
  493TMC3     O 7385   3.123   4.096  10.901  0.0506  0.5931 -0.0155
  493TMC3     H 7386   3.152   4.419  10.711  0.8381  1.2774 -3.6241
  493TMC3    H1 7387   3.026   4.023  10.693  0.5847 -0.1156  0.3964
  493TMC3    H2 7388   2.855   4.297  10.426 -2.0922 -2.3642  1.2930
  493TMC3    C7 7389   2.835   4.059  10.498 -0.1503 -0.5528  0.0697
  493TMC3    C8 7390   2.975   4.513  10.509 -0.3621  0.3013 -0.1656
  493TMC3    O1 7391   2.757   4.105  10.414  0.4689  0.5184 -0.0290
  493TMC3    O2 7392   2.865   4.527  10.453 -0.1997 -0.4579 -0.1223
  494TMC3    C1 7393   3.308   1.359   0.464 -0.1440 -0.5402 -0.0832
  494TMC3    C2 7394   3.264   1.236   0.431  0.5127 -0.2285 -0.9171
  494TMC3    C3 7395   3.291   1.198   0.304 -0.1113 -0.5500  0.0406
  494TMC3    C4 7396   3.374   1.439   0.379 -0.0817  0.5000 -0.6605
  494TMC3    C5 7397   3.400   1.399   0.254 -0.1694  0.3696 -0.4261
  494TMC3    C6 7398   3.356   1.273   0.215 -0.3887  0.4124  0.1798
  494TMC3     C 7399   3.322   1.386   0.604 -0.8372  0.1952 -0.3991
  494TMC3     O 7400   3.393   1.482   0.633  0.1784 -0.1511 -0.1585
  494TMC3     H 7401   3.229   1.167   0.508  0.9171 -1.3817 -1.7728
  494TMC3    H1 7402   3.411   1.535   0.413 -1.1908  0.1357  1.6138
  494TMC3    H2 7403   3.374   1.235   0.115  0.0447 -1.5844  1.0154
  494TMC3    C7 7404   3.471   1.482   0.157  0.6227 -0.0779 -0.2373
  494TMC3    C8 7405   3.298   1.051   0.287 -0.0667 -0.2546 -0.0561
  494TMC3    O1 7406   3.524   1.417   0.071  0.0298  0.1026  1.0072
  494TMC3    O2 7407   3.315   0.979   0.384  0.2609 -0.6152 -0.3104
  495TMC3    C1 7408   2.512   3.277  14.608  0.3434 -0.0992  0.3997
  495TMC3    C2 7409   2.448   3.314  14.494  0.8809 -0.2002  0.2025
  495TMC3    C3 7410   2.343   3.413  14.511  0.0941 -0.4442  0.6837
  495TMC3    C4 7411   2.485   3.323  14.730 -0.6534 -0.1350  0.4947
  495TMC3    C5 7412   2.391   3.421  14.741 -0.2379  0.2439 -0.3531
  495TMC3    C6 7413   2.328   3.478  14.630 -0.3442 -0.2438 -0.2779
  495TMC3     C 7414   2.519   3.131  14.621 -0.3384  0.6975 -0.7476
  495TMC3     O 7415   2.442   3.081  14.700  0.4807  0.3921  0.2150
  495TMC3     H 7416   2.473   3.277  14.395  2.6989  0.1660  0.5365
  495TMC3    H1 7417   2.522   3.271  14.818 -0.9228 -0.2265  0.5565
  495TMC3    H2 7418   2.264   3.565  14.639 -1.2657 -0.6699 -2.7591
  495TMC3    C7 7419   2.305   3.412  14.867  0.3474  0.1423  0.1660
  495TMC3    C8 7420   2.219   3.354  14.461  0.1645  0.1516  0.1903
  495TMC3    O1 7421   2.338   3.328  14.947 -0.2994 -0.3424 -0.1310
  495TMC3    O2 7422   2.114   3.415  14.490 -0.5066 -0.2903 -0.2804
  496MPD2     C 7423   4.180   3.164  14.915  0.2499 -0.5609  0.1030
  496MPD2    C1 7424   4.228   3.225  15.030  0.1791  0.1425 -0.0056
  496MPD2    C2 7425   4.171   3.196  15.149 -0.3292  0.5744  0.3510
  496MPD2    C3 7426   4.053   3.125  15.154 -0.0774 -0.0034 -0.3407
  496MPD2    C4 7427   3.994   3.090  15.032  0.0387  0.0928  0.1695
  496MPD2    C5 7428   4.069   3.092  14.915  0.4556  1.0600 -0.1593
  496MPD2     H 7429   4.198   3.230  15.248 -0.9318  3.4223 -0.4649
  496MPD2    H1 7430   3.897   3.043  15.018  0.3758 -0.5758  0.1008
  496MPD2    H2 7431   4.241   3.163  14.825  2.1050 -0.4727  1.3421
  496MPD2    H3 7432   4.022   3.048  14.829  2.0255  1.1798 -1.0727
  496MPD2     N 7433   3.992   3.088  15.270 -0.5743  0.4395  0.1361
  496MPD2    H5 7434   3.895   3.056  15.266 -0.9070  1.3960  0.4073
  496MPD2    N1 7435   4.348   3.299  15.022  0.0064  0.0282 -0.3230
  496MPD2    H7 7436   4.398   3.296  14.934  0.8443 -1.6207  0.2116
  497TMC3    C1 7437   3.961   3.050  15.500  0.3607  0.4382  0.0785
  497TMC3    C2 7438   3.828   3.067  15.481  0.4513  0.0520  0.0140
  497TMC3    C3 7439   3.735   3.021  15.574 -0.6075 -0.5739  0.1310
  497TMC3    C4 7440   4.012   2.986  15.615  0.7886 -0.0451  0.9191
  497TMC3    C5 7441   3.918   2.945  15.705 -0.0234  0.5922  0.3024
  497TMC3    C6 7442   3.780   2.951  15.682  0.6767 -0.5985  0.3007
  497TMC3     C 7443   4.052   3.083  15.396 -0.2879  0.8567 -0.4387
  497TMC3     O 7444   4.169   3.071  15.411 -0.1238  0.2977 -0.1784
  497TMC3     H 7445   3.781   3.113  15.394  2.3722  1.4327 -0.2757
  497TMC3    H1 7446   4.118   2.964  15.623  1.0728  1.0883  0.2408
  497TMC3    H2 7447   3.711   2.918  15.759  0.3809 -2.3484 -0.7091
  497TMC3    C7 7448   3.958   2.867  15.819 -0.1180 -0.5717  0.2799
  497TMC3    C8 7449   3.596   3.066  15.564  0.4705  0.6706  0.2575
  497TMC3    O1 7450   3.880   2.777  15.859 -0.1412 -0.4691  0.7963
  497TMC3    O2 7451   3.536   3.070  15.457  0.4978 -0.1639 -0.2454
  498MPD2     C 7452   0.794   4.138   9.744  0.1847  0.7605 -1.0526
  498MPD2    C1 7453   0.702   4.224   9.801  0.0211 -0.1505  0.5084
  498MPD2    C2 7454   0.565   4.195   9.803 -0.0730 -0.2697 -0.5072
  498MPD2    C3 7455   0.515   4.077   9.744 -0.2022 -0.5062 -0.4547
  498MPD2    C4 7456   0.606   3.992   9.688  0.2490 -0.1142  0.0671
  498MPD2    C5 7457   0.742   4.020   9.681  0.3762  0.4154  0.6582
  498MPD2     H 7458   0.505   4.266   9.859 -1.8532 -1.5050 -0.8533
  498MPD2    H1 7459   0.584   3.903   9.630 -0.7360  2.0014 -2.7701
  498MPD2    H2 7460   0.901   4.154   9.739  0.4838 -0.7484  0.7393
  498MPD2    H3 7461   0.813   3.957   9.629 -2.2782 -0.6100 -1.6726
  498MPD2     N 7462   0.382   4.045   9.754 -0.0501  0.0326 -0.0807
  498MPD2    H5 7463   0.322   4.108   9.806  2.3130  2.9452 -0.8567
  498MPD2    N1 7464   0.739   4.348   9.857 -0.1910  0.2786  0.0582
  498MPD2    H7 7465   0.667   4.419   9.871 -1.8064 -1.1428 -0.9346
  499TMC3    C1 7466   0.877   4.512   9.949 -0.3037 -0.0972  0.2390
  499TMC3    C2 7467   1.000   4.540  10.012 -0.3266  0.4288  0.6164
  499TMC3    C3 7468   1.044   4.673  10.015 -0.7047 -0.0965 -0.3329
  499TMC3    C4 7469   0.800   4.614   9.898  0.1620  0.3973  0.3697
  499TMC3    C5 7470   0.839   0.005   9.912 -0.4166 -0.0647 -0.3322
  499TMC3    C6 7471   0.966   0.036   9.961 -0.3596 -0.1458  0.3936
  499TMC3     C 7472   0.869   4.381   9.893  0.1087  0.0759  0.6594
  499TMC3     O 7473   0.977   4.319   9.893 -0.4368  0.4682  0.2470
  499TMC3     H 7474   1.060   4.458  10.050  0.2744  0.8326  0.5309
  499TMC3    H1 7475   0.738   4.588   9.813  0.1733 -0.1471  0.5265
  499TMC3    H2 7476   1.004   0.136   9.974 -0.0517 -0.2843  0.5526
  499TMC3    C7 7477   0.745   0.111   9.868 -0.1301 -0.3582  0.8326
  499TMC3    C8 7478   1.167   4.694  10.084  0.3131  0.3052 -0.0166
  499TMC3    O1 7479   0.801   0.224   9.864  0.1617 -0.3837  0.0014
  499TMC3    O2 7480   1.202   4.617  10.174  0.1864  0.7057 -0.1866
  500MPD2     C 7481   2.057   0.378  10.462  0.4270 -0.2498 -0.4376
  500MPD2    C1 7482   2.062   0.461  10.347 -0.2566 -0.1748 -0.4019
  500MPD2    C2 7483   1.940   0.500  10.286 -0.9350  0.3083 -0.1032
  500MPD2    C3 7484   1.816   0.458  10.338 -0.6483 -0.3972 -0.7494
  500MPD2    C4 7485   1.818   0.372  10.445  0.4670  0.2728 -0.1815
  500MPD2    C5 7486   1.937   0.320  10.493 -0.4601 -0.0495 -0.7131
  500MPD2     H 7487   1.936   0.576  10.209 -2.2797 -0.6754 -1.0242
  500MPD2    H1 7488   1.723   0.335  10.482 -0.4910  2.2213 -0.7281
  500MPD2    H2 7489   2.146   0.346  10.515 -0.3718 -2.5150 -0.4372
  500MPD2    H3 7490   1.928   0.257  10.581  0.8490  0.0074 -0.5355
  500MPD2     N 7491   1.691   0.493  10.290 -0.3963  0.0826  0.1417
  500MPD2    H5 7492   1.614   0.444  10.334  0.2544 -0.6106  0.5325
  500MPD2    N1 7493   2.176   0.518  10.283  0.5002  0.1080  0.6871
  500MPD2    H7 7494   2.159   0.563  10.194 -0.9885 -2.0506 -0.1324
  501TMC3    C1 7495   2.402   0.572  10.252  0.3581 -0.9507 -0.3126
  501TMC3    C2 7496   2.388   0.710  10.223 -0.0709  0.9199  0.0329
  501TMC3    C3 7497   2.506   0.771  10.188 -0.4048 -0.1717  0.0380
  501TMC3    C4 7498   2.529   0.517  10.275  0.1929  0.1600 -0.6946
  501TMC3    C5 7499   2.639   0.589  10.256 -0.8948 -0.4507 -0.0884
  501TMC3    C6 7500   2.631   0.718  10.215 -0.0230  0.4992 -0.0534
  501TMC3     C 7501   2.300   0.504  10.330  0.3224 -0.4292  0.1894
  501TMC3     O 7502   2.333   0.441  10.432  0.5609  0.2909  0.0736
  501TMC3     H 7503   2.292   0.759  10.205  0.1536  1.0941 -0.6807
  501TMC3    H1 7504   2.523   0.415  10.313 -1.1458  0.9247  1.1587
  501TMC3    H2 7505   2.709   0.791  10.194 -0.4972  1.2685  0.8709
  501TMC3    C7 7506   2.756   0.531  10.319  0.2290 -0.4093 -0.6184
  501TMC3    C8 7507   2.510   0.916  10.205  0.3374  0.2765 -0.1734
  501TMC3    O1 7508   2.754   0.413  10.340 -0.2182 -0.0870 -0.0262
  501TMC3    O2 7509   2.572   0.948  10.301 -0.5865 -0.0169 -0.4148
  502TMC3    C1 7510   1.587   4.627  14.993  0.0140 -0.3121 -0.2358
  502TMC3    C2 7511   1.558   0.020  15.032 -0.3725 -0.3326  0.1292
  502TMC3    C3 7512   1.433   0.065  15.005 -0.0760  0.4203 -0.2228
  502TMC3    C4 7513   1.493   4.540  14.946 -0.2149 -0.4748 -0.1773
  502TMC3    C5 7514   1.369   4.592  14.925 -0.3679 -0.1007 -0.1394
  502TMC3    C6 7515   1.341   4.722  14.939  0.2548 -0.6087 -0.1984
  502TMC3     C 7516   1.708   4.569  15.041 -0.0084 -0.5066  0.9151
  502TMC3     O 7517   1.805   4.640  15.063 -0.1213 -0.0211 -0.2166
  502TMC3     H 7518   1.640   0.080  15.069  0.0356 -1.0150  0.3275
  502TMC3    H1 7519   1.507   4.437  14.916  1.9535 -0.0412 -0.6610
  502TMC3    H2 7520   1.245   0.022  14.907  1.5642  1.5688 -1.5406
  502TMC3    C7 7521   1.259   4.499  14.899 -0.3088 -0.0757  0.2101
  502TMC3    C8 7522   1.414   0.205  14.978 -0.0167  0.1913  0.2434
  502TMC3    O1 7523   1.295   4.394  14.847  0.0682 -0.2091  0.2955
  502TMC3    O2 7524   1.369   0.240  14.871  0.3602 -0.1090  0.2028
  503MPD2     C 7525   3.385   0.103  16.945 -0.5553 -0.4163 -0.4889
  503MPD2    C1 7526   3.499   0.170  16.998  0.5017 -0.4300 -0.7884
  503MPD2    C2 7527   3.606   0.088  17.044  0.6153 -0.5474  0.4449
  503MPD2    C3 7528   3.611   4.691  17.021  0.3262 -0.2991 -0.2714
  503MPD2    C4 7529   3.502   4.635  16.960 -0.1082 -0.4669 -0.6514
  503MPD2    C5 7530   3.388   4.705  16.925  0.2651 -0.3683  0.4708
  503MPD2     H 7531   3.692   0.129  17.096 -0.2206 -0.2832  1.6239
  503MPD2    H1 7532   3.503   4.530  16.935  1.6721 -0.6711  0.2574
  503MPD2    H2 7533   3.302   0.164  16.910  0.5537  0.2134 -2.0728
  503MPD2    H3 7534   3.303   4.656  16.878  0.4766  0.2968 -0.6075
  503MPD2     N 7535   3.717   4.612  17.058  0.4190  0.1535  0.1453
  503MPD2    H5 7536   3.800   4.662  17.090 -0.2381 -0.7205  3.1842
  503MPD2    N1 7537   3.522   0.302  16.995  0.1446 -0.4025 -0.1418
  503MPD2    H7 7538   3.614   0.335  17.021  0.4750 -0.4255 -1.2870
  504TMC3    C1 7539   3.831   4.439  17.160  0.5379 -0.5400  0.1125
  504TMC3    C2 7540   3.798   4.352  17.264 -0.7022 -0.5003  0.1189
  504TMC3    C3 7541   3.899   4.319  17.349 -0.3969  0.2764  0.0719
  504TMC3    C4 7542   3.954   4.495  17.147 -0.4054 -0.1449  0.1395
  504TMC3    C5 7543   4.048   4.464  17.241  0.0402 -1.1481 -0.5077
  504TMC3    C6 7544   4.027   4.370  17.337 -0.5155 -0.1144 -0.0763
  504TMC3     C 7545   3.721   4.477  17.077 -0.4991 -0.2191 -0.0464
  504TMC3     O 7546   3.642   4.392  17.045 -0.1119 -0.3918 -0.5248
  504TMC3     H 7547   3.694   4.325  17.281 -0.3625 -0.7865  1.7721
  504TMC3    H1 7548   3.970   4.567  17.068  2.1119 -1.6904 -0.7317
  504TMC3    H2 7549   4.112   4.321  17.383 -2.0469 -0.3431  2.5134
  504TMC3    C7 7550   4.180   4.493  17.204 -0.3816 -0.0604 -0.1831
  504TMC3    C8 7551   3.854   4.233  17.452 -0.1641 -0.1297 -0.0716
  504TMC3    O1 7552   4.192   4.497  17.079  0.0302 -0.0089 -0.0121
  504TMC3    O2 7553   3.759   4.169  17.426  0.1952 -0.4812  0.1017
  505MPD2     C 7554   4.047   3.504  10.216  0.0772 -0.1101  0.2108
  505MPD2    C1 7555   4.111   3.504  10.337 -0.1430 -0.4808  0.0411
  505MPD2    C2 7556   4.119   3.623  10.409  0.4302  0.1467 -0.7170
  505MPD2    C3 7557   4.058   3.742  10.369 -0.5355 -0.1823  0.4214
  505MPD2    C4 7558   3.984   3.736  10.253 -0.6143  0.2780 -0.3168
  505MPD2    C5 7559   3.987   3.622  10.177  0.0921  0.3980  0.1997
  505MPD2     H 7560   4.179   3.624  10.500 -1.2884  0.6314  0.4268
  505MPD2    H1 7561   3.937   3.820  10.204  2.1917  0.6998 -2.3270
  505MPD2    H2 7562   4.050   3.417  10.151 -1.8452  0.9277 -1.2729
  505MPD2    H3 7563   3.930   3.618  10.085  0.6513  1.5960 -0.2097
  505MPD2     N 7564   4.068   3.865  10.435  0.3807 -0.8291 -0.2659
  505MPD2    H5 7565   4.027   3.943  10.384  2.2329  0.8301  0.7906
  505MPD2    N1 7566   4.180   3.390  10.385  0.2328 -0.6090 -0.4647
  505MPD2    H7 7567   4.199   3.315  10.319 -1.0749 -0.6021 -0.8691
  506TMC3    C1 7568   4.298   3.260  10.556  0.1319  0.1079 -0.5583
  506TMC3    C2 7569   4.398   3.216  10.464 -0.5794 -0.1214 -0.6373
  506TMC3    C3 7570   4.515   3.165  10.518 -0.2262  0.6975 -0.1439
  506TMC3    C4 7571   4.324   3.264  10.692 -0.2429 -0.5646 -0.4968
  506TMC3    C5 7572   4.441   3.218  10.739 -0.5627 -0.4058 -0.4109
  506TMC3    C6 7573   4.539   3.170  10.647  0.3749  0.3437  0.8618
  506TMC3     C 7574   4.211   3.370  10.521 -0.6075  0.4986  0.2573
  506TMC3     O 7575   4.172   3.440  10.612  0.0694  0.0348 -0.3555
  506TMC3     H 7576   4.387   3.241  10.359  0.7009  1.2579 -0.4407
  506TMC3    H1 7577   4.244   3.281  10.762 -0.1144 -1.6330 -0.0924
  506TMC3    H2 7578   4.639   3.145  10.680  1.3502  2.0266 -0.7680
  506TMC3    C7 7579   4.496   3.307  10.836  0.2933 -0.5212  0.3839
  506TMC3    C8 7580   4.632   3.134  10.437 -0.8431  0.3805  0.1529
  506TMC3    O1 7581   4.597   3.277  10.902  0.2096  0.2989 -0.4547
  506TMC3    O2 7582   4.721   3.061  10.480 -0.0763  0.0368  0.2783
  507TMC3    C1 7583   0.512   4.074  15.729 -0.4799 -0.1182  0.4064
  507TMC3    C2 7584   0.384   4.020  15.741  0.8458 -0.7961 -0.3531
  507TMC3    C3 7585   0.293   4.102  15.796 -0.2075  0.3466  0.3684
  507TMC3    C4 7586   0.548   4.199  15.766 -0.9366  0.0932 -0.0840
  507TMC3    C5 7587   0.452   4.273  15.826  0.3483  0.3079 -0.4136
  507TMC3    C6 7588   0.330   4.222  15.850  0.4273 -0.3169 -0.1114
  507TMC3     C 7589   0.617   3.990  15.672  0.1505 -0.4545 -0.0659
  507TMC3     O 7590   0.696   4.053  15.601 -0.3185  0.1163  0.4416
  507TMC3     H 7591   0.347   3.933  15.689  0.5259 -2.2808  2.3712
  507TMC3    H1 7592   0.650   4.232  15.748 -0.3011 -1.5883  0.4366
  507TMC3    H2 7593   0.256   4.279  15.905 -0.1291  0.2724 -1.4969
  507TMC3    C7 7594   0.444   4.412  15.789 -0.1081  0.3206  0.3065
  507TMC3    C8 7595   0.172   4.113  15.712 -0.3527 -0.2345  0.3553
  507TMC3    O1 7596   0.334   4.467  15.818 -0.2712 -0.1384 -0.3499
  507TMC3    O2 7597   0.157   4.023  15.631  0.5681  0.2887 -0.0285
  508MPD2     C 7598   0.919   1.715  16.201 -0.0271  0.3479 -0.1673
  508MPD2    C1 7599   0.967   1.835  16.253  0.1117 -0.0264  0.5872
  508MPD2    C2 7600   0.909   1.953  16.205  0.6195 -0.1398 -0.0381
  508MPD2    C3 7601   0.814   1.954  16.103  0.2082  0.1007  0.1075
  508MPD2    C4 7602   0.768   1.832  16.047 -0.4278  0.3114  0.1459
  508MPD2    C5 7603   0.823   1.716  16.101 -0.2447  0.6379 -0.3884
  508MPD2     H 7604   0.931   2.045  16.258  0.3767 -0.9576  1.4870
  508MPD2    H1 7605   0.703   1.819  15.961  1.2795  1.9460 -1.3982
  508MPD2    H2 7606   0.967   1.622  16.230  0.7752  1.0248  0.6357
  508MPD2    H3 7607   0.797   1.615  16.069  1.7922 -0.0088 -0.0045
  508MPD2     N 7608   0.757   2.076  16.065 -0.6013  0.2912  0.7839
  508MPD2    H5 7609   0.779   2.152  16.129 -1.9804  1.7365 -0.4760
  508MPD2    N1 7610   1.061   1.842  16.363 -0.3568  0.3575 -0.6586
  508MPD2    H7 7611   1.089   1.758  16.412 -0.5469  0.3171 -0.6201
  509TMC3    C1 7612   0.580   2.406  15.825  0.3034 -0.8862  0.1861
  509TMC3    C2 7613   0.629   2.495  15.912 -0.2444 -0.2592  0.5690
  509TMC3    C3 7614   0.668   2.446  16.031  0.5088  0.0385  0.2081
  509TMC3    C4 7615   0.577   2.272  15.849 -0.4805 -0.6366 -0.4240
  509TMC3    C5 7616   0.617   2.228  15.973 -0.2392 -0.5829  0.1379
  509TMC3    C6 7617   0.672   2.314  16.066 -0.4818  0.5673 -0.5378
  509TMC3     C 7618   0.482   2.452  15.725 -0.4420 -0.3524 -0.4620
  509TMC3     O 7619   0.383   2.382  15.705 -0.0140 -0.6497 -0.1269
  509TMC3     H 7620   0.617   2.601  15.893  2.5266 -0.0640 -0.1361
  509TMC3    H1 7621   0.524   2.199  15.789 -0.3075 -1.2624  0.1847
  509TMC3    H2 7622   0.707   2.293  16.166  1.4022  0.9220 -1.1319
  509TMC3    C7 7623   0.663   2.091  15.972 -0.5322  0.4192  0.0013
  509TMC3    C8 7624   0.746   2.541  16.120 -0.2768  0.8269  0.0281
  509TMC3    O1 7625   0.633   2.021  15.875  0.6765  0.0775 -0.0489
  509TMC3    O2 7626   0.753   2.511  16.241  0.4063  0.1683  0.6262
  510MPD2     C 7627   3.636   3.765  14.774 -0.7243  0.1565  0.3975
  510MPD2    C1 7628   3.707   3.653  14.804 -0.0991 -0.5691  0.4777
  510MPD2    C2 7629   3.836   3.629  14.753  0.4395 -0.3994  0.2507
  510MPD2    C3 7630   3.888   3.738  14.685 -0.4970 -0.5265 -0.1295
  510MPD2    C4 7631   3.820   3.860  14.666  0.4932 -0.3061  0.1316
  510MPD2    C5 7632   3.689   3.869  14.708  0.4990 -0.5065  0.8333
  510MPD2     H 7633   3.895   3.542  14.779  0.7063  0.9216  4.1366
  510MPD2    H1 7634   3.865   3.945  14.616 -0.8283  0.0184 -0.5169
  510MPD2    H2 7635   3.538   3.788  14.813 -0.3868 -0.0899  1.3761
  510MPD2    H3 7636   3.639   3.964  14.698 -1.0938 -1.5657 -1.1075
  510MPD2     N 7637   4.019   3.720  14.633 -0.2287 -0.4742 -0.3984
  510MPD2    H5 7638   4.060   3.628  14.651 -0.2364 -0.7703 -1.9150
  510MPD2    N1 7639   3.646   3.558  14.894  0.3216  0.3124 -0.0375
  510MPD2    H7 7640   3.558   3.587  14.935 -0.0567 -1.3948  0.3663
  511TMC3    C1 7641   3.613   3.366  15.034  0.3697 -0.7007 -0.0618
  511TMC3    C2 7642   3.491   3.407  15.067 -0.4183 -0.5026  0.4028
  511TMC3    C3 7643   3.409   3.323  15.140 -0.2072  0.5065  0.0676
  511TMC3    C4 7644   3.648   3.231  15.063 -0.4659  0.0318  0.5743
  511TMC3    C5 7645   3.569   3.155  15.140  0.9897  0.2083 -0.2101
  511TMC3    C6 7646   3.450   3.203  15.189  0.4990 -0.5379  0.6615
  511TMC3     C 7647   3.688   3.432  14.924  0.3920  0.2699  0.3117
  511TMC3     O 7648   3.775   3.366  14.873  0.0513 -0.1531 -0.1988
  511TMC3     H 7649   3.442   3.500  15.040 -0.1862 -0.4565  0.1393
  511TMC3    H1 7650   3.748   3.197  15.037 -0.6872  0.4171 -0.7917
  511TMC3    H2 7651   3.382   3.153  15.258 -1.5282  0.9515 -0.2533
  511TMC3    C7 7652   3.609   3.018  15.162  0.5773 -0.1274 -0.0239
  511TMC3    C8 7653   3.291   3.385  15.199  0.4292 -1.1848 -0.2002
  511TMC3    O1 7654   3.727   2.989  15.179  0.0032  0.1249  0.1723
  511TMC3    O2 7655   3.288   3.507  15.192  0.0377 -0.2857 -0.6831
  512TMC3    C1 7656   2.829   3.164  12.755 -0.5994  0.4715  0.3226
  512TMC3    C2 7657   2.869   3.101  12.866 -0.0749  0.2851  0.5975
  512TMC3    C3 7658   2.832   2.970  12.887  1.5954 -0.3958  0.0115
  512TMC3    C4 7659   2.759   3.099  12.657  0.3177 -0.1827 -0.7265
  512TMC3    C5 7660   2.732   2.963  12.672  0.2198  0.1397 -0.1650
  512TMC3    C6 7661   2.764   2.902  12.790  0.3806  0.1623 -0.1000
  512TMC3     C 7662   2.883   3.300  12.741 -0.5368 -0.4313  0.5421
  512TMC3     O 7663   2.948   3.349  12.833 -0.3743 -0.6948 -0.1881
  512TMC3     H 7664   2.937   3.150  12.935 -1.0309  0.1113  1.6652
  512TMC3    H1 7665   2.729   3.150  12.566 -1.7502 -1.3291 -0.6880
  512TMC3    H2 7666   2.720   2.807  12.819  3.1985 -1.1286 -0.0392
  512TMC3    C7 7667   2.679   2.888  12.562  0.1851  0.5037 -0.4902
  512TMC3    C8 7668   2.857   2.899  13.011  0.7906  0.0184 -0.0206
  512TMC3    O1 7669   2.630   2.958  12.472 -0.2888 -0.0298  0.5059
  512TMC3    O2 7670   2.882   2.781  13.008 -0.2034 -0.6043  0.5580
  513MPD2     C 7671   4.400   3.420  13.235 -0.6595  0.4561  0.3892
  513MPD2    C1 7672   4.447   3.317  13.149 -0.3782  0.9185  0.0937
  513MPD2    C2 7673   4.571   3.266  13.173 -0.3418  0.2939 -0.1613
  513MPD2    C3 7674   4.653   3.309  13.277 -0.1103 -0.1710 -0.5695
  513MPD2    C4 7675   4.614   3.405  13.365  0.0240  0.5651  0.4086
  513MPD2    C5 7676   4.489   3.455  13.335  0.4411 -0.6989  0.2550
  513MPD2     H 7677   4.612   3.189  13.108  2.3689  0.5203  1.2935
  513MPD2    H1 7678   4.675   3.435  13.449  0.4053 -0.5189  0.5288
  513MPD2    H2 7679   4.301   3.462  13.225 -2.0819 -2.4093  2.1856
  513MPD2    H3 7680   4.459   3.538  13.399 -2.0820 -1.3345 -0.1082
  513MPD2     N 7681   0.042   3.250  13.284  0.1661 -0.1113  0.6749
  513MPD2    H5 7682   0.062   3.180  13.213  1.2464  0.7037  0.1801
  513MPD2    N1 7683   4.378   3.258  13.043  0.0665  0.3353  0.1522
  513MPD2    H7 7684   4.415   3.170  13.007  2.7008  0.4323  2.5726
  514TMC3    C1 7685   4.205   3.202  12.897  0.7437  0.4180 -0.0048
  514TMC3    C2 7686   4.195   3.246  12.761  0.1009 -0.0442 -0.2214
  514TMC3    C3 7687   4.259   3.173  12.665  0.2301 -0.2079  0.1458
  514TMC3    C4 7688   4.252   3.082  12.927  0.3628 -0.4804 -0.3866
  514TMC3    C5 7689   4.321   3.010  12.824 -0.1782 -0.5578 -0.1557
  514TMC3    C6 7690   4.318   3.055  12.695 -0.5007  0.2533 -0.0193
  514TMC3     C 7691   4.262   3.303  12.987 -0.4358  0.3034 -0.3454
  514TMC3     O 7692   4.212   3.413  12.996 -0.1886 -0.4029 -0.5973
  514TMC3     H 7693   4.160   3.346  12.741 -1.2320 -0.3623  0.5401
  514TMC3    H1 7694   4.256   3.045  13.029 -0.2123  1.4538  0.3377
  514TMC3    H2 7695   4.368   3.006  12.612 -0.2643 -0.7868  0.7377
  514TMC3    C7 7696   4.430   2.948  12.870 -0.3464 -0.2361  0.3239
  514TMC3    C8 7697   4.285   3.238  12.535  0.5950 -0.1948  0.5472
  514TMC3    O1 7698   4.459   2.972  12.989 -0.1639  0.6142  0.2885
  514TMC3    O2 7699   4.189   3.296  12.479  0.1054 -0.0154 -0.3816
  515MPD2     C 7700   2.247   0.471  14.797 -0.1119 -0.3465  0.0512
  515MPD2    C1 7701   2.308   0.360  14.740  0.3127 -0.6730 -0.4778
  515MPD2    C2 7702   2.447   0.344  14.748  0.6487 -0.3182  0.1851
  515MPD2    C3 7703   2.521   0.429  14.824  0.1678  0.2166  0.2774
  515MPD2    C4 7704   2.457   0.530  14.897  0.0012  0.1626 -0.1678
  515MPD2    C5 7705   2.323   0.555  14.882 -0.5099 -0.2908 -0.2742
  515MPD2     H 7706   2.495   0.259  14.701 -1.6021  0.1759 -2.9398
  515MPD2    H1 7707   2.517   0.596  14.959 -0.6476 -1.3671  2.0689
  515MPD2    H2 7708   2.149   0.515  14.781  1.2224  1.6580 -2.7073
  515MPD2    H3 7709   2.279   0.644  14.926  0.2485 -0.3890  0.6725
  515MPD2     N 7710   2.659   0.428  14.838 -0.2832  0.2927  0.1655
  515MPD2    H5 7711   2.705   0.505  14.886 -1.2656  0.1506  1.3324
  515MPD2    N1 7712   2.235   0.268  14.664 -0.8728 -0.0415 -0.4455
  515MPD2    H7 7713   2.279   0.184  14.626  0.4443 -0.6120  2.3409
  516TMC3    C1 7714   2.071   0.169  14.535 -0.2514 -0.7004  0.3739
  516TMC3    C2 7715   2.001   0.180  14.414 -0.0204 -0.0846 -0.1298
  516TMC3    C3 7716   1.918   0.083  14.376 -0.2261  0.0580  0.2430
  516TMC3    C4 7717   2.060   0.055  14.612 -0.2611 -0.4109 -0.1354
  516TMC3    C5 7718   1.984   4.691  14.567  0.1129 -0.4651  0.4238
  516TMC3    C6 7719   1.905   4.711  14.460 -0.3060 -0.4328  0.4287
  516TMC3     C 7720   2.112   0.290  14.609  0.4045  0.6160  0.0804
  516TMC3     O 7721   2.036   0.389  14.606 -0.4074  0.3213 -0.3130
  516TMC3     H 7722   2.009   0.274  14.362  1.2456  0.1622  0.5203
  516TMC3    H1 7723   2.107   0.043  14.709 -0.1436 -0.9542 -0.2612
  516TMC3    H2 7724   1.831   4.638  14.427 -1.2845  0.8424 -0.1899
  516TMC3    C7 7725   1.956   4.593  14.668  1.4322 -0.7025 -0.1133
  516TMC3    C8 7726   1.854   0.079  14.244 -0.6572  0.7327  0.0805
  516TMC3    O1 7727   2.048   4.566  14.742  0.0287  0.5794  1.0910
  516TMC3    O2 7728   1.744   0.021  14.235 -0.0190 -0.5976  0.0055
  517MPD2     C 7729   1.940   1.424  17.670  0.3713 -0.3410 -0.3247
  517MPD2    C1 7730   2.075   1.406  17.680 -0.4719 -0.2806 -0.2256
  517MPD2    C2 7731   2.152   1.495   0.002  0.6380 -0.0160 -0.1426
  517MPD2    C3 7732   2.096   1.603   0.063  0.2115  0.8977  0.1444
  517MPD2    C4 7733   1.962   1.621   0.048 -0.0572 -0.5675 -0.0377
  517MPD2    C5 7734   1.887   1.536  17.724  0.4174 -0.1122  0.6455
  517MPD2     H 7735   2.260   1.481  17.745  0.5774 -0.5810  0.0536
  517MPD2    H1 7736   1.920   1.711   0.091 -0.8969 -0.1982 -1.6584
  517MPD2    H2 7737   1.873   1.345  17.637 -1.9143  1.4003  0.1450
  517MPD2    H3 7738   1.779   1.547  17.722  0.6334  1.6993 -0.6864
  517MPD2     N 7739   2.172   1.700   0.128 -0.6047  0.0284 -0.0862
  517MPD2    H5 7740   2.116   1.776   0.166  0.5021 -0.3895  2.3865
  517MPD2    N1 7741   2.144   1.295  17.633  0.2490 -0.4086  0.1015
  517MPD2    H7 7742   2.246   1.293  17.634  0.2537 -0.5256 -0.3928
  518TMC3    C1 7743   2.173   1.087  17.514 -0.5079 -0.2051 -1.1105
  518TMC3    C2 7744   2.133   0.957  17.509 -0.0160  0.3167  0.9169
  518TMC3    C3 7745   2.204   0.872  17.431 -0.1098 -0.2822 -0.2283
  518TMC3    C4 7746   2.288   1.122  17.451 -0.0392  0.2097  0.4536
  518TMC3    C5 7747   2.357   1.038  17.364  0.5954 -0.2840 -0.0391
  518TMC3    C6 7748   2.319   0.906  17.365 -0.4467  0.0814  0.4663
  518TMC3     C 7749   2.082   1.191  17.567  0.0296  0.4861 -0.1639
  518TMC3     O 7750   1.971   1.150  17.587 -0.3786  0.1378 -0.1228
  518TMC3     H 7751   2.048   0.926  17.570 -1.5807 -0.4364 -1.6459
  518TMC3    H1 7752   2.309   1.228  17.448  0.4270  0.0428 -2.1263
  518TMC3    H2 7753   2.374   0.833  17.306 -0.1948 -0.6102  1.5473
  518TMC3    C7 7754   2.476   1.085  17.304 -0.1150  0.5020 -0.8062
  518TMC3    C8 7755   2.156   0.738  17.420  0.2510  0.3967  0.2249
  518TMC3    O1 7756   2.505   1.202  17.329  0.9524  0.1263 -0.3590
  518TMC3    O2 7757   2.205   0.664  17.339 -0.3665  0.0418 -0.5458
  519MPD2     C 7758   3.796   4.727  14.325  0.4294 -0.2902 -0.3784
  519MPD2    C1 7759   3.717   4.627  14.270  0.0870  0.4880  0.0118
  519MPD2    C2 7760   3.760   4.499  14.285  0.5439  0.9132 -0.1133
  519MPD2    C3 7761   3.881   4.457  14.347  1.0528 -0.1133 -0.6103
  519MPD2    C4 7762   3.952   4.561  14.404  0.0806 -0.2628 -0.5115
  519MPD2    C5 7763   3.909   4.691  14.396  0.3782  0.2811  0.7111
  519MPD2     H 7764   3.711   4.423  14.225  4.6630 -1.1985 -0.8432
  519MPD2    H1 7765   4.045   4.554  14.459 -0.7630 -2.3985  0.6302
  519MPD2    H2 7766   3.765   0.092  14.336  0.7126 -0.0524 -1.8794
  519MPD2    H3 7767   3.969   0.032  14.439  0.6840 -0.3521  1.4634
  519MPD2     N 7768   3.928   4.325  14.341 -0.3620  0.6340 -0.3441
  519MPD2    H5 7769   4.029   4.326  14.353 -0.5459  0.3000  1.2444
  519MPD2    N1 7770   3.594   4.643  14.211 -0.8256 -1.2307  0.7163
  519MPD2    H7 7771   3.547   4.558  14.184 -0.4909 -0.6647 -1.6571
  520TMC3    C1 7772   3.960   4.119  14.229  0.6470 -0.4967  0.1344
  520TMC3    C2 7773   3.912   4.043  14.121  0.3422  0.0702 -1.2730
  520TMC3    C3 7774   3.998   3.956  14.067  0.2464 -0.0827  0.3764
  520TMC3    C4 7775   4.085   4.110  14.284 -0.1549  0.1316  0.9191
  520TMC3    C5 7776   4.166   4.013  14.226 -0.2221 -0.1134  0.0541
  520TMC3    C6 7777   4.125   3.940  14.119  0.0594  0.1563 -0.5407
  520TMC3     C 7778   3.866   4.221  14.267  0.0490 -0.2968 -0.8695
  520TMC3     O 7779   3.755   4.205  14.228 -0.2040 -0.2295 -0.3558
  520TMC3     H 7780   3.813   4.058  14.079 -0.5265 -0.1455  0.7115
  520TMC3    H1 7781   4.120   4.142  14.382 -0.3442 -0.4390  1.1683
  520TMC3    H2 7782   4.192   3.865  14.078  1.0199 -0.6675  2.5396
  520TMC3    C7 7783   4.304   3.995  14.271  0.1958 -0.3253 -0.0110
  520TMC3    C8 7784   3.955   3.848  13.985  0.5283 -0.2088  0.2828
  520TMC3    O1 7785   4.351   3.885  14.251 -0.0686 -0.6197 -0.8064
  520TMC3    O2 7786   4.023   3.749  13.985 -0.1804  0.3877 -0.8179
  521MPD2     C 7787   0.149   2.619  17.618  0.5743 -0.9753  1.0456
  521MPD2    C1 7788   0.091   2.532  17.529 -0.2892  0.6005 -0.2261
  521MPD2    C2 7789   0.159   2.419  17.486 -0.3775  0.2110 -0.1530
  521MPD2    C3 7790   0.292   2.409  17.516  0.5686  0.2017  0.0487
  521MPD2    C4 7791   0.356   2.503  17.600  0.0185 -0.1241 -0.6579
  521MPD2    C5 7792   0.277   2.602  17.651  0.8484 -0.1883  0.2331
  521MPD2     H 7793   0.116   2.334  17.435 -0.0743  0.1913 -0.3724
  521MPD2    H1 7794   0.456   2.485  17.636  0.1081  1.3658 -0.1609
  521MPD2    H2 7795   0.102   2.708  17.659  2.1994 -1.0820  3.0823
  521MPD2    H3 7796   0.317   2.658  17.735 -0.6545 -1.2287  1.6349
  521MPD2     N 7797   0.364   2.292  17.470 -0.2680  0.5083  0.4046
  521MPD2    H5 7798   0.307   2.233  17.410  2.4181 -3.1504  1.4907
  521MPD2    N1 7799   4.699   2.563  17.497  0.0781  0.1750  0.7219
  521MPD2    H7 7800   4.657   2.647  17.538 -2.5191 -0.6964 -0.1216
  522TMC3    C1 7801   0.540   2.145  17.429  0.1277 -0.1942  0.2006
  522TMC3    C2 7802   0.644   2.074  17.481  0.8192 -0.1972  0.2693
  522TMC3    C3 7803   0.678   1.953  17.428  0.4941 -0.4882 -0.3735
  522TMC3    C4 7804   0.480   2.110  17.315 -0.3342  0.6065 -0.1779
  522TMC3    C5 7805   0.514   1.992  17.255 -0.6385  0.0710  0.3948
  522TMC3    C6 7806   0.616   1.917  17.308 -0.5093  0.4708  0.6223
  522TMC3     C 7807   0.496   2.264  17.497 -0.5656 -0.0850 -0.2069
  522TMC3     O 7808   0.578   2.313  17.574  0.4892 -0.3343 -0.3571
  522TMC3     H 7809   0.700   2.121  17.561 -0.8489  2.7340 -0.2713
  522TMC3    H1 7810   0.405   2.177  17.275 -0.8711 -1.1028 -2.0271
  522TMC3    H2 7811   0.639   1.821  17.264 -1.9164  0.5558 -0.3222
  522TMC3    C7 7812   0.510   1.974  17.109  0.2616 -0.3725  0.3397
  522TMC3    C8 7813   0.820   1.925  17.424  0.5848 -0.0462  0.4992
  522TMC3    O1 7814   0.588   1.893  17.062  0.2828 -0.5343  0.2118
  522TMC3    O2 7815   0.871   1.935  17.533 -0.4643  0.0458 -0.4424
  523MPD2     C 7816   2.655   2.370   9.820 -0.7975  0.3369  0.1459
  523MPD2    C1 7817   2.564   2.264   9.804 -0.1583 -0.2122 -0.4392
  523MPD2    C2 7818   2.472   2.271   9.696 -0.3250  0.3634  0.2765
  523MPD2    C3 7819   2.476   2.367   9.598 -0.5532 -0.1478 -0.4865
  523MPD2    C4 7820   2.578   2.454   9.606  0.1648  0.1754 -1.3033
  523MPD2    C5 7821   2.659   2.457   9.718  0.6410 -0.0106  0.4762
  523MPD2     H 7822   2.378   2.218   9.707 -0.5115  1.0915  2.1340
  523MPD2    H1 7823   2.580   2.535   9.534 -0.6006  0.0020 -1.5234
  523MPD2    H2 7824   2.714   2.382   9.910  0.1182  0.4463 -0.4691
  523MPD2    H3 7825   2.727   2.542   9.727  2.2674 -1.2430 -0.2953
  523MPD2     N 7826   2.397   2.377   9.486  0.0738  0.0413 -0.1222
  523MPD2    H5 7827   2.411   2.457   9.425  1.5669 -2.0903 -2.6254
  523MPD2    N1 7828   2.539   2.182   9.917  0.5517  0.1074 -0.2832
  523MPD2    H7 7829   2.592   2.209   9.999 -0.4658 -0.9603  0.7180
  524TMC3    C1 7830   2.218   2.314   9.334  0.3366 -0.6036 -0.1002
  524TMC3    C2 7831   2.145   2.213   9.277 -0.3719  0.2277  0.9734
  524TMC3    C3 7832   2.045   2.249   9.191  0.5220 -0.1483 -0.4758
  524TMC3    C4 7833   2.192   2.445   9.312 -0.1565  0.0446 -0.3157
  524TMC3    C5 7834   2.085   2.481   9.239  0.6101  0.1824  0.1175
  524TMC3    C6 7835   2.009   2.385   9.171 -0.6580 -0.8686  0.5595
  524TMC3     C 7836   2.300   2.280   9.452  0.2148 -0.4800  0.0439
  524TMC3     O 7837   2.283   2.169   9.507  0.3215 -0.1133 -0.1054
  524TMC3     H 7838   2.152   2.114   9.322  0.9901 -0.1312 -0.0384
  524TMC3    H1 7839   2.249   2.526   9.356 -2.1258  0.2637  1.8081
  524TMC3    H2 7840   1.932   2.403   9.096 -1.3112 -0.0488  1.4391
  524TMC3    C7 7841   2.054   2.620   9.222  0.0191  0.4477 -0.3951
  524TMC3    C8 7842   1.950   2.142   9.164 -0.1133 -0.4868  0.2350
  524TMC3    O1 7843   2.139   2.705   9.262  0.1824 -0.1275 -0.0679
  524TMC3    O2 7844   1.835   2.170   9.128 -1.2681  0.7602 -0.1506
  525MPD2     C 7845   1.190   4.336  14.107 -0.0753 -0.3440 -0.1271
  525MPD2    C1 7846   1.079   4.320  14.196  0.6977 -0.4397  0.3451
  525MPD2    C2 7847   1.011   4.438  14.232  0.4742 -0.5892  1.0358
  525MPD2    C3 7848   1.055   4.561  14.187  0.1228 -0.6189 -0.2658
  525MPD2    C4 7849   1.164   4.569  14.100 -0.1250  0.2342 -0.7147
  525MPD2    C5 7850   1.227   4.458  14.061 -0.6092 -0.6276 -0.1580
  525MPD2     H 7851   0.927   4.409  14.293 -0.2706  1.0273  0.7537
  525MPD2    H1 7852   1.190   4.663  14.053 -0.8135 -0.3991 -2.3439
  525MPD2    H2 7853   1.244   4.249  14.072 -2.0743 -1.9755  0.8033
  525MPD2    H3 7854   1.312   4.469  13.995  1.1054  0.6102  2.2418
  525MPD2     N 7855   0.989   4.687  14.224  0.1558  0.2284 -0.3398
  525MPD2    H5 7856   1.029   0.033  14.182  0.8421 -0.2576 -0.6692
  525MPD2    N1 7857   1.037   4.184  14.231  0.7465  0.1824  0.3065
  525MPD2    H7 7858   1.107   4.112  14.218  0.7423  0.8612 -3.4824
  526TMC3    C1 7859   0.895   4.007  14.291 -0.3255 -0.4023  0.3211
  526TMC3    C2 7860   0.784   3.967  14.363 -0.0346 -0.0468 -0.5493
  526TMC3    C3 7861   0.776   3.844  14.418 -0.5595  0.5350 -0.7415
  526TMC3    C4 7862   0.999   3.919  14.277  0.5893  0.8288 -0.2287
  526TMC3    C5 7863   0.988   3.799  14.339 -0.2072  0.1486  0.0765
  526TMC3    C6 7864   0.880   3.758  14.408  0.2164  0.5001  0.2398
  526TMC3     C 7865   0.910   4.146  14.270 -0.1976 -0.0117  0.0565
  526TMC3     O 7866   0.818   4.223  14.275 -0.0252 -0.8954  0.6269
  526TMC3     H 7867   0.701   4.035  14.379 -1.0210 -1.3392 -0.1765
  526TMC3    H1 7868   1.090   3.935  14.221  0.3012  0.7624 -0.7140
  526TMC3    H2 7869   0.881   3.662  14.458 -0.7487  0.8501  0.9241
  526TMC3    C7 7870   1.070   3.695  14.279 -0.1501 -0.0219  0.0627
  526TMC3    C8 7871   0.686   3.821  14.533 -0.0769 -0.2742  0.4833
  526TMC3    O1 7872   1.113   3.718  14.167  0.2091  1.0444 -0.3577
  526TMC3    O2 7873   0.743   3.750  14.615 -0.2284  0.1289 -0.0777
  527MPD2     C 7874   3.239   1.822   1.301 -0.4160  0.6538  0.0372
  527MPD2    C1 7875   3.267   1.786   1.167 -0.4078  0.0312  0.1022
  527MPD2    C2 7876   3.379   1.830   1.108 -0.0444 -0.7577  0.3353
  527MPD2    C3 7877   3.483   1.878   1.176 -0.1257 -0.4703 -0.5492
  527MPD2    C4 7878   3.461   1.909   1.308  0.4147  0.4582 -0.3839
  527MPD2    C5 7879   3.344   1.881   1.369 -0.2080 -0.2953  0.5913
  527MPD2     H 7880   3.402   1.792   1.009  1.6272  1.0000  0.0578
  527MPD2    H1 7881   3.535   1.970   1.359  0.5055  0.2507 -0.2661
  527MPD2    H2 7882   3.148   1.815   1.359  0.4465 -1.0631  1.1966
  527MPD2    H3 7883   3.324   1.918   1.469 -0.6728 -0.6450  0.6273
  527MPD2     N 7884   3.599   1.900   1.107  0.0944 -0.0044 -0.3581
  527MPD2    H5 7885   3.593   1.885   1.007  0.4287  0.7862 -0.4905
  527MPD2    N1 7886   3.165   1.716   1.094 -0.1761 -0.2920  0.4907
  527MPD2    H7 7887   3.193   1.685   1.001  2.0001  0.3078  0.9540
  528TMC3    C1 7888   2.978   1.587   1.049 -0.1484  0.2742  0.2210
  528TMC3    C2 7889   2.994   1.621   0.921  0.0984 -0.5449 -0.5190
  528TMC3    C3 7890   2.942   1.539   0.824 -0.0768 -0.1127  0.2025
  528TMC3    C4 7891   2.910   1.473   1.086 -0.0104  0.0603  0.2447
  528TMC3    C5 7892   2.866   1.389   0.988 -0.1284  0.6482 -0.1515
  528TMC3    C6 7893   2.879   1.421   0.854 -0.0586 -0.4145 -0.1867
  528TMC3     C 7894   3.055   1.658   1.150 -0.2639 -0.7136 -0.5397
  528TMC3     O 7895   3.016   1.648   1.269  0.4385 -0.4195 -0.1646
  528TMC3     H 7896   3.024   1.722   0.895  1.2582 -0.4428  1.2126
  528TMC3    H1 7897   2.905   1.435   1.187 -0.6921  0.0929  0.2261
  528TMC3    H2 7898   2.849   1.356   0.773 -1.0406  0.2407 -0.3514
  528TMC3    C7 7899   2.818   1.253   1.021 -0.6899  0.3430  0.4255
  528TMC3    C8 7900   2.929   1.589   0.685  0.8479 -0.3997 -0.4486
  528TMC3    O1 7901   2.846   1.217   1.133 -0.3012  0.2807 -0.0621
  528TMC3    O2 7902   3.005   1.679   0.662  0.3411  0.1180 -0.3080
  529MPD2     C 7903   0.801   0.223   0.899  0.3046 -0.0603 -0.0067
  529MPD2    C1 7904   0.865   0.165   0.788 -0.0190  0.2932  0.4376
  529MPD2    C2 7905   0.851   0.215   0.665  0.4713  0.3721  0.0655
  529MPD2    C3 7906   0.789   0.335   0.656  0.5367  0.1128 -0.4858
  529MPD2    C4 7907   0.728   0.394   0.759 -0.4635 -0.1322 -0.5986
  529MPD2    C5 7908   0.746   0.345   0.888 -0.3438 -0.6184  0.1255
  529MPD2     H 7909   0.891   0.159   0.582  1.8252 -0.3586  1.2202
  529MPD2    H1 7910   0.684   0.492   0.747  0.3216  0.1427 -1.2394
  529MPD2    H2 7911   0.812   0.185   1.000  2.5517  0.7730  0.0616
  529MPD2    H3 7912   0.684   0.393   0.963 -1.0714 -0.5515 -0.5069
  529MPD2     N 7913   0.773   0.398   0.528  0.7872 -0.2149  0.5385
  529MPD2    H5 7914   0.727   0.489   0.531  1.4019  0.1097  0.0446
  529MPD2    N1 7915   0.931   0.036   0.802 -0.8745  0.1496 -0.1191
  529MPD2    H7 7916   0.982   4.732   0.725  1.1842  0.6183  0.9817
  530TMC3    C1 7917   1.012   4.581   0.893  0.6299  0.4686  0.2398
  530TMC3    C2 7918   1.145   4.601   0.907 -0.1078  0.0232 -0.0200
  530TMC3    C3 7919   1.236   4.505   0.950  0.0735 -0.0859  0.5972
  530TMC3    C4 7920   0.959   4.460   0.945  0.3206 -0.3582 -0.4657
  530TMC3    C5 7921   1.049   4.366   0.968 -0.0313 -1.3397  0.3049
  530TMC3    C6 7922   1.188   4.378   0.972  0.1133 -0.7334  0.8705
  530TMC3     C 7923   0.933   4.695   0.915  0.1155 -0.3605 -0.0048
  530TMC3     O 7924   0.868   4.694   1.020 -0.0714 -0.6006  0.1178
  530TMC3     H 7925   1.189   4.700   0.898 -0.1945  0.0794  0.1755
  530TMC3    H1 7926   0.853   4.443   0.932  0.2300  0.9828 -1.4564
  530TMC3    H2 7927   1.255   4.299   1.002 -1.2670 -0.6894  3.9776
  530TMC3    C7 7928   0.994   4.237   0.987 -0.1026  0.7170 -0.3027
  530TMC3    C8 7929   1.320   4.562   1.053 -0.0167 -0.4744  0.6841
  530TMC3    O1 7930   1.061   4.155   0.928 -0.0746  0.1722 -0.4423
  530TMC3    O2 7931   1.287   4.666   1.103  0.8922 -0.1162  0.4418
  531MPD2     C 7932   0.103   2.663  12.911 -0.5933 -0.4502 -0.3692
  531MPD2    C1 7933   0.080   2.786  12.960  0.5684 -0.3653 -0.6919
  531MPD2    C2 7934   4.712   2.861  12.919  0.6030 -0.2794  0.2360
  531MPD2    C3 7935   4.621   2.807  12.829 -0.2475  1.4264  0.0150
  531MPD2    C4 7936   4.652   2.685  12.770  0.4161  0.2443  0.2637
  531MPD2    C5 7937   0.017   2.611  12.821 -0.1808  0.3135  0.5634
  531MPD2     H 7938   4.690   2.963  12.950 -1.3084  0.6491 -4.0716
  531MPD2    H1 7939   4.591   2.635  12.695  1.7195 -0.2677 -0.4763
  531MPD2    H2 7940   0.187   2.607  12.950 -0.1684  0.7784  0.4701
  531MPD2    H3 7941   0.030   2.505  12.801  1.6085  1.0018 -1.9358
  531MPD2     N 7942   4.507   2.880  12.783 -0.0427 -0.0646 -0.1411
  531MPD2    H5 7943   4.471   2.854  12.692  0.4738 -1.5218  0.0620
  531MPD2    N1 7944   0.175   2.842  13.046 -0.6841  0.0804 -0.0197
  531MPD2    H7 7945   0.256   2.789  13.075 -0.8132  0.9538  1.9161
  532TMC3    C1 7946   0.238   2.983  13.221 -0.2766  0.5726  0.3685
  532TMC3    C2 7947   0.242   3.116  13.248 -0.2222 -0.3614  0.6318
  532TMC3    C3 7948   0.227   3.154  13.379  1.1594  0.4636  0.2808
  532TMC3    C4 7949   0.233   2.888  13.316  0.5443 -0.3197  0.2202
  532TMC3    C5 7950   0.232   2.929  13.444  0.1241 -0.1470  0.9694
  532TMC3    C6 7951   0.215   3.062  13.474 -0.0559  0.2121 -1.1858
  532TMC3     C 7952   0.159   2.965  13.104  0.0797  0.3723  0.6928
  532TMC3     O 7953   0.086   3.064  13.087 -0.4098  0.1803  0.7009
  532TMC3     H 7954   0.268   3.190  13.173 -2.8056  1.1466  1.2102
  532TMC3    H1 7955   0.228   2.782  13.291 -1.0664 -0.4662  1.1701
  532TMC3    H2 7956   0.182   3.095  13.572 -0.3793  2.5140 -2.0670
  532TMC3    C7 7957   0.235   2.834  13.553 -0.1484 -0.0831  0.6216
  532TMC3    C8 7958   0.132   3.259  13.388  0.0355  0.4614  0.0407
  532TMC3    O1 7959   0.205   2.873  13.661 -0.3718  0.8913 -0.3722
  532TMC3    O2 7960   0.126   3.319  13.492  0.1862  0.2250  0.1657
  533TMC3    C1 7961   0.861   0.094  14.355 -0.3219 -0.0295  0.2697
  533TMC3    C2 7962   0.950   0.199  14.336  0.5537 -0.2514  0.0796
  533TMC3    C3 7963   0.912   0.314  14.399  0.0095  0.1394  0.1031
  533TMC3    C4 7964   0.747   0.118  14.428  0.7317  0.3042  0.3248
  533TMC3    C5 7965   0.710   0.245  14.468  0.3074  0.2380  0.2220
  533TMC3    C6 7966   0.799   0.341  14.467 -0.3213 -0.8367 -0.3906
  533TMC3     C 7967   0.888   4.695  14.317 -0.2007 -0.5245  0.1924
  533TMC3     O 7968   0.844   4.599  14.378 -0.1372  0.2215  0.1653
  533TMC3     H 7969   1.053   0.179  14.306 -0.0769  0.1393 -2.3689
  533TMC3    H1 7970   0.679   0.035  14.446  1.7472 -1.1617 -2.4905
  533TMC3    H2 7971   0.780   0.439  14.508 -2.2444 -1.4611  0.2235
  533TMC3    C7 7972   0.591   0.272  14.547 -0.3156  0.9313 -0.1046
  533TMC3    C8 7973   1.009   0.423  14.393 -0.8121  0.6785 -0.3363
  533TMC3    O1 7974   0.558   0.391  14.547 -0.9868  0.2668  0.4351
  533TMC3    O2 7975   1.030   0.485  14.495 -0.1165 -0.0443 -0.0636
  534MPD2     C 7976   3.329   0.274   1.105 -0.7156 -0.2735  0.1051
  534MPD2    C1 7977   3.356   0.379   1.026 -0.4190  0.1191 -0.3449
  534MPD2    C2 7978   3.246   0.435   0.956  0.3354  0.3097  0.3786
  534MPD2    C3 7979   3.120   0.379   0.967  0.5511 -0.1404 -1.0161
  534MPD2    C4 7980   3.094   0.271   1.043  0.3667  0.3837 -0.1963
  534MPD2    C5 7981   3.201   0.228   1.116 -0.5413 -0.3478 -0.8837
  534MPD2     H 7982   3.265   0.514   0.884 -1.2174  0.5721  0.2620
  534MPD2    H1 7983   3.001   0.217   1.051  1.5638 -1.7073 -0.1530
  534MPD2    H2 7984   3.406   0.218   1.156 -1.3750  0.3287  1.7816
  534MPD2    H3 7985   3.182   0.139   1.174 -1.8041 -0.5866 -1.6745
  534MPD2     N 7986   3.002   0.416   0.897  0.8311 -0.1191  0.3894
  534MPD2    H5 7987   2.917   0.362   0.910 -0.2449  1.7565  1.2798
  534MPD2    N1 7988   3.493   0.428   1.019 -0.6259  0.2790  0.4764
  534MPD2    H7 7989   3.560   0.374   1.073 -0.6030 -1.2953 -1.1234
  535TMC3    C1 7990   2.854   0.523   0.745 -0.2482 -0.5036  0.3845
  535TMC3    C2 7991   2.759   0.426   0.775 -0.1518 -0.2990  0.0596
  535TMC3    C3 7992   2.623   0.456   0.743  0.2788  0.3114 -0.2695
  535TMC3    C4 7993   2.826   0.628   0.667 -0.4841 -0.1360  0.3507
  535TMC3    C5 7994   2.697   0.643   0.629  0.1422 -0.1475  0.2549
  535TMC3    C6 7995   2.593   0.560   0.663 -0.3190  0.0495 -0.4137
  535TMC3     C 7996   2.991   0.512   0.804 -0.1120  0.6438  0.2265
  535TMC3     O 7997   3.074   0.598   0.775  0.0822 -0.2105  0.1829
  535TMC3     H 7998   2.781   0.336   0.830  1.8904  0.1964  0.0794
  535TMC3    H1 7999   2.903   0.698   0.637 -0.3362 -1.2082 -1.7790
  535TMC3    H2 8000   2.493   0.565   0.622 -1.5648  0.0425  2.6497
  535TMC3    C7 8001   2.693   0.716   0.501 -0.0286 -0.1437 -0.2982
  535TMC3    C8 8002   2.516   0.368   0.784 -0.2539 -0.6424 -0.1001
  535TMC3    O1 8003   2.797   0.737   0.439  0.8537  0.0440  0.3758
  535TMC3    O2 8004   2.417   0.364   0.717  0.7954 -0.1185 -0.4253
  536MPD2     C 8005   2.041   3.913  16.175  0.4790 -0.2166  0.2674
  536MPD2    C1 8006   1.922   3.856  16.185  0.3209  0.7844  0.6265
  536MPD2    C2 8007   1.844   3.845  16.071  0.1800  0.8044  0.0093
  536MPD2    C3 8008   1.878   3.906  15.953 -0.1331  0.2042  0.6693
  536MPD2    C4 8009   2.001   3.973  15.949  0.2682  0.0163  0.2754
  536MPD2    C5 8010   2.080   3.982  16.059  0.2883  0.3529 -0.4040
  536MPD2     H 8011   1.746   3.799  16.073  1.0192 -1.0451 -1.1868
  536MPD2    H1 8012   2.034   4.023  15.858 -1.6999 -0.3685 -0.6607
  536MPD2    H2 8013   2.105   3.906  16.262 -0.3924  0.6678  0.9817
  536MPD2    H3 8014   2.173   4.036  16.056 -0.3690  1.6002  1.3215
  536MPD2     N 8015   1.792   3.919  15.838 -0.2887 -0.5934 -0.0568
  536MPD2    H5 8016   1.828   3.961  15.753  0.1330 -0.8711 -0.0100
  536MPD2    N1 8017   1.893   3.792  16.303 -0.1269  0.5800 -0.4413
  536MPD2    H7 8018   1.967   3.797  16.372  0.7945  1.2710 -1.4926
  537TMC3    C1 8019   1.791   3.635  16.444  0.7222  0.4273  0.8978
  537TMC3    C2 8020   1.907   3.636  16.511  0.3401 -0.0554 -0.4403
  537TMC3    C3 8021   1.934   3.526  16.587 -0.1575  0.1384  0.2239
  537TMC3    C4 8022   1.703   3.525  16.448  0.2259  0.6589  0.7303
  537TMC3    C5 8023   1.739   3.421  16.528  1.1145 -0.7192 -0.1063
  537TMC3    C6 8024   1.854   3.424  16.605 -0.0340  0.0881 -0.6497
  537TMC3     C 8025   1.779   3.722  16.328 -0.4401  0.1683 -0.0884
  537TMC3     O 8026   1.676   3.719  16.263 -0.2788  0.0723  0.1409
  537TMC3     H 8027   1.982   3.712  16.492 -2.9826  2.7375 -2.4256
  537TMC3    H1 8028   1.608   3.530  16.396  0.9607  2.7244 -0.4084
  537TMC3    H2 8029   1.870   3.345  16.678 -2.4205 -0.4128 -0.6759
  537TMC3    C7 8030   1.635   3.328  16.557 -0.7253 -0.0542  0.3522
  537TMC3    C8 8031   2.061   3.529  16.653 -0.1766  0.3421  0.2258
  537TMC3    O1 8032   1.532   3.337  16.493 -0.0896 -0.7440  0.3799
  537TMC3    O2 8033   2.111   3.635  16.677  0.0365 -0.4102  0.6267
  538TMC3    C1 8034   3.312   2.037  10.898 -0.7612  0.2107 -0.5227
  538TMC3    C2 8035   3.415   1.958  10.846  0.2123  0.1522  0.1511
  538TMC3    C3 8036   3.483   2.005  10.737  0.3559  0.2819  0.1813
  538TMC3    C4 8037   3.301   2.168  10.866  0.5962  0.0910  0.9073
  538TMC3    C5 8038   3.369   2.215  10.755 -0.3859 -0.5654  0.8759
  538TMC3    C6 8039   3.458   2.139  10.692 -0.6705  0.0576  0.0091
  538TMC3     C 8040   3.254   2.007  11.026  0.2252 -0.2358  0.1674
  538TMC3     O 8041   3.178   1.914  11.044  0.5417  0.6141  0.0478
  538TMC3     H 8042   3.433   1.861  10.890 -1.0762  0.9384  2.4073
  538TMC3    H1 8043   3.218   2.224  10.906 -0.2586  0.5272 -1.4639
  538TMC3    H2 8044   3.505   2.181  10.604 -1.0445 -1.5344 -0.9446
  538TMC3    C7 8045   3.276   2.293  10.681 -0.0220 -0.2568  0.5167
  538TMC3    C8 8046   3.615   1.955  10.698 -0.1082 -0.2832  0.7314
  538TMC3    O1 8047   3.160   2.250  10.692 -0.3222  0.6822  0.6237
  538TMC3    O2 8048   3.692   2.039  10.660  0.6491 -0.3923  0.2729
  539MPD2     C 8049   2.836   1.038  11.619  0.5192 -0.5414  0.9739
  539MPD2    C1 8050   2.941   1.084  11.545  0.2623  0.1291 -0.0191
  539MPD2    C2 8051   2.978   1.218  11.546  0.3759 -0.3302  0.1992
  539MPD2    C3 8052   2.903   1.301  11.631  0.0414  0.5113  0.0421
  539MPD2    C4 8053   2.788   1.255  11.696 -0.0475  0.4809 -0.4492
  539MPD2    C5 8054   2.771   1.116  11.707 -0.2328  0.1786 -0.4190
  539MPD2     H 8055   3.071   1.253  11.502  0.9399 -1.5766  0.3789
  539MPD2    H1 8056   2.725   1.328  11.747  1.6379  0.0943  2.1728
  539MPD2    H2 8057   2.809   0.934  11.625 -0.2670 -0.4279 -0.6386
  539MPD2    H3 8058   2.694   1.072  11.770  0.6568  1.5633  1.6420
  539MPD2     N 8059   2.927   1.433  11.659  0.1853 -0.4802  0.3585
  539MPD2    H5 8060   2.845   1.462  11.711 -0.0201 -1.3725  0.5329
  539MPD2    N1 8061   3.001   1.003  11.451  0.5770 -0.8531  0.3388
  539MPD2    H7 8062   3.078   1.043  11.398  0.0370  0.5278  0.5986
  540TMC3    C1 8063   2.980   1.659  11.608  0.8548  0.0060  1.2164
  540TMC3    C2 8064   2.976   1.737  11.492 -0.6153 -0.5575  0.2680
  540TMC3    C3 8065   2.902   1.855  11.495 -0.1406  1.0724  0.3597
  540TMC3    C4 8066   2.952   1.715  11.732  0.0563 -0.2940 -0.5588
  540TMC3    C5 8067   2.905   1.844  11.739 -0.6819 -0.1653 -0.2064
  540TMC3    C6 8068   2.885   1.916  11.618  0.2599  0.1291  0.1697
  540TMC3     C 8069   3.006   1.515  11.586  0.5028 -0.0944  0.1198
  540TMC3     O 8070   3.087   1.489  11.493  0.6269  0.0535 -0.6243
  540TMC3     H 8071   3.008   1.685  11.402  2.1274  1.4844  0.0594
  540TMC3    H1 8072   2.941   1.651  11.819 -1.5748  0.8751  0.0855
  540TMC3    H2 8073   2.841   2.015  11.617 -2.2608 -0.9956 -0.3180
  540TMC3    C7 8074   2.805   1.878  11.842 -0.6146 -0.2748  0.0373
  540TMC3    C8 8075   2.855   1.915  11.375  0.0823  0.4115 -0.8767
  540TMC3    O1 8076   2.713   1.798  11.853  0.1182  0.1101 -0.0489
  540TMC3    O2 8077   2.859   2.038  11.377  0.4011 -0.1755 -0.1476
  541MPD2     C 8078   1.070   2.860  12.944  0.4830  0.3820  0.5637
  541MPD2    C1 8079   1.162   2.774  12.890 -0.1957 -0.6342 -0.1244
  541MPD2    C2 8080   1.235   2.817  12.777  0.6406  0.1992  0.1147
  541MPD2    C3 8081   1.225   2.945  12.735  0.6932 -0.4803  0.6826
  541MPD2    C4 8082   1.141   3.035  12.803 -0.0064  0.1329 -0.4820
  541MPD2    C5 8083   1.064   2.989  12.905  0.1767  0.1992 -0.3571
  541MPD2     H 8084   1.290   2.743  12.721  0.7463  1.1673 -1.0690
  541MPD2    H1 8085   1.121   3.137  12.772 -0.6464 -0.1358 -0.9541
  541MPD2    H2 8086   0.997   2.833  13.020  0.1839  0.4924  0.3196
  541MPD2    H3 8087   0.996   3.057  12.955 -0.1486  1.7938 -2.9986
  541MPD2     N 8088   1.277   2.991  12.614  0.1047 -0.8868  0.7149
  541MPD2    H5 8089   1.257   3.088  12.597 -0.8603 -1.6122 -2.2542
  541MPD2    N1 8090   1.158   2.642  12.941  0.1763 -1.0293 -0.0802
  541MPD2    H7 8091   1.100   2.623  13.022 -0.7839  0.3522 -0.4361
  542TMC3    C1 8092   1.327   2.973  12.381 -0.4697  0.0086 -0.0475
  542TMC3    C2 8093   1.381   2.912  12.271 -0.5972  0.3843 -0.0988
  542TMC3    C3 8094   1.356   2.965  12.144  0.2776 -0.1668 -0.4352
  542TMC3    C4 8095   1.240   3.070  12.373  0.4621 -0.1606  1.1268
  542TMC3    C5 8096   1.211   3.109  12.248  1.0025 -0.5165  0.3318
  542TMC3    C6 8097   1.262   3.062  12.134 -0.4384 -0.0299 -0.0665
  542TMC3     C 8098   1.352   2.925  12.518  0.4423 -0.0709  0.4333
  542TMC3     O 8099   1.403   2.816  12.538 -0.4106  0.4975  0.0931
  542TMC3     H 8100   1.452   2.831  12.283  0.3252  1.1609 -0.3990
  542TMC3    H1 8101   1.171   3.107  12.448 -1.0247  1.6277 -1.1243
  542TMC3    H2 8102   1.236   3.099  12.035  0.2752  1.6119  0.3493
  542TMC3    C7 8103   1.114   3.211  12.247  0.6474 -0.0968  0.2767
  542TMC3    C8 8104   1.444   2.939  12.036  0.4646 -0.1924  0.5592
  542TMC3    O1 8105   1.111   3.290  12.339  0.4695  0.2130 -0.4378
  542TMC3    O2 8106   1.407   2.979  11.923  0.0347  0.0264 -0.3211
  543TMC3    C1 8107   0.577   4.322  17.348  0.3384 -0.4960 -0.6484
  543TMC3    C2 8108   0.585   4.211  17.419 -0.0934  0.4064  0.2169
  543TMC3    C3 8109   0.571   4.215  17.555 -0.3823  0.6438 -0.3231
  543TMC3    C4 8110   0.561   4.444  17.401  0.0399  0.4988  0.5580
  543TMC3    C5 8111   0.557   4.449  17.541  0.2401 -0.2773  0.0267
  543TMC3    C6 8112   0.562   4.333  17.620  0.0610 -0.3676 -0.6836
  543TMC3     C 8113   0.567   4.303  17.203 -0.0734 -0.3587  0.0980
  543TMC3     O 8114   0.630   4.207  17.157  0.0967  0.3172 -0.0821
  543TMC3     H 8115   0.612   4.119  17.368 -0.2776  0.3666  0.1908
  543TMC3    H1 8116   0.544   4.531  17.339 -0.3171 -0.4133 -0.6357
  543TMC3    H2 8117   0.579   4.334  17.728 -2.3708  2.6947 -0.3445
  543TMC3    C7 8118   0.525   4.576  17.610  0.2522 -0.8530 -0.4657
  543TMC3    C8 8119   0.547   4.088  17.625  0.3758  0.3306 -0.1368
  543TMC3    O1 8120   0.503   4.560  17.729  0.2899  0.2588  0.0281
  543TMC3    O2 8121   0.548   3.987  17.552 -0.1480 -0.2182 -0.3664
  544MPD2     C 8122   0.334   3.826   0.275 -0.5718 -0.3881 -0.5347
  544MPD2    C1 8123   0.383   3.783   0.151 -0.1489 -0.4711 -0.1481
  544MPD2    C2 8124   0.449   3.870   0.061  0.0393 -0.3558  0.2985
  544MPD2    C3 8125   0.444   4.003   0.092  0.7768  0.2055 -0.1293
  544MPD2    C4 8126   0.390   4.046   0.212  0.5684  0.4961 -0.1559
  544MPD2    C5 8127   0.334   3.959   0.300  0.0504  0.0644  0.4317
  544MPD2     H 8128   0.488   3.843  17.714  2.8444  3.2248  0.4330
  544MPD2    H1 8129   0.393   4.150   0.245 -0.9278  0.0730  1.2979
  544MPD2    H2 8130   0.286   3.757   0.343  0.8957 -1.9097 -1.0686
  544MPD2    H3 8131   0.290   3.985   0.396  2.5639  0.9778  1.3285
  544MPD2     N 8132   0.497   4.100   0.000 -0.6171  0.2524  0.0989
  544MPD2    H5 8133   0.495   4.198   0.026 -1.1326 -0.6675  3.6197
  544MPD2    N1 8134   0.381   3.646   0.127  0.0826  0.2772 -0.8187
  544MPD2    H7 8135   0.330   3.590   0.195  1.6422 -0.9727 -0.7005
  545TMC3    C1 8136   0.409   3.440   0.008 -0.3907 -0.5982 -0.0879
  545TMC3    C2 8137   0.523   3.361   0.009 -0.4690 -0.3312  0.3646
  545TMC3    C3 8138   0.505   3.228   0.028 -0.1973  0.1180 -0.4894
  545TMC3    C4 8139   0.284   3.401   0.031  0.6533 -0.3227  0.1693
  545TMC3    C5 8140   0.267   3.268   0.030  0.1248  0.5118 -0.6654
  545TMC3    C6 8141   0.376   3.180   0.030 -0.2079  0.1996 -0.6079
  545TMC3     C 8142   0.437   3.583   0.017  0.5867  0.2102  0.3530
  545TMC3     O 8143   0.510   3.624  17.679  0.1309 -0.2893  0.1632
  545TMC3     H 8144   0.619   3.410   0.006  0.0807 -1.3929  0.4926
  545TMC3    H1 8145   0.193   3.461   0.029 -0.3601 -1.8572  0.4719
  545TMC3    H2 8146   0.358   3.081  17.740 -1.7437  0.5888 -0.8980
  545TMC3    C7 8147   0.130   3.218   0.020  0.5733 -0.4048 -0.3816
  545TMC3    C8 8148   0.609   3.135   0.053 -0.0819 -0.4540  0.9217
  545TMC3    O1 8149   0.041   3.296  17.750 -0.0277 -0.2698  0.0550
  545TMC3    O2 8150   0.569   3.024   0.084  0.0398  0.3315 -0.0250
  546MPD2     C 8151   2.350   4.017  16.981 -0.1769  0.4092 -0.1160
  546MPD2    C1 8152   2.221   4.053  17.002 -0.6656 -0.3845 -0.3040
  546MPD2    C2 8153   2.198   4.175  17.063  0.6338  0.0899  0.4050
  546MPD2    C3 8154   2.302   4.264  17.092 -0.0687 -0.0076 -0.4993
  546MPD2    C4 8155   2.431   4.220  17.076 -0.9592 -0.5092 -0.2285
  546MPD2    C5 8156   2.450   4.096  17.020  0.8901  0.3887 -0.1694
  546MPD2     H 8157   2.097   4.204  17.091  0.4019  0.7990 -1.1485
  546MPD2    H1 8158   2.520   4.276  17.102 -0.4941 -0.8829 -0.9975
  546MPD2    H2 8159   2.378   3.916  16.952  1.9771  0.7263  0.8555
  546MPD2    H3 8160   2.553   4.062  17.008  0.9868  0.2289  1.1071
  546MPD2     N 8161   2.296   4.395  17.133 -0.1396  0.4307  0.2872
  546MPD2    H5 8162   2.381   4.450  17.135 -1.3237  2.2829 -0.8793
  546MPD2    N1 8163   2.117   3.952  16.975  0.6598 -0.1500  0.6182
  546MPD2    H7 8164   2.141   3.855  16.963 -1.7135 -0.8415  1.3440
  547TMC3    C1 8165   1.905   3.884  16.892 -0.8512  0.6143 -1.1467
  547TMC3    C2 8166   1.778   3.921  16.856 -0.7604 -0.5360  0.0051
  547TMC3    C3 8167   1.674   3.832  16.867 -0.7089 -0.2101 -0.2797
  547TMC3    C4 8168   1.922   3.758  16.947  0.4613 -0.0285 -0.5580
  547TMC3    C5 8169   1.813   3.672  16.951  0.3097  0.2004  0.1309
  547TMC3    C6 8170   1.693   3.708  16.913  0.1154  0.1614 -0.7629
  547TMC3     C 8171   1.992   3.989  16.928 -0.1761 -0.7907  0.2143
  547TMC3     O 8172   1.957   4.109  16.908  0.2665 -0.6865  0.1282
  547TMC3     H 8173   1.768   4.027  16.837 -1.9967 -0.4868  0.9366
  547TMC3    H1 8174   2.021   3.717  16.964 -0.0493 -1.2941 -0.6470
  547TMC3    H2 8175   1.615   3.632  16.913  0.2246  0.0523 -0.1884
  547TMC3    C7 8176   1.849   3.531  16.971  0.2683 -0.3514 -0.4070
  547TMC3    C8 8177   1.549   3.891  16.875  0.3665 -0.0480  0.0222
  547TMC3    O1 8178   1.804   3.447  16.894 -0.0349 -0.4921 -0.0656
  547TMC3    O2 8179   1.530   3.987  16.802  0.3427 -0.4378  0.5553
  548MPD2     C 8180   2.391   4.253  12.614  0.9661  1.0643 -0.1705
  548MPD2    C1 8181   2.296   4.175  12.556  0.0991  0.8081 -0.2944
  548MPD2    C2 8182   2.327   4.085  12.453 -0.3400  0.1409  0.0623
  548MPD2    C3 8183   2.456   4.086  12.408 -0.9657  0.5285  0.1835
  548MPD2    C4 8184   2.554   4.147  12.476  0.0213 -0.4417 -0.9614
  548MPD2    C5 8185   2.521   4.234  12.578 -0.1156 -0.3209 -0.3634
  548MPD2     H 8186   2.257   4.017  12.404  0.3451 -0.2814 -0.3398
  548MPD2    H1 8187   2.659   4.148  12.450 -0.1429 -1.0088 -1.6625
  548MPD2    H2 8188   2.369   4.323  12.693  1.1297  1.6242 -0.6243
  548MPD2    H3 8189   2.600   4.289  12.628 -0.5815 -1.2984  1.4388
  548MPD2     N 8190   2.471   4.018  12.288 -0.7351 -0.4235  0.0567
  548MPD2    H5 8191   2.394   3.965  12.247  1.5597 -2.4145 -1.6551
  548MPD2    N1 8192   2.164   4.205  12.590 -0.2858 -0.3440 -0.9271
  548MPD2    H7 8193   2.153   4.280  12.657  0.1486  0.7775 -2.1023
  549TMC3    C1 8194   1.930   4.205  12.600  0.1091 -0.5247 -0.1373
  549TMC3    C2 8195   1.907   4.331  12.554 -0.2004 -0.0995 -0.3293
  549TMC3    C3 8196   1.779   4.377  12.559  0.2973 -0.1536  0.2003
  549TMC3    C4 8197   1.833   4.126  12.649  0.6085 -0.1655 -1.1490
  549TMC3    C5 8198   1.708   4.175  12.652  0.2898 -0.1345 -0.4473
  549TMC3    C6 8199   1.678   4.300  12.613 -0.3984 -0.3884  0.3987
  549TMC3     C 8200   2.053   4.134  12.554 -0.4952 -0.1112 -0.1626
  549TMC3     O 8201   2.049   4.021  12.505 -0.4075 -0.0260 -0.1357
  549TMC3     H 8202   1.991   4.385  12.510  0.9269 -1.0307  0.6875
  549TMC3    H1 8203   1.854   4.030  12.693  2.9688  0.4017 -1.0259
  549TMC3    H2 8204   1.577   4.324  12.583  0.4612  3.3443  0.4789
  549TMC3    C7 8205   1.587   4.090  12.683  0.0857  0.4660  0.0222
  549TMC3    C8 8206   1.741   4.491  12.489  0.3708 -0.3901  0.0039
  549TMC3    O1 8207   1.475   4.131  12.666  0.3130 -0.2152  0.0588
  549TMC3    O2 8208   1.621   4.523  12.491 -0.0704  0.0786  0.0983
  550TMC3    C1 8209   0.580   2.224  12.379 -0.7799  0.0060 -0.6647
  550TMC3    C2 8210   0.509   2.236  12.495  0.1493  0.0029  0.4754
  550TMC3    C3 8211   0.548   2.321  12.594 -0.5738 -0.6885 -0.2171
  550TMC3    C4 8212   0.686   2.314  12.356 -0.0776  0.8031 -0.0772
  550TMC3    C5 8213   0.732   2.393  12.458 -0.3850  0.3872  0.5565
  550TMC3    C6 8214   0.664   2.395  12.577  0.1025 -0.4248 -0.1835
  550TMC3     C 8215   0.494   2.192  12.263  0.2635 -0.0055  0.6221
  550TMC3     O 8216   0.376   2.217  12.288 -0.2619 -0.3466 -0.3472
  550TMC3     H 8217   0.429   2.165  12.511 -1.3730  0.9849 -2.7838
  550TMC3    H1 8218   0.735   2.320  12.260  0.1428  0.9222  0.0412
  550TMC3    H2 8219   0.696   2.463  12.656  0.9178 -0.2993 -0.6164
  550TMC3    C7 8220   0.733   2.531  12.404  0.3117  0.2479  0.2606
  550TMC3    C8 8221   0.445   2.419  12.625 -0.2083 -0.0857  0.2658
  550TMC3    O1 8222   0.692   2.550  12.290 -0.3533  0.1216  0.0533
  550TMC3    O2 8223   0.454   2.492  12.725 -0.2360  0.6669 -0.2683
  551TMC3    C1 8224   3.278   0.652  12.896  0.7483  0.6935  0.8313
  551TMC3    C2 8225   3.415   0.650  12.888  0.3156  0.1944 -0.1027
  551TMC3    C3 8226   3.482   0.739  12.966  0.2808  0.3157  0.3073
  551TMC3    C4 8227   3.208   0.725  12.992 -0.1943 -0.6791  0.3852
  551TMC3    C5 8228   3.283   0.804  13.067 -0.2144  0.1947  0.9247
  551TMC3    C6 8229   3.417   0.822  13.053 -0.4631  0.5519 -0.8811
  551TMC3     C 8230   3.189   0.592  12.789  0.7077  0.5504 -0.0401
  551TMC3     O 8231   3.069   0.603  12.804 -0.0906 -0.7456  0.2399
  551TMC3     H 8232   3.472   0.596  12.814 -1.5667 -2.6210  0.4996
  551TMC3    H1 8233   3.102   0.717  13.012 -0.3327  1.2360  0.4007
  551TMC3    H2 8234   3.474   0.884  13.120 -0.5739 -0.1689 -0.1114
  551TMC3    C7 8235   3.219   0.869  13.179 -0.1805  0.4464 -0.6462
  551TMC3    C8 8236   3.615   0.771  12.920  0.1676 -0.0525 -0.6090
  551TMC3    O1 8237   3.113   0.917  13.154  0.4312  0.4398 -0.1610
  551TMC3    O2 8238   3.695   0.690  12.880  0.0013  0.7959 -0.0576
  552MPD2     C 8239   0.206   2.789  14.294 -0.9201 -0.1229 -0.0152
  552MPD2    C1 8240   0.184   2.659  14.322 -0.4233  0.2206  0.5903
  552MPD2    C2 8241   0.257   2.602  14.432 -0.3402 -0.8885  0.6750
  552MPD2    C3 8242   0.325   2.684  14.524 -0.4227  0.1883  0.0644
  552MPD2    C4 8243   0.337   2.819  14.496  0.0198 -0.2985 -0.4026
  552MPD2    C5 8244   0.278   2.872  14.378 -0.2780  0.3866  0.6993
  552MPD2     H 8245   0.242   2.496  14.441  0.9887 -1.0635  0.8233
  552MPD2    H1 8246   0.396   2.882  14.562  0.2022 -0.2902 -0.5728
  552MPD2    H2 8247   0.171   2.836  14.202 -0.5215 -0.6231 -0.4244
  552MPD2    H3 8248   0.272   2.976  14.350  1.5778  0.2867 -0.1128
  552MPD2     N 8249   0.388   2.637  14.647 -0.1560  0.1251 -0.2095
  552MPD2    H5 8250   0.452   2.705  14.687  0.8399 -1.3206  0.6819
  552MPD2    N1 8251   0.102   2.579  14.238 -0.6263  1.1194 -0.9136
  552MPD2    H7 8252   0.110   2.481  14.264  1.4660  1.2354 -1.1214
  553TMC3    C1 8253   4.730   2.500  14.039 -0.4237  0.5136 -0.0980
  553TMC3    C2 8254   4.650   2.537  13.939 -0.1924 -0.0345 -0.4974
  553TMC3    C3 8255   4.619   2.440  13.849 -0.3780 -0.2498 -0.4665
  553TMC3    C4 8256   0.039   2.375  14.052  0.0237 -0.0093 -0.0987
  553TMC3    C5 8257   4.727   2.270  13.982  0.6420 -0.3019  0.0791
  553TMC3    C6 8258   4.650   2.303  13.872 -0.0479 -0.9033  0.0429
  553TMC3     C 8259   0.037   2.613  14.118 -0.4957 -0.4735 -0.0191
  553TMC3     O 8260   0.026   2.720  14.062  0.0937 -0.2130 -0.2553
  553TMC3     H 8261   4.639   2.640  13.906 -0.7647 -0.3231 -1.2089
  553TMC3    H1 8262   0.115   2.357  14.128 -0.3968 -1.6553 -0.0800
  553TMC3    H2 8263   4.619   2.231  13.797  0.9103 -0.6577 -0.5767
  553TMC3    C7 8264   0.060   2.150  13.975  0.5506  0.3872 -0.4334
  553TMC3    C8 8265   4.616   2.490  13.716  0.1801 -0.0207  0.7855
  553TMC3    O1 8266   0.025   2.065  13.891 -0.0410 -0.4018 -0.0332
  553TMC3    O2 8267   4.566   2.601  13.698  0.5117 -0.3715 -0.1382
  554TMC3    C1 8268   2.244   1.649  11.293  0.2360  0.2452  0.3834
  554TMC3    C2 8269   2.205   1.608  11.167  0.1018  0.3449 -0.4572
  554TMC3    C3 8270   2.198   1.706  11.072  0.2178 -0.4191  0.4285
  554TMC3    C4 8271   2.287   1.777  11.324 -0.7315 -0.7627  0.3601
  554TMC3    C5 8272   2.292   1.870  11.220 -0.3806  0.3002 -0.4738
  554TMC3    C6 8273   2.250   1.832  11.098 -0.2245 -0.1500 -0.5655
  554TMC3     C 8274   2.244   1.544  11.395 -0.6729 -0.0406 -0.0500
  554TMC3     O 8275   2.227   1.429  11.354 -0.2414  0.4705 -0.2473
  554TMC3     H 8276   2.147   1.518  11.150 -0.8475  0.9964 -0.6609
  554TMC3    H1 8277   2.332   1.803  11.419  0.0855 -0.9212  0.0210
  554TMC3    H2 8278   2.238   1.898  11.014  1.7716 -1.2764 -1.7355
  554TMC3    C7 8279   2.351   2.006  11.244  0.0766 -0.4013  0.8576
  554TMC3    C8 8280   2.188   1.669  10.935 -0.3163  0.4374 -0.1331
  554TMC3    O1 8281   2.395   2.023  11.362  0.1029 -0.4779 -0.1669
  554TMC3    O2 8282   2.195   1.760  10.851 -0.2497 -0.4508  0.5066
  555TMC3    C1 8283   0.961   1.444  15.323 -0.0343 -0.3440  0.8882
  555TMC3    C2 8284   0.990   1.515  15.433 -0.1857  1.2750 -0.2645
  555TMC3    C3 8285   1.066   1.452  15.525  0.4707 -0.6251  0.3234
  555TMC3    C4 8286   0.996   1.318  15.295 -0.5029 -0.7307 -0.1975
  555TMC3    C5 8287   1.070   1.253  15.386 -0.2724 -0.3075 -0.0682
  555TMC3    C6 8288   1.106   1.318  15.506  0.4597 -0.1771  0.3826
  555TMC3     C 8289   0.875   1.517  15.232 -0.0005 -0.9362  0.1596
  555TMC3     O 8290   0.864   1.637  15.244  0.5594 -0.1330  0.3176
  555TMC3     H 8291   0.944   1.612  15.452  1.8316  2.4779 -1.5231
  555TMC3    H1 8292   0.963   1.274  15.202 -0.6724  2.3530 -1.5866
  555TMC3    H2 8293   1.177   1.265  15.569 -1.5813 -0.8576  2.0728
  555TMC3    C7 8294   1.115   1.111  15.368 -0.3257 -0.4004 -0.3012
  555TMC3    C8 8295   1.109   1.529  15.638  0.2907 -0.3895  0.4590
  555TMC3    O1 8296   1.165   1.053  15.461 -0.4759  0.2742  0.2601
  555TMC3    O2 8297   1.123   1.649  15.632  0.6101 -0.3146 -0.4786
  556MPD2     C 8298   4.451   2.753  10.495 -0.8830  0.1596 -0.8274
  556MPD2    C1 8299   4.402   2.669  10.597 -0.5532 -0.3310  0.3079
  556MPD2    C2 8300   4.359   2.541  10.566  0.0489  0.1224 -0.1477
  556MPD2    C3 8301   4.382   2.488  10.434 -0.1176 -0.0688 -0.6212
  556MPD2    C4 8302   4.433   2.573  10.338 -0.0003 -0.7439  0.1556
  556MPD2    C5 8303   4.469   2.697  10.373  0.2869 -0.5632  0.3927
  556MPD2     H 8304   4.314   2.472  10.637 -1.5452  0.6834 -0.6171
  556MPD2    H1 8305   4.467   2.538  10.241 -1.2339  1.5862 -1.1107
  556MPD2    H2 8306   4.474   2.858  10.509  1.7057 -0.5198 -0.0344
  556MPD2    H3 8307   4.490   2.758  10.286  1.2134 -0.5347  0.6413
  556MPD2     N 8308   4.345   2.359  10.405  0.1283 -0.4015 -0.3538
  556MPD2    H5 8309   4.300   2.310  10.482  0.3981  0.9795  0.6753
  556MPD2    N1 8310   4.383   2.725  10.723 -0.7813 -0.4033  0.2239
  556MPD2    H7 8311   4.350   2.665  10.799  2.2821 -0.2052  1.7324
  557TMC3    C1 8312   4.330   2.146  10.295  0.0874  1.1772  0.5501
  557TMC3    C2 8313   4.409   2.053  10.227 -0.2538 -0.7050  0.1788
  557TMC3    C3 8314   4.376   1.924  10.235 -0.3547 -0.8859  0.5883
  557TMC3    C4 8315   4.225   2.109  10.379 -0.0308  0.1915  0.4983
  557TMC3    C5 8316   4.208   1.971  10.386  0.1454  0.6902 -0.2924
  557TMC3    C6 8317   4.270   1.874  10.306 -0.3633  0.0424 -0.4524
  557TMC3     C 8318   4.378   2.284  10.297 -0.1317  0.0890  0.0721
  557TMC3     O 8319   4.442   2.316  10.201 -0.4027 -0.1511  0.0725
  557TMC3     H 8320   4.493   2.083  10.166  0.3443 -0.7604  0.9703
  557TMC3    H1 8321   4.164   2.187  10.424  0.0312  0.1026  0.7376
  557TMC3    H2 8322   4.242   1.770  10.310 -0.5228  0.0588 -1.1350
  557TMC3    C7 8323   4.080   1.940  10.436 -1.1860  0.0402 -0.5552
  557TMC3    C8 8324   4.475   1.838  10.181  0.2355  0.4182 -0.2454
  557TMC3    O1 8325   4.002   2.031  10.438 -0.2237 -0.2379 -0.3827
  557TMC3    O2 8326   4.585   1.886  10.190  0.1305 -0.4199  0.0779
  558TMC3    C1 8327   1.524   0.587  10.159  0.1716  0.2630  0.2720
  558TMC3    C2 8328   1.427   0.542  10.243  0.0344  0.1425 -0.6849
  558TMC3    C3 8329   1.295   0.542  10.203  0.2237  0.2700 -0.0251
  558TMC3    C4 8330   1.483   0.627  10.040 -0.6902  0.6064 -0.3894
  558TMC3    C5 8331   1.355   0.620   9.995 -0.2620 -0.6682  0.1170
  558TMC3    C6 8332   1.255   0.566  10.072  0.0733  0.7260 -0.8819
  558TMC3     C 8333   1.664   0.581  10.185  0.1297  0.6912  0.6184
  558TMC3     O 8334   1.740   0.630  10.102 -0.8273  0.2624  0.2392
  558TMC3     H 8335   1.461   0.537  10.345 -1.8783 -0.9234 -0.1010
  558TMC3    H1 8336   1.559   0.669   9.975 -0.9344  0.5166 -0.7321
  558TMC3    H2 8337   1.153   0.550  10.038 -0.2123  1.0922 -0.1928
  558TMC3    C7 8338   1.340   0.670   9.858  0.2062  0.4098 -0.7032
  558TMC3    C8 8339   1.191   0.505  10.291 -0.0542  0.1096 -0.0122
  558TMC3    O1 8340   1.444   0.705   9.803  0.1085 -0.0671 -0.1396
  558TMC3    O2 8341   1.078   0.538  10.263  0.1643 -0.2838  0.0359
  559MPD2     C 8342   1.932   1.073  10.308  0.2047 -0.5163 -0.5338
  559MPD2    C1 8343   1.857   0.991  10.393 -0.5776 -0.4348 -0.2132
  559MPD2    C2 8344   1.930   0.911  10.484  1.0045  0.1544 -0.5751
  559MPD2    C3 8345   2.068   0.918  10.487  0.2835 -0.0793  0.4238
  559MPD2    C4 8346   2.131   0.994  10.395  0.0214 -0.5621  0.0770
  559MPD2    C5 8347   2.066   1.071  10.308 -0.5004 -0.3176 -0.1395
  559MPD2     H 8348   1.877   0.846  10.553  0.6914 -0.3859 -1.3292
  559MPD2    H1 8349   2.239   0.998  10.387 -0.0523  0.0975 -0.5760
  559MPD2    H2 8350   1.879   1.138  10.239 -0.0947  1.1086  1.2297
  559MPD2    H3 8351   2.116   1.139  10.240  1.7163 -1.7281  0.0987
  559MPD2     N 8352   2.133   0.837  10.580  0.5153 -0.3166 -0.6174
  559MPD2    H5 8353   2.070   0.793  10.646 -1.1602 -0.5215 -2.3462
  559MPD2    N1 8354   1.717   1.013  10.382  0.2365  0.0130 -0.5614
  559MPD2    H7 8355   1.683   1.078  10.313 -0.3427 -0.5683 -0.8267
  560TMC3    C1 8356   2.293   0.727  10.709  0.4946 -0.3982  0.7337
  560TMC3    C2 8357   2.202   0.629  10.731  0.0203 -0.4764  0.2365
  560TMC3    C3 8358   2.223   0.551  10.840 -0.8786  1.0013 -0.6051
  560TMC3    C4 8359   2.405   0.743  10.783  0.4822 -0.2393 -1.0413
  560TMC3    C5 8360   2.419   0.667  10.897  0.1142  0.1499 -1.2063
  560TMC3    C6 8361   2.326   0.569  10.927 -0.0540  0.0992  0.2512
  560TMC3     C 8362   2.270   0.824  10.602  0.8602 -0.5489 -0.2277
  560TMC3     O 8363   2.360   0.899  10.573 -0.3173 -0.1320 -0.6677
  560TMC3     H 8364   2.122   0.600  10.663  0.8566  1.6018 -1.6466
  560TMC3    H1 8365   2.469   0.824  10.751 -0.8268  1.8646  1.6973
  560TMC3    H2 8366   2.335   0.497  11.007 -3.3382 -0.8621 -0.2257
  560TMC3    C7 8367   2.517   0.692  10.993  0.5903  0.7675  0.6251
  560TMC3    C8 8368   2.120   0.456  10.867 -0.0036  0.2616 -0.4538
  560TMC3    O1 8369   2.543   0.607  11.078  0.5768 -0.2882  0.0368
  560TMC3    O2 8370   2.004   0.465  10.834 -0.0217  0.0241  0.3093
  561TMC3    C1 8371   0.083   4.508  11.183  0.9778  0.0145  0.5026
  561TMC3    C2 8372   0.011   4.412  11.247 -0.1251  0.1608  0.1264
  561TMC3    C3 8373   4.707   4.441  11.373 -0.3562  0.5124  0.7080
  561TMC3    C4 8374   0.108   4.625  11.244  0.1828 -0.1291 -0.1026
  561TMC3    C5 8375   0.066   4.640  11.373 -0.5115 -0.6422  0.3783
  561TMC3    C6 8376   4.736   4.551  11.440  0.0412  0.1472 -0.1469
  561TMC3     C 8377   0.189   4.456  11.102 -0.4593  0.3474 -0.2557
  561TMC3     O 8378   0.219   4.340  11.114  0.3247 -0.1285  0.2975
  561TMC3     H 8379   0.004   4.313  11.204  2.8275 -0.3793  0.8990
  561TMC3    H1 8380   0.186   4.688  11.204 -0.7140  0.1820 -1.3813
  561TMC3    H2 8381   4.733   4.562  11.547  2.4191  0.0932 -0.0658
  561TMC3    C7 8382   0.131   0.008  11.447 -0.0875 -0.0322  0.3187
  561TMC3    C8 8383   4.590   4.374  11.431 -0.6619 -0.5506  0.0408
  561TMC3    O1 8384   0.171   4.721  11.559  0.5860 -0.8616 -0.2477
  561TMC3    O2 8385   4.571   4.252  11.429  0.6600  0.5156  0.6924
  562TMC3    C1 8386   0.899   1.492  16.718  0.5386  0.8363  0.0735
  562TMC3    C2 8387   0.827   1.619  16.713 -0.1566  0.6094  0.0881
  562TMC3    C3 8388   0.770   1.646  16.593 -0.0375 -0.0398 -0.2480
  562TMC3    C4 8389   0.921   1.421  16.606 -0.2748 -0.0618 -0.2592
  562TMC3    C5 8390   0.860   1.461  16.494  0.3833  0.6374  0.0731
  562TMC3    C6 8391   0.784   1.570  16.478  0.3549  0.3849  0.2701
  562TMC3     C 8392   0.947   1.430  16.843  0.1821 -0.6175 -0.1449
  562TMC3     O 8393   1.025   1.331  16.843 -0.1533  0.3552 -0.3031
  562TMC3     H 8394   0.789   1.673  16.799 -0.1674 -0.5386  0.7997
  562TMC3    H1 8395   1.000   1.348  16.614 -1.4293 -1.2760  0.0472
  562TMC3    H2 8396   0.760   1.600  16.377 -0.0391  0.7830  0.4817
  562TMC3    C7 8397   0.884   1.385  16.369  0.6115  0.0214 -0.3420
  562TMC3    C8 8398   0.717   1.783  16.571 -0.1722  0.3034 -0.0914
  562TMC3    O1 8399   0.852   1.424  16.261  0.1381  0.2907  0.4874
  562TMC3    O2 8400   0.747   1.865  16.656  0.2682  0.1680  0.3226
  563MPD2     C 8401   3.259   2.813  15.591 -0.6039  0.5178 -0.5940
  563MPD2    C1 8402   3.270   2.756  15.711  0.3591  0.6641  0.2412
  563MPD2    C2 8403   3.387   2.692  15.743  0.3546  0.2900 -0.5911
  563MPD2    C3 8404   3.485   2.680  15.647 -0.6014 -0.4409 -0.2027
  563MPD2    C4 8405   3.476   2.734  15.523 -0.3955  0.1716 -0.2403
  563MPD2    C5 8406   3.361   2.807  15.499 -0.3622  0.2927  0.6626
  563MPD2     H 8407   3.414   2.648  15.838  0.4074 -1.9260 -1.6410
  563MPD2    H1 8408   3.558   2.745  15.453 -0.9636  2.5032 -0.5438
  563MPD2    H2 8409   3.172   2.867  15.557 -1.7186 -1.3689 -0.7832
  563MPD2    H3 8410   3.356   2.863  15.407 -0.7288 -0.0980  0.4401
  563MPD2     N 8411   3.600   2.617  15.692 -0.2698 -0.1269 -0.0619
  563MPD2    H5 8412   3.596   2.583  15.787 -1.2737 -1.7373 -0.6879
  563MPD2    N1 8413   3.163   2.769  15.809 -0.3547 -0.1838  0.3502
  563MPD2    H7 8414   3.068   2.788  15.778  0.3247  2.2667 -0.2639
  564TMC3    C1 8415   3.059   2.740  16.019  0.4150 -0.3768 -0.1624
  564TMC3    C2 8416   2.952   2.683  15.953 -0.5254  0.0628 -1.0811
  564TMC3    C3 8417   2.847   2.630  16.035 -0.3144  0.3491  0.1406
  564TMC3    C4 8418   3.073   2.727  16.156  0.6340 -0.0076 -0.7751
  564TMC3    C5 8419   2.978   2.667  16.230  0.1440 -0.0469 -0.7837
  564TMC3    C6 8420   2.864   2.626  16.171 -0.4846  0.7604 -0.6543
  564TMC3     C 8421   3.182   2.748  15.947  1.2405 -0.5339  0.3708
  564TMC3     O 8422   3.287   2.728  16.009  0.4594 -0.5402 -0.3121
  564TMC3     H 8423   2.947   2.673  15.845  1.7226 -1.9908 -0.9979
  564TMC3    H1 8424   3.156   2.773  16.208  1.2256 -3.5738  1.4238
  564TMC3    H2 8425   2.784   2.586  16.233 -1.1777  3.7041  0.3712
  564TMC3    C7 8426   3.037   2.556  16.298 -0.1483  0.4080 -0.0204
  564TMC3    C8 8427   2.784   2.512  15.993 -0.4245 -0.7219 -0.0071
  564TMC3    O1 8428   3.150   2.566  16.336 -0.4062 -0.8233 -0.0874
  564TMC3    O2 8429   2.686   2.481  16.062 -1.0095 -0.5900 -0.5129
  565TMC3    C1 8430   3.452   4.440   9.874 -0.7089 -0.0188  0.2456
  565TMC3    C2 8431   3.473   4.310   9.903 -0.4096  0.6632  0.3698
  565TMC3    C3 8432   3.358   4.234   9.897  0.2188 -0.1689  0.3748
  565TMC3    C4 8433   3.330   4.499   9.847  0.7173  0.4397  0.1906
  565TMC3    C5 8434   3.222   4.415   9.848 -0.3271 -0.7908 -0.2535
  565TMC3    C6 8435   3.235   4.278   9.863  0.1160  0.4520 -0.3805
  565TMC3     C 8436   3.578   4.508   9.850  0.6358 -0.3218  0.6361
  565TMC3     O 8437   3.587   4.583   9.751 -0.2356  0.6072  0.4260
  565TMC3     H 8438   3.572   4.265   9.912 -0.7675 -0.3052 -0.5682
  565TMC3    H1 8439   3.324   4.605   9.823  1.0919  0.6185  0.8988
  565TMC3    H2 8440   3.149   4.224   9.900 -0.4352  0.8175 -1.1369
  565TMC3    C7 8441   3.084   4.473   9.835  0.1104  0.0883 -0.0764
  565TMC3    C8 8442   3.380   4.103   9.944  0.4133 -0.3107  1.0588
  565TMC3    O1 8443   3.087   4.594   9.849  0.4882  0.5783 -0.2085
  565TMC3    O2 8444   3.475   4.099  10.019 -0.0740 -0.0017  0.5159
  566MPD2     C 8445   1.208   1.039  13.717 -0.0637  0.3213 -0.7811
  566MPD2    C1 8446   1.110   1.121  13.760  0.1296  0.7901 -0.5849
  566MPD2    C2 8447   0.982   1.074  13.789 -0.0321  0.3272  0.3235
  566MPD2    C3 8448   0.959   0.937  13.780  0.0364 -0.2249  0.2319
  566MPD2    C4 8449   1.055   0.862  13.710  0.0666 -0.1552  0.0428
  566MPD2    C5 8450   1.176   0.915  13.668 -0.1117 -0.7312  0.2969
  566MPD2     H 8451   0.910   1.144  13.830 -1.5740 -1.7277  1.1408
  566MPD2    H1 8452   1.033   0.759  13.683 -1.1274  0.5082 -1.5866
  566MPD2    H2 8453   1.306   1.083  13.704  0.4567 -0.3756  0.7716
  566MPD2    H3 8454   1.246   0.847  13.619  0.2490  0.6490 -1.1144
  566MPD2     N 8455   0.836   0.877  13.814 -0.5810 -0.3053  0.2801
  566MPD2    H5 8456   0.825   0.782  13.778  0.4573 -0.8290  1.3459
  566MPD2    N1 8457   1.144   1.263  13.770  0.1421  0.2903  0.2981
  566MPD2    H7 8458   1.242   1.284  13.791  0.0915  0.0607  0.7606
  567TMC3    C1 8459   1.106   1.439  13.911 -0.2505  0.2199  0.1787
  567TMC3    C2 8460   1.012   1.534  13.945  0.4050 -0.5940  1.0235
  567TMC3    C3 8461   1.008   1.577  14.076 -0.0988  0.1800  0.0284
  567TMC3    C4 8462   1.201   1.393  14.003 -0.4321  0.4232 -0.7899
  567TMC3    C5 8463   1.204   1.453  14.129  0.5361  0.5126 -0.0632
  567TMC3    C6 8464   1.107   1.543  14.173 -0.6246  0.6558 -0.5181
  567TMC3     C 8465   1.056   1.361  13.801  0.0073  0.3253 -0.4973
  567TMC3     O 8466   0.940   1.377  13.762  0.3460  0.3248 -0.6713
  567TMC3     H 8467   0.939   1.571  13.874  0.6770 -1.5803  0.2294
  567TMC3    H1 8468   1.276   1.316  13.985 -1.0772  0.1596 -2.3650
  567TMC3    H2 8469   1.115   1.576  14.276  1.6996  2.0148 -1.1362
  567TMC3    C7 8470   1.298   1.397  14.228  0.6522 -0.0379  0.0367
  567TMC3    C8 8471   0.881   1.636  14.117 -0.1578 -0.1503 -1.2992
  567TMC3    O1 8472   1.405   1.360  14.180 -0.4449 -0.1705  0.9653
  567TMC3    O2 8473   0.788   1.619  14.041  0.3528 -0.7193  0.1253
  568MPD2     C 8474   2.507   1.090  15.969  0.1056 -0.7186  0.2430
  568MPD2    C1 8475   2.523   1.182  16.068  0.0422  0.1700  0.3326
  568MPD2    C2 8476   2.461   1.302  16.048 -0.8375 -0.2727 -0.1464
  568MPD2    C3 8477   2.396   1.335  15.936  0.2046  0.0634  0.2577
  568MPD2    C4 8478   2.384   1.242  15.829 -0.2014 -0.4948 -0.2054
  568MPD2    C5 8479   2.432   1.116  15.853 -0.5604 -0.0275 -0.5970
  568MPD2     H 8480   2.467   1.375  16.129 -0.9756  0.2791 -0.6351
  568MPD2    H1 8481   2.325   1.261  15.740 -0.9975  0.2313  0.4634
  568MPD2    H2 8482   2.545   0.989  15.981 -0.2878 -0.8471  0.3825
  568MPD2    H3 8483   2.406   1.035  15.786 -0.4728 -0.9500  0.4799
  568MPD2     N 8484   2.348   1.464  15.941  0.6257  0.3764  0.1503
  568MPD2    H5 8485   2.362   1.504  16.034  0.3562 -3.7235  1.9605
  568MPD2    N1 8486   2.587   1.144  16.187 -0.3966 -0.9741  0.2872
  568MPD2    H7 8487   2.598   1.045  16.208 -0.7836 -0.5827  2.3968
  569TMC3    C1 8488   2.290   1.687  15.891 -0.5768 -0.0555  0.3700
  569TMC3    C2 8489   2.292   1.699  16.034 -0.3041 -0.1397  0.6147
  569TMC3    C3 8490   2.357   1.805  16.089 -0.6364 -0.0904  0.0518
  569TMC3    C4 8491   2.365   1.773  15.818 -0.5513 -0.6720  0.0253
  569TMC3    C5 8492   2.438   1.878  15.873 -0.2002  0.3626 -0.5444
  569TMC3    C6 8493   2.426   1.903  16.009 -0.4388 -0.3035 -0.1421
  569TMC3     C 8494   2.298   1.548  15.847 -0.4339 -0.2685 -0.3734
  569TMC3     O 8495   2.302   1.527  15.728 -0.0896  0.0236  0.0236
  569TMC3     H 8496   2.239   1.633  16.102 -1.3457 -0.7237 -0.7573
  569TMC3    H1 8497   2.379   1.741  15.716  1.8031 -0.1062  0.1861
  569TMC3    H2 8498   2.468   1.993  16.053  0.5753 -0.4380 -0.8394
  569TMC3    C7 8499   2.549   1.935  15.800  0.0488  0.7309  0.5127
  569TMC3    C8 8500   2.358   1.812  16.233  0.0458  0.5904 -0.3381
  569TMC3    O1 8501   2.592   1.863  15.707  0.1281  0.4263 -0.2013
  569TMC3    O2 8502   2.319   1.714  16.294 -0.2294  0.5703  0.2536
  570TMC3    C1 8503   2.014   0.564  15.724 -0.0100  0.1781  0.2851
  570TMC3    C2 8504   2.112   0.587  15.633 -0.8411 -0.2727 -0.4188
  570TMC3    C3 8505   2.177   0.704  15.642  0.6784  0.6339  0.0143
  570TMC3    C4 8506   1.977   0.659  15.822  0.0116  0.3788 -0.6207
  570TMC3    C5 8507   2.049   0.774  15.830  0.2321 -0.3912  0.5795
  570TMC3    C6 8508   2.154   0.793  15.743  0.7607  0.0569 -0.7826
  570TMC3     C 8509   1.961   0.432  15.735 -1.0386 -0.5344  0.6636
  570TMC3     O 8510   1.988   0.359  15.639 -0.3099 -0.3799 -0.4063
  570TMC3     H 8511   2.144   0.508  15.565 -1.0971  1.1255 -2.1697
  570TMC3    H1 8512   1.885   0.641  15.876  1.4625 -1.3974  1.2313
  570TMC3    H2 8513   2.221   0.877  15.755  0.2704  0.1516  1.3678
  570TMC3    C7 8514   2.086   0.804  15.969  0.4509 -1.0514 -0.2868
  570TMC3    C8 8515   2.298   0.717  15.564  1.0013 -0.6705 -0.7083
  570TMC3    O1 8516   2.060   0.711  16.045 -0.2125 -0.0050  0.0714
  570TMC3    O2 8517   2.382   0.797  15.608  0.3655  0.1143  0.3294
  571MPD2     C 8518   4.243   2.209   0.055 -0.2201  0.8072 -0.1675
  571MPD2    C1 8519   4.324   2.142   0.145 -0.0976 -0.2316 -0.2141
  571MPD2    C2 8520   4.374   2.219   0.249  0.0216 -0.1501 -0.8173
  571MPD2    C3 8521   4.346   2.356   0.267 -0.2582 -0.5354 -0.1323
  571MPD2    C4 8522   4.279   2.419   0.167 -0.7361 -0.3015  0.5026
  571MPD2    C5 8523   4.223   2.346   0.067 -0.0365 -0.1370  0.0032
  571MPD2     H 8524   4.432   2.160   0.320 -0.1679  1.3107  0.5522
  571MPD2    H1 8525   4.264   2.526   0.175 -3.1058 -0.4384 -2.1409
  571MPD2    H2 8526   4.200   2.156  17.721  1.5742  1.3143 -1.4080
  571MPD2    H3 8527   4.156   2.399   0.001 -1.9529 -2.5025  0.0319
  571MPD2     N 8528   4.407   2.435   0.361 -0.0167 -0.3166 -0.3731
  571MPD2    H5 8529   4.386   2.534   0.360  2.0823  0.1858  3.4196
  571MPD2    N1 8530   4.354   2.005   0.122  0.0934 -0.9000 -0.3170
  571MPD2    H7 8531   4.317   1.959   0.039  0.4471 -1.8404  0.0351
  572TMC3    C1 8532   4.549   2.479   0.545  0.2761 -0.1953 -0.7751
  572TMC3    C2 8533   4.623   2.430   0.648  0.1369 -0.3964 -0.5402
  572TMC3    C3 8534   4.726   2.498   0.701 -0.0790  0.0863 -0.1426
  572TMC3    C4 8535   4.556   2.610   0.512 -1.0983  0.6303  0.4605
  572TMC3    C5 8536   4.664   2.676   0.567 -1.2924 -0.2245 -0.2157
  572TMC3    C6 8537   0.012   2.626   0.663  0.3945 -0.1969 -0.1081
  572TMC3     C 8538   4.464   2.382   0.472 -0.2340 -0.5377 -0.0370
  572TMC3     O 8539   4.453   2.274   0.527  0.1746  0.2266 -0.1718
  572TMC3     H 8540   4.637   2.323   0.658  1.1529 -0.1499  0.7127
  572TMC3    H1 8541   4.479   2.664   0.458 -0.0696  2.3986  0.7722
  572TMC3    H2 8542   0.084   2.692   0.709  1.1055 -1.6964  0.9225
  572TMC3    C7 8543   4.694   2.810   0.509  0.4680 -0.6972 -0.0483
  572TMC3    C8 8544   0.055   2.453   0.823  0.0323 -0.0956  0.0458
  572TMC3    O1 8545   4.596   2.864   0.458 -0.1229 -1.0472 -0.4328
  572TMC3    O2 8546   0.156   2.511   0.859  0.1753  0.1005  0.7967
  573MPD2     C 8547   0.071   1.878   0.757 -0.1554  0.1471 -0.1250
  573MPD2    C1 8548   0.146   1.987   0.733  0.2706  0.3314  0.3401
  573MPD2    C2 8549   0.129   2.060   0.624  0.5630 -0.8344  0.4337
  573MPD2    C3 8550   0.024   2.029   0.539  0.7192  0.3549 -0.1538
  573MPD2    C4 8551   4.686   1.918   0.556 -1.0359  0.3299  0.2047
  573MPD2    C5 8552   4.712   1.851   0.667  0.7160  0.4879  1.2054
  573MPD2     H 8553   0.195   2.143   0.605 -0.0903 -0.2297  0.8015
  573MPD2    H1 8554   4.605   1.884   0.493 -0.1669  1.1497 -1.3532
  573MPD2    H2 8555   0.083   1.810   0.841  1.0354 -0.3349 -0.6896
  573MPD2    H3 8556   4.656   1.759   0.677  0.5560  0.5190  0.5868
  573MPD2     N 8557   4.729   2.101   0.427 -0.0329  0.0622  0.0640
  573MPD2    H5 8558   4.659   2.064   0.364  1.1297 -1.2503 -0.4586
  573MPD2    N1 8559   0.249   2.000   0.823  0.4384 -0.3088 -0.0963
  573MPD2    H7 8560   0.258   1.929   0.895  1.6712 -1.3639 -1.2896
  574TMC3    C1 8561   0.013   2.261   0.265 -0.1602 -0.0494  0.1739
  574TMC3    C2 8562   0.001   2.394   0.244 -0.3944 -0.4969 -0.2393
  574TMC3    C3 8563   4.675   2.422   0.124 -0.2488 -0.3237 -0.0762
  574TMC3    C4 8564   4.718   2.164   0.174 -0.0366  0.3663 -0.0964
  574TMC3    C5 8565   4.669   2.197   0.052 -0.2183 -0.7961 -0.1680
  574TMC3    C6 8566   4.634   2.327   0.027 -0.8929  0.5459 -0.9760
  574TMC3     C 8567   0.057   2.216   0.394  0.0597 -0.9411 -0.0421
  574TMC3     O 8568   0.137   2.289   0.458  0.0209  0.3623  0.0030
  574TMC3     H 8569   0.016   2.462   0.326 -0.1348 -1.3520  0.4207
  574TMC3    H1 8570   4.725   2.060   0.203 -0.6885  1.1989  3.1180
  574TMC3    H2 8571   4.565   2.353  17.698 -1.0350  1.5210 -0.5358
  574TMC3    C7 8572   4.626   2.103  17.705 -0.4142 -0.1186 -0.6231
  574TMC3    C8 8573   4.625   2.558   0.102 -0.0396 -0.0190 -0.7080
  574TMC3    O1 8574   4.556   2.146  17.616  0.4433 -0.0774  0.4677
  574TMC3    O2 8575   4.530   2.561   0.025  0.6778  0.2948  0.1693
  575TMC3    C1 8576   3.723   3.605  10.516  0.2588 -0.4916  0.8212
  575TMC3    C2 8577   3.795   3.496  10.474 -0.5338  0.4614  0.3256
  575TMC3    C3 8578   3.735   3.429  10.368  0.4570 -0.6970  0.0363
  575TMC3    C4 8579   3.626   3.651  10.441  0.1777 -0.2923 -0.1852
  575TMC3    C5 8580   3.589   3.588  10.329 -0.6791  0.5055 -0.0849
  575TMC3    C6 8581   3.633   3.467  10.292 -0.6890 -1.0222  0.2887
  575TMC3     C 8582   3.771   3.698  10.613 -0.4142 -0.0412 -0.0993
  575TMC3     O 8583   3.727   3.817  10.622 -0.6466  0.2382 -0.1655
  575TMC3     H 8584   3.885   3.469  10.527 -0.8194  0.5896  0.8725
  575TMC3    H1 8585   3.576   3.745  10.464 -0.0217 -0.3315 -0.4574
  575TMC3    H2 8586   3.599   3.411  10.206  3.0237  0.1580 -1.9257
  575TMC3    C7 8587   3.526   3.678  10.230  0.9382  0.3047 -0.1559
  575TMC3    C8 8588   3.788   3.294  10.334  0.5045  0.1515  0.0655
  575TMC3    O1 8589   3.552   3.802  10.243  0.2422  0.8312  0.3496
  575TMC3    O2 8590   3.777   3.257  10.218 -0.0763  0.0540 -0.1304
  576MPD2     C 8591   3.830   0.477  12.310  0.3876  0.2789 -0.0220
  576MPD2    C1 8592   3.838   0.537  12.185  0.8192 -0.0887  0.0892
  576MPD2    C2 8593   3.815   0.672  12.184  1.0163 -0.2265  0.3108
  576MPD2    C3 8594   3.804   0.749  12.293 -0.0304 -0.0537  0.2279
  576MPD2    C4 8595   3.806   0.690  12.415 -0.2395  0.4746 -0.3288
  576MPD2    C5 8596   3.817   0.555  12.425 -0.3724  0.9407 -0.1085
  576MPD2     H 8597   3.815   0.725  12.089 -0.7855 -0.1446  0.3540
  576MPD2    H1 8598   3.789   0.751  12.503  0.4916 -1.2306  0.9718
  576MPD2    H2 8599   3.838   0.369  12.321 -3.0891 -0.0926 -1.1966
  576MPD2    H3 8600   3.798   0.511  12.522 -0.1550  3.0832  0.9114
  576MPD2     N 8601   3.805   0.888  12.274  0.2778  0.3135 -0.1966
  576MPD2    H5 8602   3.789   0.910  12.177  0.6602 -2.1350 -0.8274
  576MPD2    N1 8603   3.868   0.462  12.066  0.8959  0.4840 -0.3966
  576MPD2    H7 8604   3.882   0.519  11.983 -0.4046 -1.3628 -1.8579
  577TMC3    C1 8605   3.910   0.270  11.935 -0.8725  0.6399  0.3848
  577TMC3    C2 8606   3.976   0.152  11.925 -0.6228  0.3710  0.1403
  577TMC3    C3 8607   4.048   0.117  11.815 -0.9716  0.5782  0.1097
  577TMC3    C4 8608   3.909   0.359  11.829  0.5302  0.1745 -0.1453
  577TMC3    C5 8609   3.973   0.311  11.713 -0.3518 -0.0026  0.3250
  577TMC3    C6 8610   4.053   0.200  11.709  0.2698 -0.5149  0.5657
  577TMC3     C 8611   3.884   0.323  12.067 -0.0169  0.8274 -0.4405
  577TMC3     O 8612   3.900   0.242  12.157  0.3065  0.5336  0.4550
  577TMC3     H 8613   3.956   0.089  12.011  3.3780  0.4166  1.1196
  577TMC3    H1 8614   3.863   0.457  11.826  0.9215  0.3700  0.2782
  577TMC3    H2 8615   4.086   0.164  11.612 -0.7128 -0.7714  0.3188
  577TMC3    C7 8616   3.966   0.366  11.583  0.0603  0.3534 -0.0174
  577TMC3    C8 8617   4.058   4.714  11.799  0.0077  0.2044  0.5243
  577TMC3    O1 8618   4.068   0.364  11.515  0.3382  0.2258  0.6819
  577TMC3    O2 8619   3.967   4.649  11.849 -1.1556 -0.0136  0.0513
  578MPD2     C 8620   1.132   0.495   1.019 -0.2187 -0.3842  0.6165
  578MPD2    C1 8621   1.252   0.559   1.003 -0.4567  0.3342  0.0637
  578MPD2    C2 8622   1.367   0.484   0.991  0.2845  0.3406 -0.0724
  578MPD2    C3 8623   1.367   0.349   0.992  0.0843 -0.0779 -0.2884
  578MPD2    C4 8624   1.241   0.287   1.000  0.0118 -0.7318  0.4279
  578MPD2    C5 8625   1.127   0.362   1.012 -0.1717 -0.4487  0.1469
  578MPD2     H 8626   1.458   0.542   0.979 -0.2908  0.9875 -1.2984
  578MPD2    H1 8627   1.230   0.180   0.984  0.2169 -0.5516 -0.9553
  578MPD2    H2 8628   1.035   0.541   1.002 -0.3043 -0.3057  1.3164
  578MPD2    H3 8629   1.031   0.312   1.016 -0.4729 -0.0026 -1.2817
  578MPD2     N 8630   1.486   0.281   0.967 -0.6407  0.1526  0.2461
  578MPD2    H5 8631   1.575   0.329   0.975  0.0561 -0.8795 -1.1687
  578MPD2    N1 8632   1.238   0.702   0.986 -0.4169 -0.4075  0.0755
  578MPD2    H7 8633   1.144   0.737   0.972 -0.7981 -1.4908 -0.0343
  579TMC3    C1 8634   1.637   0.120   0.889  0.3120  0.4644  0.1260
  579TMC3    C2 8635   1.730   0.148   0.986 -0.3744  0.6958  0.6413
  579TMC3    C3 8636   1.851   0.090   0.973  0.3118  0.2586  0.3196
  579TMC3    C4 8637   1.661   0.035   0.786  0.0062  0.1236  0.1351
  579TMC3    C5 8638   1.786   4.720   0.763  0.3512 -0.0316 -0.2250
  579TMC3    C6 8639   1.879   0.012   0.861  0.4401 -0.1645 -0.3265
  579TMC3     C 8640   1.500   0.153   0.925 -0.0323  0.0044  0.4368
  579TMC3     O 8641   1.410   0.086   0.879  0.0414 -0.0408 -0.0046
  579TMC3     H 8642   1.709   0.199   1.080 -1.0198 -0.1706  0.9743
  579TMC3    H1 8643   1.585   0.024   0.709 -1.4384 -2.0836  1.8643
  579TMC3    H2 8644   1.979   4.714   0.841 -0.4440 -2.6836 -0.1625
  579TMC3    C7 8645   1.832   4.654   0.643 -0.0569 -0.2419  0.0252
  579TMC3    C8 8646   1.956   0.135   1.060  0.4674  0.3529  1.2867
  579TMC3    O1 8647   1.952   4.677   0.623  0.1317  0.2600 -0.8490
  579TMC3    O2 8648   1.920   0.170   1.175  0.1615 -0.6911  0.0735
  580TMC3    C1 8649   1.647   4.125  12.309  0.1367  0.3515 -0.0136
  580TMC3    C2 8650   1.777   4.140  12.270 -0.1900  0.6139  0.8549
  580TMC3    C3 8651   1.845   4.045  12.196  0.2081  0.7645  0.8381
  580TMC3    C4 8652   1.584   4.006  12.292 -0.5177 -1.3414 -0.2596
  580TMC3    C5 8653   1.647   3.910  12.215  0.3541 -0.2570 -0.2137
  580TMC3    C6 8654   1.782   3.926  12.176 -0.3173  0.3681 -0.7501
  580TMC3     C 8655   1.580   4.245  12.271 -0.4195 -0.6723 -0.3175
  580TMC3     O 8656   1.643   4.319  12.195 -0.0603  0.7682  0.1224
  580TMC3     H 8657   1.826   4.231  12.303  0.0187  0.5530  0.7142
  580TMC3    H1 8658   1.488   3.987  12.338 -0.6093 -0.0083  0.1026
  580TMC3    H2 8659   1.837   3.860  12.110 -2.0394 -1.9461  0.1412
  580TMC3    C7 8660   1.592   3.776  12.220 -0.4450  0.1464  0.7139
  580TMC3    C8 8661   1.906   4.091  12.078  0.1309 -0.1367  0.1743
  580TMC3    O1 8662   1.513   3.749  12.308 -0.1046  0.3204  0.0961
  580TMC3    O2 8663   1.976   4.014  12.012  0.0847 -0.2114 -0.2361
  581MPD2     C 8664   4.206   4.326  14.896  0.7095 -0.4211 -0.5092
  581MPD2    C1 8665   4.123   4.214  14.897  0.3519 -0.5910  0.1470
  581MPD2    C2 8666   3.999   4.231  14.847 -0.9581 -0.0702 -0.5600
  581MPD2    C3 8667   3.968   4.345  14.778  0.9099 -0.1075  0.4150
  581MPD2    C4 8668   4.055   4.445  14.760  0.4891 -1.0292 -0.3478
  581MPD2    C5 8669   4.171   4.438  14.820 -0.4065  1.0197  0.2255
  581MPD2     H 8670   3.922   4.156  14.857 -2.0883  1.1242 -0.3186
  581MPD2    H1 8671   4.030   4.526  14.691 -0.8273  0.2174  1.5828
  581MPD2    H2 8672   4.303   4.330  14.944  0.6410  1.1362 -0.5151
  581MPD2    H3 8673   4.252   4.508  14.800  1.5909 -1.2503  0.2762
  581MPD2     N 8674   3.845   4.370  14.719  0.2266  0.1204 -0.0995
  581MPD2    H5 8675   3.836   4.462  14.677  0.3680  0.2924  0.2454
  581MPD2    N1 8676   4.167   4.109  14.987 -0.4285 -0.0764  0.1600
  581MPD2    H7 8677   4.267   4.101  15.005 -0.5451 -2.5429 -0.3123
  582TMC3    C1 8678   4.186   3.893  15.048  0.6327  0.2685 -0.1374
  582TMC3    C2 8679   4.229   3.925  15.175  0.8926  0.4619 -0.4378
  582TMC3    C3 8680   4.240   3.834  15.275  0.3615 -0.3107 -0.4736
  582TMC3    C4 8681   4.167   3.762  15.013 -0.5562 -0.0410 -0.9846
  582TMC3    C5 8682   4.174   3.672  15.116 -0.4192 -1.0728  1.9574
  582TMC3    C6 8683   4.203   3.704  15.243  0.6893 -0.0471 -0.0001
  582TMC3     C 8684   4.102   3.992  14.997  0.0903 -0.3106  0.1336
  582TMC3     O 8685   3.988   3.954  14.967 -0.1404  0.5243 -0.2280
  582TMC3     H 8686   4.265   4.026  15.196  1.0286 -0.0130  1.6843
  582TMC3    H1 8687   4.112   3.745  14.921 -0.6207 -0.8659 -0.7870
  582TMC3    H2 8688   4.194   3.626  15.318 -1.0926  0.0937 -0.0584
  582TMC3    C7 8689   4.100   3.554  15.089  0.2421  0.2213  0.1570
  582TMC3    C8 8690   4.211   3.887  15.410 -0.2639 -0.0540 -0.0237
  582TMC3    O1 8691   4.090   3.525  14.974 -0.1689  0.0329 -0.1789
  582TMC3    O2 8692   4.156   4.002  15.404  0.1836 -0.4254  0.2976
  583MPD2     C 8693   4.162   0.993  16.941 -0.7831 -0.0321 -0.0494
  583MPD2    C1 8694   4.123   1.084  16.844 -1.0292  0.0681 -0.2822
  583MPD2    C2 8695   4.042   1.186  16.878 -0.1460 -0.8078 -0.3922
  583MPD2    C3 8696   4.011   1.226  17.005  0.2643 -0.7827  0.3793
  583MPD2    C4 8697   4.064   1.140  17.095 -0.6510  0.5622 -0.0805
  583MPD2    C5 8698   4.133   1.027  17.066 -0.2118 -0.8630 -0.1799
  583MPD2     H 8699   4.016   1.257  16.800 -1.8185  0.4472  1.3186
  583MPD2    H1 8700   4.049   1.162  17.200 -0.6023 -0.2163  0.0833
  583MPD2    H2 8701   4.206   0.897  16.915  0.4236  0.7212 -0.8055
  583MPD2    H3 8702   4.161   0.960  17.147  1.8576  1.2937  0.8584
  583MPD2     N 8703   3.924   1.333  17.032 -1.0060  0.2619  0.2263
  583MPD2    H5 8704   3.887   1.378  16.950 -0.0606  3.0187  1.3321
  583MPD2    N1 8705   4.165   1.078  16.705 -0.0359  0.4136  0.1621
  583MPD2    H7 8706   4.117   1.130  16.633 -2.4750 -0.1531  1.3650
  584TMC3    C1 8707   3.801   1.493  17.171  0.1981 -0.4472 -0.0984
  584TMC3    C2 8708   3.824   1.594  17.079 -0.5243 -0.4392  0.3393
  584TMC3    C3 8709   3.797   1.721  17.120 -0.2026 -0.4339  0.2859
  584TMC3    C4 8710   3.728   1.511  17.285  0.5224 -1.0933 -0.0030
  584TMC3    C5 8711   3.700   1.643  17.315  0.0778  0.1178 -0.5466
  584TMC3    C6 8712   3.732   1.751  17.242 -0.2761 -0.2423  0.2710
  584TMC3     C 8713   3.869   1.366  17.157 -0.2515  0.5103 -0.3068
  584TMC3     O 8714   3.892   1.308  17.264  0.7455  0.1274 -0.2901
  584TMC3     H 8715   3.886   1.571  16.993 -1.3728 -0.2112 -0.3271
  584TMC3    H1 8716   3.719   1.429  17.355 -2.4985 -1.2520 -0.5980
  584TMC3    H2 8717   3.712   1.850  17.282 -0.0721 -0.4124  0.8022
  584TMC3    C7 8718   3.633   1.648  17.442  0.7720 -0.6480 -0.2329
  584TMC3    C8 8719   3.843   1.828  17.043 -0.0429 -0.5242  0.3231
  584TMC3    O1 8720   3.600   1.537  17.477 -0.8209 -0.0611  0.1050
  584TMC3    O2 8721   3.869   1.795  16.931 -0.1618  0.3079  0.2217
  585MPD2     C 8722   2.677   0.509   0.151 -0.6316 -0.1017 -0.4049
  585MPD2    C1 8723   2.726   0.485   0.024 -0.0531  0.4987 -0.2204
  585MPD2    C2 8724   2.778   0.361   0.000 -0.1924 -0.1177 -0.1470
  585MPD2    C3 8725   2.789   0.260   0.092  0.4101  0.8085  0.4396
  585MPD2    C4 8726   2.741   0.280   0.214  0.5121  0.2997  0.5602
  585MPD2    C5 8727   2.684   0.405   0.245 -0.0042  0.0048 -0.2961
  585MPD2     H 8728   2.818   0.359  17.650  1.8306  0.4321  0.6552
  585MPD2    H1 8729   2.743   0.208   0.295  2.6031  0.2910  0.4906
  585MPD2    H2 8730   2.632   0.606   0.170 -1.8210 -0.9374  0.9667
  585MPD2    H3 8731   2.644   0.427   0.344 -0.7284 -0.0534 -0.5752
  585MPD2     N 8732   2.857   0.139   0.064 -0.2853  0.2211  0.3327
  585MPD2    H5 8733   2.861   0.068   0.136 -1.3532  0.7629  0.9146
  585MPD2    N1 8734   2.716   0.591  17.682 -0.2783  0.2305  0.1038
  585MPD2    H7 8735   2.677   0.677  17.719  0.7330  0.8969 -0.3966
  586TMC3    C1 8736   2.973   4.708  17.707 -0.1418  0.6527  0.0992
  586TMC3    C2 8737   3.098   4.674  17.670  0.2671  0.3924  0.0780
  586TMC3    C3 8738   3.139   4.543  17.692 -0.1382 -0.2992 -0.0720
  586TMC3    C4 8739   2.882   4.620   0.010  0.1500 -0.3209  0.4297
  586TMC3    C5 8740   2.916   4.482   0.014  0.4644 -0.5689  1.2834
  586TMC3    C6 8741   3.045   4.449  17.731 -1.0050  1.3563 -1.1129
  586TMC3     C 8742   2.923   0.101  17.693 -0.0140  0.5858 -0.5625
  586TMC3     O 8743   2.946   0.157  17.587 -0.2238  0.0395  0.1510
  586TMC3     H 8744   3.168   0.001  17.621 -1.0218  1.7654  0.0773
  586TMC3    H1 8745   2.779   4.653   0.017  0.3027 -0.4189  3.1952
  586TMC3    H2 8746   3.074   4.346  17.714 -2.4809  0.5625  1.1037
  586TMC3    C7 8747   2.820   4.398  17.693 -0.2590 -0.5331 -0.8492
  586TMC3    C8 8748   3.231   4.484  17.598 -0.0476  0.0211  0.1782
  586TMC3    O1 8749   2.873   4.329  17.609 -0.7565 -0.7364  0.1564
  586TMC3    O2 8750   3.279   4.377  17.623  0.1324 -0.4465  0.1633
  587TMC3    C1 8751   0.832   3.417  16.879  0.3199 -0.3012  0.4940
  587TMC3    C2 8752   0.793   3.521  16.801  0.9972  0.0475  0.6951
  587TMC3    C3 8753   0.893   3.594  16.738  0.5365  0.2706  0.3612
  587TMC3    C4 8754   0.959   3.383  16.900  0.6808  0.3777 -0.0193
  587TMC3    C5 8755   1.055   3.454  16.829 -0.3808 -0.0010 -0.1695
  587TMC3    C6 8756   1.022   3.554  16.744 -0.2162  0.6573 -0.5209
  587TMC3     C 8757   0.727   3.330  16.925 -0.9899 -0.3645  0.0788
  587TMC3     O 8758   0.760   3.248  17.016 -0.0757 -0.8787 -0.1103
  587TMC3     H 8759   0.688   3.548  16.795  1.5151  1.6762 -0.8669
  587TMC3    H1 8760   0.987   3.296  16.959  1.2803  1.4776  1.3216
  587TMC3    H2 8761   1.099   3.602  16.685 -1.0710 -0.7055 -2.7342
  587TMC3    C7 8762   1.201   3.428  16.860  0.5584 -0.1043  0.2475
  587TMC3    C8 8763   0.863   3.689  16.631  0.2157 -0.9163  0.5428
  587TMC3    O1 8764   1.271   3.450  16.761  0.1449  0.1405 -0.1260
  587TMC3    O2 8765   0.943   3.701  16.536 -0.4122  0.2255  0.0382
  588TMC3    C1 8766   3.023   1.513  10.143  0.3714 -0.1345 -0.6652
  588TMC3    C2 8767   3.048   1.394  10.075  0.0531  0.0312  0.5098
  588TMC3    C3 8768   3.165   1.334  10.100 -0.0682  0.0536 -0.1905
  588TMC3    C4 8769   3.127   1.570  10.221 -0.8730  0.6068 -0.5267
  588TMC3    C5 8770   3.247   1.505  10.236  0.7782 -0.3638 -0.1552
  588TMC3    C6 8771   3.264   1.380  10.180  0.5671 -0.4844  0.1932
  588TMC3     C 8772   2.949   1.604  10.063 -0.6491 -0.5733 -0.2269
  588TMC3     O 8773   2.920   1.570   9.948  0.1126 -0.1160  0.0595
  588TMC3     H 8774   2.967   1.351  10.017  0.2578  0.8381 -0.3811
  588TMC3    H1 8775   3.108   1.666  10.268  0.3892 -0.2507  1.7268
  588TMC3    H2 8776   3.361   1.331  10.188  0.3439 -0.7048  1.5846
  588TMC3    C7 8777   3.361   1.579  10.283 -0.6231  0.5893 -0.0640
  588TMC3    C8 8778   3.197   1.202  10.041  0.2850 -0.0259  0.0987
  588TMC3    O1 8779   3.460   1.513  10.297  0.4549  0.5077 -0.1971
  588TMC3    O2 8780   3.118   1.163   9.952  0.1571  0.2875  0.3159
  589TMC3    C1 8781   2.084   3.278   0.849  0.0133  0.4599 -0.8385
  589TMC3    C2 8782   2.123   3.354   0.954 -0.1053 -1.0148  0.6066
  589TMC3    C3 8783   2.253   3.331   1.000  0.3700 -0.1739  0.0598
  589TMC3    C4 8784   2.159   3.178   0.800 -0.0158  0.3379 -0.0949
  589TMC3    C5 8785   2.292   3.169   0.842  0.7266 -0.7772 -0.1474
  589TMC3    C6 8786   2.341   3.241   0.940 -0.2995 -0.9969  0.5523
  589TMC3     C 8787   1.941   3.277   0.801 -0.4407 -0.2246 -0.2529
  589TMC3     O 8788   1.912   3.182   0.729  0.4634 -0.1709 -0.5592
  589TMC3     H 8789   2.061   3.428   1.003  1.5017  1.0849 -0.4934
  589TMC3    H1 8790   2.131   3.121   0.713  0.1185  0.1907 -0.0413
  589TMC3    H2 8791   2.427   3.204   0.995 -0.3062 -0.4424  0.9372
  589TMC3    C7 8792   2.366   3.057   0.785  0.3457 -0.4188 -0.8420
  589TMC3    C8 8793   2.291   3.412   1.113  0.3537  0.0836 -0.0648
  589TMC3    O1 8794   2.292   2.965   0.747 -0.5231  0.1058 -0.4642
  589TMC3    O2 8795   2.202   3.468   1.177  0.2071 -0.3505 -0.2498
  590MPD2     C 8796   1.826   1.797  16.500 -0.4377 -0.2497 -0.1298
  590MPD2    C1 8797   1.752   1.911  16.471  0.2203  0.4042 -0.2069
  590MPD2    C2 8798   1.797   2.002  16.376 -0.2407 -0.3805  0.3540
  590MPD2    C3 8799   1.913   1.983  16.306 -0.0621 -0.2312 -0.6336
  590MPD2    C4 8800   1.995   1.875  16.344  0.5883  0.0301 -0.2571
  590MPD2    C5 8801   1.948   1.783  16.439  0.2996  0.0192 -0.6574
  590MPD2     H 8802   1.740   2.091  16.351 -3.4856 -1.6678  3.3336
  590MPD2    H1 8803   2.094   1.861  16.302  1.0256  0.9904  0.4579
  590MPD2    H2 8804   1.805   1.731  16.583 -1.2330  1.7281  1.2570
  590MPD2    H3 8805   2.014   1.702  16.469  3.0911  2.4308 -0.2327
  590MPD2     N 8806   1.959   2.087  16.232  0.1110  0.1068  0.2123
  590MPD2    H5 8807   1.913   2.178  16.240 -2.4173 -1.2820  1.3580
  590MPD2    N1 8808   1.623   1.934  16.514  0.5270 -0.2239 -0.4438
  590MPD2    H7 8809   1.583   2.023  16.488  0.2441 -0.3062 -0.2936
  591TMC3    C1 8810   2.066   2.197  16.054 -0.2681  0.6444 -0.6201
  591TMC3    C2 8811   2.126   2.181  15.936 -0.0027  0.1992  0.6001
  591TMC3    C3 8812   2.163   2.302  15.873  0.6304  0.0273  0.1462
  591TMC3    C4 8813   2.033   2.320  16.116 -0.3056  0.6475  0.0986
  591TMC3    C5 8814   2.069   2.434  16.048 -0.3706 -0.1505 -0.2615
  591TMC3    C6 8815   2.130   2.426  15.923  0.4574  0.3108  0.1634
  591TMC3     C 8816   2.052   2.072  16.132 -0.3686 -0.0804 -0.3898
  591TMC3     O 8817   2.095   1.969  16.084  0.0536 -0.2748  0.0064
  591TMC3     H 8818   2.155   2.082  15.903 -1.3074 -0.0568  0.2346
  591TMC3    H1 8819   2.003   2.323  16.220  2.6245  1.2824  0.9233
  591TMC3    H2 8820   2.145   2.514  15.862 -0.3899  1.2672  1.3452
  591TMC3    C7 8821   1.987   2.550  16.083 -0.4823  0.0983  0.0832
  591TMC3    C8 8822   2.268   2.283  15.772  0.6211  0.0296 -0.5709
  591TMC3    O1 8823   1.914   2.537  16.179  0.0455 -0.0862 -0.3762
  591TMC3    O2 8824   2.274   2.174  15.715  0.0542  0.4738  0.0519
  592MPD2     C 8825   2.657   3.381  11.211 -0.1676  0.1897  0.4214
  592MPD2    C1 8826   2.533   3.441  11.193  0.2635  0.0130  0.1340
  592MPD2    C2 8827   2.412   3.379  11.240  0.2833  0.3184  0.6917
  592MPD2    C3 8828   2.421   3.266  11.314  0.4011  0.6923 -0.1789
  592MPD2    C4 8829   2.550   3.207  11.334  0.6139  0.3015  0.5929
  592MPD2    C5 8830   2.662   3.264  11.277  0.4967  0.3630 -0.4347
  592MPD2     H 8831   2.314   3.418  11.213  1.4539  2.3158 -0.6658
  592MPD2    H1 8832   2.564   3.115  11.389 -1.6781 -0.8410 -0.7292
  592MPD2    H2 8833   2.751   3.430  11.191  1.3415 -2.6586  0.6267
  592MPD2    H3 8834   2.763   3.230  11.293 -0.0210 -0.7192  0.5269
  592MPD2     N 8835   2.299   3.226  11.364 -0.2174  0.2013 -0.0698
  592MPD2    H5 8836   2.217   3.272  11.327 -0.3551 -0.1152 -0.1597
  592MPD2    N1 8837   2.523   3.582  11.165 -0.4432 -0.1562 -0.1636
  592MPD2    H7 8838   2.427   3.615  11.166 -0.2731  0.2455  2.0851
  593TMC3    C1 8839   2.578   3.815  11.158  0.2431  0.0391  0.7013
  593TMC3    C2 8840   2.514   3.828  11.284  0.1363  0.1360  0.3949
  593TMC3    C3 8841   2.533   3.947  11.352  0.3965 -0.4229 -1.1453
  593TMC3    C4 8842   2.663   3.912  11.118  0.2062  0.3211  0.4471
  593TMC3    C5 8843   2.669   4.026  11.189 -0.3046 -0.2703  0.7830
  593TMC3    C6 8844   2.600   4.051  11.298 -0.2206  0.6049  1.1655
  593TMC3     C 8845   2.623   3.674  11.136 -0.0520 -0.6930 -0.1900
  593TMC3     O 8846   2.734   3.654  11.098  0.1053  0.2267 -0.3810
  593TMC3     H 8847   2.458   3.746  11.328  3.5600 -1.6907  1.3631
  593TMC3    H1 8848   2.735   3.907  11.037  0.8885  1.8285  0.9451
  593TMC3    H2 8849   2.625   4.140  11.354 -0.5335  0.4947  1.4842
  593TMC3    C7 8850   2.711   4.141  11.126  1.1427  0.5535  1.0312
  593TMC3    C8 8851   2.435   3.973  11.456 -0.1607 -0.3899  0.2682
  593TMC3    O1 8852   2.756   4.237  11.188 -0.3449 -0.0953  0.1009
  593TMC3    O2 8853   2.360   3.877  11.468  0.7019  0.0572 -0.1964
  594MPD2     C 8854   1.023   2.578  15.201  0.4217 -0.1745  0.6113
  594MPD2    C1 8855   0.965   2.605  15.082  0.0904 -0.7620 -0.2129
  594MPD2    C2 8856   1.045   2.671  14.985 -0.1919  0.3129  0.3356
  594MPD2    C3 8857   1.182   2.689  15.007 -0.2742 -0.2524  0.1628
  594MPD2    C4 8858   1.239   2.640  15.128 -0.9942 -0.7381 -0.1121
  594MPD2    C5 8859   1.157   2.595  15.223 -0.1344 -0.2959 -0.2667
  594MPD2     H 8860   1.003   2.716  14.896  2.1920  1.9718  0.0364
  594MPD2    H1 8861   1.346   2.650  15.144 -0.8190 -1.2193 -0.9632
  594MPD2    H2 8862   0.976   2.516  15.277  0.6358  0.2317  1.0731
  594MPD2    H3 8863   1.196   2.558  15.317  1.4459  0.8952 -0.4658
  594MPD2     N 8864   1.251   2.764  14.912 -0.0860 -0.0786  0.1451
  594MPD2    H5 8865   1.205   2.790  14.825 -0.8383 -1.3313  0.1722
  594MPD2    N1 8866   0.829   2.572  15.067 -0.2121  0.1661 -0.1520
  594MPD2    H7 8867   0.804   2.502  15.136  1.1097  1.0628  1.2429
  595TMC3    C1 8868   1.605   2.982  14.691 -0.2739  0.1772  0.2521
  595TMC3    C2 8869   1.555   2.896  14.788  1.1053  0.1329 -0.2979
  595TMC3    C3 8870   1.424   2.894  14.815  0.2857  0.9215  0.1169
  595TMC3    C4 8871   1.523   3.068  14.632 -0.6332 -0.6127 -0.1840
  595TMC3    C5 8872   1.390   3.073  14.673 -0.0742 -0.0465  0.1852
  595TMC3    C6 8873   1.338   2.994  14.770 -0.3301 -0.3034  0.4753
  595TMC3     C 8874   1.735   2.941  14.633  0.0431 -0.7253 -0.1533
  595TMC3     O 8875   1.749   2.822  14.619 -0.0501 -0.2622  0.5775
  595TMC3     H 8876   1.633   2.829  14.824  0.5422  0.7012  2.0191
  595TMC3    H1 8877   1.560   3.128  14.549  1.6461 -1.2563  0.3770
  595TMC3    H2 8878   1.235   2.993  14.805  0.1004 -0.8162  1.7206
  595TMC3    C7 8879   1.312   3.184  14.629 -0.0431 -0.0373 -0.2519
  595TMC3    C8 8880   1.384   2.806  14.921  0.9422  0.2309  0.4508
  595TMC3    O1 8881   1.223   3.236  14.696  0.9395  0.2336  0.6955
  595TMC3    O2 8882   1.477   2.765  14.985 -0.1303  0.2987  0.1846
  596MPD2     C 8883   0.255   0.976  16.872 -0.6184  0.1619 -0.3867
  596MPD2    C1 8884   0.264   1.084  16.781 -0.8554  0.3028  0.2163
  596MPD2    C2 8885   0.298   1.053  16.647 -0.1078  0.9075 -0.1477
  596MPD2    C3 8886   0.321   0.924  16.601 -0.2707  0.3396  0.3461
  596MPD2    C4 8887   0.297   0.827  16.694 -0.5949 -0.1386 -0.5418
  596MPD2    C5 8888   0.262   0.849  16.825 -0.1517  0.2050  0.9707
  596MPD2     H 8889   0.318   1.138  16.582  0.4989 -0.5686 -1.8603
  596MPD2    H1 8890   0.305   0.727  16.651  0.9372  0.0196 -0.6382
  596MPD2    H2 8891   0.225   0.990  16.975  0.6109 -2.9424  0.4096
  596MPD2    H3 8892   0.249   0.762  16.889 -1.1993 -0.1620  0.2584
  596MPD2     N 8893   0.348   0.882  16.465  0.7045 -0.7023 -1.0014
  596MPD2    H5 8894   0.364   0.784  16.445 -0.4775 -0.7469 -1.7758
  596MPD2    N1 8895   0.225   1.212  16.808  0.2401  0.3939 -0.3604
  596MPD2    H7 8896   0.209   1.277  16.732 -0.5275 -0.2902 -0.7915
  597TMC3    C1 8897   0.115   1.393  16.923 -0.3086 -0.4863 -0.1953
  597TMC3    C2 8898   0.139   1.484  16.819 -0.6264  0.0514  1.0127
  597TMC3    C3 8899   0.037   1.574  16.801 -0.3427  0.3470  0.1856
  597TMC3    C4 8900   0.017   1.415  17.017  0.0092  0.1314 -0.2672
  597TMC3    C5 8901   4.658   1.504  16.989  0.5764  0.0605 -0.0715
  597TMC3    C6 8902   4.668   1.589  16.884 -0.4634  0.0291 -0.6545
  597TMC3     C 8903   0.191   1.266  16.932 -0.3779  0.5790  0.7935
  597TMC3     O 8904   0.201   1.218  17.045  0.5659 -0.1082 -0.2639
  597TMC3     H 8905   0.222   1.480  16.750 -0.5938  0.6981  1.0164
  597TMC3    H1 8906   4.734   1.340  17.093  2.6693 -1.0438 -0.6699
  597TMC3    H2 8907   4.581   1.647  16.855 -0.6382  0.3564  0.5318
  597TMC3    C7 8908   4.547   1.515  17.077 -0.5340  1.1365 -0.0238
  597TMC3    C8 8909   0.074   1.674  16.700  0.3220  0.5056 -0.8792
  597TMC3    O1 8910   4.534   1.428  17.160  0.5574  0.0061  0.3631
  597TMC3    O2 8911   0.148   1.645  16.605  0.1873 -0.7132  0.3799
  598TMC3    C1 8912   2.837   2.430  15.073  0.0141 -0.1188 -0.3318
  598TMC3    C2 8913   2.805   2.321  14.998  0.0896  0.2270 -0.4219
  598TMC3    C3 8914   2.907   2.267  14.922 -1.1214  0.0207 -0.5343
  598TMC3    C4 8915   2.961   2.480  15.074 -0.3159  0.1906 -0.1360
  598TMC3    C5 8916   3.058   2.422  15.000  0.5155 -0.3229  0.0970
  598TMC3    C6 8917   3.032   2.315  14.919  0.5155 -0.1167 -0.2345
  598TMC3     C 8918   2.725   2.508  15.127 -0.3568 -0.2422  0.5079
  598TMC3     O 8919   2.742   2.630  15.119  0.1474  0.3693 -0.5710
  598TMC3     H 8920   2.700   2.295  14.992 -0.0199  0.5567  0.1705
  598TMC3    H1 8921   2.972   2.552  15.155 -0.4461  1.2416 -1.0565
  598TMC3    H2 8922   3.110   2.277  14.854  0.5996 -1.2856  0.5346
  598TMC3    C7 8923   3.202   2.449  15.032  0.2932 -0.0431 -0.6407
  598TMC3    C8 8924   2.880   2.142  14.857  0.1001  0.2823 -0.1251
  598TMC3    O1 8925   3.270   2.353  15.006 -0.2845 -0.2928  0.7673
  598TMC3    O2 8926   2.936   2.122  14.750  0.2443  0.2854  0.5803
  599MPD2     C 8927   3.387   4.728  15.575  0.2470 -0.4569  0.1211
  599MPD2    C1 8928   3.297   4.625  15.542  0.3932 -0.6198 -0.2812
  599MPD2    C2 8929   3.159   4.651  15.548  0.2239  0.0894 -0.0190
  599MPD2    C3 8930   3.109   0.033  15.602  0.0912  0.1711 -0.4719
  599MPD2    C4 8931   3.200   0.130  15.636  0.5376 -0.4787 -0.1167
  599MPD2    C5 8932   3.329   0.105  15.621 -0.4050  0.5798 -0.0908
  599MPD2     H 8933   3.087   4.579  15.511 -0.6351  0.3440  1.1630
  599MPD2    H1 8934   3.181   0.233  15.665  1.7962 -0.8453  2.0486
  599MPD2    H2 8935   3.493   4.706  15.573  0.1278 -1.1496  1.0122
  599MPD2    H3 8936   3.400   0.182  15.651  0.9740  0.3602 -2.7800
  599MPD2     N 8937   2.970   0.046  15.622  0.1073 -0.0608  0.4849
  599MPD2    H5 8938   2.923   4.698  15.597 -0.8230  0.1417  1.5212
  599MPD2    N1 8939   3.361   4.511  15.495 -0.6776  0.0809 -0.3796
  599MPD2    H7 8940   3.462   4.522  15.494 -0.7245  0.7522  2.6437
  600TMC3    C1 8941   2.768   0.163  15.677  0.7401  0.3261  0.3816
  600TMC3    C2 8942   2.706   0.061  15.609 -0.6172 -0.4747  0.1728
  600TMC3    C3 8943   2.581   0.027  15.651 -0.6846 -0.0765 -0.0941
  600TMC3    C4 8944   2.720   0.209  15.797 -0.1606 -0.2360  0.5695
  600TMC3    C5 8945   2.598   0.171  15.843  0.3686  0.5709  0.3618
  600TMC3    C6 8946   2.521   0.078  15.770  0.0929 -0.2585 -0.3072
  600TMC3     C 8947   2.914   0.165  15.663 -0.2820  0.6214 -0.2119
  600TMC3     O 8948   2.964   0.260  15.720 -1.1068  0.9132 -0.1437
  600TMC3     H 8949   2.728   0.037  15.505  2.3194 -0.0739  0.7016
  600TMC3    H1 8950   2.779   0.274  15.860 -0.0912 -0.9711  1.2634
  600TMC3    H2 8951   2.423   0.043  15.800 -0.4023  2.0667  0.7692
  600TMC3    C7 8952   2.582   0.189  15.981  0.5517 -0.5217  0.1335
  600TMC3    C8 8953   2.499   4.707  15.551  0.3751  0.3890  0.1121
  600TMC3    O1 8954   2.632   0.296  16.031  0.2151  0.5860 -0.1547
  600TMC3    O2 8955   2.548   4.616  15.482  0.4715 -0.0490 -0.1628
  601MPD2     C 8956   0.229   3.247   0.423 -1.1583 -0.0918 -0.5255
  601MPD2    C1 8957   0.093   3.213   0.393 -0.0764  0.0556  0.5336
  601MPD2    C2 8958   0.046   3.086   0.439  0.3311 -0.5425 -0.6354
  601MPD2    C3 8959   0.131   2.985   0.474  0.7870  0.8324 -0.1707
  601MPD2    C4 8960   0.274   3.020   0.479 -0.3775  0.1477 -0.1025
  601MPD2    C5 8961   0.319   3.149   0.456  0.2501  0.1298 -1.0251
  601MPD2     H 8962   4.677   3.076   0.435  0.3778 -0.0815 -2.7698
  601MPD2    H1 8963   0.349   2.944   0.501  1.2258  1.8201  0.2607
  601MPD2    H2 8964   0.268   3.347   0.411  2.6530 -1.4450  0.6367
  601MPD2    H3 8965   0.425   3.168   0.452  0.4165 -0.6378 -0.2959
  601MPD2     N 8966   0.092   2.853   0.517  0.3900  0.4222 -0.4704
  601MPD2    H5 8967   0.160   2.787   0.551 -1.0895 -0.1284  1.4350
  601MPD2    N1 8968   0.002   3.304   0.343  0.1090 -0.7415  0.6028
  601MPD2    H7 8969   4.643   3.276   0.333 -0.1179 -0.2319  1.3275
  602TMC3    C1 8970   4.667   3.488   0.215  0.5446 -0.5912  0.3575
  602TMC3    C2 8971   4.702   3.615   0.169 -0.2629  0.7299 -0.4328
  602TMC3    C3 8972   4.609   3.683   0.098 -0.0108  0.2451 -0.5619
  602TMC3    C4 8973   4.550   3.431   0.189  0.0601  0.0995 -0.3092
  602TMC3    C5 8974   4.462   3.502   0.112  0.3123 -0.0835 -0.0783
  602TMC3    C6 8975   4.487   3.628   0.058 -0.0848 -0.4896  0.1325
  602TMC3     C 8976   0.040   3.419   0.285  1.1467 -0.6100 -0.2084
  602TMC3     O 8977   0.142   3.486   0.291 -0.5869  0.1895  0.0569
  602TMC3     H 8978   0.061   3.662   0.176  0.9376 -1.6247 -1.8042
  602TMC3    H1 8979   4.529   3.331   0.227  1.1393  0.6940  1.8460
  602TMC3    H2 8980   4.415   3.675  17.742  0.1913 -0.0858  0.1158
  602TMC3    C7 8981   4.366   3.425   0.040  0.1235  0.8287 -0.5125
  602TMC3    C8 8982   4.651   3.787   0.016 -0.5263  0.7117  0.1155
  602TMC3    O1 8983   4.289   3.347   0.098  0.8225  0.4035  0.1090
  602TMC3    O2 8984   0.006   3.856   0.054  0.4107  0.2909 -0.3246
  603TMC3    C1 8985   3.609   3.370  10.831  0.1464 -0.0230  0.1646
  603TMC3    C2 8986   3.696   3.407  10.928 -0.7144  0.4214 -0.3364
  603TMC3    C3 8987   3.667   3.525  11.001 -0.6861 -0.2400 -1.0316
  603TMC3    C4 8988   3.504   3.456  10.796 -0.2106 -0.0137  0.2730
  603TMC3    C5 8989   3.478   3.570  10.872  0.2944 -0.0812 -0.4312
  603TMC3    C6 8990   3.569   3.606  10.962  0.2473 -0.2128  0.2443
  603TMC3     C 8991   3.619   3.247  10.756 -0.2082  0.6924  0.0394
  603TMC3     O 8992   3.548   3.241  10.655  0.2783  0.8538 -0.0571
  603TMC3     H 8993   3.768   3.338  10.970 -2.4682 -0.5789  1.0363
  603TMC3    H1 8994   3.443   3.433  10.710  1.8713 -1.5420 -0.7955
  603TMC3    H2 8995   3.524   3.671  11.036 -0.3446 -2.6981  2.0741
  603TMC3    C7 8996   3.413   3.683  10.811 -0.2018  0.3413 -0.0738
  603TMC3    C8 8997   3.701   3.521  11.144  0.1489 -0.1378 -0.2940
  603TMC3    O1 8998   3.459   3.797  10.834  0.3056 -0.0806  0.0782
  603TMC3    O2 8999   3.757   3.418  11.181 -0.1089 -0.6534 -0.0154
  604MPD2     C 9000   3.867   1.522  16.321  0.1982 -0.2468 -0.1644
  604MPD2    C1 9001   3.826   1.643  16.264 -0.2371  0.4996 -0.6926
  604MPD2    C2 9002   3.833   1.667  16.124  0.6175  0.1605 -0.4658
  604MPD2    C3 9003   3.895   1.576  16.040  0.3805  0.1968  0.0920
  604MPD2    C4 9004   3.951   1.459  16.102  0.1085  0.5506 -0.0100
  604MPD2    C5 9005   3.928   1.429  16.234 -0.5889 -1.2933  0.3520
  604MPD2     H 9006   3.796   1.759  16.080  1.8142 -0.1337 -2.0692
  604MPD2    H1 9007   3.993   1.383  16.036 -3.5024 -2.1903  0.8636
  604MPD2    H2 9008   3.857   1.499  16.427  0.3714 -2.1567 -0.5614
  604MPD2    H3 9009   3.973   1.341  16.277  0.4690 -0.1334  1.6046
  604MPD2     N 9010   3.912   1.604  15.902  0.3886  1.1142 -0.1050
  604MPD2    H5 9011   3.861   1.685  15.867  0.9803  0.5833 -2.2155
  604MPD2    N1 9012   3.772   1.738  16.360  0.1136 -0.1604 -0.3167
  604MPD2    H7 9013   3.804   1.725  16.456 -1.0259  0.6937  0.1826
  605TMC3    C1 9014   3.665   1.930  16.444 -0.0763  0.4776  0.3268
  605TMC3    C2 9015   3.767   1.996  16.506 -0.4159 -0.3493  0.8712
  605TMC3    C3 9016   3.739   2.124  16.548 -0.1479 -0.0614  0.6675
  605TMC3    C4 9017   3.537   1.986  16.446 -0.4695  0.2420  0.2858
  605TMC3    C5 9018   3.513   2.106  16.512 -0.0103 -0.1169 -0.8564
  605TMC3    C6 9019   3.610   2.183  16.562  0.1025  0.7665 -0.3770
  605TMC3     C 9020   3.700   1.847  16.327 -0.6485  0.5948  0.3573
  605TMC3     O 9021   3.642   1.876  16.222 -0.1732 -0.2409 -0.1819
  605TMC3     H 9022   3.866   1.964  16.473  0.0791  1.6226  0.4502
  605TMC3    H1 9023   3.459   1.923  16.405  1.1943  0.6989 -3.6107
  605TMC3    H2 9024   3.582   2.275  16.611  2.6954  2.6921 -2.5386
  605TMC3    C7 9025   3.390   2.172  16.484  1.0093  0.0923  0.1264
  605TMC3    C8 9026   3.858   2.210  16.566  0.1340 -0.1752  0.0087
  605TMC3    O1 9027   3.400   2.294  16.483 -0.7714 -0.5254  0.2191
  605TMC3    O2 9028   3.969   2.155  16.546  0.0274 -0.0783 -0.2824
  606TMC3    C1 9029   0.163   1.159  17.463 -0.6873 -0.1385 -0.1932
  606TMC3    C2 9030   0.139   1.130  17.594 -0.0985 -0.2090 -0.4639
  606TMC3    C3 9031   0.089   1.006  17.631  0.1372  0.3629 -0.5887
  606TMC3    C4 9032   0.128   1.066  17.372  0.0611 -0.4815  0.1556
  606TMC3    C5 9033   0.098   0.939  17.408  0.2237  0.7060  0.2973
  606TMC3    C6 9034   0.084   0.901  17.541 -0.5784  0.4187 -0.0433
  606TMC3     C 9035   0.136   1.296  17.431  0.6230 -0.0016  0.3011
  606TMC3     O 9036   0.027   1.337  17.467  0.2090 -0.0763 -0.1444
  606TMC3     H 9037   0.136   1.217  17.658 -1.0156 -1.0515  0.6346
  606TMC3    H1 9038   0.146   1.081  17.266 -0.8503 -0.1197  0.0552
  606TMC3    H2 9039   0.049   0.801  17.564 -1.4196  0.5274 -0.8231
  606TMC3    C7 9040   0.083   0.846  17.300 -0.3415 -0.1363 -0.9911
  606TMC3    C8 9041   0.145   0.965   0.005 -0.6835  0.1232  1.1874
  606TMC3    O1 9042   0.135   0.878  17.194  0.0669  0.5723  0.1694
  606TMC3    O2 9043   0.250   1.014   0.045  0.8130 -0.2331  0.0915
  607MPD2     C 9044   3.047   3.295  11.439 -0.1617 -0.4295 -0.0318
  607MPD2    C1 9045   3.037   3.406  11.508 -0.3794  0.0785 -0.4467
  607MPD2    C2 9046   2.948   3.401  11.612 -0.1642  0.2308  0.1529
  607MPD2    C3 9047   2.873   3.294  11.652  0.5850 -0.1087  0.3396
  607MPD2    C4 9048   2.885   3.178  11.577  0.7234 -0.3487 -0.1505
  607MPD2    C5 9049   2.979   3.183  11.479 -0.1062  0.2306 -0.1840
  607MPD2     H 9050   2.920   3.484  11.677  2.5453 -0.6306  2.4447
  607MPD2    H1 9051   2.844   3.084  11.611  0.7721 -0.2377  0.2202
  607MPD2    H2 9052   3.133   3.277  11.375 -0.3557 -0.6166 -0.2397
  607MPD2    H3 9053   3.008   3.088  11.434  2.1473  0.4377  0.8126
  607MPD2     N 9054   2.799   3.311  11.772 -1.0829 -0.3194 -0.3972
  607MPD2    H5 9055   2.787   3.408  11.801  0.0816 -0.4242  0.4284
  607MPD2    N1 9056   3.125   3.515  11.497 -0.2963  0.2648  0.3686
  607MPD2    H7 9057   3.091   3.602  11.535 -1.0037 -0.5954  1.7069
  608TMC3    C1 9058   3.320   3.636  11.454  0.1983  0.1131 -0.1548
  608TMC3    C2 9059   3.305   3.694  11.581  0.6550 -0.1516  0.5336
  608TMC3    C3 9060   3.328   3.824  11.603 -0.0205  0.1698  0.3211
  608TMC3    C4 9061   3.364   3.718  11.353  0.1052 -0.3145 -0.0805
  608TMC3    C5 9062   3.400   3.850  11.380  0.0424  0.5247  0.0893
  608TMC3    C6 9063   3.375   3.906  11.507 -0.1726 -0.1905  0.5033
  608TMC3     C 9064   3.238   3.517  11.423 -0.0414 -0.2010  0.2985
  608TMC3     O 9065   3.286   3.442  11.338  0.0785  0.4181  0.3049
  608TMC3     H 9066   3.292   3.628  11.667  0.1934  0.8650  1.2419
  608TMC3    H1 9067   3.363   3.674  11.254  1.2715 -0.4147 -0.0437
  608TMC3    H2 9068   3.397   4.011  11.524 -0.7680 -0.0281  0.2689
  608TMC3    C7 9069   3.391   3.935  11.271  0.4730  0.1667 -0.9362
  608TMC3    C8 9070   3.278   3.882  11.730  0.0020  0.1253  0.9439
  608TMC3    O1 9071   3.336   3.897  11.170 -0.1939 -0.1731  0.1544
  608TMC3    O2 9072   3.316   3.998  11.754 -0.1924  0.5453  0.7510
  609TMC3    C1 9073   0.253   2.014   9.254 -0.4184 -0.4817 -0.6688
  609TMC3    C2 9074   0.174   1.900   9.228  0.1190 -0.2528 -0.6959
  609TMC3    C3 9075   0.179   1.844   9.101  0.0534  0.2351 -0.2568
  609TMC3    C4 9076   0.348   2.051   9.160  0.5398  0.3714 -0.0814
  609TMC3    C5 9077   0.365   1.977   9.040 -0.3845 -0.1443  0.1341
  609TMC3    C6 9078   0.268   1.883   9.001 -0.0484 -0.2833  0.1819
  609TMC3     C 9079   0.272   2.061   9.385 -0.3004  0.3639  0.2495
  609TMC3     O 9080   0.364   2.134   9.405 -0.0027 -0.0802 -0.1842
  609TMC3     H 9081   0.118   1.854   9.309 -1.1079  0.5963 -1.0699
  609TMC3    H1 9082   0.417   2.131   9.183 -1.2301  1.3518  1.6974
  609TMC3    H2 9083   0.269   1.833   8.905  1.4652  2.1014 -1.0357
  609TMC3    C7 9084   0.485   1.999   8.956 -0.1045 -0.2003 -0.0552
  609TMC3    C8 9085   0.084   1.742   9.065 -0.2817  0.2408 -0.1338
  609TMC3    O1 9086   0.554   2.091   8.987 -0.4710 -0.2335  0.2087
  609TMC3    O2 9087   0.120   1.666   8.981  0.1942 -0.0888 -0.5147
  610TMC3    C1 9088   3.319   3.717  12.343 -0.1997 -0.0095  0.4142
  610TMC3    C2 9089   3.300   3.682  12.214  0.3631  0.6033  0.5009
  610TMC3    C3 9090   3.264   3.555  12.191 -0.1045 -0.7592  0.4531
  610TMC3    C4 9091   3.289   3.634  12.441 -0.2869 -0.9669  0.0085
  610TMC3    C5 9092   3.249   3.507  12.418  0.2008  0.5539  0.1672
  610TMC3    C6 9093   3.246   3.461  12.288  0.1850 -0.4723  0.1164
  610TMC3     C 9094   3.394   3.837  12.385 -0.0092  0.5587 -0.7283
  610TMC3     O 9095   3.418   3.852  12.504 -0.2424  0.3065 -0.4402
  610TMC3     H 9096   3.289   3.757  12.137 -1.1856  1.4500  1.5362
  610TMC3    H1 9097   3.295   3.668  12.543  1.0409 -2.2335  0.3518
  610TMC3    H2 9098   3.230   3.357  12.264 -1.2004 -0.3145  0.3648
  610TMC3    C7 9099   3.250   3.409  12.530 -0.5392 -0.2717  0.1672
  610TMC3    C8 9100   3.263   3.518  12.052  0.4451  0.4902  0.6815
  610TMC3    O1 9101   3.281   3.448  12.643  0.3464  0.0938  0.0639
  610TMC3    O2 9102   3.304   3.598  11.963 -0.1771  0.0777  0.0245
  611MPD2     C 9103   2.384   3.216  10.541 -0.3958  0.4435  0.0114
  611MPD2    C1 9104   2.350   3.233  10.411  0.5449  0.4574  0.3162
  611MPD2    C2 9105   2.449   3.284  10.331  0.5416  0.2691 -0.1740
  611MPD2    C3 9106   2.564   3.339  10.387  0.7389 -0.1735 -0.1563
  611MPD2    C4 9107   2.597   3.323  10.521  0.5601  0.1581 -0.4525
  611MPD2    C5 9108   2.498   3.263  10.598  0.7637  0.4885 -0.2204
  611MPD2     H 9109   2.432   3.285  10.224  0.4260  1.0812 -0.1529
  611MPD2    H1 9110   2.689   3.362  10.562 -1.3851  2.4568  1.7579
  611MPD2    H2 9111   2.306   3.178  10.606 -1.0736 -0.5668 -1.3830
  611MPD2    H3 9112   2.507   3.246  10.704 -0.0817 -0.5613 -0.3176
  611MPD2     N 9113   2.666   3.398  10.313 -0.5936  0.0290  0.2127
  611MPD2    H5 9114   2.761   3.405  10.350 -1.0262  1.4415  1.0478
  611MPD2    N1 9115   2.229   3.181  10.356  0.1451 -0.0679  0.7011
  611MPD2    H7 9116   2.169   3.134  10.423  1.2923 -0.7432  1.2452
  612TMC3    C1 9117   2.768   3.510  10.139  0.1540  0.1202  0.3770
  612TMC3    C2 9118   2.820   3.604  10.224 -0.5482  0.7996  0.2282
  612TMC3    C3 9119   2.895   3.702  10.160  0.4538  0.1673  0.2780
  612TMC3    C4 9120   2.784   3.511  10.005 -0.3837 -0.8859  0.3122
  612TMC3    C5 9121   2.855   3.618   9.950  0.4108 -0.2414 -0.1092
  612TMC3    C6 9122   2.913   3.720  10.028  0.5996 -0.4127  0.5310
  612TMC3     C 9123   2.658   3.433  10.179  0.3010  0.7328  0.3416
  612TMC3     O 9124   2.566   3.413  10.097  0.5060  0.1564 -0.2641
  612TMC3     H 9125   2.791   3.604  10.329  0.0864  0.7773  0.4084
  612TMC3    H1 9126   2.725   3.436   9.954  0.3376 -2.1294  1.2995
  612TMC3    H2 9127   2.966   3.798   9.975  0.0093  1.2315  2.3581
  612TMC3    C7 9128   2.857   3.612   9.802 -0.2452  0.2384 -0.3373
  612TMC3    C8 9129   2.973   3.780  10.249 -0.4138 -0.2172 -0.6967
  612TMC3    O1 9130   2.861   3.499   9.759 -0.0458  1.1808  0.1029
  612TMC3    O2 9131   2.981   3.893  10.213  0.4100  0.1478  0.6418
  613MPD2     C 9132   1.617   0.792  16.864  0.7115 -0.6875  0.0763
  613MPD2    C1 9133   1.534   0.871  16.788  0.2004 -0.0088  0.1073
  613MPD2    C2 9134   1.419   0.815  16.728  0.0726 -0.0508 -0.3852
  613MPD2    C3 9135   1.412   0.680  16.714  0.3382  0.7007 -0.0741
  613MPD2    C4 9136   1.508   0.600  16.772  0.2452 -0.0208  0.3576
  613MPD2    C5 9137   1.602   0.658  16.860 -0.9226 -0.3666  0.2842
  613MPD2     H 9138   1.342   0.876  16.683 -0.0066  0.8331  0.9702
  613MPD2    H1 9139   1.516   0.495  16.744 -0.2211  0.7414 -2.6914
  613MPD2    H2 9140   1.702   0.837  16.914  0.6351 -1.7159  1.1218
  613MPD2    H3 9141   1.670   0.594  16.915 -0.2376 -0.0826 -0.2304
  613MPD2     N 9142   1.304   0.623  16.641 -0.5242 -0.4088 -0.8215
  613MPD2    H5 9143   1.257   0.688  16.580 -0.9220 -1.3206 -1.4875
  613MPD2    N1 9144   1.572   1.005  16.776  0.9713  0.0961  0.6061
  613MPD2    H7 9145   1.637   1.033  16.848  1.8516 -2.0394  0.6394
  614TMC3    C1 9146   1.449   1.081  16.558  0.5200 -0.2980 -0.2256
  614TMC3    C2 9147   1.478   0.968  16.478  0.2888 -0.2484  0.1773
  614TMC3    C3 9148   1.429   0.964  16.353  0.2944 -0.3132  0.2121
  614TMC3    C4 9149   1.373   1.176  16.506 -0.0961  0.0033 -0.7804
  614TMC3    C5 9150   1.332   1.177  16.378 -0.4309  0.1855  0.2003
  614TMC3    C6 9151   1.358   1.068  16.300 -0.2400 -0.0035 -0.3356
  614TMC3     C 9152   1.515   1.108  16.689 -0.1644 -0.1255 -0.2323
  614TMC3     O 9153   1.526   1.225  16.714 -0.5741 -0.1970 -0.1701
  614TMC3     H 9154   1.556   0.902  16.512  0.4903  0.2133  0.6130
  614TMC3    H1 9155   1.350   1.258  16.574  0.4028 -0.3746 -0.1544
  614TMC3    H2 9156   1.292   1.060  16.214  0.3438  1.4845 -0.9221
  614TMC3    C7 9157   1.277   1.297  16.310  0.6197 -0.5506 -0.1351
  614TMC3    C8 9158   1.401   0.836  16.294  0.4465 -0.0977 -0.4248
  614TMC3    O1 9159   1.205   1.363  16.379 -0.0304 -0.0958  0.0413
  614TMC3    O2 9160   1.400   0.738  16.368  0.2877  0.1519  0.8529
  615MPD2     C 9161   0.208   2.773  16.490  0.2231  0.5864 -0.1733
  615MPD2    C1 9162   0.332   2.791  16.437  0.2671 -0.7043  0.5775
  615MPD2    C2 9163   0.347   2.796  16.303  0.1918 -0.2175 -0.1341
  615MPD2    C3 9164   0.247   2.782  16.212  0.5332  0.6228  0.6527
  615MPD2    C4 9165   0.122   2.766  16.266  0.2545 -0.0560  0.4063
  615MPD2    C5 9166   0.106   2.765  16.400  0.2267  0.2379  0.1995
  615MPD2     H 9167   0.452   2.802  16.276  0.5138  0.4776  1.2721
  615MPD2    H1 9168   0.031   2.761  16.208 -0.8205 -1.4118  2.2031
  615MPD2    H2 9169   0.187   2.774  16.596 -0.1130  0.2728 -0.2315
  615MPD2    H3 9170   0.004   2.765  16.436  0.1281 -0.3339 -0.0691
  615MPD2     N 9171   0.257   2.795  16.071 -0.2739 -0.4679 -0.3650
  615MPD2    H5 9172   0.171   2.796  16.016 -0.8168  1.3142  0.5431
  615MPD2    N1 9173   0.446   2.803  16.519 -0.4955  0.9320  0.0892
  615MPD2    H7 9174   0.535   2.833  16.481 -1.1147  2.1743 -0.3422
  616TMC3    C1 9175   0.566   2.860  16.704 -0.5127  0.3199 -0.3557
  616TMC3    C2 9176   0.620   2.960  16.626  0.7043 -0.8852 -0.4544
  616TMC3    C3 9177   0.730   3.016  16.685 -0.1336  0.0986  0.2045
  616TMC3    C4 9178   0.590   2.835  16.840 -0.0010 -0.7729  0.4080
  616TMC3    C5 9179   0.694   2.907  16.889  1.1168 -0.1465  0.2333
  616TMC3    C6 9180   0.768   2.993  16.811  0.7270  0.0125 -0.2979
  616TMC3     C 9181   0.447   2.791  16.657 -0.6258  0.1749  0.0388
  616TMC3     O 9182   0.361   2.748  16.733  0.3183 -0.4311  0.2105
  616TMC3     H 9183   0.591   2.985  16.525 -0.0192 -1.8049 -0.4745
  616TMC3    H1 9184   0.541   2.762  16.903 -0.8783  0.3144  0.9807
  616TMC3    H2 9185   0.848   3.057  16.846 -1.2005  1.2611  1.7432
  616TMC3    C7 9186   0.740   2.888  17.022  0.2394 -0.5169 -0.1976
  616TMC3    C8 9187   0.812   3.107  16.609  0.4845  0.6794  0.7106
  616TMC3    O1 9188   0.667   2.830  17.099 -0.0561 -0.3500 -0.2533
  616TMC3    O2 9189   0.750   3.175  16.524  0.0874  0.4736 -0.1587
  617MPD2     C 9190   3.767   0.504  13.690  0.0933 -0.3953  0.4419
  617MPD2    C1 9191   3.727   0.517  13.822 -0.0567  0.1435 -1.2037
  617MPD2    C2 9192   3.593   0.492  13.855 -0.6749 -0.5427  0.2107
  617MPD2    C3 9193   3.501   0.449  13.757 -0.5100  0.1240  0.1028
  617MPD2    C4 9194   3.550   0.436  13.627  0.3909  0.0497 -0.1004
  617MPD2    C5 9195   3.678   0.465  13.596 -0.8814  0.0818  0.1255
  617MPD2     H 9196   3.562   0.509  13.957 -1.3051 -1.6575  0.2048
  617MPD2    H1 9197   3.479   0.425  13.546 -1.4376  1.4227  1.3199
  617MPD2    H2 9198   3.871   0.523  13.664  0.4086  1.2709  2.8869
  617MPD2    H3 9199   3.713   0.464  13.493  0.5831  0.8100  0.6184
  617MPD2     N 9200   3.366   0.414  13.793  0.0164  0.5171 -0.0092
  617MPD2    H5 9201   3.340   0.420  13.891 -3.4363 -0.3803 -0.8727
  617MPD2    N1 9202   3.819   0.535  13.926 -0.4357  0.1763  0.5605
  617MPD2    H7 9203   3.788   0.516  14.021 -2.0649  2.9258  0.5890
  618TMC3    C1 9204   4.022   0.598  14.025 -0.5164 -0.1729 -0.3495
  618TMC3    C2 9205   4.025   0.482  14.096 -0.1712  0.0706 -0.0834
  618TMC3    C3 9206   4.142   0.428  14.143  0.3163 -0.1470  0.3707
  618TMC3    C4 9207   4.132   0.669  14.005  0.4519  0.3015 -0.2504
  618TMC3    C5 9208   4.255   0.615  14.048 -0.2509  0.2615  0.6141
  618TMC3    C6 9209   4.259   0.495  14.116 -0.1446 -0.0502 -0.4366
  618TMC3     C 9210   3.934   0.606  13.912 -0.1459 -0.0750  0.3372
  618TMC3     O 9211   3.985   0.651  13.812 -0.0818 -0.3998 -0.1505
  618TMC3     H 9212   3.935   0.423  14.112 -0.2528  0.5193  1.0515
  618TMC3    H1 9213   4.132   0.760  13.946  0.6711  0.4217 -0.0672
  618TMC3    H2 9214   4.354   0.462  14.156  1.0681  2.9583 -0.8060
  618TMC3    C7 9215   4.361   0.707  14.084  0.5517  0.1691  0.0229
  618TMC3    C8 9216   4.148   0.284  14.132 -0.0641 -0.5224 -0.0261
  618TMC3    O1 9217   4.327   0.799  14.159 -0.1480 -0.3750 -0.2931
  618TMC3    O2 9218   4.044   0.224  14.153 -0.1048  0.3833 -0.2654
  619MPD2     C 9219   0.275   1.590  13.677 -0.4820  0.3281 -0.3748
  619MPD2    C1 9220   0.199   1.694  13.616 -0.4475  0.3922 -0.4062
  619MPD2    C2 9221   0.059   1.697  13.637  0.2732  0.6235  0.9981
  619MPD2    C3 9222   4.736   1.608  13.723  0.8711  0.3900  0.3692
  619MPD2    C4 9223   0.077   1.507  13.782  0.0533 -0.5058  0.3316
  619MPD2    C5 9224   0.215   1.510  13.768  0.1605 -0.0983 -1.1227
  619MPD2     H 9225   0.001   1.784  13.608 -0.1241  0.3136  0.8601
  619MPD2    H1 9226   0.028   1.444  13.856 -0.5484 -0.4041  0.0152
  619MPD2    H2 9227   0.383   1.596  13.668 -0.3222  3.6376  3.2009
  619MPD2    H3 9228   0.272   1.431  13.815  1.8276  2.3539  0.9757
  619MPD2     N 9229   4.597   1.595  13.736  0.0272  0.1559 -0.6553
  619MPD2    H5 9230   4.562   1.507  13.773 -0.7495  1.1993  1.0424
  619MPD2    N1 9231   0.252   1.796  13.536  0.0486  0.4011  0.6332
  619MPD2    H7 9232   0.187   1.856  13.486  0.5827 -1.0584 -1.8082
  620TMC3    C1 9233   0.415   1.917  13.418 -0.0889  0.4619 -0.2368
  620TMC3    C2 9234   0.319   1.929  13.317 -0.1461  0.5406  0.0537
  620TMC3    C3 9235   0.314   2.045  13.248 -0.2770 -0.4147 -0.1092
  620TMC3    C4 9236   0.501   2.014  13.444 -0.0660 -1.1264 -0.4818
  620TMC3    C5 9237   0.494   2.126  13.366 -0.5082  0.3277 -0.2459
  620TMC3    C6 9238   0.413   2.137  13.258  0.1026 -0.3707 -0.2542
  620TMC3     C 9239   0.387   1.819  13.525  0.2690 -0.0232 -1.4285
  620TMC3     O 9240   0.485   1.792  13.596  0.2028 -0.0438 -0.8460
  620TMC3     H 9241   0.242   1.854  13.303  0.8592 -0.2854 -0.9845
  620TMC3    H1 9242   0.555   1.997  13.536 -0.4814 -0.6215 -0.1426
  620TMC3    H2 9243   0.404   2.237  13.218 -1.3845  0.1522  1.4346
  620TMC3    C7 9244   0.518   2.250  13.421 -0.2951  0.6658 -0.7901
  620TMC3    C8 9245   0.186   2.104  13.273 -0.7845  0.3215  0.5297
  620TMC3    O1 9246   0.550   2.342  13.348  0.4242 -0.3796  0.0909
  620TMC3    O2 9247   0.113   2.045  13.353 -0.0777  0.0299 -0.4728
  621MPD2     C 9248   0.623   1.514  10.313  0.0959 -0.0863 -0.8217
  621MPD2    C1 9249   0.641   1.606  10.415  0.5662 -0.3053 -0.6358
  621MPD2    C2 9250   0.736   1.712  10.394 -0.2583  0.7354 -0.5137
  621MPD2    C3 9251   0.801   1.721  10.274  0.7133 -0.3668  0.9552
  621MPD2    C4 9252   0.784   1.625  10.179 -0.5150  0.0105 -0.3983
  621MPD2    C5 9253   0.694   1.525  10.199  0.1896 -0.5154  0.1209
  621MPD2     H 9254   0.757   1.785  10.471 -2.0585  0.7935 -0.0713
  621MPD2    H1 9255   0.835   1.622  10.084  0.5188  0.7391  0.1280
  621MPD2    H2 9256   0.557   1.427  10.311 -0.6568  0.4583  0.1023
  621MPD2    H3 9257   0.684   1.453  10.119  0.1316 -1.1052  0.6639
  621MPD2     N 9258   0.898   1.823  10.261 -0.5973  0.2550 -0.0960
  621MPD2    H5 9259   0.909   1.880  10.344 -0.7528  0.7542 -0.4183
  621MPD2    N1 9260   0.563   1.609  10.534  0.6425 -0.0053 -0.3088
  621MPD2    H7 9261   0.586   1.689  10.592 -2.1270  0.5793 -0.0054
  622TMC3    C1 9262   0.433   1.518  10.697 -0.1238 -0.3178  0.6336
  622TMC3    C2 9263   0.324   1.595  10.695 -0.1421 -0.2423  0.1541
  622TMC3    C3 9264   0.213   1.550  10.759  0.1528  0.2973 -0.0297
  622TMC3    C4 9265   0.430   1.388  10.753  0.2452 -0.4343  0.5745
  622TMC3    C5 9266   0.315   1.344  10.811  0.0486  0.7899 -0.2722
  622TMC3    C6 9267   0.207   1.423  10.813 -0.0654 -0.1402  0.6723
  622TMC3     C 9268   0.488   1.500  10.570 -0.0948 -0.3927  0.4340
  622TMC3     O 9269   0.483   1.384  10.533  0.5666 -0.5701  0.3673
  622TMC3     H 9270   0.318   1.693  10.651  0.0953  0.6666  2.1583
  622TMC3    H1 9271   0.516   1.323  10.748 -0.4140 -1.2972  0.5817
  622TMC3    H2 9272   0.110   1.394  10.852 -0.1079  0.1307  0.7742
  622TMC3    C7 9273   0.276   1.204  10.777  0.1120  1.0912 -0.3471
  622TMC3    C8 9274   0.093   1.627  10.797  0.4861  0.3945  0.1205
  622TMC3    O1 9275   0.176   1.161  10.838  0.0751 -0.1202  0.9484
  622TMC3    O2 9276   4.723   1.575  10.802  0.7952  0.1937 -0.4181
  623MPD2     C 9277   4.449   2.552  15.858 -0.2243  0.5039  0.4979
  623MPD2    C1 9278   4.355   2.489  15.935 -0.1030  0.2664 -0.6311
  623MPD2    C2 9279   4.392   2.450  16.060 -0.3054  0.3944  0.0835
  623MPD2    C3 9280   4.515   2.482  16.112  0.5467  0.0113 -0.0977
  623MPD2    C4 9281   4.606   2.551  16.032 -0.1717  0.3126 -0.2169
  623MPD2    C5 9282   4.573   2.588  15.901 -0.8129 -0.0447  0.1297
  623MPD2     H 9283   4.332   2.391  16.128  0.7873 -0.7809  0.0197
  623MPD2    H1 9284   4.692   2.603  16.074  0.0644 -0.6786  0.5206
  623MPD2    H2 9285   4.425   2.570  15.753 -0.2359  1.3711  0.6576
  623MPD2    H3 9286   4.640   2.647  15.840 -0.1224 -0.3291  0.6068
  623MPD2     N 9287   4.539   2.475  16.249  0.6480 -0.1924  0.3588
  623MPD2    H5 9288   4.462   2.448  16.310 -0.4646 -0.5654 -1.2289
  623MPD2    N1 9289   4.225   2.466  15.895  0.1002  0.2693 -0.3399
  623MPD2    H7 9290   4.183   2.396  15.954 -0.1394  1.6326  1.0901
  624TMC3    C1 9291   4.704   2.366  16.652  0.4715  0.2838  0.0156
  624TMC3    C2 9292   4.581   2.394  16.707 -0.4904 -0.1266 -0.0123
  624TMC3    C3 9293   4.488   2.460  16.632  0.3228  1.0905  0.4194
  624TMC3    C4 9294   0.001   2.412  16.525 -0.6321  0.4224  0.2640
  624TMC3    C5 9295   4.647   2.486  16.455 -0.6349  0.9263 -0.5631
  624TMC3    C6 9296   4.520   2.501  16.501  0.4803  0.3586  0.4284
  624TMC3     C 9297   0.054   2.295  16.740 -0.0068  0.2143  0.2633
  624TMC3     O 9298   0.028   2.291  16.862  0.2184 -0.4512 -0.5482
  624TMC3     H 9299   4.549   2.371  16.808  0.9085 -2.0038 -0.0083
  624TMC3    H1 9300   0.096   2.380  16.484 -0.9739 -0.7033  0.3478
  624TMC3    H2 9301   4.440   2.552  16.450 -0.8111 -1.8670  0.2534
  624TMC3    C7 9302   4.669   2.482  16.308  0.0307  0.2871  0.1767
  624TMC3    C8 9303   4.345   2.427  16.652 -0.4764  0.3074 -0.7462
  624TMC3    O1 9304   0.038   2.453  16.258 -0.2656 -0.6153 -0.2119
  624TMC3    O2 9305   4.309   2.322  16.703 -0.0975  0.0859 -0.1483
  625MPD2     C 9306   4.438   3.740   0.837  0.4060 -0.0538 -0.2790
  625MPD2    C1 9307   4.487   3.865   0.830 -0.3234  0.5886 -0.2916
  625MPD2    C2 9308   4.602   3.893   0.902  0.2166  0.0363 -0.3353
  625MPD2    C3 9309   4.661   3.797   0.984  0.2897  0.1549  0.1106
  625MPD2    C4 9310   4.600   3.677   1.004  0.4450  0.4101  0.4587
  625MPD2    C5 9311   4.480   3.651   0.937 -0.1295 -0.3899 -0.6166
  625MPD2     H 9312   4.665   3.981   0.892  0.5503 -0.5013 -3.0561
  625MPD2    H1 9313   4.646   3.598   1.062  1.1911  0.6442  0.1866
  625MPD2    H2 9314   4.344   3.712   0.791 -0.7985  1.7331  1.0988
  625MPD2    H3 9315   4.443   3.552   0.960 -0.4238 -0.1682 -0.1359
  625MPD2     N 9316   0.051   3.833   1.034 -0.2113 -0.3641  1.1072
  625MPD2    H5 9317   0.082   3.928   1.016 -3.0382  0.1368 -1.0034
  625MPD2    N1 9318   4.439   3.966   0.752  0.5037 -0.2829  0.1701
  625MPD2    H7 9319   4.484   4.057   0.763 -1.8597  0.6130  2.6485
  626TMC3    C1 9320   4.336   4.068   0.569 -0.2648  0.0211  0.0829
  626TMC3    C2 9321   4.267   4.056   0.453  0.9436 -0.0542  0.4674
  626TMC3    C3 9322   4.211   4.173   0.400  0.6797  0.0989  0.5244
  626TMC3    C4 9323   4.348   4.191   0.631  0.4680 -0.2049 -0.1722
  626TMC3    C5 9324   4.269   4.291   0.575 -0.0887  0.7761  0.0309
  626TMC3    C6 9325   4.200   4.295   0.466  0.1465 -0.1691 -0.4794
  626TMC3     C 9326   4.359   3.946   0.637 -0.8594  0.0873  0.5207
  626TMC3     O 9327   4.313   3.838   0.596  0.1402 -0.4330  0.3927
  626TMC3     H 9328   4.282   3.966   0.395  3.0786  0.7478 -0.2107
  626TMC3    H1 9329   4.388   4.212   0.729  2.5209  0.9805 -1.2709
  626TMC3    H2 9330   4.135   4.367   0.418  0.5979  1.5542  1.4974
  626TMC3    C7 9331   4.255   4.417   0.650 -0.0106 -0.2499  0.6044
  626TMC3    C8 9332   4.156   4.177   0.266 -0.4185  0.4953  0.8070
  626TMC3    O1 9333   4.320   4.436   0.754 -0.3424 -0.7855 -0.0339
  626TMC3    O2 9334   4.200   4.270   0.205  0.2614 -0.3535 -0.3141
  627MPD2     C 9335   3.414   4.085  14.109  0.7021 -0.9296  0.1955
  627MPD2    C1 9336   3.393   4.062  14.242  0.0961  0.4412  0.3871
  627MPD2    C2 9337   3.329   3.949  14.282  0.0030 -0.3068  0.4386
  627MPD2    C3 9338   3.304   3.848  14.197  0.0120 -0.7184  0.2008
  627MPD2    C4 9339   3.340   3.866  14.065 -0.3058  0.8831 -0.7572
  627MPD2    C5 9340   3.391   3.986  14.019  0.2857 -0.1620  0.1824
  627MPD2     H 9341   3.300   3.947  14.386 -0.4904  1.1625  0.3290
  627MPD2    H1 9342   3.300   3.794  13.993 -0.2688  1.4536 -1.3448
  627MPD2    H2 9343   3.463   4.172  14.068 -0.5083 -0.1129  0.4779
  627MPD2    H3 9344   3.399   4.005  13.913 -0.2659 -1.3199 -0.0678
  627MPD2     N 9345   3.241   3.731  14.244 -0.7641 -0.1185 -0.4599
  627MPD2    H5 9346   3.214   3.741  14.342 -1.6489 -3.5473 -0.3716
  627MPD2    N1 9347   3.429   4.147  14.346  0.0406 -0.4288 -0.0749
  627MPD2    H7 9348   3.403   4.110  14.437 -1.1988  0.5282 -0.0406
  628TMC3    C1 9349   3.503   4.342  14.453 -0.0698 -0.0093 -0.2342
  628TMC3    C2 9350   3.579   4.273  14.541 -0.0611  0.9110 -0.0835
  628TMC3    C3 9351   3.618   4.334  14.657 -0.0794 -0.3323  0.1851
  628TMC3    C4 9352   3.480   4.471  14.457  0.5123 -0.1610  0.2831
  628TMC3    C5 9353   3.538   4.535  14.565  0.5165 -0.9068 -0.4861
  628TMC3    C6 9354   3.617   4.473  14.660 -0.6286 -0.3481  0.3144
  628TMC3     C 9355   3.465   4.279  14.333 -0.7083  0.2695  0.1674
  628TMC3     O 9356   3.473   4.357  14.236  0.5496  0.4212  0.5180
  628TMC3     H 9357   3.592   4.165  14.535 -0.6152  0.9795 -2.5172
  628TMC3    H1 9358   3.429   4.528  14.379  1.3364  0.3463  0.1113
  628TMC3    H2 9359   3.606   4.518  14.759 -1.5004 -1.4758  0.7280
  628TMC3    C7 9360   3.528   4.675  14.573 -0.0237  0.5693 -0.4105
  628TMC3    C8 9361   3.736   4.282  14.720  0.6755  0.7650 -0.6526
  628TMC3    O1 9362   3.603   0.001  14.647 -0.2115  0.2773  0.4915
  628TMC3    O2 9363   3.727   4.161  14.750  0.4866 -0.1407 -0.0016
  629MPD2     C 9364   1.247   3.219  16.367 -0.6406 -0.7877  0.1885
  629MPD2    C1 9365   1.253   3.089  16.415 -0.2821  0.1735 -0.4466
  629MPD2    C2 9366   1.154   3.041  16.501  0.5903 -0.1076  0.8473
  629MPD2    C3 9367   1.046   3.125  16.537  0.3105 -0.7157  0.1453
  629MPD2    C4 9368   1.031   3.245  16.476  0.0244  0.7162  0.0454
  629MPD2    C5 9369   1.137   3.289  16.391 -0.2141  0.9484 -0.4491
  629MPD2     H 9370   1.160   2.950  16.559  0.2625 -1.7812 -1.7368
  629MPD2    H1 9371   0.955   3.317  16.503 -1.6891 -1.9541  2.2891
  629MPD2    H2 9372   1.320   3.261  16.298 -0.8570  1.0822  1.0884
  629MPD2    H3 9373   1.115   3.384  16.344  2.9728  2.3628  0.9025
  629MPD2     N 9374   0.946   3.075  16.621 -0.2394 -0.4371 -0.0160
  629MPD2    H5 9375   0.964   2.992  16.676 -0.5840 -0.7362 -0.3540
  629MPD2    N1 9376   1.374   3.021  16.389  0.6449 -0.2084  0.3309
  629MPD2    H7 9377   1.438   3.070  16.328 -2.2357 -0.0096 -2.5450
  630TMC3    C1 9378   1.548   2.858  16.386  0.2657  0.7316 -0.6327
  630TMC3    C2 9379   1.636   2.954  16.346  0.5090  0.2376 -0.2734
  630TMC3    C3 9380   1.767   2.921  16.338 -0.7815 -0.4846  0.3689
  630TMC3    C4 9381   1.580   2.722  16.402 -0.0171 -0.5423 -0.0454
  630TMC3    C5 9382   1.717   2.699  16.407 -0.3860 -0.1835  0.4416
  630TMC3    C6 9383   1.815   2.792  16.377 -0.4259  0.5595  0.6057
  630TMC3     C 9384   1.413   2.899  16.428 -0.1080 -0.4767 -0.3000
  630TMC3     O 9385   1.346   2.818  16.492  0.1190  0.0873 -0.0414
  630TMC3     H 9386   1.604   3.058  16.349 -0.3936 -0.0813  1.4004
  630TMC3    H1 9387   1.506   2.652  16.438 -0.9799  0.0630 -0.8335
  630TMC3    H2 9388   1.920   2.768  16.384  0.0988  2.6344 -0.0021
  630TMC3    C7 9389   1.753   2.606  16.517 -0.1721  0.2169  0.2914
  630TMC3    C8 9390   1.855   3.032  16.329 -0.0501 -0.4581  0.2127
  630TMC3    O1 9391   1.846   2.635  16.587 -0.0814  0.6336 -0.3642
  630TMC3    O2 9392   1.964   3.024  16.380 -0.2563 -0.7695 -0.0775
  631MPD2     C 9393   0.470   3.472  15.338 -0.1346  0.3929 -0.0011
  631MPD2    C1 9394   0.343   3.418  15.353 -0.5487  0.2342  0.3823
  631MPD2    C2 9395   0.334   3.314  15.438 -0.0282 -0.5680 -0.0381
  631MPD2    C3 9396   0.439   3.260  15.506 -0.3779 -0.5456 -0.6775
  631MPD2    C4 9397   0.560   3.325  15.509 -0.3945 -0.7037 -0.3506
  631MPD2    C5 9398   0.573   3.431  15.424  0.4839  0.6679 -0.2613
  631MPD2     H 9399   0.238   3.268  15.460 -0.6180  0.7954  0.2226
  631MPD2    H1 9400   0.634   3.285  15.577  0.3213  1.1310 -0.0458
  631MPD2    H2 9401   0.470   3.558  15.272  2.4656 -0.0449 -0.5677
  631MPD2    H3 9402   0.668   3.484  15.416  0.7591  0.2975  0.4943
  631MPD2     N 9403   0.411   3.134  15.570 -0.1778 -0.5284  0.2815
  631MPD2    H5 9404   0.316   3.098  15.565 -0.7930  1.2223 -0.3610
  631MPD2    N1 9405   0.239   3.454  15.269 -0.5774 -0.0480 -0.0205
  631MPD2    H7 9406   0.264   3.492  15.178  1.0430  1.6836  1.1686
  632TMC3    C1 9407   0.028   3.439  15.163 -0.8222  0.0361  0.6739
  632TMC3    C2 9408   4.637   3.433  15.180  0.7824  0.1121 -0.4592
  632TMC3    C3 9409   4.550   3.415  15.079  0.2265  0.7225  0.4277
  632TMC3    C4 9410   0.086   3.410  15.040 -0.1683  0.1162 -0.1167
  632TMC3    C5 9411   0.001   3.368  14.936 -0.2549  0.2332 -0.0472
  632TMC3    C6 9412   4.600   3.369  14.957  0.0118  0.1324  0.3640
  632TMC3     C 9413   0.108   3.419  15.278 -0.0410  0.3847  0.2569
  632TMC3     O 9414   0.045   3.399  15.383  0.2772 -0.3002  0.3455
  632TMC3     H 9415   4.599   3.461  15.277  2.2393  0.1885  0.0954
  632TMC3    H1 9416   0.193   3.411  15.026  0.0317  1.6428  1.5231
  632TMC3    H2 9417   4.530   3.352  14.876  1.3808  1.3086 -1.0556
  632TMC3    C7 9418   0.045   3.326  14.799 -0.2703  0.2993 -0.1138
  632TMC3    C8 9419   4.414   3.370  15.118 -0.0850 -0.3101 -0.4541
  632TMC3    O1 9420   4.690   3.312  14.713  0.9017 -0.1253 -0.1181
  632TMC3    O2 9421   4.377   3.379  15.230 -0.2462 -0.1379 -0.0276
  633MPD2     C 9422   4.410   0.810  17.392 -0.5834  0.0651 -0.1224
  633MPD2    C1 9423   4.403   0.763  17.264  0.0837  0.1957 -0.6117
  633MPD2    C2 9424   4.341   0.643  17.236  0.1405 -0.0956 -0.7699
  633MPD2    C3 9425   4.289   0.561  17.331 -0.0779  0.2915 -0.2858
  633MPD2    C4 9426   4.302   0.600  17.468 -0.2259  0.0197 -0.1084
  633MPD2    C5 9427   4.357   0.733  17.491  0.5819  0.0677 -0.0321
  633MPD2     H 9428   4.345   0.615  17.132 -0.4554  0.1636 -0.8634
  633MPD2    H1 9429   4.262   0.531  17.541  2.8193 -0.9561  0.6135
  633MPD2    H2 9430   4.464   0.901  17.418  1.3463 -1.1045 -0.0525
  633MPD2    H3 9431   4.370   0.761  17.595  0.5135  0.5026 -0.1446
  633MPD2     N 9432   4.239   0.428  17.301  0.5864 -0.1974  0.1782
  633MPD2    H5 9433   4.206   0.383  17.385  2.3111  0.5636  1.2514
  633MPD2    N1 9434   4.449   0.840  17.150  0.0366  0.3927 -0.1296
  633MPD2    H7 9435   4.444   0.798  17.058  4.0134 -0.0685 -0.1332
  634TMC3    C1 9436   4.504   1.007  17.014 -0.2238  0.6538 -0.1350
  634TMC3    C2 9437   4.609   0.944  16.943 -0.0874  0.5446  0.7489
  634TMC3    C3 9438   4.657   0.998  16.827 -0.0483  0.1052  0.4987
  634TMC3    C4 9439   4.466   1.135  16.987 -0.3887  0.4467  0.0039
  634TMC3    C5 9440   4.516   1.183  16.872 -0.6629  0.7166 -0.4275
  634TMC3    C6 9441   4.610   1.120  16.799 -0.1971 -0.0473 -0.7743
  634TMC3     C 9442   4.490   0.969  17.151  0.4152  1.2880  0.3764
  634TMC3     O 9443   4.475   1.054  17.239 -0.0150 -0.3642 -0.1057
  634TMC3     H 9444   4.637   0.844  16.973  0.5709  0.7763  0.9086
  634TMC3    H1 9445   4.385   1.180  17.043 -0.7782  0.2248 -0.3787
  634TMC3    H2 9446   4.655   1.173  16.715  1.1503 -0.4397 -0.2994
  634TMC3    C7 9447   4.449   1.285  16.786 -0.5503 -0.0096 -0.2003
  634TMC3    C8 9448   4.674   0.903  16.721 -0.1028 -0.0119  0.1633
  634TMC3    O1 9449   4.480   1.288  16.667 -0.6934 -0.1395 -0.1720
  634TMC3    O2 9450   4.641   0.788  16.740 -0.3635 -0.4486 -0.4814
  635TMC3    C1 9451   4.444   1.777   0.183  1.0222  0.3414  0.1630
  635TMC3    C2 9452   4.341   1.716   0.119  0.3777 -0.2104  0.2849
  635TMC3    C3 9453   4.335   1.580   0.122 -0.0918 -0.2563 -0.1792
  635TMC3    C4 9454   4.536   1.704   0.258 -0.4181  0.1323 -0.1840
  635TMC3    C5 9455   4.506   1.575   0.281 -0.3851  0.2358  0.9450
  635TMC3    C6 9456   4.409   1.509   0.210  0.3455  0.4198  0.1403
  635TMC3     C 9457   4.441   1.927   0.200 -0.6298  0.3707 -0.0117
  635TMC3     O 9458   4.522   1.968   0.279 -0.1747  0.5668 -0.0373
  635TMC3     H 9459   4.268   1.770   0.060  0.3858 -0.5637 -0.0494
  635TMC3    H1 9460   4.614   1.760   0.308 -0.1255  0.0763 -0.5796
  635TMC3    H2 9461   4.404   1.401   0.218  3.6377  0.3163  0.5347
  635TMC3    C7 9462   4.585   1.493   0.376 -0.6157 -0.3129  0.6006
  635TMC3    C8 9463   4.288   1.519   0.001  0.2204 -0.1291 -0.3434
  635TMC3    O1 9464   4.553   1.375   0.385 -0.8341  0.2213 -0.3487
  635TMC3    O2 9465   4.288   1.591  17.653  0.1850 -0.2993 -0.2945
  636MPD2     C 9466   0.973   1.177  16.176  0.0492  1.0237  0.3160
  636MPD2    C1 9467   0.953   1.145  16.311 -0.2162 -0.5084  0.4636
  636MPD2    C2 9468   0.973   1.021  16.363  0.4156  0.1278 -0.2836
  636MPD2    C3 9469   1.006   0.918  16.276  0.2154  0.2596 -0.1943
  636MPD2    C4 9470   1.039   0.950  16.145  0.5448 -0.6809  0.5089
  636MPD2    C5 9471   1.013   1.075  16.097 -0.6808  0.5925 -0.0326
  636MPD2     H 9472   0.960   0.993  16.467  1.7326 -1.5389 -0.5605
  636MPD2    H1 9473   1.060   0.874  16.071 -3.4895 -2.0540  0.7839
  636MPD2    H2 9474   0.948   1.269  16.123 -0.1326  1.9171  1.9346
  636MPD2    H3 9475   1.028   1.093  15.991 -3.2242  0.3099 -0.4383
  636MPD2     N 9476   1.028   0.788  16.323 -0.4381 -0.1630  0.2589
  636MPD2    H5 9477   1.023   0.782  16.424 -0.8596  1.6830  0.3515
  636MPD2    N1 9478   0.914   1.248  16.405  0.5639 -0.0048 -0.4625
  636MPD2    H7 9479   0.933   1.229  16.502 -0.1856  1.8017  0.0341
  637TMC3    C1 9480   1.072   0.559  16.318 -0.1977 -0.3383 -0.3585
  637TMC3    C2 9481   1.121   0.566  16.446  0.7540  0.9688 -0.3212
  637TMC3    C3 9482   1.210   0.471  16.485 -0.1012 -0.2580  0.3846
  637TMC3    C4 9483   1.110   0.460  16.234  0.3955  0.0971  0.3209
  637TMC3    C5 9484   1.216   0.383  16.269  0.0746  0.1843  0.8170
  637TMC3    C6 9485   1.270   0.386  16.397 -0.5415 -0.8233  0.5352
  637TMC3     C 9486   1.033   0.676  16.246 -0.1900  0.3999  0.3759
  637TMC3     O 9487   1.013   0.666  16.129  0.0062  0.0519 -0.2900
  637TMC3     H 9488   1.078   0.635  16.517  1.8724  2.6441 -1.2584
  637TMC3    H1 9489   1.060   0.447  16.139 -1.3561 -0.4228  1.3116
  637TMC3    H2 9490   1.351   0.319  16.420  2.0927  1.6358 -1.6425
  637TMC3    C7 9491   1.295   0.314  16.165  1.6321  0.6231 -0.1408
  637TMC3    C8 9492   1.288   0.492  16.608 -0.0977 -1.0105 -0.2408
  637TMC3    O1 9493   1.317   0.198  16.195  0.6391 -0.4931 -0.1996
  637TMC3    O2 9494   1.336   0.391  16.658  0.2168 -0.1421 -0.2881
  638MPD2     C 9495   0.357   0.272  14.706  0.6934  0.8353 -0.0263
  638MPD2    C1 9496   0.456   0.178  14.723  0.2403 -0.1115 -0.6431
  638MPD2    C2 9497   0.454   0.094  14.832  0.0545  0.1985 -0.4287
  638MPD2    C3 9498   0.361   0.108  14.930 -0.0493 -0.6509 -0.2194
  638MPD2    C4 9499   0.260   0.202  14.906  0.1151 -0.0329 -0.2450
  638MPD2    C5 9500   0.256   0.278  14.794  0.4748 -0.0018  0.0096
  638MPD2     H 9501   0.531   0.019  14.840  1.3424  1.5316 -0.2183
  638MPD2    H1 9502   0.184   0.229  14.979  1.0113 -1.7550  1.3558
  638MPD2    H2 9503   0.343   0.336  14.619 -0.9658 -0.4761 -0.7327
  638MPD2    H3 9504   0.166   0.335  14.773  1.5658  1.4822 -0.7024
  638MPD2     N 9505   0.385   0.032  15.047 -0.4300 -0.6213 -0.4403
  638MPD2    H5 9506   0.468   4.712  15.040  0.1283 -0.0656  1.6930
  638MPD2    N1 9507   0.562   0.169  14.633  0.2264 -0.1047 -0.4580
  638MPD2    H7 9508   0.634   0.097  14.647  0.5464  0.5863  1.4360
  639TMC3    C1 9509   0.357   4.680  15.254  0.0161  0.2021 -0.3313
  639TMC3    C2 9510   0.285   4.569  15.259  0.0878 -0.1824  0.1635
  639TMC3    C3 9511   0.342   4.447  15.293  0.5710 -0.3538 -0.4389
  639TMC3    C4 9512   0.494   4.675  15.271  0.1217 -0.3989 -0.3166
  639TMC3    C5 9513   0.556   4.558  15.289 -0.3112  0.1049  0.9685
  639TMC3    C6 9514   0.483   4.443  15.307  0.6380  0.7753  0.1071
  639TMC3     C 9515   0.305   0.038  15.158 -0.1330  0.2634  0.2791
  639TMC3     O 9516   0.185   0.071  15.165  0.5509  0.0834  0.1186
  639TMC3     H 9517   0.177   4.574  15.246  0.5190 -0.5720 -3.3654
  639TMC3    H1 9518   0.568   0.011  15.243 -0.8188 -0.1655 -2.2401
  639TMC3    H2 9519   0.543   4.352  15.311  1.2002  1.3371  3.9424
  639TMC3    C7 9520   0.685   4.549  15.223 -0.4995  0.0146 -0.1615
  639TMC3    C8 9521   0.273   4.319  15.251 -0.2339 -0.3422 -0.5201
  639TMC3    O1 9522   0.764   4.642  15.237  0.0961 -0.0076  0.2025
  639TMC3    O2 9523   0.200   4.324  15.154 -0.1881 -0.0586  0.5431
  640MPD2     C 9524   1.040   3.317   9.759 -0.7805 -0.5508  0.0042
  640MPD2    C1 9525   0.909   3.277   9.773  0.5567 -0.4156  0.2081
  640MPD2    C2 9526   0.819   3.367   9.824  0.3442 -0.2506 -0.3332
  640MPD2    C3 9527   0.859   3.485   9.878  0.0292 -0.3625  0.2750
  640MPD2    C4 9528   0.996   3.519   9.871 -0.4448 -0.2461  0.1252
  640MPD2    C5 9529   1.080   3.435   9.810  0.1533  0.5296  0.4845
  640MPD2     H 9530   0.715   3.340   9.835  0.7315 -1.1861  1.0418
  640MPD2    H1 9531   1.028   3.612   9.916 -1.8352  0.2666  0.0724
  640MPD2    H2 9532   1.111   3.248   9.715  2.8771  2.8671  0.5445
  640MPD2    H3 9533   1.179   3.476   9.797  0.0168  0.3783 -1.0414
  640MPD2     N 9534   0.768   3.573   9.948 -0.0907 -0.2709 -0.1992
  640MPD2    H5 9535   0.809   3.650   9.999 -1.2672  0.4876 -0.3884
  640MPD2    N1 9536   0.870   3.144   9.729 -0.1282  0.6068 -0.2121
  640MPD2    H7 9537   0.949   3.093   9.692 -0.5815  0.2423 -0.6673
  641TMC3    C1 9538   0.754   2.947   9.700 -0.2791  0.1036  0.3940
  641TMC3    C2 9539   0.844   2.898   9.616 -0.0088 -0.4283  1.1023
  641TMC3    C3 9540   0.829   2.768   9.577 -0.6582  0.2070 -0.2363
  641TMC3    C4 9541   0.632   2.886   9.738  0.1965 -0.8306  0.1543
  641TMC3    C5 9542   0.622   2.757   9.694  0.2403 -1.0527  0.2142
  641TMC3    C6 9543   0.716   2.700   9.608 -0.0085 -0.1710 -0.4144
  641TMC3     C 9544   0.751   3.087   9.744  0.2813  0.1466  0.1215
  641TMC3     O 9545   0.651   3.126   9.802 -0.3820  0.0450 -0.7479
  641TMC3     H 9546   0.940   2.945   9.595 -0.7343  1.7564  2.5743
  641TMC3    H1 9547   0.578   2.921   9.825  0.3008 -0.8277  0.2170
  641TMC3    H2 9548   0.709   2.601   9.566  1.4171 -0.4204 -0.0618
  641TMC3    C7 9549   0.508   2.682   9.730  0.3208 -0.9152  0.3573
  641TMC3    C8 9550   0.915   2.694   9.480 -0.6052  0.4086  0.2522
  641TMC3    O1 9551   0.514   2.568   9.679 -0.2636 -0.3958 -0.2540
  641TMC3    O2 9552   0.870   2.603   9.412  0.1026 -0.4178 -0.5460
  642TMC3    C1 9553   2.568   3.961  12.081  0.3484  0.3639  0.7401
  642TMC3    C2 9554   2.669   3.989  11.987  0.2053  0.5387 -0.2316
  642TMC3    C3 9555   2.676   3.915  11.869 -0.5642 -0.1282 -0.4937
  642TMC3    C4 9556   2.486   3.850  12.070  0.1086 -0.1519  0.4572
  642TMC3    C5 9557   2.506   3.771  11.954 -0.0875  0.2136  0.0809
  642TMC3    C6 9558   2.594   3.805  11.851  0.0463 -0.5255  0.3235
  642TMC3     C 9559   2.585   4.022  12.211  0.3431  0.1010  0.4730
  642TMC3     O 9560   2.696   4.073  12.234  0.0345  0.4917  0.2060
  642TMC3     H 9561   2.716   4.086  11.999  1.0359  0.2237 -0.9859
  642TMC3    H1 9562   2.430   3.818  12.157  0.8221 -0.8000  0.6846
  642TMC3    H2 9563   2.608   3.749  11.759  1.3831 -3.0886  2.0760
  642TMC3    C7 9564   2.413   3.661  11.933  0.4412  0.2808  0.3001
  642TMC3    C8 9565   2.750   3.957  11.753  0.1071  0.3971  0.3376
  642TMC3    O1 9566   2.441   3.584  11.846  0.3769 -0.1289  0.1194
  642TMC3    O2 9567   2.749   3.888  11.653  0.0001  0.1580 -0.4078
  643TMC3    C1 9568   1.783   3.286   0.172 -0.2214 -0.3064  0.7172
  643TMC3    C2 9569   1.660   3.227   0.170 -1.0796  0.1099  0.1843
  643TMC3    C3 9570   1.635   3.140   0.069  0.0028  0.1854  1.0744
  643TMC3    C4 9571   1.854   3.292   0.058 -0.0246  0.8378 -0.2971
  643TMC3    C5 9572   1.816   3.216  17.700  0.6768  0.4251  0.2021
  643TMC3    C6 9573   1.711   3.131  17.705 -0.4111  0.4110 -0.3446
  643TMC3     C 9574   1.821   3.369   0.287 -0.2616 -0.0856  0.2449
  643TMC3     O 9575   1.756   3.349   0.388  0.6458  0.2813 -0.1939
  643TMC3     H 9576   1.605   3.223   0.264 -0.8903  0.4800  0.3121
  643TMC3    H1 9577   1.940   3.358   0.053 -0.3023  1.2151 -0.0512
  643TMC3    H2 9578   1.663   3.085  17.620 -1.4358 -0.4437  0.6859
  643TMC3    C7 9579   1.853   3.272  17.569  0.2023  0.4822 -0.3493
  643TMC3    C8 9580   1.492   3.131   0.049  0.1523 -0.2152 -0.2895
  643TMC3    O1 9581   1.886   3.391  17.566 -0.2731 -0.3845 -0.2888
  643TMC3    O2 9582   1.441   3.024   0.026  0.5394 -0.4037  0.5621
  644MPD2     C 9583   0.834   3.104   9.336  0.1069 -0.1903  0.8161
  644MPD2    C1 9584   0.815   2.983   9.270 -0.2760 -0.5584 -0.0664
  644MPD2    C2 9585   0.700   2.917   9.297 -0.7496 -0.3938 -0.4687
  644MPD2    C3 9586   0.600   2.971   9.379  0.2850 -1.0807 -0.1152
  644MPD2    C4 9587   0.619   3.091   9.440 -0.1573 -0.0376  0.6197
  644MPD2    C5 9588   0.741   3.155   9.428 -0.1597 -0.6264 -0.1419
  644MPD2     H 9589   0.688   2.823   9.245  0.8611  0.3666 -2.2050
  644MPD2    H1 9590   0.542   3.127   9.506  0.9910  2.6832  0.4714
  644MPD2    H2 9591   0.922   3.163   9.314  1.7894 -3.1850 -0.3307
  644MPD2    H3 9592   0.766   3.241   9.490  1.2161 -1.2979  0.2368
  644MPD2     N 9593   0.486   2.884   9.390 -0.1341  0.4521  0.1582
  644MPD2    H5 9594   0.494   2.795   9.343  1.7373  0.7498 -0.0586
  644MPD2    N1 9595   0.919   2.940   9.182 -0.9014 -0.1237  0.3526
  644MPD2    H7 9596   0.999   3.002   9.177 -0.5977 -0.1701  4.0383
  645TMC3    C1 9597   0.267   2.818   9.474  0.2094 -0.4730 -0.3986
  645TMC3    C2 9598   0.157   2.850   9.554 -0.7112 -0.2724  0.6575
  645TMC3    C3 9599   0.055   2.753   9.557  0.1110  0.6183 -0.5612
  645TMC3    C4 9600   0.270   2.715   9.388 -0.1122 -1.1218 -0.4002
  645TMC3    C5 9601   0.174   2.621   9.395 -0.3294 -0.1617  0.1209
  645TMC3    C6 9602   0.069   2.634   9.481 -0.3242  0.1103  0.0365
  645TMC3     C 9603   0.368   2.917   9.462  0.9882  0.0171  0.0656
  645TMC3     O 9604   0.359   3.006   9.543  0.3441  0.1041  0.0805
  645TMC3     H 9605   0.154   2.942   9.613  0.5818  0.3481 -0.2567
  645TMC3    H1 9606   0.359   2.702   9.328  1.2649 -2.4690  1.9335
  645TMC3    H2 9607   4.730   2.557   9.476  1.4257 -1.6492  0.3749
  645TMC3    C7 9608   0.186   2.512   9.298  0.2141  0.5388 -0.0515
  645TMC3    C8 9609   4.669   2.774   9.632 -0.2304 -0.2917 -0.1898
  645TMC3    O1 9610   0.268   2.520   9.206  0.1408 -0.4842  0.1058
  645TMC3    O2 9611   4.564   2.742   9.574 -0.1046 -0.3000  0.0536
  646MPD2     C 9612   0.839   3.275  14.588  0.3928  0.2029  0.0675
  646MPD2    C1 9613   0.777   3.273  14.711 -0.5252 -0.8377 -0.0220
  646MPD2    C2 9614   0.671   3.355  14.731  0.0801 -0.2619 -0.2276
  646MPD2    C3 9615   0.629   3.445  14.631  0.1259 -1.1121 -0.1115
  646MPD2    C4 9616   0.692   3.445  14.508 -0.5031 -0.5675 -0.1102
  646MPD2    C5 9617   0.802   3.367  14.492 -0.4107 -0.0933  0.1342
  646MPD2     H 9618   0.609   3.359  14.820  1.1987  0.1126  0.5329
  646MPD2    H1 9619   0.654   3.503  14.425 -1.0996 -2.0631 -0.8817
  646MPD2    H2 9620   0.926   3.211  14.581 -0.0735 -0.2250 -1.7021
  646MPD2    H3 9621   0.854   3.379  14.398 -0.7547 -1.5282 -0.2472
  646MPD2     N 9622   0.503   3.502  14.653  0.0727  0.3522  0.5532
  646MPD2    H5 9623   0.475   3.497  14.751  2.2573 -1.3120  1.0890
  646MPD2    N1 9624   0.823   3.190  14.814 -0.0483 -0.7448  0.2726
  646MPD2    H7 9625   0.912   3.142  14.807  0.2517 -0.0078 -1.0720
  647TMC3    C1 9626   0.828   3.049  14.989  0.3053  0.0280 -0.1010
  647TMC3    C2 9627   0.760   2.992  15.093  0.9445 -0.4615 -0.0298
  647TMC3    C3 9628   0.833   2.921  15.193  0.2767 -0.1903 -0.0506
  647TMC3    C4 9629   0.966   3.067  15.001 -0.2368 -0.1723  0.6441
  647TMC3    C5 9630   1.035   3.010  15.104 -0.6539 -0.1060 -0.2679
  647TMC3    C6 9631   0.964   2.934  15.198 -0.2050  0.0131  0.6362
  647TMC3     C 9632   0.754   3.154  14.926 -0.2785  0.0427  0.2289
  647TMC3     O 9633   0.642   3.191  14.965  0.2588  0.6802  0.1639
  647TMC3     H 9634   0.652   2.990  15.079  1.0303  0.0320 -0.7083
  647TMC3    H1 9635   1.012   3.129  14.924 -0.5739  1.0194  1.4074
  647TMC3    H2 9636   1.022   2.891  15.279 -1.9126 -2.1815  0.6849
  647TMC3    C7 9637   1.174   3.041  15.138  0.3030 -0.0380  0.5248
  647TMC3    C8 9638   0.764   2.840  15.291 -0.3192  0.4957 -0.2316
  647TMC3    O1 9639   1.228   2.984  15.231  0.2856 -0.2068 -0.2188
  647TMC3    O2 9640   0.830   2.799  15.381  0.0421  0.1570 -0.0432
  648TMC3    C1 9641   0.365   0.921  16.227 -0.3471 -0.3610 -0.6513
  648TMC3    C2 9642   0.404   0.788  16.206  0.2172 -0.2253 -0.2362
  648TMC3    C3 9643   0.392   0.730  16.079 -0.1215 -0.0385 -0.2027
  648TMC3    C4 9644   0.318   0.988  16.118  0.0501 -0.0755  0.7875
  648TMC3    C5 9645   0.310   0.930  15.997  0.2391  0.1312 -0.3639
  648TMC3    C6 9646   0.346   0.803  15.972  0.1812 -0.7818  0.4923
  648TMC3     C 9647   0.360   0.970  16.365 -0.4674  0.8406  0.8917
  648TMC3     O 9648   0.352   1.091  16.373 -0.5261 -0.7659 -0.2337
  648TMC3     H 9649   0.438   0.718  16.281  0.1957 -1.7051 -1.6027
  648TMC3    H1 9650   0.288   1.089  16.145 -0.2681 -0.7164  2.8195
  648TMC3    H2 9651   0.356   0.763  15.871  0.1319  0.2189  0.0871
  648TMC3    C7 9652   0.219   0.990  15.899 -0.3615 -0.5077 -0.2349
  648TMC3    C8 9653   0.441   0.595  16.066 -0.3218  0.7025  0.1911
  648TMC3    O1 9654   0.232   0.947  15.781 -0.0191  0.1073  0.4468
  648TMC3    O2 9655   0.432   0.525  16.163 -0.7908 -0.2073 -0.3148
  649TMC3    C1 9656   4.181   2.193  12.984  0.1927 -0.1029  0.3767
  649TMC3    C2 9657   4.258   2.235  13.095 -0.7417  0.0895 -0.3812
  649TMC3    C3 9658   4.245   2.170  13.215 -0.1483  0.2239  0.3572
  649TMC3    C4 9659   4.092   2.097  13.002  0.3192  0.0578  0.0516
  649TMC3    C5 9660   4.073   2.042  13.130  0.3108  0.4106  0.2111
  649TMC3    C6 9661   4.156   2.067  13.234  0.0770  0.5277 -0.0994
  649TMC3     C 9662   4.196   2.255  12.851  0.5494  0.0753 -0.3012
  649TMC3     O 9663   4.095   2.250  12.776 -0.0333 -0.8352  0.4783
  649TMC3     H 9664   4.324   2.320  13.092  0.0848 -0.5968 -1.3935
  649TMC3    H1 9665   4.028   2.068  12.919  2.9232 -1.9467 -1.2132
  649TMC3    H2 9666   4.137   2.019  13.329 -1.2575  2.1846  0.4806
  649TMC3    C7 9667   3.973   1.931  13.124  0.2172 -0.2850 -0.2769
  649TMC3    C8 9668   4.290   2.236  13.334 -0.1704  0.5685 -0.2267
  649TMC3    O1 9669   3.874   1.947  13.058 -0.6384 -0.0951  0.0921
  649TMC3    O2 9670   4.331   2.351  13.313  0.0492 -0.3104  0.5833
  650TMC3    C1 9671   1.872   3.136  12.655  0.1976  1.0110 -0.4998
  650TMC3    C2 9672   1.849   3.252  12.721  0.5350 -0.0108 -0.1945
  650TMC3    C3 9673   1.730   3.312  12.695 -0.2468  0.5234 -0.4907
  650TMC3    C4 9674   1.779   3.088  12.567 -0.0404 -0.1310 -0.0028
  650TMC3    C5 9675   1.664   3.154  12.544  0.4795  0.2472 -0.3074
  650TMC3    C6 9676   1.631   3.266  12.614 -0.3026  0.2092 -0.1646
  650TMC3     C 9677   2.005   3.074  12.667  0.3149 -0.6498  0.8820
  650TMC3     O 9678   2.088   3.149  12.714  0.0661  0.4527  0.4365
  650TMC3     H 9679   1.919   3.299  12.789  1.9459 -0.5853 -1.2664
  650TMC3    H1 9680   1.810   3.007  12.502 -3.5567  1.0746 -3.1971
  650TMC3    H2 9681   1.534   3.314  12.611  0.0470  0.6186 -4.0776
  650TMC3    C7 9682   1.637   3.165  12.408  0.4347 -0.5895  0.8926
  650TMC3    C8 9683   1.722   3.447  12.739 -0.3149 -0.2805  0.6434
  650TMC3    O1 9684   1.668   3.079  12.331  0.1231 -0.3402  0.2617
  650TMC3    O2 9685   1.822   3.519  12.740 -0.4302 -0.1471  0.6445
  651MPD2     C 9686   0.667   0.755  10.471  0.3220 -0.1654  0.3300
  651MPD2    C1 9687   0.714   0.764  10.603  0.1965 -0.5774 -0.8670
  651MPD2    C2 9688   0.847   0.797  10.626  0.4135  0.2241 -0.2717
  651MPD2    C3 9689   0.935   0.803  10.514  0.5239 -0.4243 -0.1542
  651MPD2    C4 9690   0.887   0.790  10.392 -0.6734 -0.8345  0.1406
  651MPD2    C5 9691   0.756   0.757  10.374 -0.4596  0.1473 -0.6970
  651MPD2     H 9692   0.875   0.813  10.730 -1.1702  2.1888 -0.1425
  651MPD2    H1 9693   0.950   0.799  10.304  0.0689 -1.1426  0.6383
  651MPD2    H2 9694   0.564   0.737  10.444  0.5198  0.1991 -0.6638
  651MPD2    H3 9695   0.730   0.763  10.269 -3.1363 -0.8928 -0.0923
  651MPD2     N 9696   1.069   0.844  10.549  0.0443 -0.0560  0.1138
  651MPD2    H5 9697   1.099   0.841  10.646  0.1485  2.9706  0.1728
  651MPD2    N1 9698   0.632   0.773  10.714  0.0218  0.3195 -0.1470
  651MPD2    H7 9699   0.673   0.817  10.796  1.0291  0.7551 -0.8915
  652TMC3    C1 9700   1.496   0.996  10.437 -0.8301  0.9560  0.3755
  652TMC3    C2 9701   1.393   0.906  10.421 -0.1023  0.1190 -0.4270
  652TMC3    C3 9702   1.280   0.910  10.503 -0.3745 -0.6001 -0.1486
  652TMC3    C4 9703   1.489   1.085  10.543  0.8687 -0.5180  0.1477
  652TMC3    C5 9704   1.383   1.078  10.624  0.2196 -0.4657  0.1872
  652TMC3    C6 9705   1.271   0.996  10.605 -0.6612  0.1329  0.2039
  652TMC3     C 9706   1.627   0.930  10.450  0.0012 -0.6741 -0.7822
  652TMC3     O 9707   1.643   0.853  10.539  0.0169 -0.0721  0.0544
  652TMC3     H 9708   1.408   0.821  10.356  1.8230  0.4502 -0.4186
  652TMC3    H1 9709   1.579   1.135  10.576  0.0562  2.8349 -2.7029
  652TMC3    H2 9710   1.182   1.004  10.666  0.1688  0.4237  1.3870
  652TMC3    C7 9711   1.396   1.161  10.744 -0.6642 -0.3391  0.2465
  652TMC3    C8 9712   1.163   0.856  10.443  0.5894 -0.3322  0.0520
  652TMC3    O1 9713   1.349   1.118  10.849 -0.3719 -0.8418 -0.3659
  652TMC3    O2 9714   1.168   0.826  10.325 -0.2692 -0.0650 -0.2683
  653MPD2     C 9715   3.947   0.933  17.537 -0.4316  0.0524  0.2587
  653MPD2    C1 9716   3.904   1.036  17.460  0.2318  0.0572 -0.4731
  653MPD2    C2 9717   3.867   0.999  17.333  0.5289  0.0824  0.1190
  653MPD2    C3 9718   3.876   0.870  17.274 -0.3270 -0.0751  0.7823
  653MPD2    C4 9719   3.937   0.770  17.350  0.3759  0.7733  0.0799
  653MPD2    C5 9720   3.980   0.806  17.476  0.2390  0.3182 -0.1944
  653MPD2     H 9721   3.820   1.069  17.265 -1.7250 -1.3727  0.1556
  653MPD2    H1 9722   3.960   0.672  17.311 -2.3828 -0.1847  0.8364
  653MPD2    H2 9723   3.971   0.929  17.642 -1.1249  0.0129  0.4175
  653MPD2    H3 9724   4.021   0.726  17.536 -2.2179 -0.0294  0.9681
  653MPD2     N 9725   3.792   0.840  17.159 -0.1225  0.6210  0.3785
  653MPD2    H5 9726   3.739   0.915  17.116 -0.5076 -1.2098 -2.3531
  653MPD2    N1 9727   3.889   1.167  17.511  0.0202 -0.5456  0.2718
  653MPD2    H7 9728   3.872   1.239  17.441 -0.1004 -0.0260  0.8339
  654TMC3    C1 9729   3.641   0.697  17.041  0.2715 -0.2983 -0.0937
  654TMC3    C2 9730   3.549   0.800  17.045  0.0403  0.0498 -0.0909
  654TMC3    C3 9731   3.424   0.767  16.988 -0.2502 -0.3652  0.1744
  654TMC3    C4 9732   3.602   0.564  17.017 -0.3821 -0.2117 -0.0389
  654TMC3    C5 9733   3.479   0.534  16.978  0.3824 -0.1042 -0.4411
  654TMC3    C6 9734   3.387   0.640  16.957 -0.0478 -0.1014 -0.9870
  654TMC3     C 9735   3.771   0.709  17.117 -0.4333  0.2358  0.0465
  654TMC3     O 9736   3.831   0.604  17.142 -0.9896  0.9291 -0.0713
  654TMC3     H 9737   3.575   0.901  17.076  0.4023 -0.4671  1.2781
  654TMC3    H1 9738   3.682   0.491  17.022 -0.2810 -0.0447  0.8579
  654TMC3    H2 9739   3.291   0.630  16.907 -0.8193 -0.4856  0.5891
  654TMC3    C7 9740   3.428   0.399  16.971  0.6942  0.2364  0.1933
  654TMC3    C8 9741   3.322   0.867  16.968 -0.3654  0.3279  0.1601
  654TMC3    O1 9742   3.310   0.386  16.968 -0.0394 -0.3609  0.1626
  654TMC3    O2 9743   3.212   0.828  16.948  0.0310 -0.4471 -0.6376
  655MPD2     C 9744   0.563   0.947  15.632 -0.3211 -0.0130  0.6701
  655MPD2    C1 9745   0.571   1.070  15.573 -0.3095 -0.5462 -0.8194
  655MPD2    C2 9746   0.633   1.081  15.448  0.7303  0.4528 -0.1737
  655MPD2    C3 9747   0.673   0.964  15.383 -0.0405 -0.1617 -0.4425
  655MPD2    C4 9748   0.658   0.842  15.443 -0.6185  0.2949 -0.1448
  655MPD2    C5 9749   0.610   0.836  15.568 -0.6924  0.5648  0.7667
  655MPD2     H 9750   0.654   1.178  15.404 -0.8092 -0.0144 -1.9460
  655MPD2    H1 9751   0.686   0.748  15.398 -2.3294  0.5788 -1.8234
  655MPD2    H2 9752   0.519   0.935  15.730 -1.0693  0.7228  0.4183
  655MPD2    H3 9753   0.604   0.737  15.612 -1.1369  1.2297  2.1861
  655MPD2     N 9754   0.725   0.945  15.252 -0.5560  0.6916  0.2228
  655MPD2    H5 9755   0.746   0.852  15.218  1.6680  0.8666  1.1281
  655MPD2    N1 9756   0.529   1.191  15.636  0.2718  0.2865 -0.2811
  655MPD2    H7 9757   0.536   1.276  15.580 -0.4204 -0.2812 -1.2358
  656TMC3    C1 9758   0.424   1.321  15.796  0.4275  0.1245 -0.1431
  656TMC3    C2 9759   0.384   1.324  15.928 -0.5979  0.5754  0.1994
  656TMC3    C3 9760   0.295   1.421  15.964 -0.5022  0.1023 -0.1720
  656TMC3    C4 9761   0.385   1.421  15.708  0.2851 -0.0892 -0.2580
  656TMC3    C5 9762   0.294   1.519  15.755  0.0402 -1.1691 -0.5806
  656TMC3    C6 9763   0.246   1.523  15.882 -0.0359  0.9296  0.0166
  656TMC3     C 9764   0.497   1.199  15.768 -0.1235 -0.4891  0.2916
  656TMC3     O 9765   0.516   1.119  15.856 -0.0179  0.5848 -0.6110
  656TMC3     H 9766   0.399   1.242  15.996  0.2787  0.3210 -0.2987
  656TMC3    H1 9767   0.410   1.422  15.602 -2.4988 -0.9789 -0.9101
  656TMC3    H2 9768   0.184   1.608  15.909 -0.7761  0.4508 -0.1981
  656TMC3    C7 9769   0.228   1.599  15.656  0.2697 -0.2156  0.9498
  656TMC3    C8 9770   0.215   1.400  16.083 -0.3913  0.2398  0.3530
  656TMC3    O1 9771   0.291   1.627  15.555 -0.0190 -0.2495 -0.2214
  656TMC3    O2 9772   0.216   1.289  16.127  0.0125  0.7161 -0.1762
  657TMC3    C1 9773   4.147   0.533  15.040 -0.4352  0.1569 -0.1369
  657TMC3    C2 9774   4.222   0.613  15.121  0.5834  0.0958  0.5714
  657TMC3    C3 9775   4.306   0.712  15.064  0.1665  0.4956 -0.3278
  657TMC3    C4 9776   4.149   0.552  14.906 -0.1580 -0.1064  0.0638
  657TMC3    C5 9777   4.220   0.663  14.861 -0.3288 -0.1492 -0.1594
  657TMC3    C6 9778   4.297   0.745  14.938  0.5681  0.2317 -0.0061
  657TMC3     C 9779   4.056   0.425  15.090 -0.1997 -0.7912 -0.2948
  657TMC3     O 9780   3.994   0.359  15.007 -0.2199 -0.1693 -0.0014
  657TMC3     H 9781   4.222   0.602  15.228  0.2136  2.1528  0.7926
  657TMC3    H1 9782   4.097   0.490  14.834 -1.7131  1.0794  0.1767
  657TMC3    H2 9783   4.352   0.825  14.890 -1.2864  0.6944 -1.3389
  657TMC3    C7 9784   4.182   0.707  14.726  0.0360  0.2082 -0.9605
  657TMC3    C8 9785   4.348   0.824  15.155  0.2449 -0.9522  0.4937
  657TMC3    O1 9786   4.172   0.620  14.638  0.2003 -0.2712  0.7464
  657TMC3    O2 9787   4.330   0.933  15.110 -0.2308 -0.3960 -0.0052
  658MPD2     C 9788   1.328   1.029  14.593  0.1451 -0.3238  0.1978
  658MPD2    C1 9789   1.201   1.085  14.601 -0.6004  0.0205 -0.9530
  658MPD2    C2 9790   1.173   1.200  14.522  0.4656 -0.4196 -0.0763
  658MPD2    C3 9791   1.270   1.249  14.435 -0.8624 -0.0711 -0.0887
  658MPD2    C4 9792   1.382   1.183  14.411  1.1429 -0.6117 -0.8398
  658MPD2    C5 9793   1.416   1.080  14.496  0.1312  0.4500 -0.5006
  658MPD2     H 9794   1.081   1.257  14.532  1.7029  1.2058  1.9406
  658MPD2    H1 9795   1.447   1.214  14.330  0.7233 -1.6262 -1.5843
  658MPD2    H2 9796   1.350   0.943  14.655  2.0299 -1.9694 -2.7270
  658MPD2    H3 9797   1.512   1.032  14.477  1.3465  2.2597  0.9627
  658MPD2     N 9798   1.232   1.359  14.348 -0.3584  0.3601  0.8133
  658MPD2    H5 9799   1.139   1.397  14.361 -1.3880 -1.6741 -0.7391
  658MPD2    N1 9800   1.110   1.025  14.687 -0.1239 -0.1755 -0.1610
  658MPD2    H7 9801   1.122   0.931  14.724  1.8293 -0.6186 -1.8707
  659TMC3    C1 9802   0.934   1.022  14.838  0.3660 -0.2193 -0.0412
  659TMC3    C2 9803   0.879   1.081  14.952 -0.7407 -0.6332  0.1200
  659TMC3    C3 9804   0.817   0.993  15.039 -0.1954 -0.7390 -0.6370
  659TMC3    C4 9805   0.893   0.894  14.798 -0.4722  0.7744  0.6095
  659TMC3    C5 9806   0.797   0.836  14.864  0.0903 -0.2153  0.6714
  659TMC3    C6 9807   0.767   0.869  14.993 -0.1055 -0.7695 -0.4238
  659TMC3     C 9808   1.004   1.096  14.742 -0.2757 -0.7402  0.1005
  659TMC3     O 9809   0.977   1.216  14.732 -0.2950  0.5336  0.0947
  659TMC3     H 9810   0.917   1.177  14.986  1.3189 -1.5891  0.5182
  659TMC3    H1 9811   0.934   0.863  14.703 -1.3997 -1.1348  0.8369
  659TMC3    H2 9812   0.700   0.806  15.050 -0.4442  2.6753  3.0343
  659TMC3    C7 9813   0.694   0.782  14.783 -0.6426 -0.4929  0.0062
  659TMC3    C8 9814   0.761   1.042  15.164 -0.0472  1.0388 -0.9346
  659TMC3    O1 9815   0.723   0.748  14.668 -0.2488 -0.3505  0.1806
  659TMC3    O2 9816   0.757   1.164  15.174 -0.4559  0.0301 -0.3794
  660MPD2     C 9817   3.057   4.621  12.549 -0.1337 -0.4784 -0.3158
  660MPD2    C1 9818   2.935   4.559  12.555 -0.6895  0.0088  0.0899
  660MPD2    C2 9819   2.895   4.499  12.672  0.0048 -0.1215 -0.1521
  660MPD2    C3 9820   2.982   4.487  12.778 -0.0331  0.2428  0.0019
  660MPD2    C4 9821   3.109   4.539  12.766  0.0877  0.6435 -0.2262
  660MPD2    C5 9822   3.140   4.614  12.656 -0.4240  1.0361  0.6635
  660MPD2     H 9823   2.801   4.446  12.669 -0.0994  0.1731 -1.8536
  660MPD2    H1 9824   3.182   4.525  12.844 -2.1237  1.6682  2.0052
  660MPD2    H2 9825   3.105   4.667  12.464  3.1283  1.2191  2.4344
  660MPD2    H3 9826   3.229   4.674  12.643  0.1459  0.2982  1.1501
  660MPD2     N 9827   2.940   4.420  12.896  0.1777  0.2460  0.2363
  660MPD2    H5 9828   2.841   4.399  12.911  0.5834 -0.1551  2.4292
  660MPD2    N1 9829   2.870   4.552  12.432 -0.1298  0.3755 -0.5799
  660MPD2    H7 9830   2.913   4.596  12.351  0.3094  3.5206  1.3629
  661TMC3    C1 9831   2.685   4.527  12.281  0.5634  0.5417 -0.3665
  661TMC3    C2 9832   2.752   4.593  12.181  0.2839 -1.2763 -0.1164
  661TMC3    C3 9833   2.672   4.611  12.066 -0.3917 -0.2957 -0.5363
  661TMC3    C4 9834   2.566   4.456  12.257  0.5076 -0.0129  0.1622
  661TMC3    C5 9835   2.513   4.462  12.130  0.0297 -0.1891  0.2840
  661TMC3    C6 9836   2.553   4.554  12.038  0.1469 -0.0729  0.0521
  661TMC3     C 9837   2.738   4.512  12.417  0.0088  0.7494  0.0637
  661TMC3     O 9838   2.661   4.487  12.506  0.3157 -0.0136 -0.4649
  661TMC3     H 9839   2.845   4.647  12.187  0.6794 -1.9859  0.1750
  661TMC3    H1 9840   2.520   4.400  12.337 -0.3447  1.8341  0.9626
  661TMC3    H2 9841   2.502   4.570  11.943  0.2158 -2.2082 -0.3426
  661TMC3    C7 9842   2.423   4.354  12.091 -0.3101 -0.3728 -0.1466
  661TMC3    C8 9843   2.726   4.699  11.964 -0.0423 -0.2909  0.7076
  661TMC3    O1 9844   2.358   4.298  12.175 -0.2013 -0.7735 -0.4349
  661TMC3    O2 9845   2.844   4.722  11.973 -0.1822  0.2259  0.4510
  662MPD2     C 9846   3.242   4.370  17.087  0.5910 -0.4561  0.3286
  662MPD2    C1 9847   3.301   4.308  17.193  0.5577  0.6790 -1.3970
  662MPD2    C2 9848   3.288   4.361  17.321 -0.6154 -0.5983  0.2828
  662MPD2    C3 9849   3.223   4.481  17.348  0.1485  0.4156  0.4520
  662MPD2    C4 9850   3.167   4.546  17.241  0.0697 -0.2561  0.5857
  662MPD2    C5 9851   3.175   4.487  17.114  0.2542  0.4139 -0.0317
  662MPD2     H 9852   3.329   4.303  17.404  1.0077 -0.9573 -0.7593
  662MPD2    H1 9853   3.114   4.639  17.259 -0.2531 -0.3093 -0.0823
  662MPD2    H2 9854   3.248   4.333  16.985 -2.2340  0.7389 -0.2735
  662MPD2    H3 9855   3.123   4.526  17.027 -0.1372 -0.0021  0.0131
  662MPD2     N 9856   3.197   4.541  17.476  0.4276 -0.5656 -0.0405
  662MPD2    H5 9857   3.148   4.630  17.473 -0.4407 -1.0079  1.1741
  662MPD2    N1 9858   3.366   4.181  17.184 -0.3700  0.2772 -0.4649
  662MPD2    H7 9859   3.404   4.146  17.271 -0.3131 -1.1769 -1.0800
  663TMC3    C1 9860   3.431   3.966  17.086  0.2948  0.8285  0.4554
  663TMC3    C2 9861   3.495   3.931  17.201  0.3303  0.7859 -0.1326
  663TMC3    C3 9862   3.555   3.805  17.201  0.7785 -0.2750 -0.0311
  663TMC3    C4 9863   3.385   3.876  16.995  0.1956  0.1096  0.5928
  663TMC3    C5 9864   3.435   3.749  17.006 -0.8013 -0.4016  0.0654
  663TMC3    C6 9865   3.516   3.714  17.112 -0.1838  0.0923 -0.3785
  663TMC3     C 9866   3.374   4.101  17.070  0.9525  0.0254 -0.1342
  663TMC3     O 9867   3.324   4.125  16.962  0.1794  0.4068  0.0771
  663TMC3     H 9868   3.540   4.008  17.263 -0.8358  1.3391  0.0151
  663TMC3    H1 9869   3.339   3.912  16.904  3.1407  0.7883 -0.6431
  663TMC3    H2 9870   3.571   3.620  17.109 -0.1202  0.0970  0.6619
  663TMC3    C7 9871   3.411   3.651  16.901 -0.4168  0.1248 -0.3615
  663TMC3    C8 9872   3.589   3.748  17.327  0.9389 -0.0860 -0.7969
  663TMC3    O1 9873   3.352   3.698  16.802 -0.1070  0.1969  0.1197
  663TMC3    O2 9874   3.633   3.630  17.316 -0.3624 -1.2045 -0.7765
  664MPD2     C 9875   1.202   2.571  17.491 -0.3433 -0.1631  1.0498
  664MPD2    C1 9876   1.336   2.527  17.501 -0.1559  0.0464 -0.7458
  664MPD2    C2 9877   1.370   2.441  17.597 -0.2782 -0.5518 -0.7178
  664MPD2    C3 9878   1.295   2.412  17.705  0.1492  0.9749 -0.3140
  664MPD2    C4 9879   1.166   2.469  17.714  0.3231  0.5689 -0.1825
  664MPD2    C5 9880   1.125   2.548  17.604  0.1817  0.1991  0.1127
  664MPD2     H 9881   1.469   2.398  17.596  0.4460  1.0889 -0.6333
  664MPD2    H1 9882   1.098   2.458   0.047  0.1038  1.3100 -0.2670
  664MPD2    H2 9883   1.168   2.632  17.408  0.8064  2.5538  2.5783
  664MPD2    H3 9884   1.027   2.593  17.611  0.4800  0.8354  0.1769
  664MPD2     N 9885   1.351   2.309   0.045 -0.1497 -0.3570 -0.1458
  664MPD2    H5 9886   1.447   2.282   0.029  0.0780 -1.3826  2.9128
  664MPD2    N1 9887   1.432   2.546  17.404 -0.0505 -0.0474  0.3742
  664MPD2    H7 9888   1.522   2.500  17.419  0.2647  0.3378 -0.3397
  665TMC3    C1 9889   1.381   2.212   0.259 -0.6023  0.3309 -0.3411
  665TMC3    C2 9890   1.317   2.180   0.374  0.0583 -1.0354  0.4315
  665TMC3    C3 9891   1.389   2.178   0.494  0.0104  0.2501  0.0162
  665TMC3    C4 9892   1.515   2.255   0.264  0.0687  0.7052  0.4184
  665TMC3    C5 9893   1.574   2.269   0.389  0.3890 -0.9899 -0.3025
  665TMC3    C6 9894   1.512   2.230   0.507  0.6026  0.3093  0.0847
  665TMC3     C 9895   1.289   2.277   0.162 -0.1708  0.5194  0.2241
  665TMC3     O 9896   1.182   2.322   0.206 -0.1092 -0.2562  0.0458
  665TMC3     H 9897   1.213   2.152   0.366 -0.1234 -1.0117  2.7851
  665TMC3    H1 9898   1.570   2.295   0.180 -3.5132  0.4144 -2.0457
  665TMC3    H2 9899   1.551   2.254   0.605  1.5852  0.9306 -0.4514
  665TMC3    C7 9900   1.699   2.338   0.400  0.2068 -0.2387 -0.3534
  665TMC3    C8 9901   1.347   2.100   0.612 -0.7005  0.2729 -0.7469
  665TMC3    O1 9902   1.778   2.317   0.315 -0.4070 -0.5399  0.3061
  665TMC3    O2 9903   1.440   2.081   0.696  0.2842 -0.9231  0.1954
  666TMC3    C1 9904   1.084   1.940  10.193  0.3023  0.8286 -0.0723
  666TMC3    C2 9905   1.220   1.939  10.168  0.3006 -0.4328 -0.5465
  666TMC3    C3 9906   1.289   2.048  10.165  0.5379 -0.3020 -0.4138
  666TMC3    C4 9907   1.022   2.056  10.231 -0.5014 -0.3481  0.0588
  666TMC3    C5 9908   1.101   2.164  10.238 -0.3751 -0.6749 -0.0834
  666TMC3    C6 9909   1.233   2.163  10.205  0.4663  0.2283 -0.0744
  666TMC3     C 9910   1.002   1.829  10.166 -0.5581  0.1610 -0.4730
  666TMC3     O 9911   1.034   1.754  10.072  0.4401  0.6394 -0.6164
  666TMC3     H 9912   1.272   1.848  10.141  0.9423  0.1401 -1.2463
  666TMC3    H1 9913   0.915   2.059  10.246 -0.6633  0.2372 -1.2041
  666TMC3    H2 9914   1.296   2.251  10.212  1.4238 -0.5502  1.1642
  666TMC3    C7 9915   1.035   2.297  10.251 -1.0995  0.0703 -0.3089
  666TMC3    C8 9916   1.432   2.035  10.173  0.6216 -0.0880  0.1834
  666TMC3    O1 9917   0.929   2.306  10.312  0.0118 -0.3137  0.3259
  666TMC3    O2 9918   1.464   1.928  10.223 -0.3654 -0.2431  0.0702
  667MPD2     C 9919   2.675   2.404  14.658 -0.2760  0.3223  0.0499
  667MPD2    C1 9920   2.584   2.429  14.763 -0.1768 -0.1279  0.2188
  667MPD2    C2 9921   2.502   2.323  14.811  1.1715  0.0629 -0.0002
  667MPD2    C3 9922   2.494   2.197  14.756  1.6083  0.2510 -0.3858
  667MPD2    C4 9923   2.577   2.180  14.649  0.7739 -0.5999  0.1081
  667MPD2    C5 9924   2.664   2.278  14.599 -0.2053  0.0129  0.4922
  667MPD2     H 9925   2.435   2.349  14.893  1.9751  1.8080  0.1112
  667MPD2    H1 9926   2.579   2.090  14.589  2.3167 -1.1344  0.9757
  667MPD2    H2 9927   2.750   2.474  14.624  0.8393 -1.3579 -0.9547
  667MPD2    H3 9928   2.732   2.249  14.519 -1.7868 -1.4380 -0.3201
  667MPD2     N 9929   2.420   2.088  14.804 -0.4344  0.3733 -0.6885
  667MPD2    H5 9930   2.413   2.003  14.748  2.3389  0.6601 -1.4473
  667MPD2    N1 9931   2.572   2.551  14.824  0.0445 -0.3396  0.4374
  667MPD2    H7 9932   2.498   2.573  14.891  1.3490  1.2548  1.3700
  668TMC3    C1 9933   2.592   2.776  14.851 -0.0965 -0.9453 -0.0582
  668TMC3    C2 9934   2.678   2.877  14.892 -0.1877 -0.3051  0.1137
  668TMC3    C3 9935   2.630   2.994  14.947  0.5514 -0.4547 -0.2489
  668TMC3    C4 9936   2.458   2.801  14.862  0.1710  0.9501 -0.3512
  668TMC3    C5 9937   2.418   2.916  14.924 -0.2760 -0.2314  0.2145
  668TMC3    C6 9938   2.499   3.014  14.959  0.3796 -0.1897  0.6798
  668TMC3     C 9939   2.646   2.663  14.786 -0.0208  0.0081 -0.0561
  668TMC3     O 9940   2.762   2.671  14.747  0.6322 -0.2967  0.0491
  668TMC3     H 9941   2.781   2.842  14.892  0.5528  1.8638  2.0393
  668TMC3    H1 9942   2.393   2.727  14.818 -0.6904  0.6950  1.3552
  668TMC3    H2 9943   2.460   3.108  14.999  3.0157  0.9050  0.6482
  668TMC3    C7 9944   2.291   2.907  14.997  0.3520  0.3349 -0.3379
  668TMC3    C8 9945   2.722   3.101  14.989  0.9809  0.3210 -0.1275
  668TMC3    O1 9946   2.284   2.976  15.097  0.2675 -0.1616 -0.5245
  668TMC3    O2 9947   2.676   3.173  15.074 -0.0357  0.4160 -0.0225
  669TMC3    C1 9948   0.450   2.396  15.037  0.2369 -0.0874 -0.5432
  669TMC3    C2 9949   0.369   2.405  14.928 -0.1252  0.6582 -0.1896
  669TMC3    C3 9950   0.423   2.488  14.828  0.3033  0.1966 -0.3167
  669TMC3    C4 9951   0.567   2.461  15.055 -0.1567  0.3151  0.1379
  669TMC3    C5 9952   0.626   2.521  14.943 -0.6307 -1.3369 -0.0913
  669TMC3    C6 9953   0.553   2.535  14.830 -0.5628 -0.6067 -0.3911
  669TMC3     C 9954   0.411   2.302  15.143  0.0315  0.2131  0.0182
  669TMC3     O 9955   0.293   2.297  15.178  0.2548 -0.2976  0.5087
  669TMC3     H 9956   0.267   2.368  14.936  0.9773 -2.0980  0.9006
  669TMC3    H1 9957   0.619   2.444  15.149  0.6381 -2.0447 -0.7288
  669TMC3    H2 9958   0.599   2.575  14.740 -0.1128 -3.1055 -1.2828
  669TMC3    C7 9959   0.752   2.597  14.956  0.1897 -0.6446 -0.5321
  669TMC3    C8 9960   0.352   2.517  14.709  0.6294 -0.3855 -0.2421
  669TMC3    O1 9961   0.777   2.670  14.858 -0.0535  0.4449 -0.5205
  669TMC3    O2 9962   0.253   2.449  14.683  0.2041 -0.4682 -0.2769
  670MPD2     C 9963   3.781   0.123  13.355 -0.7029 -0.0210  0.2611
  670MPD2    C1 9964   3.835   0.088  13.476 -0.1858 -0.1460 -0.8135
  670MPD2    C2 9965   3.761   0.074  13.589 -1.1025 -0.0286 -0.2654
  670MPD2    C3 9966   3.622   0.074  13.582  0.0080 -0.2813  0.1721
  670MPD2    C4 9967   3.570   0.117  13.456 -0.5204 -0.1588  0.4965
  670MPD2    C5 9968   3.646   0.151  13.352 -0.1088  0.9476  0.2680
  670MPD2     H 9969   3.800   0.041  13.685  1.8855  1.5630 -0.8972
  670MPD2    H1 9970   3.465   0.143  13.449 -0.2426  0.9607  0.5520
  670MPD2    H2 9971   3.836   0.155  13.268 -0.2155 -1.5118  0.0068
  670MPD2    H3 9972   3.601   0.191  13.262  0.8753  0.6064 -0.3776
  670MPD2     N 9973   3.550   0.048  13.697 -0.0785  0.1785  0.0889
  670MPD2    H5 9974   3.611   0.026  13.775  0.9116 -1.1137 -1.0465
  670MPD2    N1 9975   3.975   0.071  13.491 -0.2452  0.5867 -0.1929
  670MPD2    H7 9976   4.014   0.069  13.585  0.4960  2.7167 -0.4385
  671TMC3    C1 9977   3.377   0.005  13.844 -0.5822 -0.3997  0.9853
  671TMC3    C2 9978   3.447   0.071  13.944  0.4628  0.6234  0.5347
  671TMC3    C3 9979   3.440   0.007  14.063 -0.2872 -0.3008 -0.3519
  671TMC3    C4 9980   3.290   4.645  13.855 -0.2820  0.7504 -0.7177
  671TMC3    C5 9981   3.273   4.591  13.974  0.2713 -0.1339 -0.1452
  671TMC3    C6 9982   3.355   4.633  14.078  0.1917  0.1114 -0.7645
  671TMC3     C 9983   3.413   0.026  13.706 -0.1415  0.4614  0.4070
  671TMC3     O 9984   3.334   0.017  13.612 -0.2237  0.1774 -0.0182
  671TMC3     H 9985   3.519   0.149  13.924  0.2357  0.2733 -1.5692
  671TMC3    H1 9986   3.237   4.606  13.769 -1.2830  3.4926 -1.3495
  671TMC3    H2 9987   3.347   4.601  14.182  0.4459 -1.3276 -1.1820
  671TMC3    C7 9988   3.207   4.461  13.970  0.2067 -0.1180  0.6152
  671TMC3    C8 9989   3.554   0.023  14.150  0.0580 -0.1891  0.0332
  671TMC3    O1 9990   3.209   4.405  13.862  0.8796 -0.2838 -0.2111
  671TMC3    O2 9991   3.621   0.128  14.137 -0.2868 -0.3582  0.5961
  672MPD2     C 9992   3.755   0.763   0.667  0.0926  0.6186 -0.9233
  672MPD2    C1 9993   3.855   0.675   0.634  0.3524 -0.2717  0.2575
  672MPD2    C2 9994   3.986   0.718   0.645  0.3176  0.0268 -0.0349
  672MPD2    C3 9995   4.015   0.843   0.711  0.3149  0.8443  0.0347
  672MPD2    C4 9996   3.919   0.925   0.751 -0.4037 -0.1852 -0.1424
  672MPD2    C5 9997   3.790   0.886   0.726  0.4722 -0.4887 -0.3136
  672MPD2     H 9998   4.063   0.650   0.608  0.0403  0.0682 -0.6909
  672MPD2    H1 9999   3.939   1.019   0.803  0.6093 -0.1760 -0.5430
  672MPD2    H210000   3.649   0.741   0.656  0.0595 -0.8494  2.2806
  672MPD2    H310001   3.716   0.955   0.764  2.0401  1.6832 -1.2109
  672MPD2     N10002   4.146   0.875   0.753 -0.0444 -0.1080  0.3474
  672MPD2    H510003   4.154   0.963   0.803  0.9427  0.6383 -1.1370
  672MPD2    N110004   3.827   0.555   0.567 -1.0127 -0.1162 -0.1733
  672MPD2    H710005   3.904   0.516   0.514 -0.8177  1.6110 -1.1574
  673TMC3    C110006   3.697   0.394   0.459 -0.0203  0.2704 -0.2104
  673TMC3    C210007   3.809   0.324   0.423  0.2580 -0.6229 -0.6087
  673TMC3    C310008   3.817   0.282   0.296 -0.2061  0.9636 -0.2193
  673TMC3    C410009   3.593   0.427   0.375  0.0499  0.2249 -0.3817
  673TMC3    C510010   3.613   0.391   0.247  0.2971  0.6176  0.2001
  673TMC3    C610011   3.720   0.313   0.205  0.7439 -0.2779 -0.1510
  673TMC3     C10012   3.704   0.490   0.567 -0.0171 -0.0987  0.7912
  673TMC3     O10013   3.600   0.524   0.621  0.0728  0.2689  0.5225
  673TMC3     H10014   3.866   0.291   0.509  0.9917  2.5785  0.1349
  673TMC3    H110015   3.503   0.466   0.421 -0.2550 -0.6882 -0.2100
  673TMC3    H210016   3.738   0.269   0.107  1.8751  0.3747 -0.2392
  673TMC3    C710017   3.533   0.462   0.143 -0.2045 -0.3814 -0.6206
  673TMC3    C810018   3.916   0.170   0.266 -0.4840 -0.0673  0.0145
  673TMC3    O110019   3.538   0.423   0.029  0.1108  0.0211  0.9566
  673TMC3    O210020   3.891   0.116   0.160 -0.3216  0.5385 -0.4978
  674MPD2     C10021   3.524   0.913  17.411  0.4123 -0.3139 -0.4026
  674MPD2    C110022   3.469   0.792  17.388 -0.0308  0.5980 -0.6007
  674MPD2    C210023   3.333   0.785  17.361 -0.1934 -0.4493 -0.2485
  674MPD2    C310024   3.249   0.891  17.370 -0.2354  0.1407  0.7740
  674MPD2    C410025   3.314   1.013  17.381  0.1725  0.2046 -0.4205
  674MPD2    C510026   3.448   1.026  17.405  0.2318  0.2182  0.6954
  674MPD2     H10027   3.280   0.693  17.337 -1.2592 -0.8826  3.8141
  674MPD2    H110028   3.254   1.103  17.379 -0.3399 -0.1127  0.4596
  674MPD2    H210029   3.627   0.916  17.442  0.8274  1.0063 -1.9012
  674MPD2    H310030   3.494   1.123  17.408 -2.8038  1.7414 -1.4925
  674MPD2     N10031   3.113   0.862  17.390 -0.2299  0.1183  0.7533
  674MPD2    H510032   3.080   0.766  17.388  1.7143 -0.5500  1.4081
  674MPD2    N110033   3.546   0.678  17.391 -0.1323  0.1719 -0.2917
  674MPD2    H710034   3.633   0.701  17.438 -0.3859  1.3599 -0.3975
  675TMC3    C110035   3.610   0.451  17.391  0.0791 -0.2429  0.0034
  675TMC3    C210036   3.562   0.324  17.396  0.2945 -0.6822 -0.0295
  675TMC3    C310037   3.626   0.235  17.475 -0.2121  0.4440 -0.1334
  675TMC3    C410038   3.707   0.500  17.474 -0.0877  0.5431  0.0852
  675TMC3    C510039   3.771   0.403  17.544 -0.5750 -0.0548  0.4830
  675TMC3    C610040   3.743   0.270  17.536 -1.3597  0.1847 -0.0565
  675TMC3     C10041   3.517   0.550  17.348  0.8050  0.2605  0.0260
  675TMC3     O10042   3.419   0.514  17.281 -0.0465 -0.0138 -0.9367
  675TMC3     H10043   3.477   0.299  17.334 -0.5742  2.0972  0.0660
  675TMC3    H110044   3.756   0.596  17.464 -0.3978  0.7633  0.6423
  675TMC3    H210045   3.795   0.210  17.610 -1.3172  3.3699  2.5184
  675TMC3    C710046   3.867   0.441  17.643  0.2682  0.2245 -0.1467
  675TMC3    C810047   3.537   0.160  17.556 -0.7653 -0.2478 -0.5237
  675TMC3    O110048   3.957   0.355  17.666  0.3600  0.4368 -0.1641
  675TMC3    O210049   3.587   0.071  17.623 -0.3207  0.9632 -0.4799
  676MPD2     C10050   2.149   2.812  10.997 -0.3045 -0.5510  0.1410
  676MPD2    C110051   2.023   2.817  10.939 -0.5159  0.1363  0.0693
  676MPD2    C210052   1.956   2.704  10.898 -0.4918 -0.7277 -0.3588
  676MPD2    C310053   2.016   2.579  10.925  1.2802  0.3050  0.3971
  676MPD2    C410054   2.138   2.579  10.978 -0.6246  0.2137 -0.5212
  676MPD2    C510055   2.201   2.690  11.015  0.0448  0.4001 -0.1768
  676MPD2     H10056   1.863   2.707  10.842 -0.5707 -0.5799 -0.2217
  676MPD2    H110057   2.188   2.487  11.005 -0.6167  0.6363  0.9153
  676MPD2    H210058   2.196   2.899  11.040 -1.5739  0.7520 -1.0970
  676MPD2    H310059   2.298   2.685  11.063 -0.7356  0.8668  1.4405
  676MPD2     N10060   1.946   2.455  10.902  0.1407 -0.5153 -0.4402
  676MPD2    H510061   1.989   2.372  10.941  1.1903 -1.2327 -3.1448
  676MPD2    N110062   1.963   2.937  10.913  0.0686 -0.4009  0.4433
  676MPD2    H710063   1.872   2.929  10.868 -0.7145  3.0774  1.3661
  677TMC3    C110064   1.917   3.167  10.894  0.4495  0.2509  0.5346
  677TMC3    C210065   1.784   3.138  10.880  0.7917  0.3238  0.8732
  677TMC3    C310066   1.698   3.244  10.893  0.0313  0.3354 -0.0971
  677TMC3    C410067   1.971   3.290  10.898  0.0146 -0.2261  0.2430
  677TMC3    C510068   1.878   3.395  10.912 -0.9719 -0.5032  0.5103
  677TMC3    C610069   1.739   3.375  10.911  0.1548  0.5431  0.4821
  677TMC3     C10070   2.009   3.066  10.941  0.3599 -0.0228 -0.4888
  677TMC3     O10071   2.110   3.102  11.006  0.4585 -0.0458 -0.0130
  677TMC3     H10072   1.752   3.034  10.877  0.7708  0.3603 -0.1211
  677TMC3    H110073   2.078   3.305  10.885  0.6916 -3.4171  2.1110
  677TMC3    H210074   1.670   3.458  10.912  1.9545  2.0370 -0.6954
  677TMC3    C710075   1.924   3.500  10.998  0.1665  0.3260  0.4133
  677TMC3    C810076   1.560   3.218  10.866  0.3694  0.0859 -0.0873
  677TMC3    O110077   2.044   3.531  10.980  0.7097  0.0681 -0.0875
  677TMC3    O210078   1.531   3.168  10.758 -0.0930 -0.1849  0.0842
  678MPD2     C10079   2.645   3.658   1.390  0.1029  0.0656  0.0647
  678MPD2    C110080   2.701   3.600   1.280 -1.0745 -0.2811 -0.0116
  678MPD2    C210081   2.622   3.521   1.198  0.1892  0.3522  0.2620
  678MPD2    C310082   2.490   3.501   1.215  0.3690 -0.4219 -0.0290
  678MPD2    C410083   2.430   3.569   1.321 -0.1606  0.3896  0.2583
  678MPD2    C510084   2.510   3.641   1.401  0.1695 -0.8981 -0.0363
  678MPD2     H10085   2.673   3.475   1.114 -1.1853 -0.1761 -0.2767
  678MPD2    H110086   2.326   3.555   1.346 -0.5751  0.9673 -1.1133
  678MPD2    H210087   2.690   3.732   1.457  0.8377 -0.6954  0.4084
  678MPD2    H310088   2.463   3.697   1.481 -2.2616  0.4060 -2.3779
  678MPD2     N10089   2.426   3.432   1.115  0.3345  1.2963 -0.1854
  678MPD2    H510090   2.482   3.385   1.045 -0.8836  1.3044 -1.1541
  678MPD2    N110091   2.836   3.624   1.240  0.2676  0.1473  0.3049
  678MPD2    H710092   2.878   3.576   1.162 -0.5694  0.5161 -0.3746
  679TMC3    C110093   3.208   3.530   1.177 -0.0495 -0.2429 -0.4370
  679TMC3    C210094   3.088   3.551   1.244  0.4552 -0.2584  0.3637
  679TMC3    C310095   3.057   3.687   1.261 -0.5130 -0.1395  0.1775
  679TMC3    C410096   3.296   3.631   1.148 -0.3160 -0.1328  0.3340
  679TMC3    C510097   3.249   3.760   1.168 -0.2405  0.3687 -0.1888
  679TMC3    C610098   3.131   3.791   1.221  0.2972  0.3059 -0.1708
  679TMC3     C10099   3.257   3.403   1.129 -0.0941  0.1541  0.2010
  679TMC3     O10100   3.363   3.405   1.073  0.3296 -0.2882  0.3177
  679TMC3     H10101   3.026   3.466   1.271 -0.2532 -0.4479 -1.8806
  679TMC3    H110102   3.386   3.624   1.087 -0.4134  0.9221  0.0674
  679TMC3    H210103   3.107   3.895   1.236  2.9667  0.7152  1.3936
  679TMC3    C710104   3.303   3.865   1.080  0.0612  0.2089 -0.7134
  679TMC3    C810105   2.924   3.708   1.306  0.1151 -0.4625 -0.0752
  679TMC3    O110106   3.231   3.963   1.064  0.2623 -0.0768  1.2113
  679TMC3    O210107   2.900   3.811   1.368  0.0985 -0.1534 -0.1655
  680MPD2     C10108   3.178   2.046  13.089 -0.1792  0.0163  0.8823
  680MPD2    C110109   3.243   1.970  13.193  0.2104 -0.1353  0.8867
  680MPD2    C210110   3.303   2.026  13.300 -0.3312  0.4459  0.2110
  680MPD2    C310111   3.306   2.159  13.315  0.0259  0.5891 -0.3921
  680MPD2    C410112   3.249   2.232  13.214  0.4840 -0.7683  0.2470
  680MPD2    C510113   3.186   2.178  13.106 -0.7362 -0.2682  0.6301
  680MPD2     H10114   3.350   1.954  13.366  1.1939 -1.3412 -2.7667
  680MPD2    H110115   3.239   2.340  13.224  0.6494 -0.7141 -0.1722
  680MPD2    H210116   3.149   1.989  13.002 -1.0165  2.2076 -0.2662
  680MPD2    H310117   3.147   2.240  13.027  1.2004 -1.2858 -1.1260
  680MPD2     N10118   3.351   2.237  13.425  0.4842  0.7084 -0.6971
  680MPD2    H510119   3.344   2.338  13.425 -0.4914  0.6494  0.3630
  680MPD2    N110120   3.252   1.833  13.174 -0.1323 -0.2463 -0.2872
  680MPD2    H710121   3.318   1.782  13.231 -0.4423 -1.8627 -1.3569
  681TMC3    C110122   3.213   1.620  13.112  0.2582 -0.2491  0.3526
  681TMC3    C210123   3.122   1.530  13.151  0.6450  0.0792  0.1570
  681TMC3    C310124   3.157   1.420  13.229 -0.9224  0.1472  0.9318
  681TMC3    C410125   3.347   1.593  13.139 -0.0538 -0.7672  0.1561
  681TMC3    C510126   3.387   1.475  13.201  0.0385 -0.1522  0.0999
  681TMC3    C610127   3.291   1.392  13.252 -0.0374 -0.1420 -0.0479
  681TMC3     C10128   3.170   1.756  13.101  0.3208 -0.7447 -0.8625
  681TMC3     O10129   3.058   1.774  13.053 -0.2105 -0.6528  0.1428
  681TMC3     H10130   3.017   1.559  13.156  0.3440 -0.7274 -1.3901
  681TMC3    H110131   3.426   1.659  13.107 -0.9295  0.1815 -0.0236
  681TMC3    H210132   3.329   1.306  13.306  0.5116  0.2566  0.1996
  681TMC3    C710133   3.519   1.467  13.250 -0.7394 -0.2883  0.2309
  681TMC3    C810134   3.071   1.430  13.351 -0.2650 -0.6203 -0.3144
  681TMC3    O110135   3.540   1.387  13.340 -0.1842  0.4884 -0.3533
  681TMC3    O210136   2.951   1.415  13.333 -0.2063  0.2953 -0.5291
  682MPD2     C10137   0.546   3.502  10.675  0.3071  0.5034  0.1891
  682MPD2    C110138   0.536   3.401  10.768 -0.6466  0.2585 -0.2411
  682MPD2    C210139   0.518   3.433  10.899 -1.0279  0.2085  0.4357
  682MPD2    C310140   0.518   3.565  10.945  0.0237  0.2949 -0.3122
  682MPD2    C410141   0.532   3.665  10.849  0.1833  0.3101  0.2159
  682MPD2    C510142   0.543   3.634  10.715  0.8344  0.0065 -0.1893
  682MPD2     H10143   0.509   3.349  10.966 -0.5926  0.1763  0.4555
  682MPD2    H110144   0.516   3.769  10.877  0.2288  0.3253  0.1864
  682MPD2    H210145   0.558   3.484  10.568  1.2791 -1.7410  0.6578
  682MPD2    H310146   0.534   3.714  10.642 -0.3841 -1.2725 -1.4456
  682MPD2     N10147   0.519   3.596  11.080  0.9156  0.2813  0.6229
  682MPD2    H510148   0.533   3.692  11.109 -0.0190  0.9204 -1.0367
  682MPD2    N110149   0.549   3.263  10.733 -0.1165 -0.7022 -0.2111
  682MPD2    H710150   0.552   3.189  10.802 -0.3661 -1.4630 -1.0117
  683TMC3    C110151   0.696   3.622  11.410  0.3555 -0.1002  0.0023
  683TMC3    C210152   0.733   3.500  11.455  0.7796 -0.4183  0.5423
  683TMC3    C310153   0.652   3.399  11.415  0.3708  0.6053  0.2444
  683TMC3    C410154   0.588   3.637  11.332  0.0412 -0.3902 -0.0745
  683TMC3    C510155   0.507   3.532  11.305  0.5473 -0.2375  0.4394
  683TMC3    C610156   0.532   3.414  11.358 -0.5512 -0.0077  1.0142
  683TMC3     C10157   0.748   3.736  11.485 -0.0442  0.2593 -0.6763
  683TMC3     O10158   0.679   3.836  11.495 -0.3519 -0.2551 -0.1805
  683TMC3     H10159   0.812   3.491  11.528  1.3431 -0.4564 -0.0653
  683TMC3    H110160   0.565   3.740  11.306 -0.9986 -0.8364 -0.9324
  683TMC3    H210161   0.465   3.331  11.338 -0.2666  0.2301 -0.9636
  683TMC3    C710162   0.467   3.504  11.172  0.4504 -0.1035 -1.1798
  683TMC3    C810163   0.706   3.273  11.456  0.4862  0.5385 -0.0375
  683TMC3    O110164   0.396   3.403  11.155  0.2341  0.1740  0.0637
  683TMC3    O210165   0.822   3.267  11.475  0.5998  0.4536 -0.0963
  684MPD2     C10166   3.741   2.690  16.289  0.2262  0.1176  0.4567
  684MPD2    C110167   3.738   2.712  16.152 -0.1867 -0.0531 -0.2723
  684MPD2    C210168   3.715   2.844  16.116 -0.4645  0.1333  0.0502
  684MPD2    C310169   3.719   2.947  16.214  0.2564  0.2590 -0.1719
  684MPD2    C410170   3.710   2.918  16.353 -0.2227 -0.5131 -0.0234
  684MPD2    C510171   3.726   2.790  16.384  0.5442 -0.1085  0.3162
  684MPD2     H10172   3.721   2.870  16.011  2.4353  0.3400  0.2669
  684MPD2    H110173   3.716   2.990  16.434 -1.6304 -0.1588 -0.2334
  684MPD2    H210174   3.771   2.596  16.334 -2.5509 -0.3151  1.4530
  684MPD2    H310175   3.731   2.764  16.489  2.4461 -1.2869 -0.0689
  684MPD2     N10176   3.732   3.082  16.177 -0.0315  0.9427 -0.5152
  684MPD2    H510177   3.732   3.154  16.249  2.5287 -1.4800  1.9373
  684MPD2    N110178   3.771   2.616  16.059 -0.6168  0.4112 -0.0175
  684MPD2    H710179   3.775   2.654  15.964 -0.1730 -2.4343 -1.1409
  685TMC3    C110180   3.832   2.431  15.938  0.6848  0.2525  0.5198
  685TMC3    C210181   3.748   2.465  15.839 -0.0743  0.0481 -0.2607
  685TMC3    C310182   3.799   2.496  15.715 -0.1669  0.5572 -0.4756
  685TMC3    C410183   3.972   2.431  15.919  0.6220 -0.0716  0.4876
  685TMC3    C510184   4.011   2.467  15.795  0.0072 -0.4777 -0.2758
  685TMC3    C610185   3.932   2.506  15.693 -0.1674  0.5630  0.4361
  685TMC3     C10186   3.808   2.485  16.070  0.6444  0.0025  0.2384
  685TMC3     O10187   3.851   2.417  16.163 -0.0631 -0.1360 -0.0973
  685TMC3     H10188   3.644   2.468  15.869 -0.3667 -2.6239 -0.9748
  685TMC3    H110189   4.025   2.426  16.013  0.2830 -1.9642  0.5842
  685TMC3    H210190   3.969   2.541  15.597 -0.9715 -0.1192 -0.1154
  685TMC3    C710191   4.155   2.516  15.791  0.2097  0.0839 -0.3377
  685TMC3    C810192   3.713   2.578  15.621  0.4723 -0.8894 -0.6921
  685TMC3    O110193   4.189   2.577  15.690 -0.4451 -0.4442  0.8287
  685TMC3    O210194   3.733   2.605  15.504 -0.1655 -0.0816  0.2783
  686MPD2     C10195   4.470   2.949  15.325  0.3160 -0.4631 -0.2423
  686MPD2    C110196   4.499   2.820  15.371  0.2012 -0.3241 -0.8817
  686MPD2    C210197   4.606   2.799  15.454  0.2177  0.3223 -0.2352
  686MPD2    C310198   4.693   2.905  15.481  0.3036 -0.7198 -0.0228
  686MPD2    C410199   4.667   3.033  15.430 -0.3763  0.2603 -0.4120
  686MPD2    C510200   4.564   3.051  15.348  0.4150 -0.5066 -0.3841
  686MPD2     H10201   4.623   2.707  15.508 -2.3749  0.9752  1.6764
  686MPD2    H110202   4.735   3.115  15.447  0.3878 -0.3358 -0.5934
  686MPD2    H210203   4.386   2.973  15.262  1.5407  0.5196 -1.4930
  686MPD2    H310204   4.550   3.148  15.301  0.0191 -0.7011 -0.6737
  686MPD2     N10205   0.068   2.892  15.557  0.0961  0.0222 -0.3219
  686MPD2    H510206   0.114   2.981  15.577 -0.0313 -0.4864  2.2646
  686MPD2    N110207   4.401   2.723  15.338  0.1362  0.5288  0.0248
  686MPD2    H710208   4.331   2.756  15.272  0.8180 -0.1645 -1.0418
  687TMC3    C110209   0.248   2.801  15.675  0.7202  0.2066 -0.2687
  687TMC3    C210210   0.331   2.892  15.611 -0.2285  0.1170  0.3739
  687TMC3    C310211   0.446   2.926  15.676 -0.4506  0.2862 -0.1124
  687TMC3    C410212   0.264   2.756  15.802 -0.0328  0.1867  0.0218
  687TMC3    C510213   0.380   2.810  15.865 -0.0804  0.4569 -1.0121
  687TMC3    C610214   0.461   2.901  15.806  0.5534 -0.0771 -0.1573
  687TMC3     C10215   0.118   2.773  15.615 -0.4729 -0.3062 -0.7585
  687TMC3     O10216   0.071   2.659  15.628  0.3498 -0.2034 -0.1242
  687TMC3     H10217   0.315   2.917  15.507  0.1234  2.2681  0.8471
  687TMC3    H110218   0.190   2.693  15.850  0.3732 -0.4771 -0.2338
  687TMC3    H210219   0.541   2.936  15.870 -1.2019 -0.3367  2.2116
  687TMC3    C710220   0.383   2.814  16.013  0.1647 -0.0302 -0.8676
  687TMC3    C810221   0.502   3.050  15.638  0.0026  0.2155  0.1808
  687TMC3    O110222   0.490   2.823  16.066  0.0062 -0.3875 -0.7989
  687TMC3    O210223   0.619   3.064  15.669 -0.1676 -0.3774 -0.6822
  688MPD2     C10224   4.170   1.809  17.263 -0.2836 -0.9196  0.6361
  688MPD2    C110225   4.195   1.672  17.289 -1.0103 -0.4662  0.1056
  688MPD2    C210226   4.298   1.604  17.222 -0.2078  0.3715  0.1025
  688MPD2    C310227   4.382   1.681  17.144 -0.0836 -0.1645  0.0324
  688MPD2    C410228   4.356   1.813  17.125  0.3510  0.5635  0.0735
  688MPD2    C510229   4.246   1.881  17.171  0.1166 -0.7578 -0.5750
  688MPD2     H10230   4.312   1.499  17.244  0.7087  0.7327  1.2427
  688MPD2    H110231   4.411   1.877  17.058  0.1197  1.3550  0.6309
  688MPD2    H210232   4.080   1.863  17.289  0.0653  1.0389 -2.0793
  688MPD2    H310233   4.236   1.983  17.135  2.4293 -0.1884  0.4176
  688MPD2     N10234   4.501   1.643  17.079  0.6742  1.3572  0.2574
  688MPD2    H510235   4.549   1.716  17.027  1.3880  0.3339 -0.5224
  688MPD2    N110236   4.110   1.600  17.371  0.4275 -0.8894 -0.1092
  688MPD2    H710237   4.133   1.503  17.385 -0.8478 -1.1897 -0.0680
  689TMC3    C110238   3.966   1.561  17.554 -0.2478  0.8777 -0.0663
  689TMC3    C210239   3.910   1.623  17.657 -0.2806  0.0787  0.4266
  689TMC3    C310240   3.870   1.549   0.012  0.2825 -0.2120  0.2367
  689TMC3    C410241   3.972   1.426  17.538  0.5417  0.2808  0.6453
  689TMC3    C510242   3.927   1.353  17.646 -0.1690  0.0161 -0.3133
  689TMC3    C610243   3.871   1.410   0.010  0.2902 -0.1859  0.1605
  689TMC3     C10244   4.018   1.653  17.455 -0.1294 -0.2230 -0.6168
  689TMC3     O10245   3.975   1.765  17.466 -0.0562  0.1147  0.2188
  689TMC3     H10246   3.908   1.731  17.664  0.5225  0.2062 -1.3288
  689TMC3    H110247   4.028   1.374  17.461 -0.3990 -2.9295  2.1257
  689TMC3    H210248   3.846   1.351   0.097  0.6728 -0.1328  0.3051
  689TMC3    C710249   3.914   1.213  17.639  0.6977 -0.6093  0.2217
  689TMC3    C810250   3.880   1.606   0.144  0.3416 -0.0401 -0.1394
  689TMC3    O110251   3.919   1.136  17.735 -0.9815  0.2508  0.2641
  689TMC3    O210252   3.853   1.538   0.244  0.1058 -0.4936 -0.1096
  690MPD2     C10253   1.782   3.535  15.750  0.4239 -0.4026 -1.0457
  690MPD2    C110254   1.703   3.504  15.640 -0.1363  0.8937 -0.3855
  690MPD2    C210255   1.730   3.577  15.523  0.6084 -0.1097  0.2733
  690MPD2    C310256   1.836   3.671  15.516  0.1822  0.5255  0.2251
  690MPD2    C410257   1.923   3.681  15.621 -0.7252 -1.1523 -0.2232
  690MPD2    C510258   1.895   3.612  15.741 -0.9808  0.1388  0.6470
  690MPD2     H10259   1.668   3.542  15.441 -0.4910  1.7915  0.3201
  690MPD2    H110260   2.004   3.752  15.633 -1.6378  0.0228 -0.9698
  690MPD2    H210261   1.757   3.481  15.840  2.7802 -0.2859 -0.3447
  690MPD2    H310262   1.967   3.625  15.821 -0.6780 -2.0173  0.7254
  690MPD2     N10263   1.860   3.727  15.387  0.0282 -0.5780  0.6066
  690MPD2    H510264   1.797   3.714  15.309 -0.6030 -0.6757  1.1318
  690MPD2    N110265   1.604   3.406  15.637 -0.2612 -0.4351 -0.2832
  690MPD2    H710266   1.542   3.399  15.557 -1.7365 -3.6372  1.1297
  691TMC3    C110267   1.471   3.230  15.717  0.6797 -0.3332  0.0976
  691TMC3    C210268   1.371   3.266  15.628  0.4651 -0.6129 -0.1283
  691TMC3    C310269   1.240   3.217  15.644  0.0592  1.1043 -0.8973
  691TMC3    C410270   1.426   3.148  15.819 -0.0408 -0.0014  0.6934
  691TMC3    C510271   1.298   3.102  15.830 -0.0224 -0.1692  0.1498
  691TMC3    C610272   1.203   3.125  15.736  1.1181  0.4972 -0.3734
  691TMC3     C10273   1.597   3.310  15.725 -0.9652  0.6815 -0.0633
  691TMC3     O10274   1.670   3.276  15.816 -0.6113  0.2977  0.8937
  691TMC3     H10275   1.387   3.317  15.533 -3.4225  1.7588  0.4729
  691TMC3    H110276   1.498   3.139  15.900  0.3952  0.1638  0.3222
  691TMC3    H210277   1.096   3.108  15.745  0.7822  1.5185 -2.4945
  691TMC3    C710278   1.260   3.024  15.946  0.3199  0.4675  0.7345
  691TMC3    C810279   1.150   3.227  15.536  0.5185 -0.1748  0.3766
  691TMC3    O110280   1.341   3.020  16.034  0.4976 -0.3184 -0.0894
  691TMC3    O210281   1.071   3.132  15.523 -0.4164 -0.0306  0.3523
  692TMC3    C110282   3.405   4.291  15.428 -0.0639  0.2484 -0.3887
  692TMC3    C210283   3.534   4.308  15.468 -0.2465  0.0974  0.3513
  692TMC3    C310284   3.611   4.197  15.487  0.5752  0.9078 -0.5273
  692TMC3    C410285   3.360   4.168  15.395 -0.1005  0.5875 -0.3806
  692TMC3    C510286   3.445   4.065  15.399  0.4771 -0.1592  0.3941
  692TMC3    C610287   3.577   4.082  15.424  0.5764  0.6090  0.1191
  692TMC3     C10288   3.310   4.397  15.455 -0.5828  0.4025  0.4103
  692TMC3     O10289   3.193   4.373  15.455  0.4922  0.0960 -0.5030
  692TMC3     H10290   3.563   4.399  15.520 -1.3005  0.5704  0.1028
  692TMC3    H110291   3.259   4.152  15.359  0.3117 -0.5432 -1.0677
  692TMC3    H210292   3.639   3.994  15.441 -0.6575  0.0340  1.7161
  692TMC3    C710293   3.387   3.936  15.423 -0.6455 -0.5039  0.0191
  692TMC3    C810294   3.620   4.170  15.633  0.1515 -0.2758  0.1633
  692TMC3    O110295   3.273   3.922  15.378 -0.2312 -0.0456  0.2974
  692TMC3    O210296   3.621   4.051  15.662  0.3098 -0.0417  0.2590
  693MPD2     C10297   3.157   2.715  10.428 -0.9416 -0.6596 -0.1202
  693MPD2    C110298   3.075   2.612  10.462 -0.0282 -0.2168  0.2421
  693MPD2    C210299   3.140   2.505  10.514 -0.2766  0.0299 -0.2906
  693MPD2    C310300   3.275   2.507  10.553  0.1782  0.0192 -0.0908
  693MPD2    C410301   3.353   2.618  10.519 -0.3133 -0.0844 -0.5281
  693MPD2    C510302   3.291   2.724  10.458  0.3512  0.0953 -0.0162
  693MPD2     H10303   3.092   2.409  10.532  0.2804 -0.0148  0.9376
  693MPD2    H110304   3.454   2.635  10.555 -1.2232  2.0193  1.0184
  693MPD2    H210305   3.110   2.800  10.379  0.7821  1.2946  1.6576
  693MPD2    H310306   3.345   2.811  10.424  1.6825 -0.4389  0.7346
  693MPD2     N10307   3.335   2.398  10.620 -0.1795 -0.4650 -0.5550
  693MPD2    H510308   3.433   2.402  10.647 -1.1687 -1.6830  3.1324
  693MPD2    N110309   2.936   2.617  10.451  0.1770  0.0041 -0.3763
  693MPD2    H710310   2.892   2.708  10.451  1.3261  0.5632 -2.2791
  694TMC3    C110311   2.720   2.548  10.459  0.2783  0.5804 -0.6049
  694TMC3    C210312   2.625   2.476  10.395 -0.3358 -0.5229 -0.3537
  694TMC3    C310313   2.500   2.442  10.450  0.1897  0.1342 -0.3880
  694TMC3    C410314   2.686   2.591  10.586  0.3947 -0.2931 -0.4011
  694TMC3    C510315   2.569   2.544  10.644 -0.8330  0.0320  0.2810
  694TMC3    C610316   2.470   2.473  10.574  0.2093 -0.0547 -0.3381
  694TMC3     C10317   2.858   2.506  10.446 -0.4608  0.5126  0.4859
  694TMC3     O10318   2.884   2.384  10.446 -0.7936 -0.5072  0.3071
  694TMC3     H10319   2.654   2.429  10.302 -3.1094 -2.3072 -0.3255
  694TMC3    H110320   2.758   2.635  10.655  0.5220 -0.7958 -0.2175
  694TMC3    H210321   2.375   2.447  10.619 -1.0099  2.7544 -1.3145
  694TMC3    C710322   2.580   2.534  10.794 -0.3073  0.7973 -0.3874
  694TMC3    C810323   2.406   2.370  10.369 -0.3910  0.0707 -0.0644
  694TMC3    O110324   2.647   2.622  10.841 -0.2435  1.1442 -0.0700
  694TMC3    O210325   2.326   2.309  10.437 -0.4051 -0.2372  0.2231
  695MPD2     C10326   3.788   3.653  13.822 -0.8990 -0.6670 -0.3838
  695MPD2    C110327   3.765   3.791  13.832 -0.6433  0.3953  0.1078
  695MPD2    C210328   3.646   3.849  13.789 -0.2976 -0.2956  0.2582
  695MPD2    C310329   3.546   3.768  13.738 -0.3691  0.1451  0.2060
  695MPD2    C410330   3.579   3.636  13.723  0.5081 -0.0184 -0.3227
  695MPD2    C510331   3.696   3.579  13.762  0.0126  0.8126 -0.4038
  695MPD2     H10332   3.628   3.956  13.795  3.3283  0.2942  0.6661
  695MPD2    H110333   3.504   3.577  13.672  0.0944 -0.3373  0.6451
  695MPD2    H210334   3.871   3.602  13.870  0.0302 -0.2414 -1.5295
  695MPD2    H310335   3.719   3.477  13.734  0.5248  0.7664  0.1748
  695MPD2     N10336   3.416   3.823  13.702 -0.3087  0.1931 -0.0313
  695MPD2    H510337   3.403   3.922  13.685 -1.3692  0.3155  1.5296
  695MPD2    N110338   3.843   3.879  13.915 -0.4754  0.0172 -0.1118
  695MPD2    H710339   3.823   3.978  13.906  0.1395  0.0723 -0.9349
  696TMC3    C110340   3.197   3.850  13.688  0.1670  1.2235  0.1109
  696TMC3    C210341   3.097   3.856  13.781  0.3302 -0.3298  0.0064
  696TMC3    C310342   2.984   3.922  13.752  0.4615 -0.1655  0.6468
  696TMC3    C410343   3.177   3.907  13.567  0.2596 -0.3964 -0.5356
  696TMC3    C510344   3.064   3.977  13.546  1.1152 -0.6855 -0.3916
  696TMC3    C610345   2.962   3.977  13.633 -0.0761 -0.4463 -0.1175
  696TMC3     C10346   3.300   3.751  13.697  0.6743  0.1078  0.3861
  696TMC3     O10347   3.251   3.641  13.733 -0.0582 -0.0646 -0.1677
  696TMC3     H10348   3.095   3.789  13.866 -2.8031  1.6836  1.5386
  696TMC3    H110349   3.245   3.877  13.488 -1.0622  0.8028 -2.1309
  696TMC3    H210350   2.877   4.038  13.605  0.2225  0.5750  1.2295
  696TMC3    C710351   3.093   4.103  13.484  0.2278  0.4364  0.1932
  696TMC3    C810352   2.949   4.022  13.848  1.0277  0.0992 -0.1298
  696TMC3    O110353   3.171   4.100  13.391 -0.3305 -0.3408  0.2720
  696TMC3    O210354   2.921   4.136  13.804  0.1851  0.3002 -0.0013
  697MPD2     C10355   3.406   1.270  15.675  0.8619 -0.0832  0.2369
  697MPD2    C110356   3.378   1.248  15.544  0.3634  0.2750 -0.5878
  697MPD2    C210357   3.414   1.341  15.454 -0.1288  1.2626 -0.2099
  697MPD2    C310358   3.491   1.455  15.477  0.5278 -0.3170 -0.5328
  697MPD2    C410359   3.526   1.473  15.610  0.1583 -0.1588  0.5018
  697MPD2    C510360   3.478   1.383  15.705 -0.0950 -0.1661  0.3494
  697MPD2     H10361   3.395   1.305  15.353  3.5854  0.7378 -0.7346
  697MPD2    H110362   3.579   1.561  15.644  1.2054 -1.3952  2.0602
  697MPD2    H210363   3.393   1.202  15.759  0.6139  0.1786  0.4122
  697MPD2    H310364   3.509   1.401  15.807  2.2369  1.4842 -0.6505
  697MPD2     N10365   3.530   1.542  15.372  0.2966 -0.5008 -0.7679
  697MPD2    H510366   3.593   1.618  15.395  1.9277 -2.3482  0.8283
  697MPD2    N110367   3.294   1.140  15.504  0.4492  0.1287 -0.3407
  697MPD2    H710368   3.289   1.130  15.403 -1.2039 -1.4868 -0.0981
  698TMC3    C110369   3.556   1.616  15.151  0.1769 -0.3396 -0.5158
  698TMC3    C210370   3.679   1.658  15.181 -0.0424 -0.3859 -0.0873
  698TMC3    C310371   3.756   1.710  15.082  0.2634  0.4632 -0.3101
  698TMC3    C410372   3.506   1.623  15.020  0.1081  0.0751 -0.3582
  698TMC3    C510373   3.586   1.676  14.926  0.7552  0.0762 -0.0557
  698TMC3    C610374   3.714   1.719  14.953 -0.5937  0.2877  0.0981
  698TMC3     C10375   3.472   1.544  15.246 -0.1920 -0.5003  0.5605
  698TMC3     O10376   3.378   1.477  15.201 -0.0550  0.3647 -0.0480
  698TMC3     H10377   3.718   1.654  15.282 -1.3541 -0.0458  0.4270
  698TMC3    H110378   3.402   1.600  15.002  0.4112 -2.5592  1.3051
  698TMC3    H210379   3.772   1.778  14.882 -0.8999  0.6442  0.1422
  698TMC3    C710380   3.531   1.667  14.788 -0.0760  0.1719  0.4270
  698TMC3    C810381   3.887   1.755  15.126  0.1573  0.3118  0.5539
  698TMC3    O110382   3.414   1.627  14.779 -0.0652  0.0240  0.1328
  698TMC3    O210383   3.937   1.698  15.221 -0.8618 -0.0241 -0.1944
  699TMC3    C110384   2.949   4.265  13.077 -0.2680 -0.7845  0.0070
  699TMC3    C210385   2.980   4.134  13.086  0.1302 -0.4088 -0.1478
  699TMC3    C310386   2.875   4.052  13.132  0.5060  0.1114 -0.3355
  699TMC3    C410387   2.832   4.325  13.114  0.2876  0.2095  0.4520
  699TMC3    C510388   2.743   4.238  13.176 -0.1488  0.4418 -1.0542
  699TMC3    C610389   2.751   4.102  13.161 -0.2331  0.4975 -0.1632
  699TMC3     C10390   3.025   4.342  12.974 -0.5078  0.3955 -0.3385
  699TMC3     O10391   3.143   4.324  12.970  0.0202  0.0188 -0.2823
  699TMC3     H10392   3.076   4.095  13.054  0.1555  1.0781 -1.9168
  699TMC3    H110393   2.814   4.431  13.119 -0.5877  0.0653  0.4716
  699TMC3    H210394   2.671   4.032  13.182  0.2608 -0.3899 -1.2576
  699TMC3    C710395   2.690   4.282  13.303 -0.2687 -0.2390 -0.0510
  699TMC3    C810396   2.903   3.930  13.196 -0.0859 -0.1474  0.3332
  699TMC3    O110397   2.697   4.401  13.320 -0.2181 -0.5733 -0.4134
  699TMC3    O210398   2.814   3.900  13.276  0.2537  0.2624 -0.3779
  700TMC3    C110399   1.904   1.668  17.047 -0.1343  0.0252 -0.4173
  700TMC3    C210400   2.022   1.603  17.020 -0.6751  0.3448 -0.6870
  700TMC3    C310401   2.089   1.525  17.114 -0.4076 -0.0037  0.1573
  700TMC3    C410402   1.858   1.672  17.180  0.1674 -0.0293 -0.3498
  700TMC3    C510403   1.930   1.601  17.275 -0.0316 -0.6144  0.1744
  700TMC3    C610404   2.034   1.520  17.245 -0.0080 -0.3288 -0.2246
  700TMC3     C10405   1.874   1.795  16.974  0.3345  0.5347  0.1693
  700TMC3     O10406   1.760   1.831  16.988 -0.8051  0.0005  0.2242
  700TMC3     H10407   2.058   1.605  16.918  1.5048 -1.5845  0.0162
  700TMC3    H110408   1.781   1.740  17.214 -0.1684 -0.4568 -0.2481
  700TMC3    H210409   2.079   1.472  17.331  0.6423  1.2310  0.3116
  700TMC3    C710410   1.923   1.656  17.405 -0.1015  0.5304 -0.2646
  700TMC3    C810411   2.192   1.438  17.064  0.1673  0.4074 -1.7361
  700TMC3    O110412   1.809   1.681  17.448  0.1794  0.0661  0.0406
  700TMC3    O210413   2.256   1.477  16.970 -0.8394 -0.8893 -0.6891
  701TMC3    C110414   2.332   1.091  15.353  1.0398 -0.0328 -0.0068
  701TMC3    C210415   2.337   1.032  15.233 -0.3121  0.5992 -0.0868
  701TMC3    C310416   2.460   1.007  15.169  0.7385  0.6850 -0.5548
  701TMC3    C410417   2.436   1.106  15.432 -0.0573  0.3651  0.1123
  701TMC3    C510418   2.557   1.097  15.366  0.0276  0.5952  0.5976
  701TMC3    C610419   2.572   1.046  15.240  0.6738 -0.4425  0.5928
  701TMC3     C10420   2.210   1.160  15.391  0.4488 -0.3596  0.7220
  701TMC3     O10421   2.202   1.175  15.510 -0.2311  0.1796 -0.0928
  701TMC3     H10422   2.246   1.005  15.182 -0.5282 -0.6683  0.9592
  701TMC3    H110423   2.425   1.164  15.523 -0.6192 -2.2175  1.6665
  701TMC3    H210424   2.666   1.031  15.188  1.3091  0.5417  1.4492
  701TMC3    C710425   2.665   1.188  15.411 -0.8580 -0.0861 -0.3267
  701TMC3    C810426   2.473   0.937  15.040  0.3734 -0.0560 -0.1679
  701TMC3    O110427   2.749   1.221  15.329  0.2433 -0.2252 -0.1167
  701TMC3    O210428   2.581   0.890  15.002 -0.0321  0.3048  0.0336
  702MPD2     C10429   1.506   2.492  10.325  0.3666  0.3819 -0.7130
  702MPD2    C110430   1.596   2.523  10.426 -0.6613 -1.1746 -0.3703
  702MPD2    C210431   1.680   2.632  10.404  0.0983  0.4793 -0.6208
  702MPD2    C310432   1.660   2.712  10.295 -0.2751 -0.0784 -0.4124
  702MPD2    C410433   1.557   2.691  10.211  0.6793 -0.1086  0.2302
  702MPD2    C510434   1.486   2.576  10.222 -0.9568 -0.0360  0.4308
  702MPD2     H10435   1.764   2.662  10.464 -1.3423  1.2437  0.9883
  702MPD2    H110436   1.537   2.753  10.124 -1.3553  1.2311  1.6717
  702MPD2    H210437   1.445   2.403  10.319 -0.0891  0.7501 -1.4674
  702MPD2    H310438   1.404   2.551  10.157 -0.5798 -3.0067  1.0968
  702MPD2     N10439   1.742   2.823  10.263  0.6917 -0.7336  0.1757
  702MPD2    H510440   1.716   2.894  10.196  0.5410 -1.0707 -0.1201
  702MPD2    N110441   1.618   2.434  10.530 -0.3259  0.4255  0.3263
  702MPD2    H710442   1.699   2.461  10.585  0.2450  3.0169 -1.7397
  703TMC3    C110443   1.884   2.987  10.279  0.1072  0.0774  0.5389
  703TMC3    C210444   1.789   3.072  10.225 -0.6447  0.2280  0.1572
  703TMC3    C310445   1.833   3.184  10.159  0.1184 -1.1238 -0.5320
  703TMC3    C410446   2.013   3.030  10.275 -0.0375  0.7147  0.3785
  703TMC3    C510447   2.048   3.144  10.208 -0.5284 -0.9391  0.0630
  703TMC3    C610448   1.959   3.223  10.146 -0.3687  0.4391 -0.4814
  703TMC3     C10449   1.855   2.858  10.336  0.5078  0.3758 -0.5398
  703TMC3     O10450   1.924   2.810  10.426  0.0092  0.2388  0.5079
  703TMC3     H10451   1.684   3.050  10.209 -0.0844 -2.1091 -0.2920
  703TMC3    H110452   2.091   2.976  10.328  0.3531 -0.1424 -1.0815
  703TMC3    H210453   1.995   3.320  10.113 -0.2380  1.0156  1.4022
  703TMC3    C710454   2.182   3.197  10.224  0.2547 -0.3339  0.0541
  703TMC3    C810455   1.733   3.288  10.132 -0.2482 -0.2623  0.7416
  703TMC3    O110456   2.223   3.258  10.125  0.1346 -0.2254 -0.3039
  703TMC3    O210457   1.766   3.373  10.050 -0.0105  0.4699  0.0291
  704TMC3    C110458   0.249   0.903  13.226 -0.1183  0.5874 -0.3514
  704TMC3    C210459   0.383   0.902  13.203  0.2088 -0.3150  0.4694
  704TMC3    C310460   0.444   0.786  13.167  0.3412  0.1099  0.3451
  704TMC3    C410461   0.168   0.783  13.223  0.0411  0.4082  1.0312
  704TMC3    C510462   0.238   0.676  13.166 -0.3841  0.0212  0.1897
  704TMC3    C610463   0.364   0.678  13.129 -0.2658  0.3717  0.7087
  704TMC3     C10464   0.172   1.024  13.216 -0.7092  0.1477 -0.5988
  704TMC3     O10465   0.222   1.131  13.250 -0.1339  0.3183  0.3939
  704TMC3     H10466   0.440   0.994  13.214 -0.7425  0.0854  2.0997
  704TMC3    H110467   0.064   0.778  13.251 -0.3553  0.2691 -0.4396
  704TMC3    H210468   0.405   0.582  13.100 -0.9711  0.6199 -1.1017
  704TMC3    C710469   0.163   0.558  13.127  0.5062  0.4371  1.0907
  704TMC3    C810470   0.556   0.812  13.079  0.1468  0.1252  0.4942
  704TMC3    O110471   0.194   0.494  13.022  0.8765 -0.1800  0.0984
  704TMC3    O210472   0.663   0.852  13.123  0.0215 -0.4248 -0.1213
  705MPD2     C10473   3.570   4.382  16.561 -0.5478 -0.4533 -0.2593
  705MPD2    C110474   3.544   4.430  16.430 -0.3251 -0.3986  0.2693
  705MPD2    C210475   3.450   4.523  16.405 -0.4340 -0.0967 -0.2947
  705MPD2    C310476   3.364   4.551  16.507  0.1939 -0.1337  0.6656
  705MPD2    C410477   3.370   4.498  16.638 -0.1978  0.0015 -0.0641
  705MPD2    C510478   3.481   4.419  16.663  0.2704  0.3154  0.6776
  705MPD2     H10479   3.444   4.559  16.303  1.2814  0.3817 -0.2290
  705MPD2    H110480   3.306   4.529  16.720  1.2931 -1.3518  1.5999
  705MPD2    H210481   3.638   4.300  16.581  2.2884  2.4049  1.6783
  705MPD2    H310482   3.487   4.386  16.766 -0.3788 -2.0702 -0.0396
  705MPD2     N10483   3.252   4.636  16.486  0.0747 -0.7033 -0.2296
  705MPD2    H510484   3.189   4.655  16.564  2.4094 -1.5333  1.8675
  705MPD2    N110485   3.609   4.379  16.315 -0.2795  0.2509 -0.2749
  705MPD2    H710486   3.586   4.424  16.227  0.1309  2.0300  0.5289
  706TMC3    C110487   3.861   4.137  16.014 -0.0740  0.4786  0.1972
  706TMC3    C210488   3.869   4.253  15.933 -0.1249 -0.7491  0.4592
  706TMC3    C310489   3.810   4.370  15.988  0.2177 -0.2438  0.0727
  706TMC3    C410490   3.811   4.153  16.141  0.2979 -0.0859 -0.5694
  706TMC3    C510491   3.754   4.272  16.185  0.3410  0.1831 -0.7040
  706TMC3    C610492   3.759   4.386  16.112  0.0223 -0.4491  0.8286
  706TMC3     C10493   3.951   4.032  15.997  1.0313 -0.9113  0.4062
  706TMC3     O10494   3.989   3.968  16.097  0.2658  0.6155 -0.1280
  706TMC3     H10495   3.927   4.253  15.841  0.4853 -0.8131  0.8465
  706TMC3    H110496   3.823   4.067  16.207 -0.2152 -0.1829 -0.6042
  706TMC3    H210497   3.733   4.487  16.143 -1.2783 -0.9132  1.2162
  706TMC3    C710498   3.692   4.267  16.317  0.6994  0.5493  0.2581
  706TMC3    C810499   3.880   4.487  15.939  0.2531  0.7523  0.0113
  706TMC3    O110500   3.723   4.185  16.406 -0.3917 -0.0980 -0.5850
  706TMC3    O210501   3.852   4.523  15.826  0.2673 -0.0798 -0.1191
  707TMC3    C110502   0.457   1.207   1.334 -0.4137  0.2156 -0.7098
  707TMC3    C210503   0.572   1.149   1.290 -0.5353  0.2998  0.3204
  707TMC3    C310504   0.573   1.010   1.277  0.0628 -0.7551 -0.5189
  707TMC3    C410505   0.344   1.136   1.363  0.1608  0.0354 -0.4080
  707TMC3    C510506   0.345   0.999   1.328  0.4918  0.7261 -0.5222
  707TMC3    C610507   0.463   0.931   1.302  0.1157  0.0868 -0.4580
  707TMC3     C10508   0.462   1.346   1.356 -0.6976  0.0366  0.0176
  707TMC3     O10509   0.547   1.401   1.290 -0.1154 -0.1815  0.5430
  707TMC3     H10510   0.657   1.215   1.279  0.1937 -0.3893  1.8722
  707TMC3    H110511   0.253   1.186   1.395  0.7716  0.6939  0.3032
  707TMC3    H210512   0.466   0.826   1.277  1.9675  0.4220 -1.6732
  707TMC3    C710513   0.222   0.923   1.352  0.1547 -0.0739  0.1822
  707TMC3    C810514   0.696   0.939   1.266 -0.2994 -0.3648  0.2981
  707TMC3    O110515   0.115   0.978   1.329 -0.4585 -0.2182  0.0551
  707TMC3    O210516   0.704   0.821   1.294 -0.1847 -0.5540 -0.0861
  708MPD2     C10517   2.019   1.946  14.128 -0.5600  0.1910  0.9198
  708MPD2    C110518   1.914   2.037  14.141  0.1761  0.0740  0.7853
  708MPD2    C210519   1.923   2.125  14.249 -0.0567  0.0397 -0.2147
  708MPD2    C310520   2.030   2.115  14.329  0.0450  0.0133 -0.4525
  708MPD2    C410521   2.134   2.026  14.311 -0.9694 -0.3135  0.2302
  708MPD2    C510522   2.133   1.953  14.198  0.2454 -0.7277 -0.1020
  708MPD2     H10523   1.840   2.194  14.253  0.4451  0.5581  1.0463
  708MPD2    H110524   2.217   2.002  14.377  0.3532  0.0675 -1.3192
  708MPD2    H210525   2.013   1.883  14.041  0.7592 -1.8710  2.3151
  708MPD2    H310526   2.217   1.886  14.181  1.3158  0.7879 -0.8096
  708MPD2     N10527   2.037   2.206  14.438 -0.7607  0.2825  0.4319
  708MPD2    H510528   1.951   2.257  14.451  0.0825  2.0828 -1.0498
  708MPD2    N110529   1.800   2.046  14.047  0.2059 -0.5093  0.1358
  708MPD2    H710530   1.730   2.116  14.070 -0.6530 -1.5012  0.5508
  709TMC3    C110531   1.661   2.034  13.865  0.5971  0.9376  0.2195
  709TMC3    C210532   1.706   2.099  13.753 -0.3977  0.4608  0.4840
  709TMC3    C310533   1.678   2.231  13.748 -0.0670 -0.4531  0.0132
  709TMC3    C410534   1.578   2.089  13.963 -0.1154  0.7106  0.3718
  709TMC3    C510535   1.555   2.221  13.952  0.0652 -1.3823  0.0361
  709TMC3    C610536   1.609   2.299  13.846  0.7916  0.9654  0.4928
  709TMC3     C10537   1.779   1.982  13.926 -0.2093  0.4892  0.3202
  709TMC3     O10538   1.844   1.892  13.872 -0.8418  0.0093  0.0566
  709TMC3     H10539   1.788   2.053  13.700 -0.8606  0.1978  0.0026
  709TMC3    H110540   1.550   2.026  14.047 -1.7959  0.3565 -0.4412
  709TMC3    H210541   1.608   2.407  13.856 -0.0993  0.9252  0.8338
  709TMC3    C710542   1.551   2.278  14.082  0.2297 -0.0298  0.7127
  709TMC3    C810543   1.786   2.314  13.689  0.1108  0.1693 -0.7585
  709TMC3    O110544   1.607   2.220  14.175  0.2121  0.9163  0.0368
  709TMC3    O210545   1.808   2.420  13.748 -0.4086 -0.3886  0.9656
  710TMC3    C110546   3.085   4.186   0.321 -0.8209 -0.2525  0.4108
  710TMC3    C210547   3.142   4.117   0.219 -0.0261 -0.0668  0.2489
  710TMC3    C310548   3.259   4.050   0.241  0.3164  0.3930 -0.2187
  710TMC3    C410549   3.126   4.156   0.448  0.2714  0.3622  0.2610
  710TMC3    C510550   3.240   4.084   0.469 -0.2428 -0.0143  0.1793
  710TMC3    C610551   3.311   4.037   0.365  0.2736  0.7480 -0.1777
  710TMC3     C10552   2.948   4.224   0.293  0.0968 -0.1049  0.0671
  710TMC3     O10553   2.897   4.171   0.194 -0.1025 -0.2956 -0.3378
  710TMC3     H10554   3.109   4.139   0.118  0.3538  2.5508  0.6805
  710TMC3    H110555   3.077   4.203   0.532  0.0846  1.9520 -0.7258
  710TMC3    H210556   3.399   3.974   0.376  0.4905  0.7580 -1.8482
  710TMC3    C710557   3.288   4.057   0.604  0.3940  0.2062  0.0696
  710TMC3    C810558   3.311   3.981   0.123  0.3628  0.0157  0.7725
  710TMC3    O110559   3.202   4.053   0.696  0.4365  0.4084  0.1453
  710TMC3    O210560   3.288   4.037   0.018 -0.2293 -0.2387 -0.0054
  711TMC3    C110561   2.878   0.346  14.841 -0.9412 -0.5422  0.0495
  711TMC3    C210562   2.911   0.422  14.951  0.2141  0.3108 -0.6603
  711TMC3    C310563   3.031   0.412  15.005  0.1443 -0.0030  0.6386
  711TMC3    C410564   2.970   0.264  14.780  0.2480 -0.0121 -0.1705
  711TMC3    C510565   3.089   0.250  14.849 -0.0511  0.1726 -0.4239
  711TMC3    C610566   3.118   0.327  14.955 -0.3565 -0.1061  0.1249
  711TMC3     C10567   2.750   0.335  14.788 -0.7142 -0.3335 -0.1466
  711TMC3     O10568   2.722   0.247  14.712  0.3823  0.5091  0.0147
  711TMC3     H10569   2.849   0.498  14.996 -0.4619 -0.9762  0.5783
  711TMC3    H110570   2.949   0.216  14.685  0.6099  1.0890 -0.8020
  711TMC3    H210571   3.220   0.315  14.988  0.2031  0.3757 -1.4595
  711TMC3    C710572   3.154   0.121  14.839 -0.4292 -0.1313  0.0604
  711TMC3    C810573   3.050   0.472  15.136 -0.1436  0.3121 -0.4229
  711TMC3    O110574   3.257   0.111  14.906 -0.1509 -0.1248 -0.1712
  711TMC3    O210575   2.964   0.556  15.158  0.1150  0.2652  0.3881
  712MPD2     C10576   4.437   0.870  13.718  0.1645 -0.4952  0.0763
  712MPD2    C110577   4.336   0.897  13.628  0.9289 -0.2200 -0.2085
  712MPD2    C210578   4.280   1.020  13.637 -0.1365  0.3552 -0.0923
  712MPD2    C310579   4.331   1.123  13.717 -0.1792  0.3634 -0.2431
  712MPD2    C410580   4.437   1.095  13.807  0.9612 -0.3791  0.1526
  712MPD2    C510581   4.492   0.968  13.804 -0.0816 -0.0858 -0.4306
  712MPD2     H10582   4.208   1.045  13.560 -1.3035 -3.1418 -0.1326
  712MPD2    H110583   4.480   1.168  13.874 -2.9498 -0.3031  2.5885
  712MPD2    H210584   4.482   0.771  13.728  1.4450  0.0524 -0.2561
  712MPD2    H310585   4.563   0.936  13.880  0.2932  1.8476  0.0461
  712MPD2     N10586   4.299   1.265  13.709  0.1799  0.3578 -0.5507
  712MPD2    H510587   4.353   1.322  13.773 -0.5895  0.1517  0.2938
  712MPD2    N110588   4.285   0.802  13.541  0.5852 -0.2202 -0.1020
  712MPD2    H710589   4.194   0.813  13.498  0.7817  0.3063 -0.3822
  713TMC3    C110590   4.226   1.463  13.639 -0.2617 -0.0295  0.8724
  713TMC3    C210591   4.353   1.504  13.666 -0.2418 -0.5519 -0.0572
  713TMC3    C310592   4.367   1.639  13.692  0.0592 -0.3526 -0.2345
  713TMC3    C410593   4.120   1.544  13.628 -0.1970  0.9313 -0.4359
  713TMC3    C510594   4.141   1.671  13.666  0.0144 -0.2817 -0.1353
  713TMC3    C610595   4.261   1.721  13.699 -0.9570  0.9265 -0.0380
  713TMC3     C10596   4.203   1.322  13.634 -0.5317 -0.4598  0.8195
  713TMC3     O10597   4.145   1.283  13.535  0.5691 -0.7311 -0.1181
  713TMC3     H10598   4.440   1.441  13.652  1.1654  0.8229  2.6221
  713TMC3    H110599   4.027   1.505  13.589 -0.7831  0.5736  1.3513
  713TMC3    H210600   4.274   1.823  13.733  1.3373  0.4068  0.6242
  713TMC3    C710601   4.027   1.763  13.633 -0.6419 -0.0426  0.9407
  713TMC3    C810602   4.506   1.693  13.700 -0.6486 -0.0579 -0.5856
  713TMC3    O110603   3.922   1.715  13.591  0.0202 -0.2997 -0.8631
  713TMC3    O210604   4.520   1.812  13.680  0.0833  0.0290  0.5026
  714MPD2     C10605   1.740   4.615   1.352 -0.3750 -0.7287 -0.8924
  714MPD2    C110606   1.757   4.519   1.249 -0.3181  0.0122  0.6423
  714MPD2    C210607   1.652   4.473   1.171  0.5544 -0.0624 -0.2296
  714MPD2    C310608   1.532   4.537   1.176  0.3042  0.0206  0.6645
  714MPD2    C410609   1.518   4.648   1.258  0.7114 -0.2098 -0.0676
  714MPD2    C510610   1.617   4.681   1.343  0.0482  0.1875  0.2048
  714MPD2     H10611   1.658   4.391   1.101  0.0315 -1.2288  1.0959
  714MPD2    H110612   1.424   4.701   1.271  1.3540  0.8312  0.3498
  714MPD2    H210613   1.824   4.658   1.406  0.0472  1.3881 -3.1771
  714MPD2    H310614   1.600   0.028   1.408 -1.9633 -0.6390  0.7684
  714MPD2     N10615   1.439   4.497   1.079 -0.2404  1.1426  0.7920
  714MPD2    H510616   1.467   4.425   1.014 -0.0649 -0.1386  2.2750
  714MPD2    N110617   1.874   4.440   1.253 -0.1833  0.8265 -0.2837
  714MPD2    H710618   1.948   4.464   1.319  0.6528 -1.7030 -0.3112
  715TMC3    C110619   2.041   4.278   1.190  0.5324 -0.4727 -0.8746
  715TMC3    C210620   2.104   4.246   1.073  0.6088  0.0251 -0.2029
  715TMC3    C310621   2.240   4.233   1.080 -0.0145  0.5348  0.2011
  715TMC3    C410622   2.109   4.275   1.310  0.6375 -0.3360  0.0243
  715TMC3    C510623   2.235   4.230   1.312 -0.6160  0.1585 -0.1473
  715TMC3    C610624   2.302   4.219   1.198  0.4474  0.1016 -0.3789
  715TMC3     C10625   1.905   4.332   1.175 -0.0418  0.7839 -0.8288
  715TMC3     O10626   1.847   4.274   1.085 -0.0966 -0.6701  0.2841
  715TMC3     H10627   2.055   4.254   0.977  0.5590 -0.5062 -0.2238
  715TMC3    H110628   2.045   4.282   1.397  1.4119 -1.8790  0.7141
  715TMC3    H210629   2.409   4.203   1.207  0.4337  0.7893  0.8832
  715TMC3    C710630   2.305   4.257   1.442 -0.0381 -0.4892  0.6251
  715TMC3    C810631   2.301   4.216   0.954 -0.1535 -0.6723 -0.0531
  715TMC3    O110632   2.408   4.322   1.434 -0.0195 -0.0769  0.2690
  715TMC3    O210633   2.236   4.171   0.861 -0.2614 -0.2351 -0.1737
  716MPD2     C10634   1.272   2.715   9.458 -0.2142  0.0379  0.3405
  716MPD2    C110635   1.149   2.670   9.421 -0.0163  0.4845 -0.0055
  716MPD2    C210636   1.134   2.586   9.311  0.0147 -0.3141 -0.3753
  716MPD2    C310637   1.249   2.554   9.241 -0.2694  0.3426 -0.1846
  716MPD2    C410638   1.373   2.601   9.277  0.2553  0.7557 -0.2494
  716MPD2    C510639   1.385   2.680   9.387 -0.2547 -0.3841  0.0748
  716MPD2     H10640   1.040   2.548   9.273 -1.1497 -0.3442  2.4914
  716MPD2    H110641   1.461   2.586   9.215  1.2127 -0.2684  1.3527
  716MPD2    H210642   1.272   2.765   9.553  0.4016 -0.5266  0.6390
  716MPD2    H310643   1.483   2.705   9.425 -0.5056  1.9653 -0.7728
  716MPD2     N10644   1.236   2.465   9.133 -0.7045 -0.1506  0.0979
  716MPD2    H510645   1.144   2.432   9.106 -0.4169 -0.0793 -0.9758
  716MPD2    N110646   1.046   2.732   9.487  0.2880  0.5326  0.0071
  716MPD2    H710647   1.075   2.800   9.555 -1.2004  0.4843  0.7055
  717TMC3    C110648   1.288   2.300   8.973  0.4942 -0.6537 -0.7899
  717TMC3    C210649   1.195   2.209   9.020 -0.3088  0.2319  0.3345
  717TMC3    C310650   1.166   2.098   8.942  0.2893  0.6464  0.3954
  717TMC3    C410651   1.356   2.264   8.859  0.2470 -0.3673 -0.6744
  717TMC3    C510652   1.322   2.156   8.782 -0.4300 -0.5909  0.5377
  717TMC3    C610653   1.225   2.076   8.821  0.0631 -0.2766 -0.1142
  717TMC3     C10654   1.333   2.412   9.050  0.3697  0.0711  0.3425
  717TMC3     O10655   1.454   2.424   9.051  0.2414  0.2371 -0.2107
  717TMC3     H10656   1.138   2.218   9.112 -1.2549  1.4748 -0.3799
  717TMC3    H110657   1.437   2.328   8.826  0.0217 -0.9791 -2.4272
  717TMC3    H210658   1.202   1.987   8.763  0.2218  0.2967 -1.0405
  717TMC3    C710659   1.413   2.114   8.685  0.9267  0.4985 -0.1139
  717TMC3    C810660   1.026   2.061   8.940  0.0794  0.5490  0.2217
  717TMC3    O110661   1.479   2.204   8.640  0.7335  0.0222  0.3961
  717TMC3    O210662   0.948   2.150   8.970 -0.0160  0.2149  0.5145
  718MPD2     C10663   0.796   1.550  12.658 -0.2053 -0.5147 -0.1706
  718MPD2    C110664   0.891   1.450  12.675 -0.5308  0.0411 -0.5381
  718MPD2    C210665   0.891   1.384  12.799  0.6442  0.1329 -0.6099
  718MPD2    C310666   0.804   1.428  12.896  0.0030  0.8841  0.3316
  718MPD2    C410667   0.707   1.523  12.881  0.1957  0.0367  0.6577
  718MPD2    C510668   0.703   1.587  12.756  0.2602  0.1285 -0.1517
  718MPD2     H10669   0.968   1.311  12.823  0.4533 -0.0672 -0.5989
  718MPD2    H110670   0.638   1.557  12.958 -1.0338 -1.4606  0.2155
  718MPD2    H210671   0.804   1.614  12.571  0.4339  1.0002  1.0045
  718MPD2    H310672   0.630   1.664  12.737 -0.4188 -0.5231 -0.1817
  718MPD2     N10673   0.815   1.355  13.021  0.3017 -0.4989 -0.0646
  718MPD2    H510674   0.866   1.267  13.016 -0.7716 -1.0449 -1.3882
  718MPD2    N110675   0.982   1.407  12.571 -0.5233  0.7351 -0.2802
  718MPD2    H710676   0.981   1.445  12.477  0.4125 -0.2005 -0.6739
  719TMC3    C110677   1.167   1.288  12.479  1.0055 -0.0842 -0.2610
  719TMC3    C210678   1.221   1.162  12.489  0.6774  0.2261 -0.4220
  719TMC3    C310679   1.348   1.145  12.520  0.3120  0.3277  0.1477
  719TMC3    C410680   1.243   1.403  12.477 -0.2527 -0.2645  0.3789
  719TMC3    C510681   1.374   1.380  12.509  0.1169 -0.0463 -0.4879
  719TMC3    C610682   1.431   1.257  12.522 -0.0481 -0.4708 -0.1567
  719TMC3     C10683   1.065   1.297  12.577  0.6550 -0.7543 -0.4861
  719TMC3     O10684   1.062   1.195  12.650  0.2322  0.0268  0.2901
  719TMC3     H10685   1.157   1.075  12.494  1.0998  0.0363  1.8228
  719TMC3    H110686   1.205   1.501  12.453 -0.8989 -0.4157  0.7721
  719TMC3    H210687   1.535   1.263  12.551 -0.8942  2.0502  2.4375
  719TMC3    C710688   1.469   1.489  12.510 -0.0541  0.3825 -0.0880
  719TMC3    C810689   1.383   1.040  12.616 -0.2743  1.1125  0.3317
  719TMC3    O110690   1.592   1.469  12.500  0.2925 -0.0077 -1.1814
  719TMC3    O210691   1.499   0.999  12.628  0.1605 -0.3414 -0.3117
  720MPD2     C10692   4.424   3.005  13.506  0.1855 -0.2667 -0.2813
  720MPD2    C110693   4.389   3.135  13.524 -0.0053  0.8238 -0.4613
  720MPD2    C210694   4.476   3.220  13.595 -0.6531 -1.0496  0.5261
  720MPD2    C310695   4.593   3.171  13.654  0.2280 -0.9067  0.0313
  720MPD2    C410696   4.614   3.033  13.648  0.0164  0.6708  0.1222
  720MPD2    C510697   4.526   2.956  13.575 -0.5642 -0.7269 -1.0645
  720MPD2     H10698   4.456   3.325  13.609  0.9080 -0.6786  0.0154
  720MPD2    H110699   4.703   2.984  13.688 -0.1793  0.5020  0.3545
  720MPD2    H210700   4.362   2.931  13.457  0.5703  0.5750 -2.0401
  720MPD2    H310701   4.558   2.853  13.563 -0.0931 -0.5393 -1.4664
  720MPD2     N10702   4.675   3.255  13.732 -0.6478 -0.4231  0.4138
  720MPD2    H510703   4.655   3.354  13.732 -0.2125 -0.3366  1.4112
  720MPD2    N110704   4.262   3.187  13.477 -0.1850  0.4305 -0.4814
  720MPD2    H710705   4.248   3.284  13.504  0.2892  0.5682 -0.7253
  721TMC3    C110706   0.101   3.327  13.894  0.0300  0.0539  0.6147
  721TMC3    C210707   0.135   3.293  14.022  0.0561  0.3860  0.1382
  721TMC3    C310708   0.264   3.302  14.065 -0.6107  0.6086 -0.1855
  721TMC3    C410709   0.206   3.359  13.818  1.4920 -0.7428  0.0910
  721TMC3    C510710   0.336   3.360  13.857  0.1982  0.4706 -0.5458
  721TMC3    C610711   0.364   3.334  13.984 -0.7073 -0.2046 -0.2225
  721TMC3     C10712   0.033   3.214  13.824 -0.1724 -0.3918 -0.5826
  721TMC3     O10713   0.034   3.103  13.868 -0.0535 -0.2710 -0.1148
  721TMC3     H10714   0.067   3.241  14.089  2.1970 -0.7543  1.4252
  721TMC3    H110715   0.167   3.358  13.717  0.3846 -0.6926  0.5196
  721TMC3    H210716   0.466   3.331  14.023 -2.3379 -1.6480  3.9551
  721TMC3    C710717   0.450   3.358  13.762 -0.0253 -0.9454  0.9642
  721TMC3    C810718   0.307   3.234  14.182 -0.2878  0.0613 -0.0533
  721TMC3    O110719   0.559   3.350  13.807 -0.1911  0.1777 -0.3440
  721TMC3    O210720   0.416   3.174  14.171 -0.7334  0.0647 -0.4924
  722MPD2     C10721   3.318   1.744  12.803 -0.0382 -0.2727  0.0103
  722MPD2    C110722   3.308   1.879  12.786  0.4126  0.1414 -0.5210
  722MPD2    C210723   3.203   1.927  12.709 -0.6040  0.1249  0.1565
  722MPD2    C310724   3.112   1.847  12.640 -0.4649 -0.3311 -0.5017
  722MPD2    C410725   3.139   1.711  12.644  0.3574 -0.5392  0.0755
  722MPD2    C510726   3.236   1.661  12.730 -0.6672 -0.3977  0.2773
  722MPD2     H10727   3.187   2.033  12.690  1.1661  0.1185 -1.3674
  722MPD2    H110728   3.101   1.641  12.571 -1.7061 -0.5057  1.1183
  722MPD2    H210729   3.393   1.691  12.861  0.0705  0.3400  0.4329
  722MPD2    H310730   3.251   1.554  12.739 -1.9877 -0.5957  0.0720
  722MPD2     N10731   3.013   1.905  12.557 -1.1008 -0.0287 -0.2043
  722MPD2    H510732   3.010   2.007  12.561 -0.2311  0.0164 -0.6701
  722MPD2    N110733   3.400   1.975  12.845  0.0142  0.6288 -0.2330
  722MPD2    H710734   3.374   2.068  12.813 -1.0393  0.6446  0.6466
  723TMC3    C110735   2.812   1.925  12.428 -0.9986 -0.0918  0.2358
  723TMC3    C210736   2.701   1.845  12.395  0.0788 -1.1551  0.1581
  723TMC3    C310737   2.578   1.902  12.415 -0.0239  1.2122 -0.0375
  723TMC3    C410738   2.794   2.053  12.471  0.0167 -0.0629 -0.4114
  723TMC3    C510739   2.665   2.105  12.483  0.2609  0.3352  0.6712
  723TMC3    C610740   2.554   2.033  12.452  0.3067  0.6947 -0.0444
  723TMC3     C10741   2.911   1.840  12.501 -0.9745 -0.1274  0.2785
  723TMC3     O10742   2.905   1.718  12.476  0.1321 -0.3837 -0.2672
  723TMC3     H10743   2.708   1.738  12.386 -0.5175 -0.9703 -2.4651
  723TMC3    H110744   2.884   2.112  12.487 -0.8293  0.7470  1.3226
  723TMC3    H210745   2.453   2.059  12.482 -0.1371 -2.0936  0.8202
  723TMC3    C710746   2.655   2.239  12.512  0.8809  0.0838  0.3197
  723TMC3    C810747   2.465   1.810  12.389  0.5371  0.3563  0.3751
  723TMC3    O110748   2.722   2.289  12.606 -0.6674 -0.7811 -0.2214
  723TMC3    O210749   2.352   1.843  12.419  0.0382 -0.2600 -0.2709
  724TMC3    C110750   3.541   4.658  10.351 -0.0239  0.2906  0.2890
  724TMC3    C210751   3.529   0.005  10.244 -0.2270  0.7635  0.0223
  724TMC3    C310752   3.640   0.083  10.213  0.1906 -0.0866  0.0151
  724TMC3    C410753   3.643   4.667  10.439 -0.4859  0.3804  1.1249
  724TMC3    C510754   3.747   0.014  10.408 -0.4760  0.6218 -0.2517
  724TMC3    C610755   3.742   0.097  10.302  0.2847 -0.6084 -0.3538
  724TMC3     C10756   3.456   4.540  10.348  0.6379 -0.2741 -0.5689
  724TMC3     O10757   3.497   4.450  10.417  0.1620  0.3690  0.1601
  724TMC3     H10758   3.465   4.714  10.160  0.1868 -0.2984  0.0803
  724TMC3    H110759   3.651   4.601  10.524  0.2238 -0.1646  0.6366
  724TMC3    H210760   3.831   0.153  10.276  0.3755 -0.8332 -0.5346
  724TMC3    C710761   3.843   0.049  10.507  0.6289  0.1205 -0.7915
  724TMC3    C810762   3.626   0.185  10.114 -0.1664 -0.0262 -0.1850
  724TMC3    O110763   3.960   0.055  10.476  0.4103 -0.2833  0.1859
  724TMC3    O210764   3.536   0.166  10.035  0.3623  0.1328 -0.0493
  725TMC3    C110765   0.330   3.255  12.824  0.6751  0.2911 -0.8067
  725TMC3    C210766   0.208   3.314  12.826  0.8453  0.1476  0.9936
  725TMC3    C310767   0.107   3.232  12.785  0.1512  0.4970 -0.4275
  725TMC3    C410768   0.351   3.126  12.772  0.0665  0.2245 -0.0221
  725TMC3    C510769   0.243   3.056  12.738 -0.2472  1.1333  0.1360
  725TMC3    C610770   0.114   3.106  12.736  0.6868  0.4709  0.2509
  725TMC3     C10771   0.443   3.340  12.861  0.8481 -0.2126 -0.2195
  725TMC3     O10772   0.405   3.437  12.919 -0.4879  0.0514 -0.3167
  725TMC3     H10773   0.188   3.415  12.859 -2.1994 -0.3393  0.6535
  725TMC3    H110774   0.450   3.083  12.780  0.1133  0.2478 -0.5070
  725TMC3    H210775   0.026   3.056  12.699  0.3196  0.4923  1.0841
  725TMC3    C710776   0.258   2.919  12.686  0.2650  0.4938 -0.0061
  725TMC3    C810777   4.715   3.293  12.777  0.2349 -0.0717  0.8438
  725TMC3    O110778   0.358   2.853  12.723  0.0195 -0.1774 -0.3803
  725TMC3    O210779   4.618   3.219  12.783 -0.0305  0.1973 -0.5268
  726MPD2     C10780   2.880   0.121   9.985 -0.0765 -0.0941  0.0139
  726MPD2    C110781   2.811   0.236  10.019  0.6069  0.1074 -0.6585
  726MPD2    C210782   2.695   0.224  10.103  0.4635 -0.3905  0.2229
  726MPD2    C310783   2.663   0.100  10.155  0.3140 -0.2894 -0.1938
  726MPD2    C410784   2.751   4.737  10.136 -0.3506  0.3759 -0.3271
  726MPD2    C510785   2.856   0.008  10.054 -0.8506 -0.4033  0.3153
  726MPD2     H10786   2.648   0.314  10.141  1.4346  0.5198 -0.6931
  726MPD2    H110787   2.748   4.637  10.179 -0.2166  1.5087  2.3310
  726MPD2    H210788   2.954   0.121   9.906  1.8199 -1.1566  1.8359
  726MPD2    H310789   2.909   4.656  10.024  0.1859 -0.4587  2.2596
  726MPD2     N10790   2.546   0.081  10.239  0.8701 -0.0032  0.5546
  726MPD2    H510791   2.526   4.728  10.280 -3.9323  1.5139  1.5886
  726MPD2    N110792   2.845   0.367   9.977 -0.3842  0.3820  0.1952
  726MPD2    H710793   2.773   0.430  10.009 -0.8478 -0.6030  1.0997
  727TMC3    C110794   2.954   0.541   9.864 -0.1310 -0.0574  0.1079
  727TMC3    C210795   2.931   0.633   9.961  0.1607  0.2980  0.2931
  727TMC3    C310796   2.938   0.765   9.931  0.0132  0.0452 -0.5388
  727TMC3    C410797   3.002   0.574   9.741  0.4805 -0.5080  0.1659
  727TMC3    C510798   3.006   0.706   9.715 -0.2887  0.0324  0.6469
  727TMC3    C610799   2.979   0.809   9.813  0.1086 -0.5842  0.3289
  727TMC3     C10800   2.952   0.400   9.895  0.6333  0.4338  1.1485
  727TMC3     O10801   3.024   0.331   9.824  0.2967  0.3816 -0.1644
  727TMC3     H10802   2.909   0.590  10.057  1.4729 -1.1401 -0.0546
  727TMC3    H110803   3.041   0.502   9.671  2.7136  1.8708 -1.0280
  727TMC3    H210804   2.992   0.914   9.788 -2.0860 -1.1204 -3.0186
  727TMC3    C710805   3.040   0.751   9.585 -0.1255  0.2917 -0.5482
  727TMC3    C810806   2.923   0.857  10.036  1.0632 -0.5992  0.1095
  727TMC3    O110807   3.117   0.670   9.535  0.5331 -0.0818  0.2785
  727TMC3    O210808   2.935   0.822  10.151  0.4896 -0.0539  0.3989
  728TMC3    C110809   2.002   3.798  15.203 -0.2009 -0.3373 -0.1416
  728TMC3    C210810   2.128   3.787  15.151  0.1844  0.1755  1.1614
  728TMC3    C310811   2.143   3.849  15.030  0.1517 -0.4795 -0.1632
  728TMC3    C410812   1.896   3.865  15.140  0.3949  0.1947 -0.0142
  728TMC3    C510813   1.925   3.933  15.028 -0.6225  0.0278  0.7346
  728TMC3    C610814   2.042   3.916  14.966  0.0021  0.1616  0.0927
  728TMC3     C10815   1.988   3.752  15.343  0.2541  0.4317  0.2876
  728TMC3     O10816   2.090   3.735  15.409 -0.3059 -0.0423 -0.2089
  728TMC3     H10817   2.203   3.720  15.191  0.7596  0.0705 -0.1149
  728TMC3    H110818   1.799   3.879  15.187  0.1489 -0.8142 -0.2229
  728TMC3    H210819   2.055   3.963  14.869 -3.0200 -2.4260 -1.5648
  728TMC3    C710820   1.814   3.997  14.956 -0.4814  0.5516 -0.7327
  728TMC3    C810821   2.259   3.824  14.943  0.4097  0.1659  0.1087
  728TMC3    O110822   1.691   3.970  14.969  0.6518  0.2706 -0.0572
  728TMC3    O210823   2.236   3.831  14.823  0.1358  0.5122 -0.6297
  729MPD2     C10824   4.249   0.225  16.403 -0.4903 -0.2222 -0.8727
  729MPD2    C110825   4.365   0.184  16.458 -0.4114  0.2979 -0.3237
  729MPD2    C210826   4.367   0.124  16.586  0.8732 -0.9941 -0.3134
  729MPD2    C310827   4.244   0.126  16.657  0.2199  0.2844 -0.0654
  729MPD2    C410828   4.126   0.172  16.594  0.2875 -0.6275 -0.1494
  729MPD2    C510829   4.130   0.223  16.471 -0.0067 -0.1080  0.2166
  729MPD2     H10830   4.461   0.089  16.628  0.8895 -0.9225 -0.2903
  729MPD2    H110831   4.038   0.181  16.657  0.5397  0.1921  0.0775
  729MPD2    H210832   4.249   0.269  16.304  0.4269 -0.0435 -0.7969
  729MPD2    H310833   4.037   0.261  16.429 -0.1587 -0.9023 -0.1684
  729MPD2     N10834   4.232   0.097  16.799 -0.4015 -0.1226  0.5915
  729MPD2    H510835   4.141   0.091  16.845 -1.6652  0.6083 -1.7916
  729MPD2    N110836   4.484   0.212  16.382  0.2211 -0.4918  0.2453
  729MPD2    H710837   4.473   0.272  16.301 -1.1329 -1.3230 -0.1864
  730TMC3    C110838   4.308   0.072  17.024 -0.2938 -0.5286  0.2648
  730TMC3    C210839   4.412   0.033  17.104  0.7471  0.3877  0.5625
  730TMC3    C310840   4.435   0.104  17.222 -0.1973 -0.4902 -0.0410
  730TMC3    C410841   4.224   0.169  17.061 -0.4677 -0.2964  0.0615
  730TMC3    C510842   4.239   0.220  17.186 -0.1955  0.2333  0.4806
  730TMC3    C610843   4.338   0.184  17.273  1.0625  0.2038 -0.7588
  730TMC3     C10844   4.338   0.060  16.883  0.3785  0.4714 -0.0225
  730TMC3     O10845   4.454   0.042  16.858  0.0441  0.3461  0.3540
  730TMC3     H10846   4.492   4.707  17.067  0.7391  1.2281 -0.8878
  730TMC3    H110847   4.156   0.220  16.993  1.8052  1.9024 -0.5631
  730TMC3    H210848   4.350   0.228  17.372  1.0757  0.9930 -1.1136
  730TMC3    C710849   4.225   0.368  17.179 -0.2974  0.7203  0.9563
  730TMC3    C810850   4.565   0.171  17.201  0.2332  0.4853 -0.1832
  730TMC3    O110851   4.233   0.420  17.068  0.3986 -0.4969  0.5101
  730TMC3    O210852   4.652   0.105  17.146  1.1332 -0.3576  0.1163
  731MPD2     C10853   4.601   3.458  12.192  0.5040 -0.7854  0.3863
  731MPD2    C110854   4.682   3.409  12.296  0.1077  0.6795 -0.2016
  731MPD2    C210855   4.618   3.338  12.402  0.6578 -0.1717  0.2977
  731MPD2    C310856   4.477   3.325  12.400  0.5049 -0.1769 -0.9234
  731MPD2    C410857   4.398   3.382  12.295  0.2693  0.6782 -0.4334
  731MPD2    C510858   4.466   3.449  12.199 -0.3376 -0.5962  0.1871
  731MPD2     H10859   4.677   3.302  12.486  0.7646 -2.3598 -0.7061
  731MPD2    H110860   4.291   3.367  12.284  0.4409 -0.8000 -0.1067
  731MPD2    H210861   4.631   3.514  12.104 -1.5090  0.9702  0.8139
  731MPD2    H310862   4.405   3.492  12.120  0.9714  0.1993 -0.3938
  731MPD2     N10863   4.421   3.249  12.504  0.3809 -0.3896  0.4579
  731MPD2    H510864   4.483   3.203  12.570  1.3453 -0.4196 -0.4773
  731MPD2    N110865   0.084   3.428  12.291 -0.1017  0.3252  0.1036
  731MPD2    H710866   0.126   3.496  12.228  1.5604  0.4985  1.3923
  732TMC3    C110867   0.302   3.364  12.312  0.0655 -0.3580 -0.2896
  732TMC3    C210868   0.307   3.350  12.174  0.1544  0.3100  0.5350
  732TMC3    C310869   0.379   3.256  12.121 -0.5122  0.0375 -0.5398
  732TMC3    C410870   0.397   3.309  12.384  0.0269  0.0989  0.6022
  732TMC3    C510871   0.480   3.217  12.329  1.1701 -0.4137 -0.4496
  732TMC3    C610872   0.460   3.182  12.202 -0.3070  0.2896 -0.1951
  732TMC3     C10873   0.172   3.372  12.376  0.1756  0.5412  0.1717
  732TMC3     O10874   0.162   3.306  12.477 -0.2017  0.7271 -0.4716
  732TMC3     H10875   0.236   3.403  12.113 -1.7382 -2.5286  0.2917
  732TMC3    H110876   0.396   3.323  12.491 -1.1689  2.3069  0.2962
  732TMC3    H210877   0.534   3.119  12.154 -0.0794  0.5547 -0.1928
  732TMC3    C710878   0.582   3.163  12.412 -0.1180  0.3922  0.0615
  732TMC3    C810879   0.320   3.193  12.007  0.4316 -0.4398 -1.2080
  732TMC3    O110880   0.621   3.227  12.510 -0.2984 -0.0533  0.0453
  732TMC3    O210881   0.375   3.201  11.898  0.3516 -0.3376  0.0756
  733TMC3    C110882   0.747   1.157  13.432  0.2559  0.5477 -0.2471
  733TMC3    C210883   0.717   1.267  13.361  0.3130 -0.6924 -0.2549
  733TMC3    C310884   0.799   1.294  13.250 -0.3377  0.3675  0.1624
  733TMC3    C410885   0.850   1.072  13.401  0.2752  0.2984  0.0623
  733TMC3    C510886   0.931   1.109  13.290 -0.8008  0.5028  0.6235
  733TMC3    C610887   0.907   1.220  13.210 -0.0349  0.2373 -0.3393
  733TMC3     C10888   0.655   1.113  13.530 -1.0962  1.1809  0.4015
  733TMC3     O10889   0.587   1.197  13.588  0.0816 -0.0829 -0.2396
  733TMC3     H10890   0.632   1.332  13.376  0.2568 -0.4490 -1.6455
  733TMC3    H110891   0.873   0.983  13.459 -0.0135 -0.5476 -1.1178
  733TMC3    H210892   0.985   1.257  13.144 -0.2674 -0.3849 -0.9680
  733TMC3    C710893   1.041   1.023  13.257  0.9149 -0.0365  0.2207
  733TMC3    C810894   0.755   1.387  13.143  0.8463  0.6706 -0.5566
  733TMC3    O110895   1.107   0.963  13.345  0.1827  0.2736 -0.3477
  733TMC3    O210896   0.706   1.491  13.180 -0.1719  0.1073  0.5379
  734MPD2     C10897   2.982   3.870  12.148 -0.6348 -0.0836  0.0286
  734MPD2    C110898   2.965   3.759  12.070 -0.0445 -0.1516 -0.5327
  734MPD2    C210899   3.033   3.748  11.955 -0.0626  0.3415 -0.9335
  734MPD2    C310900   3.112   3.848  11.907 -0.5713 -0.3566 -0.6360
  734MPD2    C410901   3.154   3.948  11.993 -0.6631  0.5947  0.0688
  734MPD2    C510902   3.083   3.958  12.109 -0.2949  0.1397  0.4449
  734MPD2     H10903   3.014   3.664  11.890 -0.4637  0.7609 -1.3526
  734MPD2    H110904   3.238   4.011  11.966  0.0822 -0.3330  0.2404
  734MPD2    H210905   2.946   3.885  12.249 -0.8831 -0.6374  0.0257
  734MPD2    H310906   3.107   4.037  12.179  1.4703 -0.6433  0.7231
  734MPD2     N10907   3.177   3.811  11.787  0.1831 -0.2470 -0.9814
  734MPD2    H510908   3.147   3.723  11.747 -2.4292 -0.2376  0.9642
  734MPD2    N110909   2.864   3.666  12.107 -0.2014  0.0134  0.0099
  734MPD2    H710910   2.813   3.667  12.195 -0.0971  1.0151  0.0633
  735TMC3    C110911   2.735   3.467  12.064 -0.2221  0.6852 -0.1084
  735TMC3    C210912   2.673   3.394  11.962 -0.3164  0.0835  0.0321
  735TMC3    C310913   2.686   3.257  11.965  0.3108  0.2347 -0.3326
  735TMC3    C410914   2.792   3.396  12.166 -0.2546 -0.0990 -0.4536
  735TMC3    C510915   2.794   3.259  12.166  0.3639 -0.0250  0.1370
  735TMC3    C610916   2.733   3.186  12.067 -0.4928 -0.2561  0.1564
  735TMC3     C10917   2.809   3.576  12.008 -0.4687 -0.0310  0.3449
  735TMC3     O10918   2.812   3.573  11.885 -0.3011 -0.7679 -0.0873
  735TMC3     H10919   2.610   3.429  11.881  0.7561  0.7864 -0.5043
  735TMC3    H110920   2.862   3.450  12.229 -1.3185  0.1860  0.4885
  735TMC3    H210921   2.738   3.078  12.068 -2.2755 -0.3685 -1.6942
  735TMC3    C710922   2.935   3.212  12.192 -0.3349  0.1056  0.2491
  735TMC3    C810923   2.742   3.206  11.838  0.8151 -0.5253 -0.1741
  735TMC3    O110924   3.021   3.300  12.208  0.5498 -0.1657  0.2557
  735TMC3    O210925   2.761   3.085  11.830 -0.2892 -0.7335  0.1537
  736MPD2     C10926   3.062   2.861  12.179  0.2661 -0.7072 -0.1928
  736MPD2    C110927   3.079   2.996  12.184 -0.1283 -0.3156  0.3749
  736MPD2    C210928   3.205   3.049  12.180 -0.6564 -0.2675  0.4525
  736MPD2    C310929   3.317   2.969  12.173  0.1494  0.0356 -0.2840
  736MPD2    C410930   3.298   2.834  12.166 -0.1356 -0.0993 -0.1720
  736MPD2    C510931   3.172   2.780  12.168  0.7802  0.3066 -0.0422
  736MPD2     H10932   3.201   3.152  12.144  1.2318  0.2760  1.7882
  736MPD2    H110933   3.383   2.768  12.150 -0.7881  0.0770 -4.3142
  736MPD2    H210934   2.968   2.808  12.185  1.0627 -2.0419  0.6125
  736MPD2    H310935   3.167   2.677  12.134  0.3862  0.5001 -0.5770
  736MPD2     N10936   3.443   3.014  12.131  0.1350  0.2339  0.2185
  736MPD2    H510937   3.506   2.945  12.090 -1.6785 -0.2846 -1.6955
  736MPD2    N110938   2.958   3.072  12.185  0.1652  0.1461 -0.7535
  736MPD2    H710939   2.871   3.020  12.188 -0.3620  1.1059  0.4379
  737TMC3    C110940   3.581   3.170  12.011 -0.0621 -0.4306 -0.4030
  737TMC3    C210941   3.607   3.293  11.973  0.5224 -1.2556  0.3251
  737TMC3    C310942   3.684   3.310  11.857  0.4930  0.3287  0.0561
  737TMC3    C410943   3.636   3.063  11.945 -0.8087 -1.0771 -0.8490
  737TMC3    C510944   3.715   3.081  11.840 -0.2159 -0.6236 -0.7174
  737TMC3    C610945   3.729   3.203  11.789 -0.8965  0.2059  0.5597
  737TMC3     C10946   3.477   3.146  12.109  0.1481  0.3153 -0.6904
  737TMC3     O10947   3.436   3.242  12.175 -0.0582 -0.3513  0.2460
  737TMC3     H10948   3.586   3.372  12.044 -2.6404 -1.2567 -0.6369
  737TMC3    H110949   3.631   2.965  11.990  0.0144  0.2499  2.1587
  737TMC3    H210950   3.793   3.223  11.704 -0.1062  1.5878  1.4787
  737TMC3    C710951   3.752   2.963  11.775  0.2396  0.5112  0.2436
  737TMC3    C810952   3.701   3.443  11.813 -0.2827  0.4889 -0.5465
  737TMC3    O110953   3.720   2.853  11.822 -0.3369 -0.4386  0.1798
  737TMC3    O210954   3.687   3.539  11.893  0.2386 -0.6440 -0.2408
  738MPD2     C10955   4.126   1.919  15.164 -0.2537  0.1849 -0.1027
  738MPD2    C110956   4.040   1.930  15.058 -0.4041 -0.2353  0.3219
  738MPD2    C210957   4.056   2.022  14.959 -0.6871 -0.1982 -0.4055
  738MPD2    C310958   4.160   2.114  14.963  0.2507 -0.3228  0.1165
  738MPD2    C410959   4.242   2.116  15.074 -0.5944  0.8207 -0.7416
  738MPD2    C510960   4.224   2.015  15.169 -0.3170 -0.2204  0.5885
  738MPD2     H10961   3.982   2.019  14.879  0.0090 -2.5191 -0.9624
  738MPD2    H110962   4.323   2.187  15.083 -0.2982  0.2905  0.8573
  738MPD2    H210963   4.122   1.839  15.237 -1.6729  0.1391 -0.2245
  738MPD2    H310964   4.304   2.019  15.243  2.3189 -0.4409 -2.2584
  738MPD2     N10965   4.175   2.206  14.865  0.0305 -0.3216  0.2616
  738MPD2    H510966   4.257   2.265  14.872  0.3128 -0.5836 -0.8655
  738MPD2    N110967   3.924   1.856  15.043 -0.2273  0.2192  0.0417
  738MPD2    H710968   3.856   1.887  14.975  0.0145  1.3329  0.3179
  739TMC3    C110969   4.133   2.317  14.659 -0.1961 -0.3220  0.0738
  739TMC3    C210970   4.076   2.299  14.537 -0.2443 -0.0966  0.0340
  739TMC3    C310971   4.088   2.406  14.451  0.2927 -0.2946  0.4983
  739TMC3    C410972   4.193   2.430  14.697  0.2962 -0.5470  0.1184
  739TMC3    C510973   4.205   2.534  14.612 -0.1056  0.0838 -0.0157
  739TMC3    C610974   4.155   2.523  14.485 -0.3844 -0.3673  0.0589
  739TMC3     C10975   4.083   2.228  14.762  0.3735 -0.0897 -0.6106
  739TMC3     O10976   3.982   2.165  14.734  0.5382  0.3256 -0.9571
  739TMC3     H10977   4.017   2.212  14.511 -2.4514  0.8511  1.8252
  739TMC3    H110978   4.218   2.446  14.802 -0.5521 -0.4069  0.2975
  739TMC3    H210979   4.153   2.604  14.412 -1.1450 -0.8291 -0.4377
  739TMC3    C710980   4.263   2.656  14.672 -0.0349 -0.4825  0.1264
  739TMC3    C810981   4.015   2.385  14.327 -0.3661  0.4655 -0.6961
  739TMC3    O110982   4.303   2.657  14.789  0.5200 -0.7318  0.1299
  739TMC3    O210983   3.932   2.302  14.330 -0.0089 -0.0402 -0.1319
  740TMC3    C110984   4.235   3.775  14.567 -0.1705  0.5824 -0.0769
  740TMC3    C210985   4.331   3.812  14.656 -0.3057  0.4422  0.3891
  740TMC3    C310986   4.443   3.736  14.680 -0.1980 -0.2034 -0.3702
  740TMC3    C410987   4.253   3.669  14.491 -0.7218  0.4484  0.2556
  740TMC3    C510988   4.361   3.589  14.513 -0.7490  0.1549  0.0253
  740TMC3    C610989   4.457   3.617  14.607 -0.5507 -0.2477 -0.5768
  740TMC3     C10990   4.102   3.823  14.595  0.6879 -0.0974  0.7366
  740TMC3     O10991   4.095   3.946  14.613  0.2967 -0.0162  0.1346
  740TMC3     H10992   4.306   3.899  14.716 -2.4740 -0.7633  1.2295
  740TMC3    H110993   4.168   3.633  14.434 -0.4952  0.6625 -0.2160
  740TMC3    H210994   4.552   3.566  14.623  0.4747  2.2575  1.2250
  740TMC3    C710995   4.415   3.518  14.402 -0.3000  0.3517  0.6200
  740TMC3    C810996   4.496   3.733  14.807  0.0792  0.0640 -0.0002
  740TMC3    O110997   4.493   3.425  14.428 -0.0421 -0.0378  0.7722
  740TMC3    O210998   4.553   3.629  14.839  0.0716 -0.1236  0.3308
  741TMC3    C110999   3.550   3.147  14.338  0.2850 -0.7987 -0.2110
  741TMC3    C211000   3.482   3.037  14.383  0.9615 -0.2499  0.2123
  741TMC3    C311001   3.546   2.915  14.380 -0.5630 -0.4014 -0.6830
  741TMC3    C411002   3.669   3.134  14.271  0.0631 -0.5845  0.7424
  741TMC3    C511003   3.729   3.011  14.271 -0.1824  0.1128 -0.5235
  741TMC3    C611004   3.670   2.899  14.327 -0.2823  0.2712  0.1074
  741TMC3     C11005   3.487   3.279  14.354 -0.2259 -0.3785  0.1758
  741TMC3     O11006   3.401   3.281  14.441 -0.1211  0.3010  0.1782
  741TMC3     H11007   3.380   3.049  14.418  1.4994  4.1195  0.3190
  741TMC3    H111008   3.723   3.221  14.235  1.9765 -2.0330  0.1371
  741TMC3    H211009   3.716   2.807  14.290  1.4671  1.4768 -0.7252
  741TMC3    C711010   3.849   2.996  14.192  0.0869 -0.6392  0.1586
  741TMC3    C811011   3.451   2.807  14.372 -0.1559 -0.5563  1.3280
  741TMC3    O111012   3.935   2.913  14.223  0.4457  0.5885 -0.3838
  741TMC3    O211013   3.329   2.827  14.375  0.6130  0.0589 -0.3491
  742TMC3    C111014   3.723   1.275  15.087  0.4177 -0.1415  0.7031
  742TMC3    C211015   3.660   1.304  14.973 -0.3195 -0.1499 -0.3442
  742TMC3    C311016   3.736   1.364  14.882 -0.2235  0.3216  0.3829
  742TMC3    C411017   3.848   1.327  15.122  0.9375 -0.2361  0.5333
  742TMC3    C511018   3.915   1.406  15.034 -0.1738  0.1589 -0.1331
  742TMC3    C611019   3.862   1.412  14.906  0.3485  0.2180  1.1055
  742TMC3     C11020   3.650   1.180  15.168 -0.9543  0.1937 -0.2344
  742TMC3     O11021   3.555   1.117  15.124  0.3615  0.4997 -1.0547
  742TMC3     H11022   3.574   1.241  14.950 -0.8749  0.2560  0.6004
  742TMC3    H111023   3.923   1.294  15.193  1.9588 -2.3803 -1.5180
  742TMC3    H211024   3.920   1.451  14.823  0.5468 -0.4159  0.9457
  742TMC3    C711025   4.052   1.360  15.034 -0.5778  0.7708 -0.3456
  742TMC3    C811026   3.696   1.360  14.740 -0.5346  0.6345 -0.5421
  742TMC3    O111027   4.061   1.247  14.994  0.4372 -0.3615 -0.0807
  742TMC3    O211028   3.788   1.380  14.657  0.3573  0.3235 -0.1140
  743MPD2     C11029   1.743   1.213   1.497  0.2311 -0.5102  0.1173
  743MPD2    C111030   1.745   1.347   1.464  0.3712  0.2864  1.1002
  743MPD2    C211031   1.867   1.413   1.477 -1.1162 -0.1047 -0.0623
  743MPD2    C311032   1.980   1.349   1.527 -0.9344  0.4369  0.0324
  743MPD2    C411033   1.969   1.218   1.565  0.9967 -0.0020  0.7626
  743MPD2    C511034   1.852   1.154   1.549 -0.2835  0.6336  0.3794
  743MPD2     H11035   1.873   1.518   1.453  0.1231 -0.4767 -1.4157
  743MPD2    H111036   2.052   1.158   1.602  1.6499 -0.2698 -1.1015
  743MPD2    H211037   1.655   1.151   1.501  1.3815 -2.1856 -0.4360
  743MPD2    H311038   1.845   1.047   1.568 -0.7065  0.5365 -0.3039
  743MPD2     N11039   2.106   1.424   1.527 -0.4315  0.0940  0.2144
  743MPD2    H511040   2.093   1.522   1.503 -2.0332 -0.1257  0.1719
  743MPD2    N111041   1.630   1.401   1.409  0.5697  0.0845 -0.0331
  743MPD2    H711042   1.558   1.329   1.403 -0.4826  1.2627 -1.4829
  744TMC3    C111043   1.485   1.516   1.268  0.0178  0.2730  0.4782
  744TMC3    C211044   1.416   1.408   1.243  0.6816 -0.3528 -0.1730
  744TMC3    C311045   1.305   1.426   1.161  0.3037 -0.1841 -0.2233
  744TMC3    C411046   1.446   1.639   1.215 -0.7850 -0.3837 -0.0856
  744TMC3    C511047   1.338   1.655   1.140 -0.0011 -0.2544 -0.1099
  744TMC3    C611048   1.276   1.543   1.101  0.8580  1.5207 -0.3120
  744TMC3     C11049   1.611   1.520   1.350 -0.1710 -0.2933 -0.6682
  744TMC3     O11050   1.680   1.618   1.352  0.1332  0.0073  0.4846
  744TMC3     H11051   1.436   1.308   1.282 -0.0488 -0.9303 -1.2657
  744TMC3    H111052   1.501   1.727   1.247 -0.2877 -0.5052 -0.6003
  744TMC3    H211053   1.202   1.561   1.023 -1.4262  1.1037  1.7844
  744TMC3    C711054   1.311   1.780   1.066 -0.4600 -0.1778  0.2257
  744TMC3    C811055   1.206   1.321   1.139  0.5284 -0.7190  0.6957
  744TMC3    O111056   1.405   1.852   1.036  0.3175 -0.3126  0.5435
  744TMC3    O211057   1.100   1.359   1.086 -0.5299 -0.7212  0.0706
  745TMC3    C111058   4.259   0.588  13.464  0.0468  0.7554 -0.0133
  745TMC3    C211059   4.137   0.603  13.516 -0.0524 -0.2370  0.3134
  745TMC3    C311060   4.037   0.582  13.433  0.3979 -0.0904  0.2251
  745TMC3    C411061   4.295   0.561  13.331  0.5693 -0.6813 -0.2956
  745TMC3    C511062   4.184   0.542  13.246  0.3220 -0.2346  0.0554
  745TMC3    C611063   4.058   0.540  13.308 -0.9542 -0.1068 -0.9684
  745TMC3     C11064   4.345   0.691  13.509  0.7127 -0.4185  0.4266
  745TMC3     O11065   4.460   0.658  13.527  0.6136 -0.2874 -0.2163
  745TMC3     H11066   4.133   0.619  13.623 -0.4318  2.7534 -0.1258
  745TMC3    H111067   4.396   0.585  13.302  0.7253 -1.4652 -0.4129
  745TMC3    H211068   3.971   0.519  13.246 -2.2283 -2.4988  1.6170
  745TMC3    C711069   4.208   0.625  13.132 -0.1502  0.7341  0.2672
  745TMC3    C811070   3.940   0.684  13.433 -0.9267  0.4279 -0.2342
  745TMC3    O111071   4.323   0.625  13.082 -0.2470  0.0817 -0.1181
  745TMC3    O211072   3.880   0.709  13.326 -0.1143 -0.0236 -0.0209
  746TMC3    C111073   1.775   2.318  10.820  0.1104  0.1280  0.4788
  746TMC3    C211074   1.745   2.295  10.692 -0.4242  0.5491 -0.6474
  746TMC3    C311075   1.623   2.244  10.657  0.3693 -0.4001 -0.5120
  746TMC3    C411076   1.690   2.291  10.925 -0.6351 -0.0174  0.2886
  746TMC3    C511077   1.580   2.214  10.893  0.3506  0.2343  0.6323
  746TMC3    C611078   1.540   2.197  10.760 -0.1755  0.1644 -0.2489
  746TMC3     C11079   1.828   2.450  10.828  0.3105 -0.2123  0.3981
  746TMC3     O11080   1.793   2.519  10.735  0.2808  0.6644  0.3236
  746TMC3     H11081   1.814   2.318  10.611 -0.9266  2.7317 -0.4263
  746TMC3    H111082   1.727   2.322  11.022  0.3166 -2.7116  0.7884
  746TMC3    H211083   1.437   2.170  10.737  0.4814 -1.5636 -1.1196
  746TMC3    C711084   1.484   2.177  10.996  0.0855 -0.3260  0.1897
  746TMC3    C811085   1.546   2.315  10.561 -0.1506  0.4292 -0.3174
  746TMC3    O111086   1.383   2.136  10.943  0.1059 -0.0505  0.1548
  746TMC3    O211087   1.441   2.268  10.520 -0.0619  0.5968 -0.3018
  747TMC3    C111088   4.434   2.857  10.918  0.3113  0.7669  0.1689
  747TMC3    C211089   4.323   2.802  10.987  0.1023 -0.1148 -0.4881
  747TMC3    C311090   4.287   2.867  11.105 -0.5441  0.4519  0.2103
  747TMC3    C411091   4.506   2.957  10.977 -0.1718  0.7361  0.0583
  747TMC3    C511092   4.475   3.009  11.096 -0.3236  0.4192 -0.5901
  747TMC3    C611093   4.365   2.967  11.161 -0.0764  0.3399  0.0766
  747TMC3     C11094   4.461   2.829  10.774  0.3775  0.7675 -0.2804
  747TMC3     O11095   4.559   2.892  10.729  0.1444 -0.1864  0.1300
  747TMC3     H11096   4.260   2.727  10.941 -1.3435  0.3289  0.8030
  747TMC3    H111097   4.591   2.992  10.920  0.7023 -0.9712  0.3047
  747TMC3    H211098   4.329   3.021  11.248 -1.9626 -0.4375 -0.2239
  747TMC3    C711099   4.587   3.081  11.161  0.6330  0.6931 -0.3940
  747TMC3    C811100   4.164   2.806  11.176  0.2751 -0.2238 -0.7715
  747TMC3    O111101   4.702   3.042  11.128  0.0091 -0.3198  0.0370
  747TMC3    O211102   4.116   2.720  11.107 -0.2214  0.1629 -0.4779
  748MPD2     C11103   0.484   3.070   0.740 -0.1617 -0.2894 -0.0247
  748MPD2    C111104   0.422   3.193   0.779  0.7140 -0.3239  0.3849
  748MPD2    C211105   0.500   3.299   0.813 -0.1232 -0.2371  0.5596
  748MPD2    C311106   0.636   3.284   0.810 -0.5846 -0.3278  0.3760
  748MPD2    C411107   0.695   3.168   0.773 -0.3194  0.7061  0.3491
  748MPD2    C511108   0.615   3.058   0.740 -0.3444 -0.2341  0.5467
  748MPD2     H11109   0.449   3.391   0.840  0.3396  0.8866 -2.4023
  748MPD2    H111110   0.803   3.155   0.768 -0.3525  0.2265  0.9583
  748MPD2    H211111   0.429   2.978   0.720  0.1409 -0.8564  1.7628
  748MPD2    H311112   0.667   2.966   0.714 -0.6969 -0.6078  1.1816
  748MPD2     N11113   0.714   3.390   0.838 -0.1235 -0.2430 -0.0405
  748MPD2    H511114   0.675   3.483   0.839  1.0530  0.2416  0.6130
  748MPD2    N111115   0.275   3.200   0.776 -0.1619  0.4296 -1.3267
  748MPD2    H711116   0.235   3.114   0.740 -0.2481  0.4709 -1.3292
  749TMC3    C111117   0.918   3.510   0.862  0.7128  0.3538  0.0959
  749TMC3    C211118   1.023   3.541   0.942 -0.5664  0.6843  0.2502
  749TMC3    C311119   1.088   3.657   0.919  0.1052 -0.3452 -0.3151
  749TMC3    C411120   0.883   3.585   0.756 -0.5560  0.4201 -0.8024
  749TMC3    C511121   0.955   3.702   0.739  0.5891  0.3920  0.2044
  749TMC3    C611122   1.055   3.742   0.819 -0.3604 -0.0891 -0.1854
  749TMC3     C11123   0.852   3.383   0.866 -0.6669  0.3456  0.5742
  749TMC3     O11124   0.915   3.292   0.920  0.2478  0.0331 -0.1369
  749TMC3     H11125   1.056   3.474   1.020  0.3654  0.2798 -0.4825
  749TMC3    H111126   0.807   3.555   0.685  0.2164 -0.2865 -1.3457
  749TMC3    H211127   1.120   3.827   0.806 -0.7495  0.2971  0.3816
  749TMC3    C711128   0.972   3.753   0.610 -0.2969  0.3001  0.1371
  749TMC3    C811129   1.208   3.682   1.008 -0.0332 -0.2078  0.1829
  749TMC3    O111130   0.980   3.876   0.595  0.0889 -0.7798 -0.8831
  749TMC3    O211131   1.239   3.800   1.022 -0.7589 -0.1177  0.1996
  750MPD2     C11132   1.857   4.508  11.317 -0.3107 -0.0590 -0.1674
  750MPD2    C111133   1.731   4.468  11.358 -0.3433  0.1386  0.1731
  750MPD2    C211134   1.674   4.358  11.299  0.2924 -0.2174  0.3522
  750MPD2    C311135   1.743   4.279  11.203  0.3251 -0.5270 -0.2269
  750MPD2    C411136   1.868   4.322  11.165  0.2179  0.5692  1.1821
  750MPD2    C511137   1.930   4.431  11.223  0.2236  0.4049 -0.1410
  750MPD2     H11138   1.575   4.330  11.335 -1.3936 -0.3992 -4.4978
  750MPD2    H111139   1.926   4.265  11.093  0.3147  0.9303  0.9759
  750MPD2    H211140   1.899   4.597  11.362 -2.5912  0.9776 -0.1337
  750MPD2    H311141   2.033   4.454  11.200 -0.3178 -0.2869 -3.1767
  750MPD2     N11142   1.690   4.162  11.144  0.0940  0.2092 -0.1236
  750MPD2    H511143   1.745   4.130  11.065 -1.9265 -1.9270 -0.6651
  750MPD2    N111144   1.667   4.546  11.448 -0.2476  0.0893  0.4541
  750MPD2    H711145   1.704   4.639  11.462  1.4296 -0.0498 -2.9190
  751TMC3    C111146   1.555   3.961  11.120  0.8812  0.3345 -0.7648
  751TMC3    C211147   1.460   3.883  11.173  0.6394  0.1724 -0.1436
  751TMC3    C311148   1.461   3.752  11.129 -0.4195 -0.2391 -0.3463
  751TMC3    C411149   1.652   3.917  11.026  0.9349  0.0968 -0.5181
  751TMC3    C511150   1.649   3.785  10.984 -0.7373  0.2499 -0.6275
  751TMC3    C611151   1.561   3.704  11.045  0.3794 -0.1295  0.0526
  751TMC3     C11152   1.584   4.088  11.192 -0.0061  0.1543  0.0244
  751TMC3     O11153   1.520   4.109  11.295  0.2906  0.4770  0.5870
  751TMC3     H11154   1.384   3.928  11.235  1.2314 -1.3553  1.6975
  751TMC3    H111155   1.719   3.981  10.971  1.6501 -0.7534 -0.6315
  751TMC3    H211156   1.556   3.598  11.024  0.7472  0.4925 -3.2588
  751TMC3    C711157   1.699   3.751  10.854  0.4255  0.1745  0.3736
  751TMC3    C811158   1.337   3.720  11.057  0.3541 -0.5090  0.3623
  751TMC3    O111159   1.791   3.815  10.814 -0.7023 -0.0486 -0.5521
  751TMC3    O211160   1.357   3.678  10.941 -0.3010  0.7615 -0.3691
  752TMC3    C111161   0.253   0.169  17.192 -0.7364 -0.1564 -0.2922
  752TMC3    C211162   0.236   0.032  17.215  0.3010  0.2102 -0.4396
  752TMC3    C311163   0.205   4.731  17.347  0.0035  0.0937 -0.4817
  752TMC3    C411164   0.251   0.265  17.297  0.2918  0.0892 -0.6463
  752TMC3    C511165   0.204   0.223  17.418 -0.1706 -0.4757 -0.0931
  752TMC3    C611166   0.174   0.090  17.442  0.0500  0.4687 -0.3734
  752TMC3     C11167   0.342   0.202  17.086  0.8551  0.0773  0.1219
  752TMC3     O11168   0.419   0.295  17.099  0.3784  0.3079 -0.0804
  752TMC3     H11169   0.259   4.697  17.139 -3.0707 -1.0827 -0.2216
  752TMC3    H111170   0.270   0.370  17.276  1.3617 -0.2143 -1.1709
  752TMC3    H211171   0.131   0.066  17.538 -0.1818 -1.4443 -0.9446
  752TMC3    C711172   0.133   0.323  17.496  0.2102 -0.1221  0.4735
  752TMC3    C811173   0.221   4.593  17.389 -0.3273 -0.0133 -1.6215
  752TMC3    O111174   0.165   0.436  17.480 -0.7032 -0.3325 -0.5526
  752TMC3    O211175   0.270   4.526  17.300  0.5115  0.1215 -0.2931
  753TMC3    C111176   2.843   0.797  13.352 -0.2309  0.0776  0.2993
  753TMC3    C211177   2.932   0.796  13.455 -0.0469  0.0088  0.5193
  753TMC3    C311178   3.015   0.684  13.470  0.3126 -0.7928  0.1247
  753TMC3    C411179   2.838   0.701  13.258  0.1767 -0.2579 -0.0435
  753TMC3    C511180   2.924   0.592  13.272 -0.6111 -0.1523 -0.2308
  753TMC3    C611181   3.017   0.583  13.376 -0.3869 -0.5005  0.8923
  753TMC3     C11182   2.731   0.889  13.342  0.1772 -1.0216 -0.5368
  753TMC3     O11183   2.655   0.873  13.246 -0.2315 -0.2651 -0.3536
  753TMC3     H11184   2.949   0.883  13.516  0.4184 -0.0052  0.4061
  753TMC3    H111185   2.766   0.703  13.177 -0.1648  1.3254  0.3118
  753TMC3    H211186   3.074   0.493  13.397 -0.1520 -0.1864  1.5797
  753TMC3    C711187   2.929   0.497  13.156  0.4553 -0.3451 -0.4292
  753TMC3    C811188   3.115   0.692  13.581  0.3449  0.2058  0.1142
  753TMC3    O111189   2.829   0.493  13.084  0.2614  0.2646 -0.9521
  753TMC3    O211190   3.228   0.655  13.568  0.7132  0.1506 -0.1904
  754MPD2     C11191   1.356   4.480  13.037 -0.0038  0.4231 -0.0660
  754MPD2    C111192   1.391   4.349  13.036  0.5029  0.1562  0.0638
  754MPD2    C211193   1.292   4.256  13.009 -0.0132 -0.0222  0.2385
  754MPD2    C311194   1.162   4.300  12.995  0.3988  0.4353  0.3750
  754MPD2    C411195   1.133   4.429  12.989 -0.0654 -0.8163 -0.8223
  754MPD2    C511196   1.227   4.520  13.024 -0.3018 -0.4876 -0.3866
  754MPD2     H11197   1.319   4.153  12.988  1.1077  0.4097 -0.4759
  754MPD2    H111198   1.031   4.460  12.968  0.8102  2.4368 -0.2857
  754MPD2    H211199   1.427   4.556  13.064  0.1409  0.5320 -0.7454
  754MPD2    H311200   1.200   4.624  13.039  1.5809 -0.1857  0.8744
  754MPD2     N11201   1.048   4.217  12.989 -0.9513  0.7185  0.1574
  754MPD2    H511202   0.957   4.260  12.984  0.1221  2.9089 -0.4803
  754MPD2    N111203   1.534   4.325  13.062 -0.5945  0.6278  0.1641
  754MPD2    H711204   1.590   4.410  13.059  0.0679  0.1593 -0.7570
  755MPD2     C11205   0.295   4.555  13.243 -0.2211 -0.2153 -0.5265
  755MPD2    C111206   0.356   4.494  13.352  0.0069  0.6834 -0.1081
  755MPD2    C211207   0.449   4.398  13.329 -0.9721  0.0208  0.9590
  755MPD2    C311208   0.498   4.377  13.204 -0.4828  0.0642 -0.4992
  755MPD2    C411209   0.460   4.459  13.101  0.0022 -0.2655  0.3465
  755MPD2    C511210   0.352   4.545  13.121 -0.3989  0.2600 -0.0669
  755MPD2     H11211   0.490   4.340  13.410 -0.2877  1.6841  1.8055
  755MPD2    H111212   0.500   4.459  13.000 -0.2806 -0.3654  0.2377
  755MPD2    H211213   0.205   4.615  13.250  0.0408  0.0616  0.5446
  755MPD2    H311214   0.320   4.610  13.041  0.1567  0.1469 -0.3775
  755MPD2     N11215   0.598   4.276  13.175  0.0070 -0.3475 -0.5926
  755MPD2    H511216   0.647   4.292  13.087  1.0030 -2.1355 -0.3595
  755MPD2    N111217   0.312   4.500  13.489 -0.4391 -0.5168  0.0384
  755MPD2    H711218   0.355   4.431  13.550  0.4777  0.8832  0.9983
  756MPD2     C11219   1.265   0.795   9.600 -0.1763  0.2467 -0.8012
  756MPD2    C111220   1.178   0.732   9.687  0.3175 -0.1334  0.2197
  756MPD2    C211221   1.046   0.714   9.634  0.0205 -0.1117  0.1628
  756MPD2    C311222   1.003   0.765   9.518 -0.1203 -0.0294  0.6018
  756MPD2    C411223   1.097   0.831   9.437 -0.1338 -0.6926 -0.6286
  756MPD2    C511224   1.225   0.839   9.482  0.0498  0.1225 -0.0756
  756MPD2     H11225   0.969   0.665   9.694 -1.0870 -0.8092 -1.8272
  756MPD2    H111226   1.070   0.876   9.343  2.9271  0.7166 -0.8422
  756MPD2    H211227   1.368   0.821   9.620  0.2515 -0.3537 -2.2516
  756MPD2    H311228   1.288   0.892   9.412 -0.0471 -0.4512 -0.5921
  756MPD2     N11229   0.867   0.735   9.479 -0.9475 -0.3988 -0.0204
  756MPD2    H511230   0.811   0.674   9.538  0.0929 -1.8239 -0.5087
  756MPD2    N111231   1.213   0.665   9.805  0.3539  0.5433  0.2452
  756MPD2    H711232   1.135   0.624   9.857 -0.2683  0.5989 -0.6481
  757MPD2     C11233   0.401   0.079   9.716 -0.2722 -0.1892  0.1108
  757MPD2    C111234   0.525   0.130   9.743  0.2336  0.1081  0.4324
  757MPD2    C211235   0.549   0.263   9.700 -0.1432  0.6823  0.2758
  757MPD2    C311236   0.445   0.335   9.637  0.0022  0.3901 -0.9031
  757MPD2    C411237   0.325   0.277   9.614  0.0419  0.2465  0.2639
  757MPD2    C511238   0.299   0.152   9.659  0.2626  0.4518  0.4259
  757MPD2     H11239   0.648   0.308   9.708 -0.5915  1.7139  0.0076
  757MPD2    H111240   0.242   0.332   9.570  0.2041  0.7221  0.5595
  757MPD2    H211241   0.374   4.720   9.756 -1.5511 -0.1991 -0.7808
  757MPD2    H311242   0.204   0.101   9.645  0.3431  0.3757  0.1634
  757MPD2     N11243   0.484   0.453   9.571  0.3815  0.6106 -0.0453
  757MPD2    H511244   0.576   0.487   9.597  0.3736  0.3619  0.3058
  757MPD2    N111245   0.623   0.059   9.819 -0.2481  0.4142  0.0591
  757MPD2    H711246   0.601   4.698   9.824  1.5200  0.0841  1.1135
  758MPD2     C11247   1.058   4.253  15.698 -0.6545 -0.2400  0.5078
  758MPD2    C111248   1.096   4.146  15.776  0.5247  0.6175  0.0129
  758MPD2    C211249   1.035   4.127  15.900 -0.0291  0.2572  0.3855
  758MPD2    C311250   0.948   4.216  15.955 -0.6415 -0.1499  0.2186
  758MPD2    C411251   0.918   4.326  15.880  0.3457 -0.5322  0.4656
  758MPD2    C511252   0.973   4.351  15.755  0.0080  0.4092  0.1533
  758MPD2     H11253   1.074   4.040  15.953 -0.4810  0.0367  0.3537
  758MPD2    H111254   0.845   4.400  15.912  0.8472 -0.5507  1.6665
  758MPD2    H211255   1.087   4.261  15.594  1.2622  0.3701  1.0908
  758MPD2    H311256   0.945   4.441  15.703 -1.0971  0.0586  0.1331
  758MPD2     N11257   0.918   4.219  16.095  0.0654  0.1183  0.4823
  758MPD2    H511258   0.878   4.305  16.130 -0.1304  0.8602 -1.5307
  758MPD2    N111259   1.195   4.050  15.736  0.8346 -0.0292 -0.0408
  758MPD2    H711260   1.198   3.966  15.793 -0.4720  0.2706  0.4585
  759MPD2     C11261   0.372   2.905  10.538 -0.0490 -0.0607  0.2315
  759MPD2    C111262   0.391   2.772  10.572  0.4537 -0.3989  0.1664
  759MPD2    C211263   0.446   2.683  10.478 -0.4226  0.7578 -0.6776
  759MPD2    C311264   0.487   2.735  10.355 -0.0523  0.9271  0.0035
  759MPD2    C411265   0.463   2.867  10.320  0.0300 -0.5703 -0.6011
  759MPD2    C511266   0.407   2.950  10.413  0.4039 -0.0129  0.5065
  759MPD2     H11267   0.457   2.576  10.494 -2.5233  0.7374  0.6283
  759MPD2    H111268   0.474   2.924  10.228  0.5685  0.7075  0.2548
  759MPD2    H211269   0.342   2.981  10.610 -1.4046 -0.0942 -0.2858
  759MPD2    H311270   0.375   3.049  10.382 -0.2349  0.0365  1.3016
  759MPD2     N11271   0.523   2.637  10.255  0.0110  0.8142  0.1775
  759MPD2    H511272   0.531   2.543  10.292  1.0298  0.6761 -0.3892
  759MPD2    N111273   0.370   2.722  10.708 -0.3423  0.1544 -0.3169
  759MPD2    H711274   0.329   2.785  10.776  3.7909  2.6893 -0.1732
  760MPD2     C11275   4.484   0.053  12.319 -0.4234 -0.4946  0.0108
  760MPD2    C111276   4.607   0.010  12.270  0.5895  0.3188 -0.7868
  760MPD2    C211277   4.632   4.612  12.262 -0.3576  0.4369  0.7152
  760MPD2    C311278   4.545   4.517  12.306  0.4667 -0.7584  0.3303
  760MPD2    C411279   4.436   4.561  12.373  0.7246  0.4855 -0.4274
  760MPD2    C511280   4.404   4.698  12.378  0.6957 -0.0300  0.1584
  760MPD2     H11281   4.724   4.575  12.219  0.5663  1.4339  1.8582
  760MPD2    H111282   4.370   4.490  12.421 -0.1568  2.1474  0.8276
  760MPD2    H211283   4.455   0.157  12.332 -0.7359 -0.4713 -0.8603
  760MPD2    H311284   4.323   4.727  12.445 -2.0977 -1.2037 -2.7337
  760MPD2     N11285   4.560   4.379  12.303 -0.7982  0.5701 -0.1398
  760MPD2    H511286   4.477   4.328  12.330 -0.5411  0.3416  0.2189
  760MPD2    N111287   4.707   0.090  12.226  0.1689 -0.0526  0.7654
  760MPD2    H711288   0.055   0.038  12.211 -1.6879 -2.8824 -0.0137
  761MPD2     C11289   0.838   3.728  11.033 -0.6067 -0.5611  0.1096
  761MPD2    C111290   0.926   3.668  10.944  0.3496 -0.6153 -0.7519
  761MPD2    C211291   1.054   3.687  10.981 -0.1990  0.8888 -0.3083
  761MPD2    C311292   1.098   3.759  11.096  0.2998 -0.0401  0.0962
  761MPD2    C411293   1.010   3.819  11.184  0.0357  0.8057 -0.3788
  761MPD2    C511294   0.875   3.801  11.143 -0.9527  0.0567 -0.1893
  761MPD2     H11295   1.131   3.651  10.914  0.9427  1.1112  0.8873
  761MPD2    H111296   1.046   3.863  11.276  1.0498 -2.3099  0.7149
  761MPD2    H211297   0.733   3.713  11.008 -0.5466 -1.9270  0.6271
  761MPD2    H311298   0.797   3.851  11.200 -0.3829 -1.0189  1.5371
  761MPD2     N11299   1.233   3.764  11.131 -0.4583 -0.4600  0.0689
  761MPD2    H511300   1.256   3.810  11.218  0.1160  0.8298 -0.7733
  761MPD2    N111301   0.884   3.601  10.827 -0.4989  0.0661 -0.2239
  761MPD2    H711302   0.784   3.585  10.819 -0.5921  0.4780  0.1490
  762MPD2     C11303   1.266   3.482  10.148 -0.4045  0.3188 -0.2885
  762MPD2    C111304   1.285   3.404  10.256  0.5225  0.9031  0.0121
  762MPD2    C211305   1.407   3.345  10.280 -0.1262 -0.4069 -0.1031
  762MPD2    C311306   1.500   3.352  10.186 -0.6522 -0.4708 -0.3913
  762MPD2    C411307   1.482   3.428  10.069  0.6016 -0.1557  0.0694
  762MPD2    C511308   1.361   3.496  10.049  0.5271  0.4880 -0.5355
  762MPD2     H11309   1.423   3.278  10.364  1.5755  1.2363  0.9025
  762MPD2    H111310   1.548   3.435   9.983 -0.9355  0.3866 -1.0555
  762MPD2    H211311   1.166   3.522  10.138 -0.3121  0.3351 -1.0795
  762MPD2    H311312   1.342   3.550   9.958  0.6947 -3.0692 -2.6782
  762MPD2     N11313   1.621   3.277  10.214 -0.1982  0.0156  0.3733
  762MPD2    H511314   1.626   3.219  10.298  3.1342  1.1920  0.9495
  762MPD2    N111315   1.175   3.401  10.348  0.4399  0.3283  0.0036
  762MPD2    H711316   1.102   3.469  10.332 -0.7162 -0.3536  2.4655
  763MPD2     C11317   2.608   4.338  15.818  0.4758  0.5853  0.5151
  763MPD2    C111318   2.726   4.326  15.751  0.2491  0.1033  0.7410
  763MPD2    C211319   2.827   4.421  15.772 -0.2081  0.9224  0.3182
  763MPD2    C311320   2.815   4.514  15.875 -0.7325  0.3672  0.5401
  763MPD2    C411321   2.700   4.510  15.953  0.0546 -0.2327 -0.3677
  763MPD2    C511322   2.591   4.428  15.920  0.3466  0.6386 -0.7773
  763MPD2     H11323   2.910   4.416  15.704 -1.3517  2.2966 -1.1787
  763MPD2    H111324   2.692   4.568  16.044 -1.5513 -1.7125  0.4433
  763MPD2    H211325   2.521   4.275  15.802  1.2771 -0.0348 -1.4065
  763MPD2    H311326   2.499   4.421  15.978  0.1175  1.0382 -1.0900
  763MPD2     N11327   2.920   4.606  15.879 -0.6163 -0.1481 -0.2836
  763MPD2    H511328   3.006   4.593  15.826 -0.3357  0.3387  0.0490
  763MPD2    N111329   2.750   4.220  15.661 -0.0165 -0.0377 -0.1782
  763MPD2    H711330   2.830   4.216  15.598 -0.1929  0.9003 -0.4480
  764MPD2     C11331   1.033   0.730  17.288 -0.2411  0.0467  0.0140
  764MPD2    C111332   0.893   0.702  17.282  0.7437 -0.3709  0.1331
  764MPD2    C211333   0.839   0.627  17.385  0.2500 -0.0281 -0.3324
  764MPD2    C311334   0.917   0.578  17.490 -0.4313 -0.2115 -0.5788
  764MPD2    C411335   1.052   0.599  17.482 -0.2131 -0.8213 -0.1644
  764MPD2    C511336   1.106   0.676  17.387 -0.4538 -0.6611  0.6363
  764MPD2     H11337   0.736   0.597  17.371  0.7870 -1.9134 -0.2611
  764MPD2    H111338   1.122   0.540  17.541 -1.0282 -1.4178  0.2163
  764MPD2    H211339   1.087   0.782  17.210 -1.5500 -1.7350 -2.0874
  764MPD2    H311340   1.214   0.675  17.379 -0.3115 -0.8726  2.6474
  764MPD2     N11341   0.846   0.502  17.592 -0.0206  0.2111  0.3587
  764MPD2    H511342   0.745   0.497  17.581  0.0526 -0.0669 -0.2053
  764MPD2    N111343   0.813   0.746  17.170 -0.2284  0.8262  0.2152
  764MPD2    H711344   0.726   0.699  17.148 -0.3193  1.1311 -0.0815
  765MPD2     C11345   0.862   3.488  15.199  0.0776  0.2149  0.0213
  765MPD2    C111346   0.943   3.576  15.267 -0.3716 -0.1582  0.0200
  765MPD2    C211347   1.040   3.525  15.352 -0.2109 -0.3117  0.4380
  765MPD2    C311348   1.054   3.389  15.378 -0.0872  0.4843 -0.5591
  765MPD2    C411349   0.973   3.302  15.308 -0.2325  0.3000 -0.2014
  765MPD2    C511350   0.879   3.353  15.217  0.0927  0.4313  0.4144
  765MPD2     H11351   1.099   3.580  15.424 -0.9338  0.7146  0.2452
  765MPD2    H111352   0.989   3.195  15.309 -0.9613  0.1861 -1.0434
  765MPD2    H211353   0.770   3.524  15.155 -0.1986  1.3951  1.5890
  765MPD2    H311354   0.809   3.278  15.181  1.4515 -0.1679 -1.0005
  765MPD2     N11355   1.153   3.349  15.474  0.8676 -0.0518  0.7270
  765MPD2    H511356   1.206   3.424  15.516  1.4794 -0.5973  0.9339
  765MPD2    N111357   0.921   3.707  15.248 -0.0875 -0.5555  0.0902
  765MPD2    H711358   0.844   3.737  15.188  1.4323 -1.6582 -2.3888
  766MPD2     C11359   0.456   4.091  14.911 -0.1264 -1.2504  0.5424
  766MPD2    C111360   0.556   3.995  14.918  0.0819  0.1897  0.1701
  766MPD2    C211361   0.600   3.932  14.801 -0.3040  0.4066  0.0353
  766MPD2    C311362   0.537   3.963  14.678  0.4195  0.7199 -0.7207
  766MPD2    C411363   0.445   4.060  14.676 -0.1335  0.6035  0.7333
  766MPD2    C511364   0.397   4.114  14.789 -0.1231  0.0276  0.2243
  766MPD2     H11365   0.660   3.842  14.803 -0.0557  0.6224  2.3287
  766MPD2    H111366   0.417   4.093  14.577 -0.2241  0.2455  0.6390
  766MPD2    H211367   0.402   4.135  14.994 -0.5132 -1.7085  0.5334
  766MPD2    H311368   0.319   4.187  14.770 -0.6376 -0.5532  0.0855
  766MPD2     N11369   0.589   3.918  14.549  0.7586  0.3575  0.0721
  766MPD2    H511370   0.544   3.967  14.472 -0.9876 -2.0723 -0.4624
  766MPD2    N111371   0.630   3.978  15.039 -0.1219 -0.7642 -0.2205
  766MPD2    H711372   0.705   3.910  15.032  1.0754  0.4680  0.4494
  767MPD2     C11373   0.357   3.998  15.389 -0.2923  0.5231  1.1634
  767MPD2    C111374   0.291   4.081  15.303 -0.0573 -0.3895  0.4338
  767MPD2    C211375   0.224   4.028  15.197 -0.8454 -0.0330  0.1618
  767MPD2    C311376   0.236   3.892  15.171 -0.4649 -0.1723 -0.6751
  767MPD2    C411377   0.299   3.812  15.267 -0.9986 -0.0861  0.1278
  767MPD2    C511378   0.351   3.860  15.379 -0.9303  0.0256 -0.8544
  767MPD2     H11379   0.170   4.096  15.131 -2.9910 -2.7509 -0.8896
  767MPD2    H111380   0.313   3.705  15.257  1.9343  0.4335 -1.4494
  767MPD2    H211381   0.424   4.050  15.457  0.2371 -1.6963  2.3305
  767MPD2    H311382   0.390   3.794  15.455  0.8391 -0.6375 -2.3480
  767MPD2     N11383   0.204   3.847  15.037  0.3881  0.5436  0.6164
  767MPD2    H511384   0.175   3.917  14.970 -1.7017  0.0047  0.9388
  767MPD2    N111385   0.321   4.216  15.319 -0.3115  0.5935 -0.1143
  767MPD2    H711386   0.390   4.238  15.390 -0.2916 -0.2334  0.1279
  768MPD2     C11387   1.117   1.817  10.886  0.0378  0.4168 -0.3112
  768MPD2    C111388   1.119   1.840  11.026  0.0993  0.0670 -0.1619
  768MPD2    C211389   1.235   1.826  11.090  0.2254 -0.0945 -0.3771
  768MPD2    C311390   1.358   1.799  11.019  0.1744 -0.3036  0.4627
  768MPD2    C411391   1.350   1.780  10.880 -0.0580  0.8322 -0.1253
  768MPD2    C511392   1.225   1.783  10.814 -0.1519 -0.3108 -0.5701
  768MPD2     H11393   1.236   1.851  11.195 -1.0195 -0.3483 -0.2928
  768MPD2    H111394   1.438   1.759  10.821  0.3607  2.2285  0.0015
  768MPD2    H211395   1.021   1.792  10.844  1.1975 -0.6609 -2.3082
  768MPD2    H311396   1.219   1.747  10.712 -1.7035  0.2454 -0.6715
  768MPD2     N11397   1.486   1.784  11.076 -0.0242  0.0587  0.1451
  768MPD2    H511398   1.554   1.782  11.001  0.9119 -1.7676  1.0263
  768MPD2    N111399   0.998   1.871  11.099  0.4175  0.5826  0.0348
  768MPD2    H711400   1.005   1.870  11.201 -0.6384  0.3778  0.1052
  769MPD2     C11401   2.263   0.843  14.582 -0.5009  0.0857  0.3916
  769MPD2    C111402   2.172   0.902  14.666  0.0481 -0.7862  0.3212
  769MPD2    C211403   2.199   0.925  14.799 -0.4653 -0.1491 -0.4860
  769MPD2    C311404   2.330   0.908  14.841 -0.0062 -0.2789  0.5892
  769MPD2    C411405   2.424   0.852  14.757  0.0659 -0.8738  0.2182
  769MPD2    C511406   2.390   0.810  14.628  0.6007 -0.2218  0.0583
  769MPD2     H11407   2.126   0.974  14.862 -0.2694 -0.9779  0.3757
  769MPD2    H111408   2.526   0.826  14.782  0.4916  1.7153  1.0812
  769MPD2    H211409   2.230   0.820  14.482  1.1733 -0.1420 -0.0933
  769MPD2    H311410   2.463   0.755  14.570 -0.1020 -0.5510 -0.5142
  769MPD2     N11411   2.358   0.951  14.966 -0.0050 -0.1896  0.3551
  769MPD2    H511412   2.280   1.000  15.009 -0.2174  0.8878 -1.2491
  769MPD2    N111413   2.035   0.925  14.636 -0.5159 -0.0920 -0.4026
  769MPD2    H711414   1.978   0.958  14.714  0.4206  2.6179 -0.8821
  770MPD2     C11415   1.521   0.481  15.199  0.0819 -0.2905  0.2696
  770MPD2    C111416   1.497   0.414  15.080  0.9243  0.5839  0.3893
  770MPD2    C211417   1.494   0.487  14.961  0.5030  0.6373  0.1190
  770MPD2    C311418   1.525   0.624  14.964 -0.8157 -0.2265  0.2918
  770MPD2    C411419   1.533   0.691  15.083 -0.3213 -0.5457  0.6698
  770MPD2    C511420   1.525   0.617  15.203 -0.2078 -0.1795 -0.3951
  770MPD2     H11421   1.488   0.423  14.874 -2.8569 -0.4923  1.1844
  770MPD2    H111422   1.567   0.794  15.088  0.3538 -0.7366  0.0589
  770MPD2    H211423   1.518   0.424  15.291 -1.7087 -0.3522  0.1695
  770MPD2    H311424   1.522   0.661  15.302  0.3865  0.1130 -0.5013
  770MPD2     N11425   1.533   0.686  14.840  0.1123 -0.3145  0.5515
  770MPD2    H511426   1.537   0.627  14.757  1.3893 -3.3929  2.8184
  770MPD2    N111427   1.469   0.276  15.078 -0.5252  0.0064  0.3347
  770MPD2    H711428   1.485   0.231  15.167 -2.3836  0.0858  0.6951
  771MPD2     C11429   2.861   2.894  13.514 -0.3335  0.3473 -0.3184
  771MPD2    C111430   2.866   3.029  13.476 -0.2993  0.1075 -0.2039
  771MPD2    C211431   2.867   3.049  13.342 -0.1924 -0.0125 -0.1641
  771MPD2    C311432   2.848   2.948  13.249  0.3480 -0.1523 -0.4124
  771MPD2    C411433   2.846   2.815  13.294 -0.4796 -0.6564  0.0077
  771MPD2    C511434   2.852   2.795  13.431 -0.3973 -0.5927 -0.1201
  771MPD2     H11435   2.874   3.152  13.310 -1.1773  0.5505  1.4040
  771MPD2    H111436   2.825   2.733  13.226  0.7515  0.1819 -1.3893
  771MPD2    H211437   2.856   2.875  13.621 -2.5288  2.5018 -0.0225
  771MPD2    H311438   2.842   2.696  13.474 -1.4761 -0.4458 -0.0406
  771MPD2     N11439   2.846   2.988  13.118 -0.4583  0.0656  0.5906
  771MPD2    H511440   2.834   3.085  13.092 -0.9008 -0.4348 -1.0736
  771MPD2    N111441   2.874   3.144  13.562 -0.2021  0.5704 -0.1639
  771MPD2    H711442   2.871   3.231  13.510  0.8529  1.7504  1.7770
  772MPD2     C11443   2.371   3.578  14.114 -0.1532 -0.4728  0.2727
  772MPD2    C111444   2.379   3.479  14.025  0.3389  0.4225 -0.2244
  772MPD2    C211445   2.271   3.393  14.017 -0.0805  0.4197 -0.5697
  772MPD2    C311446   2.155   3.409  14.094  0.6567  0.1570 -0.3563
  772MPD2    C411447   2.140   3.516  14.186 -0.8093  0.0740  0.3096
  772MPD2    C511448   2.256   3.594  14.191  0.1545 -0.3438 -0.5586
  772MPD2     H11449   2.279   3.310  13.947  0.5537 -1.5844  1.8617
  772MPD2    H111450   2.054   3.524  14.252 -0.1367  0.5675  1.1414
  772MPD2    H211451   2.451   3.649  14.126  0.2583 -0.2349 -4.0716
  772MPD2    H311452   2.262   3.673  14.266 -0.5374 -0.0925 -0.7669
  772MPD2     N11453   2.054   3.310  14.107 -0.3760  0.1132 -0.2072
  772MPD2    H511454   1.968   3.333  14.156 -1.1260 -0.3282 -1.3018
  772MPD2    N111455   2.493   3.449  13.940 -0.0396  0.6442 -0.2236
  772MPD2    H711456   2.482   3.371  13.875  0.2879 -0.0854  0.5948
  773MPD2     C11457   1.817   3.931  17.286  0.4335  0.2381  0.1710
  773MPD2    C111458   1.743   3.820  17.329 -0.1659  0.4445  0.2364
  773MPD2    C211459   1.817   3.717  17.380 -0.3350  0.8079  0.3028
  773MPD2    C311460   1.955   3.714  17.392  0.6350  0.2029 -0.5396
  773MPD2    C411461   2.025   3.822  17.345 -0.4383 -0.1789 -0.5941
  773MPD2    C511462   1.954   3.925  17.298 -0.5938 -0.4347 -0.1599
  773MPD2     H11463   1.764   3.639  17.434  0.3793  1.0886  1.4013
  773MPD2    H111464   2.133   3.828  17.344 -0.5511  1.9140 -0.6993
  773MPD2    H211465   1.783   4.023  17.240  2.6509  0.7157 -0.5059
  773MPD2    H311466   2.012   4.006  17.256 -1.3334 -0.4721 -1.2673
  773MPD2     N11467   2.024   3.601  17.448 -0.7135  0.4581  0.1186
  773MPD2    H511468   1.965   3.525  17.482  0.8838 -1.5140 -1.5443
  773MPD2    N111469   1.603   3.818  17.334 -0.0019 -0.1602  0.5062
  773MPD2    H711470   1.560   3.744  17.389  0.9701 -0.7109  0.5250
  774MPD2     C11471   1.654   3.219  13.121  0.7509  0.0275  0.5216
  774MPD2    C111472   1.524   3.257  13.131  0.0984 -0.6420 -0.5189
  774MPD2    C211473   1.499   3.387  13.126  0.0756  0.1045  0.1808
  774MPD2    C311474   1.596   3.489  13.111 -0.3582 -0.5953  0.1068
  774MPD2    C411475   1.730   3.451  13.093 -0.5167  0.5925 -0.2901
  774MPD2    C511476   1.757   3.313  13.105  0.5757 -0.5734  0.1940
  774MPD2     H11477   1.398   3.422  13.142 -0.0001 -0.0977  0.1459
  774MPD2    H111478   1.811   3.522  13.080 -1.2146  1.1352 -1.6513
  774MPD2    H211479   1.689   3.117  13.127  1.7868  0.3564  0.2590
  774MPD2    H311480   1.857   3.278  13.083  1.4086  1.8129  0.1637
  774MPD2     N11481   1.546   3.618  13.124  0.3157  0.3186  0.0797
  774MPD2    H511482   1.445   3.615  13.126  0.4359 -2.5525  2.2657
  774MPD2    N111483   1.420   3.164  13.159 -0.5970  0.7068 -0.6717
  774MPD2    H711484   1.452   3.072  13.187  1.6661  1.1333 -1.9167
  775MPD2     C11485   2.431   0.504  15.296 -0.3521  0.0231 -0.4373
  775MPD2    C111486   2.428   0.608  15.387 -0.3217 -0.6313 -0.3538
  775MPD2    C211487   2.553   0.675  15.405  0.0968 -0.2135  0.0845
  775MPD2    C311488   2.670   0.649  15.329 -0.3399  0.2265 -0.1815
  775MPD2    C411489   2.658   0.548  15.231  0.1085  0.2897  0.2001
  775MPD2    C511490   2.539   0.480  15.223 -0.3274 -0.0107  0.2435
  775MPD2     H11491   2.551   0.760  15.472 -0.1454  0.8076 -1.2099
  775MPD2    H111492   2.745   0.522  15.171  0.1393  2.3540 -0.6591
  775MPD2    H211493   2.341   0.445  15.280  0.0987 -1.3284  2.0218
  775MPD2    H311494   2.530   0.400  15.151 -0.4625 -0.7906  1.1142
  775MPD2     N11495   2.796   0.713  15.342 -0.5135 -0.0591  0.2885
  775MPD2    H511496   2.875   0.678  15.289 -0.8260 -0.2663 -0.0400
  775MPD2    N111497   2.302   0.630  15.455 -0.3618  0.1390 -0.0781
  775MPD2    H711498   2.226   0.574  15.419 -1.7444  0.8516  1.7483
  776MPD2     C11499   1.153   0.483  11.486 -0.2044  0.2177  0.2248
  776MPD2    C111500   1.273   0.424  11.456 -0.1297 -0.3178  0.6857
  776MPD2    C211501   1.350   0.461  11.347 -0.1108  0.4840  0.1244
  776MPD2    C311502   1.306   0.568  11.273  0.0299 -0.4922 -0.3325
  776MPD2    C411503   1.179   0.628  11.301  0.7064 -0.1908  0.5839
  776MPD2    C511504   1.106   0.585  11.407  0.1651  0.0568 -0.0660
  776MPD2     H11505   1.436   0.405  11.313 -1.3111 -0.7332 -0.8882
  776MPD2    H111506   1.153   0.717  11.244 -1.0210 -1.8962 -1.2625
  776MPD2    H211507   1.086   0.452  11.566  0.3422  0.7497  0.8813
  776MPD2    H311508   1.015   0.635  11.437 -1.0450 -0.6918 -2.4807
  776MPD2     N11509   1.384   0.633  11.175 -0.0991 -0.1634 -0.1979
  776MPD2    H511510   1.353   0.718  11.128 -1.5177 -1.3165 -1.3614
  776MPD2    N111511   1.298   0.298  11.520  0.2742 -0.0499 -0.2484
  776MPD2    H711512   1.225   0.267  11.584  0.8010  1.4843  1.0952
  777MPD2     C11513   2.031   2.622   0.657  0.5423  0.0809  0.3717
  777MPD2    C111514   1.911   2.654   0.711  0.2214 -0.6380 -0.3305
  777MPD2    C211515   1.798   2.594   0.652 -1.0755  0.3073 -0.2960
  777MPD2    C311516   1.810   2.500   0.551  0.4241  0.4967 -0.4922
  777MPD2    C411517   1.937   2.469   0.503  0.4079  0.4996 -0.2166
  777MPD2    C511518   2.046   2.536   0.552 -0.0246 -0.0646  0.3217
  777MPD2     H11519   1.701   2.613   0.698 -1.1597 -1.6701  0.3541
  777MPD2    H111520   1.952   2.390   0.431 -0.3051 -0.6217  0.8783
  777MPD2    H211521   2.122   2.665   0.699  0.4667 -0.0441  0.6655
  777MPD2    H311522   2.146   2.504   0.525  0.1403 -0.1676  1.0657
  777MPD2     N11523   1.697   2.421   0.512 -0.0732 -0.6546 -0.1002
  777MPD2    H511524   1.616   2.422   0.573 -0.2716  1.6563 -0.3956
  777MPD2    N111525   1.909   2.732   0.831 -0.3570  0.0839 -0.3383
  777MPD2    H711526   1.997   2.762   0.872  0.2011 -0.6444 -1.0048
  778MPD2     C11527   2.915   3.314  14.971  0.8580  0.0207 -0.3020
  778MPD2    C111528   2.938   3.194  14.917  0.2844  0.7353  0.5167
  778MPD2    C211529   3.040   3.170  14.830  0.6203 -0.5656  0.8723
  778MPD2    C311530   3.141   3.259  14.820  0.6512  0.1379 -0.3018
  778MPD2    C411531   3.126   3.385  14.877  0.4142  0.0625 -0.1973
  778MPD2    C511532   3.013   3.406  14.957  0.1657  0.0407  0.2648
  778MPD2     H11533   3.050   3.072  14.785  0.4470 -0.8964  1.5513
  778MPD2    H111534   3.200   3.463  14.875 -0.2827  0.7329  0.1236
  778MPD2    H211535   2.825   3.338  15.027 -1.2057 -2.2381 -2.6570
  778MPD2    H311536   2.996   3.503  15.001 -0.2817  0.2339 -0.3409
  778MPD2     N11537   3.250   3.224  14.751 -0.7679 -0.0105  0.0669
  778MPD2    H511538   3.254   3.130  14.712  1.0004  0.4195 -0.7803
  778MPD2    N111539   2.835   3.098  14.915 -0.0456  0.2844 -0.0508
  778MPD2    H711540   2.851   3.015  14.858 -0.3781  0.4359 -0.3684
  779MPD2     C11541   2.617   1.730  14.281 -0.4895 -0.6193  0.1153
  779MPD2    C111542   2.746   1.774  14.247  0.3090  0.9695 -0.4909
  779MPD2    C211543   2.764   1.906  14.223  0.0489 -0.3970 -0.0959
  779MPD2    C311544   2.666   1.999  14.232 -0.8532 -0.1958 -0.6740
  779MPD2    C411545   2.537   1.961  14.253  0.1572 -0.0508  0.4208
  779MPD2    C511546   2.519   1.824  14.273 -0.0712  0.7015  1.7940
  779MPD2     H11547   2.867   1.934  14.201 -0.6267  1.2476 -1.1262
  779MPD2    H111548   2.447   2.020  14.265 -1.4512 -2.1264 -1.3381
  779MPD2    H211549   2.588   1.627  14.295 -1.3791 -0.6294 -1.8222
  779MPD2    H311550   2.417   1.798  14.297  0.5297 -2.6704  0.7848
  779MPD2     N11551   2.705   2.132  14.213 -0.3978 -0.4795  0.4436
  779MPD2    H511552   2.805   2.143  14.198  0.0725 -1.9947  2.4842
  779MPD2    N111553   2.850   1.678  14.222  0.0942 -0.7254  0.1476
  779MPD2    H711554   2.944   1.699  14.191  0.9651 -1.6550  2.1191
  780MPD2     C11555   2.664   1.692   1.020  0.2577  1.0931  0.3753
  780MPD2    C111556   2.570   1.605   0.961  0.5400 -0.3734 -0.4208
  780MPD2    C211557   2.523   1.630   0.835 -0.3629 -0.8874 -0.0420
  780MPD2    C311558   2.573   1.731   0.753  0.3402  0.2841  0.0438
  780MPD2    C411559   2.672   1.812   0.810 -0.3674  0.3782 -0.6829
  780MPD2    C511560   2.712   1.792   0.938 -0.2137  0.1219  0.2729
  780MPD2     H11561   2.436   1.570   0.810  0.2883 -1.0096 -1.9809
  780MPD2    H111562   2.724   1.889   0.755  1.3030  1.0025  1.7857
  780MPD2    H211563   2.695   1.693   1.124  0.2875 -0.0302  0.3773
  780MPD2    H311564   2.789   1.860   0.973 -0.7355  0.4911  0.6984
  780MPD2     N11565   2.533   1.732   0.619  0.6314 -0.4224 -0.9606
  780MPD2    H511566   2.463   1.661   0.603 -0.7474  0.5626  0.6252
  780MPD2    N111567   2.514   1.502   1.042  0.6375  0.0607 -0.2003
  780MPD2    H711568   2.544   1.493   1.139 -0.3943  2.2626  0.3138
  781MPD2     C11569   4.357   4.323  12.042 -0.3576  0.4249  0.4296
  781MPD2    C111570   4.369   4.186  12.057  0.3460  0.5074  0.1054
  781MPD2    C211571   4.417   4.118  11.948  0.5220 -0.7356  0.2752
  781MPD2    C311572   4.500   4.191  11.857 -0.0928 -0.4244  0.1395
  781MPD2    C411573   4.512   4.328  11.866  0.0128 -0.7138 -0.2144
  781MPD2    C511574   4.425   4.395  11.947  0.1481 -0.0958 -0.5173
  781MPD2     H11575   4.416   4.010  11.945 -1.1863 -0.6991 -0.8083
  781MPD2    H111576   4.568   4.389  11.797  0.0626  0.3788  0.7954
  781MPD2    H211577   4.298   4.380  12.114 -2.2592  0.1544 -0.9191
  781MPD2    H311578   4.417   4.503  11.958 -0.1147 -0.0608 -1.0231
  781MPD2     N11579   4.583   4.122  11.762 -0.8364 -0.3792  0.3385
  781MPD2    H511580   4.640   4.187  11.709  1.4562 -1.5132  1.4186
  781MPD2    N111581   4.292   4.121  12.159  0.8648  0.0964  0.7306
  781MPD2    H711582   4.285   4.021  12.145 -0.3706  0.3235 -0.2234
  782MPD2     C11583   1.790   4.254  10.128 -1.1601 -0.3964 -0.3288
  782MPD2    C111584   1.909   4.227  10.180  0.4873 -0.1674 -0.7184
  782MPD2    C211585   1.985   4.333  10.232  0.4487 -0.4887  0.1759
  782MPD2    C311586   1.934   4.459  10.236 -0.6638  0.0607 -0.2599
  782MPD2    C411587   1.809   4.487  10.185  0.3803 -0.5405 -0.1795
  782MPD2    C511588   1.740   4.383  10.130  0.3932 -0.0953 -0.9120
  782MPD2     H11589   2.074   4.315  10.291  0.0415  0.8315  1.2064
  782MPD2    H111590   1.767   4.587  10.179 -0.0489 -0.7505 -0.6305
  782MPD2    H211591   1.730   4.175  10.086  0.0243 -2.2598  1.4649
  782MPD2    H311592   1.650   4.403  10.074  0.9045  0.5564 -1.4983
  782MPD2     N11593   2.030   4.559  10.281 -0.0943  0.1330  0.5279
  782MPD2    H511594   2.112   4.521  10.327  0.4522  1.2123  0.4568
  782MPD2    N111595   1.948   4.092  10.181  0.0451  0.0559 -0.1085
  782MPD2    H711596   1.883   4.030  10.133 -1.1572  1.5177 -0.3600
  783MPD2     C11597   1.483   3.624  10.606 -0.4200  0.1271  0.8363
  783MPD2    C111598   1.603   3.641  10.659 -0.1692 -0.6882 -0.1254
  783MPD2    C211599   1.718   3.623  10.583 -0.6334  0.6046 -0.2365
  783MPD2    C311600   1.710   3.610  10.446  0.6393  0.2888  0.3353
  783MPD2    C411601   1.586   3.598  10.389 -1.1437  0.0064 -0.0836
  783MPD2    C511602   1.467   3.611  10.470  0.1584 -0.0592  0.2305
  783MPD2     H11603   1.814   3.618  10.633 -0.3617  1.2236 -0.6945
  783MPD2    H111604   1.575   3.574  10.284  1.1739 -0.9329 -0.1178
  783MPD2    H211605   1.393   3.627  10.667 -0.9184 -1.9915  0.2014
  783MPD2    H311606   1.370   3.585  10.429  0.5563 -0.0968 -0.6823
  783MPD2     N11607   1.832   3.609  10.373  0.0927 -0.4084 -0.1657
  783MPD2    H511608   1.916   3.597  10.429  0.0160 -2.2466 -0.4504
  783MPD2    N111609   1.600   3.677  10.794 -0.1705  0.2686 -0.0691
  783MPD2    H711610   1.512   3.666  10.844 -0.7433 -1.1263 -1.3666
  784MPD2     C11611   4.304   4.591   0.327 -0.4431  0.2429  0.1328
  784MPD2    C111612   4.331   4.694   0.412 -0.6183  0.1871 -0.3721
  784MPD2    C211613   4.235   0.057   0.416  0.4988  0.1781  0.5953
  784MPD2    C311614   4.120   0.055   0.341  0.0376 -0.1892  0.3468
  784MPD2    C411615   4.094   4.686   0.260 -0.0144  0.3331  0.1759
  784MPD2    C511616   4.188   4.585   0.257  0.3391  0.0493  0.0807
  784MPD2     H11617   4.244   0.136   0.490 -0.8599 -0.3151  1.2752
  784MPD2    H111618   4.003   4.672   0.204 -0.0670  2.5061 -0.2877
  784MPD2    H211619   4.379   4.514   0.314  1.4719  2.3921 -1.6589
  784MPD2    H311620   4.172   4.499   0.194 -0.7264 -0.7085  1.3942
  784MPD2     N11621   4.030   0.160   0.343 -0.3442  0.1827  0.2127
  784MPD2    H511622   4.051   0.232   0.411  1.3774  0.8480 -1.0300
  784MPD2    N111623   4.459   4.712   0.474  0.3350  0.0295 -0.0409
  784MPD2    H711624   4.479   0.065   0.514 -1.3603  0.1351  0.5783
  785MPD2     C11625   4.492   3.799  11.009  0.1641  0.1263  0.0935
  785MPD2    C111626   4.404   3.778  10.905  0.5634  0.2211  0.1166
  785MPD2    C211627   4.397   3.656  10.846  0.2565 -0.0487 -0.3531
  785MPD2    C311628   4.471   3.551  10.887  0.2967 -0.6183 -0.0238
  785MPD2    C411629   4.553   3.563  10.994  0.3151  0.3992 -0.5733
  785MPD2    C511630   4.562   3.686  11.052 -0.2944 -0.3157  0.2019
  785MPD2     H11631   4.325   3.652  10.765  1.1293  0.2962 -1.1450
  785MPD2    H111632   4.614   3.479  11.023 -0.9217 -1.3232 -3.0229
  785MPD2    H211633   4.509   3.899  11.047 -1.9616 -0.8896  3.7133
  785MPD2    H311634   4.638   3.705  11.127 -1.2126  0.4324  0.9579
  785MPD2     N11635   4.444   3.431  10.820 -0.2707  0.7046 -0.1625
  785MPD2    H511636   4.375   3.447  10.748 -0.4007  2.5317  0.3724
  785MPD2    N111637   4.332   3.889  10.850 -0.3892  0.0312 -0.2934
  785MPD2    H711638   4.264   3.863  10.780 -0.7127 -1.0520  0.4244
  786MPD2     C11639   3.383   1.234  14.343  0.6392  0.6438  0.3912
  786MPD2    C111640   3.519   1.271  14.344  0.7706  0.6411  0.7802
  786MPD2    C211641   3.580   1.306  14.465  0.0404  0.4013 -0.4628
  786MPD2    C311642   3.504   1.316  14.583 -0.3868 -0.0453 -0.2179
  786MPD2    C411643   3.369   1.283  14.570 -0.6952  0.1173  0.9310
  786MPD2    C511644   3.313   1.242  14.460  0.5156  0.1308  0.2849
  786MPD2     H11645   3.686   1.325  14.451  0.4214 -1.6463 -0.3301
  786MPD2    H111646   3.300   1.279  14.654  2.8304  0.5678  3.8194
  786MPD2    H211647   3.327   1.196  14.258  0.7180 -0.5147  0.8554
  786MPD2    H311648   3.205   1.226  14.464  0.5482 -0.5047 -1.2175
  786MPD2     N11649   3.563   1.338  14.713  0.5705 -0.4585  0.1838
  786MPD2    H511650   3.500   1.343  14.792 -0.1071 -0.2866 -0.3629
  786MPD2    N111651   3.593   1.275  14.225 -0.2307 -0.3335  0.0784
  786MPD2    H711652   3.693   1.290  14.240 -0.2284  0.4709 -0.6697
  787MPD2     C11653   3.639   0.895  14.499  0.8682 -0.3202 -0.7993
  787MPD2    C111654   3.712   0.838  14.397 -0.1616 -0.7199 -0.3559
  787MPD2    C211655   3.777   0.719  14.419  0.0266  0.3218  0.1322
  787MPD2    C311656   3.777   0.652  14.539  0.4545  0.2781  0.2617
  787MPD2    C411657   3.721   0.723  14.639  0.2227 -0.6601  0.6875
  787MPD2    C511658   3.655   0.844  14.622 -0.2448  0.1142 -0.7634
  787MPD2     H11659   3.824   0.667  14.336 -2.9634  1.2223 -2.1026
  787MPD2    H111660   3.703   0.678  14.736 -0.9049  0.3937  0.9686
  787MPD2    H211661   3.595   0.994  14.492  1.7767  0.1785  0.4517
  787MPD2    H311662   3.602   0.898  14.699 -0.3757 -0.9843 -0.0892
  787MPD2     N11663   3.838   0.526  14.552 -0.0774  0.1323  0.1604
  787MPD2    H511664   3.887   0.477  14.478  4.2576  2.9839  1.1528
  787MPD2    N111665   3.709   0.919  14.275 -0.7093  0.3181 -0.4425
  787MPD2    H711666   3.677   1.015  14.269  0.0672  0.7400  1.9471
  788MPD2     C11667   0.481   4.427   1.069  0.2012  0.6393  0.0476
  788MPD2    C111668   0.499   4.347   0.957 -0.5802 -0.5842 -0.3686
  788MPD2    C211669   0.542   4.417   0.842  0.4071 -0.1034  0.1935
  788MPD2    C311670   0.557   4.556   0.837  1.0625 -0.1459 -0.1282
  788MPD2    C411671   0.531   4.625   0.949  0.4337  0.1506 -0.6010
  788MPD2    C511672   0.488   4.560   1.063 -0.4100  0.0695 -0.1886
  788MPD2     H11673   0.562   4.353   0.756 -0.7671  0.7882 -0.7310
  788MPD2    H111674   0.538   4.733   0.951 -0.2945  0.1881 -0.1838
  788MPD2    H211675   0.455   4.380   1.163  1.9710 -2.4095 -0.9599
  788MPD2    H311676   0.478   4.617   1.155 -0.0318  0.6029 -0.4809
  788MPD2     N11677   0.585   4.632   0.721 -0.0974 -0.2457  0.3014
  788MPD2    H511678   0.567   4.731   0.732  2.2232  0.4132 -1.8883
  788MPD2    N111679   0.477   4.207   0.941 -0.4122  0.2587  0.7488
  788MPD2    H711680   0.499   4.162   0.853 -0.7020  0.1933  0.7096
  789MPD2     C11681   0.745   3.896  16.464  0.1305  0.3950 -0.6312
  789MPD2    C111682   0.712   3.880  16.593  0.1640 -0.7925  0.2803
  789MPD2    C211683   0.607   3.959  16.651  0.5477  0.4335  0.2698
  789MPD2    C311684   0.547   4.058  16.574  0.2086  0.1258 -0.6153
  789MPD2    C411685   0.587   4.074  16.445 -0.5059 -0.3280  0.1340
  789MPD2    C511686   0.676   3.990  16.388  0.6111  0.0242 -1.0515
  789MPD2     H11687   0.587   3.950  16.757  1.5472  1.4143  0.5536
  789MPD2    H111688   0.535   4.146  16.384 -4.0248 -2.1861  0.9001
  789MPD2    H211689   0.826   3.842  16.418  0.2467 -1.2881  1.5474
  789MPD2    H311690   0.703   4.007  16.284  1.8089 -2.0138 -1.0771
  789MPD2     N11691   0.443   4.131  16.623 -0.0527 -0.0284  0.5690
  789MPD2    H511692   0.405   4.205  16.564 -2.2565 -0.8110  1.0345
  789MPD2    N111693   0.775   3.781  16.675  0.0431  0.3581 -0.3791
  789MPD2    H711694   0.739   3.774  16.770 -1.1935  2.7193 -0.6727
  790MPD2     C11695   1.631   0.573  13.549  0.0273  0.2503  0.0163
  790MPD2    C111696   1.759   0.621  13.528 -0.1664 -0.0595  0.3965
  790MPD2    C211697   1.799   0.649  13.400  0.6046 -0.2753 -0.1507
  790MPD2    C311698   1.706   0.636  13.298 -0.3201 -0.0834 -0.7149
  790MPD2    C411699   1.579   0.590  13.325  0.2418  0.7287 -0.3852
  790MPD2    C511700   1.541   0.553  13.448 -0.0053 -0.5464 -0.2640
  790MPD2     H11701   1.901   0.671  13.372  0.5081  2.1008  1.3954
  790MPD2    H111702   1.504   0.579  13.247  0.4088 -1.5271 -0.2216
  790MPD2    H211703   1.594   0.561  13.650 -0.6069  0.8992 -0.1390
  790MPD2    H311704   1.437   0.533  13.469  0.1245  0.2264  1.0929
  790MPD2     N11705   1.746   0.656  13.166  0.5362  0.2397  0.0717
  790MPD2    H511706   1.841   0.690  13.155  0.9056 -1.2703 -1.3650
  790MPD2    N111707   1.840   0.636  13.642  0.1711 -0.0016  0.0905
  790MPD2    H711708   1.806   0.610  13.734 -2.9221 -2.1256 -1.6778
  791MPD2     C11709   1.300   0.759  12.451 -0.0589 -1.1045 -0.3367
  791MPD2    C111710   1.376   0.664  12.515  0.3479  0.4262  0.4902
  791MPD2    C211711   1.315   0.538  12.525  0.2280 -0.6158  0.4485
  791MPD2    C311712   1.183   0.515  12.487 -1.0759 -0.8297 -0.3426
  791MPD2    C411713   1.118   0.612  12.416  0.6351  0.2646  0.2359
  791MPD2    C511714   1.179   0.731  12.392  0.6191  0.1828 -0.2768
  791MPD2     H11715   1.365   0.456  12.577  0.7904  0.0707  0.9882
  791MPD2    H111716   1.014   0.605  12.387  0.0160  0.9871  2.2737
  791MPD2    H211717   1.331   0.859  12.426 -0.7160 -0.3129  2.0455
  791MPD2    H311718   1.115   0.804  12.344 -1.0849 -2.5088 -2.0959
  791MPD2     N11719   1.107   0.402  12.526  0.1131 -0.7974  0.3362
  791MPD2    H511720   1.171   0.338  12.571 -0.7620 -1.1461  1.0654
  791MPD2    N111721   1.497   0.695  12.584 -0.3531 -0.1143  0.2757
  791MPD2    H711722   1.516   0.793  12.606 -2.3878  0.3594 -0.0926
  792MPD2     C11723   2.189   0.109  10.967  0.1295 -0.0173  0.7418
  792MPD2    C111724   2.114   0.225  10.965 -0.1204 -0.0073 -0.0217
  792MPD2    C211725   1.982   0.233  11.000 -0.2782  0.3822  0.7785
  792MPD2    C311726   1.921   0.117  11.030 -0.0336 -0.4256 -0.1068
  792MPD2    C411727   1.991   4.737  11.022  0.2534 -0.3389  0.4744
  792MPD2    C511728   2.124   4.730  10.991 -0.5696  0.3082 -0.4795
  792MPD2     H11729   1.935   0.330  10.989  1.6011  1.4057  1.7514
  792MPD2    H111730   1.946   4.641  11.041  0.2993 -0.0422  2.0394
  792MPD2    H211731   2.295   0.115  10.946 -0.0389  1.6940  0.3569
  792MPD2    H311732   2.170   4.631  10.989 -0.0413  0.5793 -2.2995
  792MPD2     N11733   1.778   0.101  11.047 -0.1339 -0.1508 -0.1329
  792MPD2    H511734   1.744   0.006  11.061  0.4313 -0.0806  1.7762
  792MPD2    N111735   2.182   0.339  10.910  0.0934  0.4112  0.0802
  792MPD2    H711736   2.283   0.346  10.916  0.3405 -1.7669 -1.4936
  793MPD2     C11737   1.038   0.480  10.553 -0.2170 -0.7759  0.2450
  793MPD2    C111738   1.169   0.435  10.530  0.2389 -0.4342 -0.0612
  793MPD2    C211739   1.244   0.388  10.633  0.3899 -0.2846 -0.4309
  793MPD2    C311740   1.191   0.369  10.757 -0.3638 -0.3409  0.3589
  793MPD2    C411741   1.056   0.408  10.784 -0.4907 -0.0496  0.2804
  793MPD2    C511742   0.984   0.459  10.680  0.5900  0.5640  0.3217
  793MPD2     H11743   1.346   0.361  10.608  0.7803  0.4832  0.3237
  793MPD2    H111744   1.010   0.387  10.880  0.5160  2.8522  1.3898
  793MPD2    H211745   0.976   0.523  10.475  1.5644 -0.4441 -0.9834
  793MPD2    H311746   0.884   0.498  10.696  0.5071  0.3454  0.3341
  793MPD2     N11747   1.275   0.313  10.863 -0.3934 -0.3275  0.5055
  793MPD2    H511748   1.373   0.307  10.838 -0.4577 -0.0141  0.1864
  793MPD2    N111749   1.238   0.452  10.408  0.4850 -0.2048 -0.4572
  793MPD2    H711750   1.333   0.417  10.415  0.5249 -0.0314 -0.1486
  794MPD2     C11751   0.916   4.332  17.186 -0.0511  0.7552 -0.2738
  794MPD2    C111752   1.023   4.269  17.116  0.4632 -0.5638  0.5028
  794MPD2    C211753   1.060   4.325  16.994 -0.1926 -0.4378  0.1771
  794MPD2    C311754   1.001   4.448  16.951 -0.2237 -0.4971  0.2455
  794MPD2    C411755   0.906   4.510  17.024 -0.8668  1.2175 -0.2656
  794MPD2    C511756   0.865   4.453  17.144 -0.0464 -0.7822 -0.2606
  794MPD2     H11757   1.139   4.272  16.942 -0.5359  1.5491 -2.3948
  794MPD2    H111758   0.864   4.605  16.992 -0.9634  0.6094 -1.8976
  794MPD2    H211759   0.875   4.293  17.279 -3.7012 -1.1571 -2.7275
  794MPD2    H311760   0.785   4.503  17.196  1.7931  1.3238  0.5610
  794MPD2     N11761   1.024   4.516  16.832 -0.0594 -0.8165 -0.6410
  794MPD2    H511762   0.968   4.600  16.819  0.5848 -0.0805  1.3186
  794MPD2    N111763   1.092   4.163  17.170  0.1793 -0.1821  0.7805
  794MPD2    H711764   1.157   4.112  17.110 -1.7174 -0.2133 -1.2322
  795MPD2     C11765   3.830   2.230  13.555  0.1917  0.2119  0.1607
  795MPD2    C111766   3.818   2.113  13.481  0.1637 -0.4848 -0.3590
  795MPD2    C211767   3.886   1.999  13.519 -0.2263  0.4036  0.5787
  795MPD2    C311768   3.971   2.008  13.624  0.3644 -0.3391  0.4663
  795MPD2    C411769   4.000   2.123  13.680  0.3305  0.1485  0.2633
  795MPD2    C511770   3.923   2.233  13.658  0.8089  0.5149  0.3748
  795MPD2     H11771   3.865   1.908  13.463  2.9068  0.5796 -0.9055
  795MPD2    H111772   4.079   2.116  13.755  1.6347 -2.7572 -1.3831
  795MPD2    H211773   3.776   2.320  13.526  0.8706  0.2259 -1.0587
  795MPD2    H311774   3.954   2.330  13.696  1.3993  0.3610  0.2846
  795MPD2     N11775   4.048   1.896  13.671  0.5885 -0.1711 -0.8329
  795MPD2    H511776   4.134   1.915  13.722 -0.0269 -1.6692  0.7588
  795MPD2    N111777   3.757   2.113  13.349  0.1539 -0.7888 -0.1374
  795MPD2    H711778   3.752   2.023  13.303  1.9806 -0.0313 -1.8292
  796MPD2     C11779   3.434   3.472  15.614 -0.4090  0.2005  0.4480
  796MPD2    C111780   3.494   3.559  15.698  0.3527 -0.0575  0.1984
  796MPD2    C211781   3.505   3.700  15.669 -0.3457 -0.0269  0.0957
  796MPD2    C311782   3.444   3.732  15.549 -0.2865  0.2468 -0.4820
  796MPD2    C411783   3.387   3.641  15.461 -0.6563  0.0094 -0.2118
  796MPD2    C511784   3.379   3.512  15.498 -0.1521  0.2580  0.3702
  796MPD2     H11785   3.552   3.782  15.721 -1.2655  0.9350 -0.5785
  796MPD2    H111786   3.341   3.671  15.368 -0.9225 -0.4523 -0.2252
  796MPD2    H211787   3.437   3.366  15.636  2.3453  0.3469  0.7923
  796MPD2    H311788   3.324   3.444  15.434  0.6221  1.4028 -1.5173
  796MPD2     N11789   3.444   3.866  15.529  0.0215  0.9940 -0.0836
  796MPD2    H511790   3.502   3.933  15.578  3.4054 -0.8009 -1.6095
  796MPD2    N111791   3.560   3.504  15.808  0.0357  0.4985  0.5406
  796MPD2    H711792   3.558   3.403  15.819 -0.2666  0.3276 -0.9804
  797MPD2     C11793   4.206   3.288  17.567 -1.0659  0.2176 -0.2763
  797MPD2    C111794   4.327   3.357  17.547 -0.9836 -0.5953  0.2626
  797MPD2    C211795   4.364   3.387  17.419  0.0687  0.0290 -0.2308
  797MPD2    C311796   4.289   3.344  17.311 -0.2028  0.4001  0.9174
  797MPD2    C411797   4.161   3.277  17.329  0.0187 -0.5024  0.4967
  797MPD2    C511798   4.134   3.247  17.460  0.1417 -0.0151  0.4283
  797MPD2     H11799   4.448   3.452  17.398  0.3350 -0.1783  0.1843
  797MPD2    H111800   4.103   3.241  17.245  0.0114  0.5530  0.0503
  797MPD2    H211801   4.169   3.252  17.662  2.4827  0.2240  1.1393
  797MPD2    H311802   4.039   3.197  17.476  0.1964  0.4941  2.3910
  797MPD2     N11803   4.340   3.392  17.184  0.2344 -0.4061  0.1918
  797MPD2    H511804   4.424   3.449  17.193 -1.0517  2.1689 -4.4672
  797MPD2    N111805   4.396   3.420  17.650 -0.2976 -0.4168 -0.0263
  797MPD2    H711806   4.487   3.462  17.634  0.0572 -0.5400  1.6080
  798MPD2     C11807   4.616   3.995  17.301  0.1837  0.0341  0.4935
  798MPD2    C111808   4.581   3.864  17.292 -0.0977  0.0916 -0.8046
  798MPD2    C211809   4.570   3.783  17.404 -0.0763 -0.2623  0.4442
  798MPD2    C311810   4.623   3.835  17.520  0.2154 -0.1217 -0.1795
  798MPD2    C411811   4.678   3.964  17.519  0.0115  0.2260 -0.3353
  798MPD2    C511812   4.653   4.046  17.415 -0.0379  0.2612  0.0115
  798MPD2     H11813   4.534   3.681  17.401 -0.7857  0.0191 -0.5479
  798MPD2    H111814   0.002   4.009  17.595 -2.1926  1.7867  0.5632
  798MPD2    H211815   4.616   4.056  17.211  0.4647 -0.5735  0.0801
  798MPD2    H311816   4.690   4.147  17.404  1.0524  0.0106  1.4208
  798MPD2     N11817   4.608   3.761  17.638  0.5051 -0.3041  0.6033
  798MPD2    H511818   4.578   3.665  17.623  0.1716  0.2628 -2.4736
  798MPD2    N111819   4.541   3.812  17.167 -0.3573 -0.1895  0.4724
  798MPD2    H711820   4.512   3.887  17.105 -0.2549 -0.1354  0.4889
  799MPD2     C11821   3.457   0.226  14.531 -0.5317  0.2037 -0.0216
  799MPD2    C111822   3.397   0.116  14.467  0.2134 -0.0283 -0.6228
  799MPD2    C211823   3.315   0.137  14.361 -0.2102 -0.1066 -1.0904
  799MPD2    C311824   3.285   0.267  14.314  0.2914  0.5226  0.1924
  799MPD2    C411825   3.339   0.380  14.374 -0.3470 -0.4057 -0.3211
  799MPD2    C511826   3.418   0.355  14.484 -0.0525 -0.1623 -0.4156
  799MPD2     H11827   3.271   0.051  14.311  0.0595  0.1315 -1.7406
  799MPD2    H111828   3.318   0.476  14.329  0.4735  0.9398  2.1736
  799MPD2    H211829   3.526   0.228  14.615 -1.2008 -0.1807  0.5329
  799MPD2    H311830   3.458   0.446  14.528  1.0246 -1.7820  1.9109
  799MPD2     N11831   3.213   0.288  14.197 -0.0527 -0.2430 -0.1432
  799MPD2    H511832   3.213   0.379  14.152 -1.1842  0.4144  1.1750
  799MPD2    N111833   3.422   4.719  14.500 -0.5892  0.4822 -0.7958
  799MPD2    H711834   3.356   4.654  14.459  0.0467 -0.6400 -0.0329
  800MPD2     C11835   3.853   1.171  13.626  0.4902 -0.0027  0.2416
  800MPD2    C111836   3.925   1.093  13.714 -0.0822 -0.4466 -0.5317
  800MPD2    C211837   3.950   0.959  13.689 -0.8384  0.5548 -0.0873
  800MPD2    C311838   3.911   0.902  13.567  0.6490  0.0852 -0.2535
  800MPD2    C411839   3.845   0.982  13.478  0.1549  0.0718  0.1831
  800MPD2    C511840   3.804   1.108  13.514 -0.3215  0.2545 -0.5385
  800MPD2     H11841   4.015   0.902  13.754 -0.2819  1.0254 -0.2319
  800MPD2    H111842   3.817   0.949  13.378  0.6013  0.7104 -0.1507
  800MPD2    H211843   3.837   1.278  13.632 -1.5254 -0.3562  1.0887
  800MPD2    H311844   3.759   1.169  13.437 -1.0828 -1.7182 -1.6601
  800MPD2     N11845   3.951   0.764  13.544 -0.2268  0.6099 -0.1854
  800MPD2    H511846   4.005   0.732  13.624 -0.7894  1.9564  0.7386
  800MPD2    N111847   3.980   1.159  13.827  0.1550  0.0531 -0.5788
  800MPD2    H711848   3.983   1.260  13.823  1.8333  0.0914  2.0924
  801MPD2     C11849   4.104   1.857  14.015 -0.2038  0.1786  0.8186
  801MPD2    C111850   4.007   1.756  14.011  0.0965 -0.2216 -0.6450
  801MPD2    C211851   3.876   1.799  14.010  0.4998 -0.2066 -0.1820
  801MPD2    C311852   3.830   1.932  14.010  0.5264 -0.3088  0.1600
  801MPD2    C411853   3.928   2.028  14.012  0.3724 -0.4566 -0.1542
  801MPD2    C511854   4.063   1.991  14.022 -0.3581 -0.0458  0.8599
  801MPD2     H11855   3.812   1.711  14.009  0.1224  0.0422  2.4763
  801MPD2    H111856   3.910   2.134  14.002  0.2565 -0.5738 -1.2551
  801MPD2    H211857   4.212   1.851  14.019 -0.1157  3.3127  2.8272
  801MPD2    H311858   4.138   2.069  14.020  1.6243 -2.0071 -1.4142
  801MPD2     N11859   3.695   1.975  14.011 -0.3661 -0.5168  0.1008
  801MPD2    H511860   3.669   2.069  14.037 -0.3204 -0.7542  1.0278
  801MPD2    N111861   4.028   1.617  14.031  0.1280 -0.0046  0.0854
  801MPD2    H711862   3.948   1.556  14.034  0.5131 -0.4688  0.8547
  802MPD2     C11863   3.385   2.810   0.263 -0.2909 -0.4022 -0.2390
  802MPD2    C111864   3.274   2.739   0.222  0.4154  0.5358  0.5035
  802MPD2    C211865   3.297   2.617   0.155  0.4417  0.0238  0.2090
  802MPD2    C311866   3.422   2.566   0.127 -0.4281 -0.0643 -0.5110
  802MPD2    C411867   3.529   2.641   0.154  0.2597  0.4112  0.2161
  802MPD2    C511868   3.506   2.764   0.217  0.0600  0.3166  0.3221
  802MPD2     H11869   3.213   2.553   0.130  0.9022 -0.6361  0.3642
  802MPD2    H111870   3.631   2.610   0.133  0.1475 -0.4792  1.0089
  802MPD2    H211871   3.381   2.910   0.306  0.9413 -0.3908 -0.1587
  802MPD2    H311872   3.597   2.821   0.222 -0.5583  1.3756 -0.4060
  802MPD2     N11873   3.420   2.441   0.059  0.0100 -0.2829 -0.2212
  802MPD2    H511874   3.333   2.389   0.057  1.3624 -2.4997 -1.7326
  802MPD2    N111875   3.144   2.786   0.241  0.1322  0.3437  0.2008
  802MPD2    H711876   3.069   2.737   0.193 -0.2551  0.1233  1.0224
  803MPD2     C11877   4.596   0.824  12.339  0.1181  0.1214  1.4584
  803MPD2    C111878   4.710   0.750  12.350  0.0213  0.2291  0.1697
  803MPD2    C211879   4.699   0.628  12.417  1.0453 -0.2902  0.4427
  803MPD2    C311880   4.573   0.583  12.481 -0.3740 -0.4704 -0.4584
  803MPD2    C411881   4.464   0.674  12.477  0.3179  0.2798  0.3278
  803MPD2    C511882   4.475   0.784  12.401 -0.2841 -0.5097  0.6676
  803MPD2     H11883   0.046   0.562  12.427  0.9769 -0.6628 -1.3871
  803MPD2    H111884   4.372   0.642  12.525  1.0218 -2.8280 -0.4185
  803MPD2    H211885   4.603   0.917  12.283 -0.4407 -1.5006 -1.3546
  803MPD2    H311886   4.377   0.826  12.382 -0.7184 -0.9913  1.8657
  803MPD2     N11887   4.552   0.471  12.555  0.0597  0.0101  0.9311
  803MPD2    H511888   4.460   0.462  12.598  1.0394 -3.1749  2.3781
  803MPD2    N111889   0.094   0.789  12.306  0.0103 -0.1982  0.2547
  803MPD2    H711890   0.177   0.731  12.317 -0.7300 -1.3613 -0.2232
  804MPD2     C11891   3.943   2.076  16.929 -0.3282  0.1086 -0.3111
  804MPD2    C111892   3.935   2.056  17.064  0.4797  0.3850  0.7195
  804MPD2    C211893   4.017   2.140  17.141 -0.2184  0.4364 -0.7489
  804MPD2    C311894   4.096   2.245  17.087  0.0287  0.5681  0.3102
  804MPD2    C411895   4.087   2.266  16.955 -0.0428  0.1397 -0.3122
  804MPD2    C511896   4.011   2.187  16.876  0.2301 -0.8710  0.1047
  804MPD2     H11897   4.010   2.128  17.249  0.7395  0.6060 -0.6712
  804MPD2    H111898   4.138   2.347  16.904 -0.5395  1.1374  0.7717
  804MPD2    H211899   3.883   2.021  16.857  0.3883 -0.0743 -0.7669
  804MPD2    H311900   4.015   2.198  16.768 -0.6980 -1.1186  0.0516
  804MPD2     N11901   4.176   2.327  17.167 -0.1629  0.6172 -0.0693
  804MPD2    H511902   4.149   2.309  17.263 -3.3812  1.6432 -0.7910
  804MPD2    N111903   3.870   1.944  17.120  0.3988  0.2175  0.1428
  804MPD2    H711904   3.864   1.946  17.221 -1.3001  1.4141  0.0118
  805MPD2     C11905   3.093   0.512  15.428 -0.5626  0.2915  1.0175
  805MPD2    C111906   3.185   0.460  15.336 -0.0840  0.0530 -0.6953
  805MPD2    C211907   3.315   0.425  15.374  0.4778  0.6395 -0.5927
  805MPD2    C311908   3.348   0.455  15.507 -0.3734  0.0532 -0.2833
  805MPD2    C411909   3.262   0.509  15.599 -0.3508  0.0300 -0.7841
  805MPD2    C511910   3.135   0.531  15.559  0.5758  0.0390 -0.3037
  805MPD2     H11911   3.388   0.392  15.301  0.3766  1.0728 -0.8854
  805MPD2    H111912   3.290   0.518  15.703 -2.2741 -0.7775 -0.1863
  805MPD2    H211913   2.991   0.538  15.405 -0.5800  1.8144  2.7970
  805MPD2    H311914   3.067   0.581  15.627 -2.1201 -0.6097 -2.4998
  805MPD2     N11915   3.484   0.454  15.532 -0.2264  0.2380 -0.3945
  805MPD2    H511916   3.544   0.448  15.450 -0.8846 -0.8338 -0.7954
  805MPD2    N111917   3.156   0.426  15.204 -0.6824  0.1610 -0.2655
  805MPD2    H711918   3.223   0.376  15.147  0.4980  0.2545  1.0300
  806MPD2     C11919   3.150   0.270   0.119 -0.0951  0.2532  0.9628
  806MPD2    C111920   3.265   0.196   0.144 -0.3782 -0.6191  0.0184
  806MPD2    C211921   3.354   0.178   0.036  0.0930  0.2252  0.4968
  806MPD2    C311922   3.324   0.228  17.663 -0.4459  0.2005  0.1964
  806MPD2    C411923   3.211   0.304  17.642  0.0934 -0.0586  0.1039
  806MPD2    C511924   3.131   0.326  17.749  0.4215 -0.0503  0.3689
  806MPD2     H11925   3.446   0.125   0.058 -0.0566  0.0126  0.6085
  806MPD2    H111926   3.187   0.358  17.551 -1.6914 -0.1624  0.5247
  806MPD2    H211927   3.074   0.283   0.195  0.1378  1.8733  0.9183
  806MPD2    H311928   3.045   0.385  17.718 -0.3249 -0.9501  0.7482
  806MPD2     N11929   3.409   0.217  17.556 -0.0270  0.2047  0.1412
  806MPD2    H511930   3.383   0.263  17.469  1.2319  2.4553  0.9496
  806MPD2    N111931   3.286   0.164   0.279 -0.0577  0.3089  0.0805
  806MPD2    H711932   3.213   0.186   0.346  0.3861 -2.1391  1.3595
  807MPD2     C11933   2.994   4.620   0.908 -0.2939 -0.2174  0.0020
  807MPD2    C111934   3.133   4.636   0.930 -0.1952 -0.5660  0.8159
  807MPD2    C211935   3.193   4.572   1.036 -0.3441  0.2449 -0.2404
  807MPD2    C311936   3.127   4.484   1.110 -0.2102  0.0245 -0.4558
  807MPD2    C411937   2.995   4.450   1.072  0.3951  1.2517 -0.0742
  807MPD2    C511938   2.922   4.527   0.980  0.7340  0.6364  0.2507
  807MPD2     H11939   3.295   4.603   1.058  0.2562 -2.3925  0.6973
  807MPD2    H111940   2.930   4.377   1.119  0.1164 -0.2953 -2.8374
  807MPD2    H211941   2.934   4.672   0.834 -1.1260  2.2083  2.3723
  807MPD2    H311942   2.823   4.495   0.953  1.2948 -1.0278  0.1531
  807MPD2     N11943   3.191   4.433   1.221 -0.5504  0.1897 -0.2764
  807MPD2    H511944   3.284   4.465   1.243 -0.5504  0.2103 -0.3065
  807MPD2    N111945   3.214   4.726   0.855  0.1752  0.1955 -0.8699
  807MPD2    H711946   3.313   4.723   0.880 -0.6950 -0.9221  2.3976
  808MPD2     C11947   4.235   1.217  10.755 -0.6912  0.2804 -0.5686
  808MPD2    C111948   4.224   1.278  10.632  0.2137 -0.3213  0.1882
  808MPD2    C211949   4.285   1.405  10.611  0.3965 -0.2497 -0.1827
  808MPD2    C311950   4.379   1.453  10.696  0.1318  0.0700 -0.0539
  808MPD2    C411951   4.409   1.379  10.809 -0.3528  0.9507  0.1757
  808MPD2    C511952   4.332   1.271  10.839  0.4756 -0.0213 -0.8179
  808MPD2     H11953   4.273   1.461  10.519  0.2851  1.6006  0.9692
  808MPD2    H111954   4.493   1.408  10.870  1.1363 -0.6287 -1.1389
  808MPD2    H211955   4.182   1.127  10.785 -1.4281  0.8794 -0.0794
  808MPD2    H311956   4.337   1.225  10.937  0.5755 -0.6842 -1.1359
  808MPD2     N11957   4.461   1.568  10.674  0.0757 -0.5722  1.3468
  808MPD2    H511958   4.554   1.568  10.716  0.2772 -0.3597  0.8934
  808MPD2    N111959   4.153   1.223  10.521 -0.0442  0.0913  0.3608
  808MPD2    H711960   4.161   1.279  10.437  0.4758  1.7529  1.5108
  809MPD2     C11961   0.452   1.659   9.962  0.5458 -0.3327  0.3729
  809MPD2    C111962   0.380   1.564  10.029 -0.0185  0.7921  0.4086
  809MPD2    C211963   0.292   1.604  10.134 -0.0135  0.7065 -0.5581
  809MPD2    C311964   0.273   1.735  10.166 -0.4875 -0.4146  0.0130
  809MPD2    C411965   0.346   1.834  10.098 -0.6044 -0.0007  0.4288
  809MPD2    C511966   0.423   1.790   9.993  0.9062 -0.2603  0.1099
  809MPD2     H11967   0.243   1.516  10.175  0.6284 -0.4476 -2.2363
  809MPD2    H111968   0.338   1.941  10.115 -2.3513  0.0678 -0.7593
  809MPD2    H211969   0.522   1.639   9.881 -1.4754  1.1657 -1.7419
  809MPD2    H311970   0.472   1.873   9.943  0.6143 -0.4981 -0.5650
  809MPD2     N11971   0.181   1.779  10.264 -0.1375 -0.4927  0.1973
  809MPD2    H511972   0.166   1.879  10.260 -0.1755 -0.4554  1.3135
  809MPD2    N111973   0.390   1.424   9.998  0.4574  0.1469  0.2549
  809MPD2    H711974   0.337   1.358  10.053  0.9894  0.2950  0.9439
  810MPD2     C11975   3.594   0.815  10.981  0.6425  1.2662 -0.3532
  810MPD2    C111976   3.544   0.809  10.855 -0.1543 -0.3903  0.5638
  810MPD2    C211977   3.453   0.905  10.816  0.2612 -0.7955 -0.7495
  810MPD2    C311978   3.430   1.018  10.897  0.9907  0.2852 -0.9521
  810MPD2    C411979   3.496   1.020  11.014  0.2520  0.1767  0.4722
  810MPD2    C511980   3.577   0.924  11.062 -0.5253  0.5462  0.2532
  810MPD2     H11981   3.407   0.889  10.719 -0.5338  0.0969 -0.5198
  810MPD2    H111982   3.479   1.107  11.077 -0.3589  1.0471 -0.9153
  810MPD2    H211983   3.666   0.739  11.012 -0.6534  0.0022 -0.4576
  810MPD2    H311984   3.645   0.943  11.144 -0.4075  2.2742 -0.2491
  810MPD2     N11985   3.360   1.139  10.858  0.1919  0.3749 -0.4700
  810MPD2    H511986   3.359   1.215  10.926 -0.1405 -0.5911  0.5952
  810MPD2    N111987   3.582   0.711  10.760 -0.0679 -0.4498 -0.3990
  810MPD2    H711988   3.555   0.736  10.666 -0.4174 -1.6736 -0.6258
  811MPD2     C11989   3.342   0.721  10.041  0.0939 -0.1889  0.6893
  811MPD2    C111990   3.389   0.769  10.161 -1.0285 -0.1192  0.0092
  811MPD2    C211991   3.364   0.907  10.193 -0.6358 -0.3277  0.2249
  811MPD2    C311992   3.309   0.990  10.099  0.3489 -0.3656 -0.0720
  811MPD2    C411993   3.280   0.935   9.976  0.3948  0.8997  0.3678
  811MPD2    C511994   3.298   0.802   9.944  0.4898 -0.1304 -0.3910
  811MPD2     H11995   3.386   0.940  10.294  2.4752  0.2921 -0.6457
  811MPD2    H111996   3.249   0.996   9.892  1.4061 -0.8648 -1.2730
  811MPD2    H211997   3.350   0.615  10.016  2.3056  0.1954 -0.2683
  811MPD2    H311998   3.258   0.751   9.857  0.8283 -0.7778 -0.1658
  811MPD2     N11999   3.286   1.131  10.122 -0.7398 -0.7015 -0.6281
  811MPD2    H512000   3.312   1.160  10.215  0.8855 -1.6656 -0.7753
  811MPD2    N112001   3.447   0.674  10.249  0.2716 -0.3586 -0.1171
  811MPD2    H712002   3.432   0.579  10.215 -0.0841 -0.7672  1.1958
  812MPD2     C12003   2.229   0.254  11.839  0.4641 -0.2938 -0.1501
  812MPD2    C112004   2.291   0.354  11.910  0.0992 -0.7368  0.0942
  812MPD2    C212005   2.341   0.325  12.036  0.6904  0.5363 -0.3569
  812MPD2    C312006   2.336   0.201  12.091 -0.7262 -0.4281 -0.2523
  812MPD2    C412007   2.267   0.101  12.022 -0.0438  0.7966 -0.1729
  812MPD2    C512008   2.217   0.129  11.900  0.0351  0.1328 -0.0201
  812MPD2     H12009   2.377   0.406  12.098 -0.3549  0.4856  0.2978
  812MPD2    H112010   2.255   4.737  12.057 -0.6750  0.5891 -1.0017
  812MPD2    H212011   2.176   0.281  11.748  2.3900  2.0572 -0.5812
  812MPD2    H312012   2.159   0.054  11.846 -0.2750 -0.2245  0.8197
  812MPD2     N12013   2.418   0.181  12.213 -0.3330  0.3120 -0.0403
  812MPD2    H512014   2.466   0.264  12.246 -1.1436  1.2936 -1.3382
  812MPD2    N112015   2.292   0.485  11.852 -0.4001 -0.0235 -0.1244
  812MPD2    H712016   2.241   0.487  11.764 -0.2226 -0.7619 -0.2450
  813MPD2     C12017   1.654   1.763  12.822  0.1083  0.3430 -0.7640
  813MPD2    C112018   1.678   1.895  12.815  0.4025  0.7138 -0.2954
  813MPD2    C212019   1.579   1.989  12.830 -0.4129  0.1460 -0.0334
  813MPD2    C312020   1.456   1.945  12.857  0.4992 -0.2999 -0.5654
  813MPD2    C412021   1.422   1.809  12.856 -0.5765 -0.2358 -0.3696
  813MPD2    C512022   1.529   1.721  12.855  0.0593  0.2001  0.1256
  813MPD2     H12023   1.605   2.093  12.841  0.8488 -0.0681 -0.9484
  813MPD2    H112024   1.321   1.772  12.858 -0.5770 -0.4191 -3.2624
  813MPD2    H212025   1.723   1.681  12.803  0.1833  0.4799 -1.0897
  813MPD2    H312026   1.509   1.615  12.841 -2.2465  0.6422  0.0168
  813MPD2     N12027   1.363   2.049  12.888  0.6607  0.4417  0.5829
  813MPD2    H512028   1.401   2.141  12.869 -2.6244  1.5235 -0.7465
  813MPD2    N112029   1.812   1.937  12.799  0.6151  0.4882 -0.4621
  813MPD2    H712030   1.883   1.869  12.823  1.5265  0.9573 -1.8095
  814MPD2     C12031   1.973   3.399  11.999 -0.3118  0.2754  0.0759
  814MPD2    C112032   2.077   3.380  11.909 -0.7550  0.1499  0.1403
  814MPD2    C212033   2.190   3.465  11.909 -0.8103 -0.0562 -0.7054
  814MPD2    C312034   2.190   3.567  12.001  0.2074  0.0383 -0.4831
  814MPD2    C412035   2.085   3.584  12.096  0.4216 -0.5107  0.5634
  814MPD2    C512036   1.971   3.503  12.092 -0.5007 -0.1397  0.3331
  814MPD2     H12037   2.271   3.441  11.841 -0.3246  3.9272 -1.5107
  814MPD2    H112038   2.099   3.653  12.178  0.3239  0.0581  0.1052
  814MPD2    H212039   1.893   3.326  11.994  1.2170 -1.1172 -4.0003
  814MPD2    H312040   1.896   3.509  12.170 -1.4262 -2.5916 -0.3678
  814MPD2     N12041   2.301   3.657  12.015 -0.1582  0.0320  0.1318
  814MPD2    H512042   2.289   3.730  12.084 -1.6190  0.2649 -0.3776
  814MPD2    N112043   2.079   3.280  11.813  0.0201  0.6211  0.1447
  814MPD2    H712044   2.157   3.273  11.749 -0.4798 -0.3539 -0.3538
  815MPD2     C12045   2.765   2.208  12.004  0.0889  0.0348 -0.1861
  815MPD2    C112046   2.722   2.085  11.950 -0.4296  0.0703 -0.2011
  815MPD2    C212047   2.596   2.034  11.987 -0.0867 -0.2772  0.2786
  815MPD2    C312048   2.522   2.109  12.068 -0.5680  0.1765  0.3531
  815MPD2    C412049   2.553   2.237  12.113  0.0572  0.1650  0.7491
  815MPD2    C512050   2.673   2.292  12.073  0.5285  0.2965 -0.2638
  815MPD2     H12051   2.550   1.939  11.965 -1.8231  0.4733  0.7233
  815MPD2    H112052   2.487   2.295  12.176  1.1270  2.5297 -0.3048
  815MPD2    H212053   2.865   2.240  11.977 -0.0083 -1.6604 -2.6431
  815MPD2    H312054   2.714   2.388  12.102  1.3483 -0.2035  0.2142
  815MPD2     N12055   2.400   2.050  12.113 -0.0733 -0.4504  0.1354
  815MPD2    H512056   2.378   1.957  12.077 -1.9903  0.6131 -1.4352
  815MPD2    N112057   2.810   2.013  11.863 -0.0652  0.3378  0.5520
  815MPD2    H712058   2.892   2.064  11.831 -0.1124 -0.3324 -0.6429
  816MPD2     C12059   2.152   1.090  17.046 -0.3779  0.3472 -0.2122
  816MPD2    C112060   2.230   1.199  17.048  0.0462 -0.1422 -0.4316
  816MPD2    C212061   2.353   1.199  16.984  0.2550  0.1718 -0.5705
  816MPD2    C312062   2.397   1.095  16.903  0.4491 -0.2564  0.0338
  816MPD2    C412063   2.311   0.989  16.895 -0.4779 -0.2112 -0.2007
  816MPD2    C512064   2.193   0.988  16.966 -0.2476 -0.3073  0.1189
  816MPD2     H12065   2.418   1.283  17.002 -0.7179  0.3925  2.0157
  816MPD2    H112066   2.326   0.904  16.829  1.9810  0.9586 -1.1322
  816MPD2    H212067   2.053   1.087  17.091  0.3558 -2.4558  1.2295
  816MPD2    H312068   2.123   0.906  16.961 -1.2106  0.5072  0.1790
  816MPD2     N12069   2.505   1.111  16.813 -0.5878 -0.5508  0.1083
  816MPD2    H512070   2.559   1.195  16.833 -1.8439  0.4450 -0.7185
  816MPD2    N112071   2.174   1.317  17.109  0.2114  0.5627  0.1695
  816MPD2    H712072   2.111   1.299  17.186  1.2719 -2.6370  0.2734
  817MPD2     C12073   1.901   2.880   9.190 -0.0221 -0.1207 -0.1993
  817MPD2    C112074   1.850   2.752   9.151 -0.4906  0.6666  0.3076
  817MPD2    C212075   1.719   2.731   9.122 -0.6428 -0.3453  0.0996
  817MPD2    C312076   1.637   2.839   9.113 -0.6090  1.0322 -0.0250
  817MPD2    C412077   1.678   2.964   9.145  0.7119  0.9261  0.3228
  817MPD2    C512078   1.814   2.985   9.180 -0.0670 -0.1577 -0.0592
  817MPD2     H12079   1.682   2.636   9.087 -1.4358 -0.1217  0.3382
  817MPD2    H112080   1.618   3.054   9.139 -1.3767 -0.5252 -0.4607
  817MPD2    H212081   2.005   2.901   9.210 -0.0768 -1.8979  1.9449
  817MPD2    H312082   1.848   3.083   9.212  3.2771 -1.6060  0.7705
  817MPD2     N12083   1.509   2.811   9.064 -0.4732  0.0103 -0.1267
  817MPD2    H512084   1.494   2.715   9.035 -0.8085  0.0654 -0.1420
  817MPD2    N112085   1.931   2.634   9.161  0.3866 -0.0876  0.1216
  817MPD2    H712086   1.880   2.548   9.141  0.6147  0.5907 -3.3508
  818MPD2     C12087   1.067   2.797  10.214  0.2478  0.0168  0.2492
  818MPD2    C112088   0.980   2.721  10.294  0.7062  0.6382 -0.2574
  818MPD2    C212089   0.988   2.585  10.282  0.6913 -0.2571  0.3370
  818MPD2    C312090   1.073   2.524  10.190 -0.3469 -0.8023  0.4665
  818MPD2    C412091   1.155   2.602  10.116  0.5521 -0.3569 -0.7097
  818MPD2    C512092   1.159   2.738  10.132 -0.1748 -0.1526  0.0369
  818MPD2     H12093   0.924   2.520  10.340  1.1975 -0.2677  0.8776
  818MPD2    H112094   1.229   2.571  10.043 -1.3236 -0.8299 -2.3711
  818MPD2    H212095   1.082   2.904  10.223  1.4309  0.0201 -1.8279
  818MPD2    H312096   1.216   2.810  10.074 -1.2988  0.5240 -0.2361
  818MPD2     N12097   1.101   2.387  10.178  0.1502 -0.1901  0.1804
  818MPD2    H512098   1.176   2.354  10.119  1.6077 -0.5116  2.1958
  818MPD2    N112099   0.891   2.764  10.383 -0.4703  0.2923  0.2874
  818MPD2    H712100   0.847   2.699  10.446 -1.4355  1.7639  1.1372
  819MPD2     C12101   4.187   4.501  15.178  0.5564  0.0137  0.3469
  819MPD2    C112102   4.104   4.397  15.217  1.0313 -0.6970 -0.8038
  819MPD2    C212103   4.143   4.325  15.334  0.5552 -0.2302  0.4007
  819MPD2    C312104   4.256   4.363  15.402 -0.0913 -0.7333 -0.4256
  819MPD2    C412105   4.339   4.465  15.356 -0.1538  0.1220 -0.6960
  819MPD2    C512106   4.300   4.536  15.243 -0.8217  0.1254 -1.1197
  819MPD2     H12107   4.090   4.236  15.365  0.6582 -0.6698 -0.7129
  819MPD2    H112108   4.413   4.510  15.420 -1.0061 -0.6272  0.8363
  819MPD2    H212109   4.153   4.571  15.103  1.3761  1.8692  1.7152
  819MPD2    H312110   4.362   4.620  15.215 -0.6941  0.2449 -0.4871
  819MPD2     N12111   4.299   4.307  15.519 -0.6339  0.4789  0.0847
  819MPD2    H512112   4.393   4.331  15.549 -0.9110  1.2188  0.3768
  819MPD2    N112113   3.982   4.372  15.150  0.5874  0.1633  0.3004
  819MPD2    H712114   3.954   4.429  15.071 -1.1917  0.2661  0.9899
  820MPD2     C12115   3.056   4.532  14.716  0.2456  0.0914 -0.7161
  820MPD2    C112116   3.133   4.620  14.772 -0.0275  1.0255  0.1223
  820MPD2    C212117   3.244   4.574  14.843  0.2296 -0.3004 -0.2228
  820MPD2    C312118   3.285   4.441  14.838 -0.4071 -0.4653  0.0236
  820MPD2    C412119   3.203   4.355  14.769 -0.5623  0.5159  0.2357
  820MPD2    C512120   3.093   4.401  14.700 -0.1518  0.3807  0.9579
  820MPD2     H12121   3.315   4.645  14.884 -0.3745 -0.2704  0.7801
  820MPD2    H112122   3.228   4.250  14.771  0.9509  0.8833  0.3151
  820MPD2    H212123   2.966   4.566  14.666 -0.4670 -1.1902 -0.3072
  820MPD2    H312124   3.029   4.325  14.655 -0.8321  1.0983  0.7131
  820MPD2     N12125   3.391   4.377  14.910  0.4004  0.2340  0.1639
  820MPD2    H512126   3.392   4.277  14.893  1.3848  0.5659 -1.8151
  820MPD2    N112127   3.085   0.017  14.781 -0.7568 -0.2187 -0.7018
  820MPD2    H712128   3.001   0.048  14.733 -0.3476  0.4591 -0.9769
  821MPD2     C12129   4.019   0.944  13.142  0.6781  0.3621  0.5421
  821MPD2    C112130   4.128   0.863  13.157 -0.5737  0.1912  0.0431
  821MPD2    C212131   4.246   0.906  13.216  0.2905  0.4084  0.0933
  821MPD2    C312132   4.251   1.041  13.259  0.7250 -0.6194 -0.3873
  821MPD2    C412133   4.132   1.119  13.256 -0.4413 -0.5689 -0.8763
  821MPD2    C512134   4.020   1.073  13.190 -0.0442 -0.1112  0.3927
  821MPD2     H12135   4.323   0.831  13.231 -0.8464 -0.2970  2.3600
  821MPD2    H112136   4.136   1.220  13.294 -2.1891 -2.0812  3.2791
  821MPD2    H212137   3.923   0.904  13.112  0.4847  0.0338  1.5922
  821MPD2    H312138   3.925   1.126  13.187 -1.2946 -2.4133 -0.6294
  821MPD2     N12139   4.370   1.101  13.299  0.0898 -0.5225 -0.4958
  821MPD2    H512140   4.365   1.202  13.299 -2.0527 -0.6347 -1.0380
  821MPD2    N112141   4.111   0.725  13.121  0.2327  0.9543  0.3862
  821MPD2    H712142   4.014   0.696  13.132  0.7550 -1.5963 -1.6961
  822MPD2     C12143   0.044   1.153  15.717 -0.0298 -0.4865 -0.3540
  822MPD2    C112144   0.048   1.152  15.859 -0.0710  0.0672  0.5286
  822MPD2    C212145   4.689   1.224  15.919 -0.1203 -0.4968 -0.6048
  822MPD2    C312146   4.592   1.292  15.853 -0.3704  0.0746 -0.5380
  822MPD2    C412147   4.587   1.293  15.718 -0.3063 -0.2557 -0.3071
  822MPD2    C512148   4.689   1.230  15.650  0.2373 -0.3620 -0.2294
  822MPD2     H12149   4.689   1.226  16.027  0.1644  2.2720 -0.6416
  822MPD2    H112150   4.508   1.336  15.659 -0.4570 -1.1391 -0.7387
  822MPD2    H212151   0.120   1.103  15.658  0.9755 -0.2704  0.7388
  822MPD2    H312152   4.699   1.235  15.542  0.6039  1.3713 -0.1208
  822MPD2     N12153   4.495   1.361  15.930  0.4487 -1.3238 -0.4559
  822MPD2    H512154   4.501   1.347  16.030  3.3529  0.1980 -0.4377
  822MPD2    N112155   0.131   1.085  15.943 -0.0626 -0.7679 -0.6990
  822MPD2    H712156   0.127   1.108  16.042 -1.9105 -0.5823 -0.8060
  823MPD2     C12157   4.145   1.677  16.663  0.8540 -0.1493 -0.0371
  823MPD2    C112158   4.199   1.576  16.585 -0.0976 -1.1379  0.3980
  823MPD2    C212159   4.269   1.472  16.644  0.6271  0.3122 -0.0374
  823MPD2    C312160   4.273   1.462  16.783  0.0803 -0.0369  0.0321
  823MPD2    C412161   4.208   1.561  16.859  0.1588  0.1595 -0.0699
  823MPD2    C512162   4.151   1.669  16.798 -0.1982 -0.2475  0.1489
  823MPD2     H12163   4.315   1.395  16.585  0.5920  0.1371  0.1642
  823MPD2    H112164   4.215   1.563  16.967 -0.9349  1.4197 -0.0234
  823MPD2    H212165   4.108   1.770  16.621 -2.4835 -1.5823 -0.3233
  823MPD2    H312166   4.105   1.745  16.860  2.9095  0.7077  1.2503
  823MPD2     N12167   4.349   1.359  16.848  0.5085 -0.7115  0.6599
  823MPD2    H512168   4.347   1.355  16.949  1.4006  0.5656  0.7368
  823MPD2    N112169   4.211   1.595  16.448 -0.1419 -0.0140  0.5320
  823MPD2    H712170   4.194   1.688  16.412 -2.7344 -0.5525  0.3970
  824MPD2     C12171   0.549   0.339  15.980 -0.3417 -0.0359  0.3178
  824MPD2    C112172   0.582   0.464  15.917  0.7758  0.3714 -0.6239
  824MPD2    C212173   0.691   0.462  15.827 -0.4904  0.3373 -0.1638
  824MPD2    C312174   0.763   0.346  15.795  0.1150  0.2874  0.3504
  824MPD2    C412175   0.727   0.227  15.867 -0.3531  0.3934  0.9203
  824MPD2    C512176   0.612   0.223  15.946 -0.4856  0.2685  0.3224
  824MPD2     H12177   0.710   0.551  15.769  2.2850 -0.0481  0.1250
  824MPD2    H112178   0.783   0.137  15.848  0.2192  0.2804  3.0504
  824MPD2    H212179   0.475   0.319  16.055 -0.7542  0.4936  0.0557
  824MPD2    H312180   0.591   0.131  15.999  0.1876 -0.5304 -0.8234
  824MPD2     N12181   0.871   0.349  15.708  0.1309  0.7747  0.0242
  824MPD2    H512182   0.869   0.434  15.653  0.7948  0.9013  0.1921
  824MPD2    N112183   0.519   0.583  15.954  0.7899 -0.1420  0.1885
  824MPD2    H712184   0.546   0.661  15.895  0.0662 -0.5482 -0.6905
  825MPD2     C12185   1.198   0.691  15.087 -0.7515 -0.4672 -0.7483
  825MPD2    C112186   1.168   0.711  15.217 -0.5840  0.2381  0.0686
  825MPD2    C212187   1.145   0.836  15.274 -0.3903  0.2224 -0.4625
  825MPD2    C312188   1.143   0.945  15.191 -0.3155  0.8458  0.6393
  825MPD2    C412189   1.160   0.923  15.055 -0.2779  0.3903 -0.4029
  825MPD2    C512190   1.201   0.799  15.007 -0.6705 -0.1539 -0.3419
  825MPD2     H12191   1.104   0.845  15.374  0.4353 -3.4190  0.1981
  825MPD2    H112192   1.163   1.010  14.990  0.9673  0.4775 -0.2306
  825MPD2    H212193   1.224   0.593  15.049  0.4544 -0.8955  1.1883
  825MPD2    H312194   1.235   0.779  14.906  0.4655  2.3415 -0.4456
  825MPD2     N12195   1.109   1.071  15.239  0.4589 -0.2704  0.1268
  825MPD2    H512196   1.109   1.150  15.176  1.2736  0.7131  1.3510
  825MPD2    N112197   1.180   0.600  15.295 -0.2347  0.4656  0.3746
  825MPD2    H712198   1.178   0.510  15.248  0.9069  0.6025  0.0669
  826MPD2     C12199   0.365   0.015  13.829  0.7353  0.5052  0.1850
  826MPD2    C112200   0.464   0.076  13.753  0.0675  0.0973  0.6912
  826MPD2    C212201   0.471   0.216  13.770 -0.1667  0.1940 -0.0610
  826MPD2    C312202   0.402   0.283  13.866  1.0768 -0.3421  1.0332
  826MPD2    C412203   0.315   0.209  13.938  0.1772  0.1472 -0.5617
  826MPD2    C512204   0.294   0.077  13.920 -0.3012 -0.0635  0.4625
  826MPD2     H12205   0.539   0.268  13.704 -1.1867  0.4762 -0.9002
  826MPD2    H112206   0.250   0.247  14.016  0.9087  1.0005 -0.3655
  826MPD2    H212207   0.348   4.646  13.824  1.2697  0.5953 -3.2634
  826MPD2    H312208   0.232   0.019  13.988  0.7476 -3.2078 -1.2657
  826MPD2     N12209   0.408   0.427  13.887 -0.0591  0.4961 -0.1509
  826MPD2    H512210   0.355   0.473  13.959 -1.9321 -1.4705 -0.2664
  826MPD2    N112211   0.524   0.003  13.650  0.6116  0.2745 -0.3777
  826MPD2    H712212   0.518   4.640  13.646  1.9197  0.2266 -1.6062
  827MPD2     C12213   1.522   2.008   9.819  0.4704 -0.7124 -0.2153
  827MPD2    C112214   1.545   1.879   9.872  0.2508 -0.2242  0.1198
  827MPD2    C212215   1.438   1.791   9.851  0.1307 -0.6938  0.5748
  827MPD2    C312216   1.317   1.818   9.785 -0.4972 -0.2793 -0.4436
  827MPD2    C412217   1.300   1.949   9.746 -0.6735  0.2543  0.2058
  827MPD2    C512218   1.403   2.043   9.765  0.1045  0.6018 -0.5119
  827MPD2     H12219   1.454   1.690   9.887  2.2711 -0.5253  0.0868
  827MPD2    H112220   1.208   1.987   9.702 -0.0338  1.3088 -0.2244
  827MPD2    H212221   1.599   2.085   9.818  0.3453 -0.5856 -0.0953
  827MPD2    H312222   1.388   2.145   9.731  1.0198  0.9037 -0.0194
  827MPD2     N12223   1.219   1.718   9.770  0.5382  0.8015 -0.4562
  827MPD2    H512224   1.236   1.628   9.815  0.3327  1.3821  0.7900
  827MPD2    N112225   1.673   1.858   9.932  0.0585 -0.1270 -1.1041
  827MPD2    H712226   1.742   1.931   9.919 -0.8530  0.7930 -0.7821
  828MPD2     C12227   0.031   1.679  12.113  0.6317  0.7218 -0.5132
  828MPD2    C112228   4.679   1.743  12.038  0.6385 -0.6638  0.0272
  828MPD2    C212229   4.643   1.689  11.910  0.1495  0.8055 -0.4119
  828MPD2    C312230   4.685   1.558  11.881 -0.6875  0.1315  0.3148
  828MPD2    C412231   0.042   1.499  11.961 -0.7405  0.2453  0.3201
  828MPD2    C512232   0.084   1.563  12.075  0.0774 -0.4568 -0.0163
  828MPD2     H12233   4.570   1.737  11.845  1.9648  3.5779 -0.3903
  828MPD2    H112234   0.080   1.399  11.941 -0.5442  0.3729  0.0406
  828MPD2    H212235   0.063   1.717  12.210  0.0422 -3.0846  1.1692
  828MPD2    H312236   0.158   1.516  12.138  0.1211 -1.2726 -0.6917
  828MPD2     N12237   4.642   1.488  11.768 -0.2146 -0.1294 -0.3815
  828MPD2    H512238   4.670   1.391  11.757  1.8645  0.5368 -0.8775
  828MPD2    N112239   4.621   1.867  12.073 -0.2744  0.1313  0.1551
  828MPD2    H712240   4.555   1.908  12.008  0.0744 -0.1874 -0.4009
  829MPD2     C12241   4.211   2.432  11.585 -0.5341 -0.2452 -0.0135
  829MPD2    C112242   4.125   2.403  11.693 -0.2878 -0.0389  0.1171
  829MPD2    C212243   4.183   2.349  11.810 -0.4516  0.3888  0.0855
  829MPD2    C312244   4.322   2.324  11.819 -0.4869  0.0436 -0.4739
  829MPD2    C412245   4.402   2.352  11.709 -0.3651 -0.0684  0.6345
  829MPD2    C512246   4.346   2.404  11.595  0.5279 -1.2660 -0.2251
  829MPD2     H12247   4.114   2.306  11.883  1.8085 -0.7983  1.5080
  829MPD2    H112248   4.507   2.324  11.711 -0.4008 -0.2528 -0.1237
  829MPD2    H212249   4.170   2.471  11.492 -2.4989 -0.8304  0.6076
  829MPD2    H312250   4.407   2.412  11.505  0.3967 -0.1669 -0.2214
  829MPD2     N12251   4.375   2.263  11.941 -0.7116 -0.2321 -0.6350
  829MPD2    H512252   4.476   2.255  11.947 -0.7524  1.3313  2.0590
  829MPD2    N112253   3.987   2.431  11.682 -0.1923 -0.3163 -0.0128
  829MPD2    H712254   3.948   2.454  11.592 -0.5492 -0.8675 -0.0042
  830MPD2     C12255   0.050   4.145  16.057  0.0396  0.4946  0.2548
  830MPD2    C112256   4.690   4.149  15.961 -0.6863 -0.1605  0.2804
  830MPD2    C212257   4.643   4.269  15.920 -0.0774  1.1652 -0.4204
  830MPD2    C312258   4.685   4.390  15.986  0.2494  0.0922  0.6933
  830MPD2    C412259   0.032   4.376  16.085  0.0437  0.0951  0.5054
  830MPD2    C512260   0.091   4.260  16.122 -0.2273  0.3143  0.9332
  830MPD2     H12261   4.578   4.284  15.834 -0.1055  0.9719 -0.4330
  830MPD2    H112262   0.051   4.459  16.152  1.2635  1.4310 -1.4841
  830MPD2    H212263   0.088   4.047  16.083  0.2646  1.1050  2.2246
  830MPD2    H312264   0.152   4.255  16.212  0.0586  0.3710  0.7429
  830MPD2     N12265   4.618   4.513  15.954  0.2311 -0.0012  0.5104
  830MPD2    H512266   4.636   4.599  16.006  0.7547 -0.3384  0.8796
  830MPD2    N112267   4.653   4.017  15.910 -0.1404  0.3457 -0.1067
  830MPD2    H712268   4.729   3.951  15.918  0.1118  0.9298  2.2670
  831MPD2     C12269   0.000   1.615  16.291 -0.7346  0.3081  0.7721
  831MPD2    C112270   0.036   1.495  16.222  1.0241 -1.1486 -0.2548
  831MPD2    C212271   4.709   1.376  16.259  1.2559  0.1496  0.6512
  831MPD2    C312272   4.599   1.379  16.344  0.0157 -0.3100 -0.3113
  831MPD2    C412273   4.568   1.500  16.410 -0.1473  0.0632 -0.3963
  831MPD2    C512274   4.630   1.618  16.373  0.2832  0.5223  0.1205
  831MPD2     H12275   0.007   1.281  16.221  1.9927 -0.7004  3.4541
  831MPD2    H112276   4.482   1.504  16.476  0.1264  0.3272 -0.0541
  831MPD2    H212277   0.042   1.713  16.272  0.0971 -0.1025  0.5099
  831MPD2    H312278   4.600   1.708  16.425  1.4875  0.1005  1.5513
  831MPD2     N12279   4.526   1.266  16.374  0.6892  0.5802 -0.8639
  831MPD2    H512280   4.457   1.278  16.447 -2.1840  0.5241 -3.5602
  831MPD2    N112281   0.145   1.505  16.131 -0.1960  0.3296 -0.4134
  831MPD2    H712282   0.172   1.600  16.106 -2.5940  0.6747 -1.6797
  832MPD2     C12283   3.140   2.295  17.184  0.2642  0.3097 -0.4874
  832MPD2    C112284   3.140   2.406  17.100  0.1196  0.4727 -0.1335
  832MPD2    C212285   3.026   2.428  17.028 -0.9733 -0.3784  0.7453
  832MPD2    C312286   2.913   2.355  17.055  0.6343 -0.0473 -1.4593
  832MPD2    C412287   2.916   2.248  17.147 -0.1972 -0.6402 -0.3187
  832MPD2    C512288   3.035   2.218  17.206  0.2798 -0.0228 -0.0143
  832MPD2     H12289   3.022   2.523  16.975  1.1131 -0.3995  0.5700
  832MPD2    H112290   2.832   2.182  17.167 -0.8387  0.6488  1.2607
  832MPD2    H212291   3.237   2.270  17.225  0.4832 -1.7547 -2.2342
  832MPD2    H312292   3.051   2.134  17.272  2.9314  0.4320 -0.0633
  832MPD2     N12293   2.787   2.387  16.999  0.7120 -0.2248 -0.1686
  832MPD2    H512294   2.714   2.319  17.020  1.8564 -2.0957 -2.2216
  832MPD2    N112295   3.256   2.486  17.091  0.2540 -0.1445 -0.0442
  832MPD2    H712296   3.338   2.464  17.145  0.1136  2.6582  1.2863
  833MPD2     C12297   0.840   3.820  12.751  0.8732  0.4278  0.1939
  833MPD2    C112298   0.765   3.934  12.749  0.7604  0.1726 -0.2600
  833MPD2    C212299   0.802   4.043  12.671 -0.1939 -0.1705 -0.0246
  833MPD2    C312300   0.905   4.023  12.582 -0.3064  0.1948  0.4075
  833MPD2    C412301   0.973   3.904  12.583  0.6790 -0.5292  0.7499
  833MPD2    C512302   0.950   3.807  12.673 -0.3908 -0.8660  0.0013
  833MPD2     H12303   0.747   4.136  12.677  0.4742  0.2096  0.2551
  833MPD2    H112304   1.043   3.882  12.504  0.9418  0.5714  0.6654
  833MPD2    H212305   0.808   3.742  12.820  2.5447 -1.8335 -1.6024
  833MPD2    H312306   1.002   3.712  12.669  4.5960  1.8984 -0.3896
  833MPD2     N12307   0.926   4.104  12.467 -0.2440 -0.1577 -0.3198
  833MPD2    H512308   0.967   4.059  12.386  1.8844 -0.9900  1.1992
  833MPD2    N112309   0.638   3.926  12.814  0.3336 -0.1594 -0.2003
  833MPD2    H712310   0.601   3.833  12.828 -0.9617  0.1440 -1.5205
  834MPD2     C12311   1.089   3.771  11.615 -0.1168  0.2150  0.5341
  834MPD2    C112312   0.952   3.795  11.613  0.1920  0.0156 -0.8292
  834MPD2    C212313   0.898   3.888  11.701  0.0953  0.1232 -0.2749
  834MPD2    C312314   0.981   3.956  11.788  0.2883  0.4463  0.3137
  834MPD2    C412315   1.117   3.942  11.767 -0.3458 -0.3700 -0.1362
  834MPD2    C512316   1.172   3.851  11.680 -0.3369  0.0176  1.2062
  834MPD2     H12317   0.792   3.899  11.719 -0.0066 -2.4870  0.7781
  834MPD2    H112318   1.187   3.999  11.827 -0.2390 -1.5748  0.8918
  834MPD2    H212319   1.125   3.686  11.558  0.4091  0.6645  0.1968
  834MPD2    H312320   1.280   3.843  11.672 -0.0968  3.3937  1.1131
  834MPD2     N12321   0.926   4.032  11.891  0.1292  0.1326  0.3191
  834MPD2    H512322   0.828   4.028  11.917  0.0238  0.9224  0.0591
  834MPD2    N112323   0.878   3.715  11.525 -0.1409 -0.1176 -0.3760
  834MPD2    H712324   0.927   3.639  11.480 -1.2694 -0.6785 -0.6410
  835MPD2     C12325   0.722   1.646  11.181 -0.0136  0.1815  0.3938
  835MPD2    C112326   0.646   1.696  11.286  0.3971  0.0120  0.0404
  835MPD2    C212327   0.672   1.656  11.414 -0.1913 -0.2901 -0.2421
  835MPD2    C312328   0.770   1.563  11.442  0.4687  0.6171 -0.5269
  835MPD2    C412329   0.852   1.524  11.339  0.3498 -0.0066  0.6163
  835MPD2    C512330   0.834   1.571  11.209  0.2448  0.2556 -0.4818
  835MPD2     H12331   0.606   1.693  11.491 -1.4028 -1.0267 -0.9337
  835MPD2    H112332   0.939   1.462  11.358  1.8812  1.7960 -0.5287
  835MPD2    H212333   0.706   1.673  11.077 -0.7043 -1.0807  0.1631
  835MPD2    H312334   0.897   1.535  11.129 -1.4058 -0.9739 -1.2245
  835MPD2     N12335   0.799   1.517  11.573  0.1698 -0.6913 -0.7576
  835MPD2    H512336   0.879   1.454  11.583 -1.5365 -3.0806 -2.0451
  835MPD2    N112337   0.528   1.771  11.271  0.2623  0.0218 -0.1961
  835MPD2    H712338   0.478   1.788  11.358  1.6348  0.1160  0.5745
  836MPD2     C12339   0.707   1.232  12.440 -1.0916 -0.3464 -0.1615
  836MPD2    C112340   0.625   1.300  12.355 -0.8917  0.3108 -0.3599
  836MPD2    C212341   0.510   1.365  12.391 -0.2264 -0.9310  0.0891
  836MPD2    C312342   0.458   1.343  12.520  0.3727  0.6794  0.1516
  836MPD2    C412343   0.532   1.262  12.607  0.3943 -0.7291  0.6696
  836MPD2    C512344   0.657   1.217  12.569  0.3322  0.2566  0.3354
  836MPD2     H12345   0.451   1.407  12.310  0.7077  0.1303 -0.0458
  836MPD2    H112346   0.509   1.235  12.710  1.3903 -0.7364  0.8918
  836MPD2    H212347   0.796   1.179  12.411 -1.6599 -0.3704 -1.8186
  836MPD2    H312348   0.715   1.154  12.636  2.2179 -1.1579 -2.6428
  836MPD2     N12349   0.327   1.391  12.560 -0.5152 -0.8237 -0.5766
  836MPD2    H512350   0.287   1.361  12.648  2.0658 -0.1344  0.7957
  836MPD2    N112351   0.681   1.317  12.224  0.4920  0.1915  0.1178
  836MPD2    H712352   0.772   1.274  12.208  0.6380 -0.2466  2.0433
  837MPD2     C12353   3.561   1.806  10.300 -0.0570 -0.0689 -0.5488
  837MPD2    C112354   3.420   1.820  10.308  0.1211 -0.1959  0.1550
  837MPD2    C212355   3.375   1.952  10.326 -0.5895  0.3530  0.3993
  837MPD2    C312356   3.460   2.057  10.356 -0.4554  0.7243 -0.3982
  837MPD2    C412357   3.595   2.040  10.346  0.0639  0.4111 -0.1179
  837MPD2    C512358   3.641   1.912  10.333 -0.0469  0.6323 -0.6467
  837MPD2     H12359   3.267   1.963  10.328 -0.5452  0.7709  0.2726
  837MPD2    H112360   3.665   2.117  10.377  1.0228 -1.4291  2.2194
  837MPD2    H212361   3.596   1.706  10.278  0.1071  0.1959 -1.4847
  837MPD2    H312362   3.748   1.900  10.333 -0.0822  0.3277 -0.2994
  837MPD2     N12363   3.402   2.180  10.353  0.0325 -0.9301 -0.6834
  837MPD2    H512364   3.301   2.181  10.345  0.0915  2.1314 -1.1413
  837MPD2    N112365   3.328   1.715  10.287  0.2076 -0.5899  0.1841
  837MPD2    H712366   3.229   1.736  10.296  0.4683  0.7378  0.0369
  838MPD2     C12367   1.962   4.479  11.740  0.4935 -0.1925  0.3452
  838MPD2    C112368   2.011   4.343  11.743  0.7894 -0.3327  0.2587
  838MPD2    C212369   1.980   4.259  11.846 -0.6208 -0.4323 -0.2203
  838MPD2    C312370   1.906   4.309  11.946  0.2412 -0.2362 -0.3580
  838MPD2    C412371   1.850   4.423  11.945 -0.1265 -0.0126 -0.1113
  838MPD2    C512372   1.884   4.515  11.849  0.3495  0.2940 -0.2590
  838MPD2     H12373   2.027   4.161  11.851  2.3925  0.9371 -1.5879
  838MPD2    H112374   1.773   4.438  12.019 -2.0474  0.8747 -2.2818
  838MPD2    H212375   1.995   4.549  11.665  0.4938 -1.1092 -0.5134
  838MPD2    H312376   1.836   4.612  11.855 -0.2887  0.0338 -1.0879
  838MPD2     N12377   1.870   4.225  12.056  0.0841 -1.0052 -0.2075
  838MPD2    H512378   1.788   4.263  12.103  1.2821  0.7304  0.4661
  838MPD2    N112379   2.091   4.288  11.639 -0.1246 -0.2561 -0.2143
  838MPD2    H712380   2.108   4.188  11.636 -0.4150 -0.2481 -1.9775
  839MPD2     C12381   1.786   3.579  11.323  0.6298  0.1680 -0.0578
  839MPD2    C112382   1.863   3.598  11.214 -0.3066 -0.5791  0.2595
  839MPD2    C212383   1.934   3.717  11.208 -0.2229 -0.7663 -0.3085
  839MPD2    C312384   1.948   3.791  11.322 -0.5298 -0.0828 -0.1324
  839MPD2    C412385   1.874   3.763  11.434 -0.0989  0.2996  0.4393
  839MPD2    C512386   1.791   3.661  11.434  0.4840 -0.0036 -0.2936
  839MPD2     H12387   1.987   3.743  11.117 -1.9558  0.1552 -1.0644
  839MPD2    H112388   1.868   3.824  11.523 -0.4574  0.6613  0.1677
  839MPD2    H212389   1.708   3.504  11.332  1.9368 -1.2223 -0.1982
  839MPD2    H312390   1.721   3.642  11.514  0.3947 -2.2839 -0.8987
  839MPD2     N12391   2.037   3.907  11.332  0.0880 -0.1380 -0.4525
  839MPD2    H512392   2.048   3.948  11.425  0.2832 -0.7297 -0.2125
  839MPD2    N112393   1.843   3.512  11.106 -0.0571 -0.0742 -0.0349
  839MPD2    H712394   1.786   3.428  11.116 -0.4331  0.1677 -0.1179
  840MPD2     C12395   2.127   2.259   9.960  0.4055  0.1244  0.7309
  840MPD2    C112396   2.153   2.178  10.068 -0.4724 -0.0081 -0.1810
  840MPD2    C212397   2.250   2.227  10.166  0.0183 -0.3240  0.5396
  840MPD2    C312398   2.313   2.350  10.142  0.2523 -0.0121 -0.6956
  840MPD2    C412399   2.282   2.420  10.030  0.1807 -0.4049  0.1420
  840MPD2    C512400   2.198   2.377   9.932 -1.2776 -1.2887  0.6528
  840MPD2     H12401   2.280   2.169  10.253 -0.2810  1.8445  2.0804
  840MPD2    H112402   2.326   2.515  10.003  0.6319 -0.9691 -1.1264
  840MPD2    H212403   2.060   2.238   9.877  1.3331 -2.4096  0.6036
  840MPD2    H312404   2.180   2.438   9.844  0.1915 -1.9437 -0.1127
  840MPD2     N12405   2.398   2.412  10.237  0.4974  0.1143 -0.5925
  840MPD2    H512406   2.449   2.496  10.214 -2.4252  2.2336  0.6086
  840MPD2    N112407   2.082   2.056  10.076 -0.1154 -0.4101 -0.1115
  840MPD2    H712408   2.014   2.039  10.002 -0.5252  1.0458 -0.0586
  841MPD2     C12409   1.498   1.845  14.509 -0.0168  0.0603  0.1645
  841MPD2    C112410   1.498   1.794  14.635 -0.0199  0.5254  0.4734
  841MPD2    C212411   1.596   1.829  14.723  0.1488 -0.0174  0.6535
  841MPD2    C312412   1.701   1.898  14.686  0.2395  0.7133  0.0955
  841MPD2    C412413   1.694   1.973  14.571  0.0981  1.0123  0.1052
  841MPD2    C512414   1.586   1.951  14.483  0.3464  0.0357 -0.3597
  841MPD2     H12415   1.609   1.790  14.824 -1.5625  0.4266  1.0489
  841MPD2    H112416   1.770   2.044  14.541 -0.4501  2.6023  2.5110
  841MPD2    H212417   1.417   1.822  14.442  1.1392 -0.6595 -0.9642
  841MPD2    H312418   1.588   2.001  14.387 -0.0941  2.3487  0.8045
  841MPD2     N12419   1.800   1.930  14.791 -0.4884  0.2629  0.6400
  841MPD2    H512420   1.788   1.886  14.882  0.3959 -0.7025  0.2885
  841MPD2    N112421   1.417   1.688  14.682  0.3351 -0.7982  0.2778
  841MPD2    H712422   1.445   1.649  14.771  1.7493 -0.1187  0.1288
  842MPD2     C12423   1.521   2.327  16.601 -0.7895 -0.3751 -0.1385
  842MPD2    C112424   1.617   2.426  16.626  0.2635 -0.2831  0.2602
  842MPD2    C212425   1.676   2.434  16.755  0.3438 -0.2062  0.6218
  842MPD2    C312426   1.615   2.369  16.862 -0.2990  0.0845 -0.0909
  842MPD2    C412427   1.499   2.297  16.835  0.3820  0.2178 -0.0889
  842MPD2    C512428   1.462   2.266  16.709 -0.0641  0.3600  0.0959
  842MPD2     H12429   1.755   2.505  16.774 -0.3411  0.3407  1.4276
  842MPD2    H112430   1.443   2.250  16.915 -1.4004  1.7983 -0.3887
  842MPD2    H212431   1.497   2.308  16.497 -0.8130 -1.5619  0.0759
  842MPD2    H312432   1.392   2.185  16.695  0.9542 -0.7005  1.2054
  842MPD2     N12433   1.640   2.409  16.992 -0.2777 -0.2274 -0.4274
  842MPD2    H512434   1.577   2.369  17.060 -0.4533  1.8358  0.6306
  842MPD2    N112435   1.656   2.503  16.517 -0.0415  0.2378  0.3980
  842MPD2    H712436   1.602   2.492  16.432 -1.9446 -0.2376  1.6674
  843MPD2     C12437   4.146   3.906  17.354  0.7842 -0.2804 -0.2787
  843MPD2    C112438   4.159   3.849  17.476 -0.0213 -0.0787  1.1004
  843MPD2    C212439   4.234   3.915  17.568 -0.2703 -0.4553 -0.5181
  843MPD2    C312440   4.309   4.031  17.541  0.0227 -0.2751  0.6467
  843MPD2    C412441   4.299   4.086  17.412 -0.4294  0.0774 -0.0580
  843MPD2    C512442   4.208   4.022  17.327  0.3434 -0.0798 -0.5245
  843MPD2     H12443   4.240   3.878  17.670 -2.0240  0.8777  0.0678
  843MPD2    H112444   4.352   4.173  17.376  0.5919  0.0967  1.4889
  843MPD2    H212445   4.085   3.857  17.278  1.1669  0.0997 -0.8347
  843MPD2    H312446   4.204   4.062  17.226  4.5467  1.4224 -0.1187
  843MPD2     N12447   4.385   4.098  17.644  0.5705 -0.3849  0.0572
  843MPD2    H512448   4.442   4.173  17.605 -0.1691 -0.0915 -0.4664
  843MPD2    N112449   4.084   3.736  17.510  0.1390  0.2947  0.4517
  843MPD2    H712450   4.040   3.688  17.432  1.0832 -0.7363  0.5498
  844MPD2     C12451   2.409   1.880  16.527 -0.3381  0.5618  0.9190
  844MPD2    C112452   2.478   1.927  16.416  0.7178  0.5962  0.7597
  844MPD2    C212453   2.573   2.018  16.444  0.2519 -0.3909  0.3952
  844MPD2    C312454   2.606   2.062  16.571  0.8210 -0.6573  0.0931
  844MPD2    C412455   2.546   2.005  16.679  0.8907  0.3444 -0.1403
  844MPD2    C512456   2.441   1.921  16.653 -1.3000 -0.3487 -0.0790
  844MPD2     H12457   2.615   2.072  16.360  1.2105 -3.7069 -1.2546
  844MPD2    H112458   2.563   2.036  16.781  1.2373 -0.1428 -0.0472
  844MPD2    H212459   2.323   1.816  16.509 -0.5257  0.8697  0.7220
  844MPD2    H312460   2.376   1.894  16.736 -0.0939 -0.3916  0.8448
  844MPD2     N12461   2.719   2.153  16.587 -0.0106 -0.4344  0.1421
  844MPD2    H512462   2.745   2.213  16.509  1.1550 -0.0669  0.8248
  844MPD2    N112463   2.442   1.905  16.283 -0.6118 -0.1421 -0.7541
  844MPD2    H712464   2.495   1.963  16.218 -0.0732 -0.4018 -0.5473
  845MPD2     C12465   3.011   3.091  16.710  0.0788 -0.2663  0.3152
  845MPD2    C112466   3.091   3.023  16.798  0.2742  0.1377 -0.2221
  845MPD2    C212467   3.093   2.883  16.797 -0.3590  0.1350 -0.0218
  845MPD2    C312468   3.033   2.807  16.694  0.3228  0.0526  0.1299
  845MPD2    C412469   2.966   2.876  16.596 -0.4217 -1.0593  0.0913
  845MPD2    C512470   2.949   3.013  16.609 -0.1538 -0.1678  0.0183
  845MPD2     H12471   3.144   2.828  16.875  1.9616  1.6204 -0.4988
  845MPD2    H112472   2.907   2.828  16.519  1.8525 -0.7431 -1.8642
  845MPD2    H212473   3.007   3.199  16.716  0.6612 -0.2845  0.9115
  845MPD2    H312474   2.877   3.055  16.539  0.5312  0.8905 -0.0663
  845MPD2     N12475   3.045   2.672  16.690 -0.1242 -0.1636  0.5480
  845MPD2    H512476   3.112   2.629  16.753  1.1172  1.6329  0.4760
  845MPD2    N112477   3.148   3.098  16.910  0.3477 -0.2027 -0.1626
  845MPD2    H712478   3.110   3.192  16.907  2.6489  0.7180 -0.4767
  846MPD2     C12479   4.356   3.392  13.922 -0.1296 -0.2210 -0.8396
  846MPD2    C112480   4.326   3.526  13.928 -0.0235  0.4634 -0.9879
  846MPD2    C212481   4.341   3.587  14.053 -0.2504  0.5034  0.1974
  846MPD2    C312482   4.372   3.508  14.160 -0.4223  0.2830  0.3697
  846MPD2    C412483   4.402   3.374  14.151 -0.3538 -0.4444  0.1441
  846MPD2    C512484   4.399   3.311  14.034  0.0882  0.0246  0.2131
  846MPD2     H12485   4.306   3.687  14.075  0.5809  0.7487  0.4086
  846MPD2    H112486   4.425   3.310  14.235  1.0876 -1.4712 -1.0380
  846MPD2    H212487   4.339   3.355  13.822 -0.4857 -0.1969 -0.7863
  846MPD2    H312488   4.416   3.205  14.017 -3.0101 -0.3657 -0.4942
  846MPD2     N12489   4.365   3.571  14.285 -0.2704 -0.7015 -0.1415
  846MPD2    H512490   4.321   3.661  14.299 -0.5929 -1.1111  1.4781
  846MPD2    N112491   4.276   3.609  13.822 -0.1521  0.4908  0.3077
  846MPD2    H712492   4.271   3.706  13.850  0.1377  1.4621 -2.9968
  847MPD2     C12493   4.677   4.454  15.401 -0.6141 -0.1448  0.3612
  847MPD2    C112494   0.006   4.522  15.504 -0.6412 -0.0080  0.5421
  847MPD2    C212495   0.067   4.444  15.598  0.2849  0.4911  0.3006
  847MPD2    C312496   0.067   4.307  15.593  0.4247 -0.4350  0.3405
  847MPD2    C412497   4.732   4.237  15.498 -0.5269  0.3730 -0.0233
  847MPD2    C512498   4.679   4.314  15.392 -1.0624 -0.0472 -0.4320
  847MPD2     H12499   0.103   4.505  15.680  0.1930  2.5465 -1.1828
  847MPD2    H112500   4.726   4.130  15.478  1.1140 -0.2804  3.0033
  847MPD2    H212501   4.632   4.515  15.324 -0.6489 -1.1919 -0.4514
  847MPD2    H312502   4.638   4.265  15.304 -3.3838 -1.8264  1.6257
  847MPD2     N12503   0.138   4.248  15.695 -0.5119  0.0375  0.0004
  847MPD2    H512504   0.179   4.317  15.757  0.9487 -1.8804  1.1563
  847MPD2    N112505   0.006   4.666  15.526 -0.5150  0.1938 -0.4572
  847MPD2    H712506   0.063   4.703  15.601  0.5892 -0.5549 -0.9162
  848MPD2     C12507   2.565   2.760  16.305  0.3111 -0.3089  0.1265
  848MPD2    C112508   2.570   2.801  16.434 -0.0758 -0.4366 -0.3859
  848MPD2    C212509   2.590   2.937  16.462  0.8658 -0.2443 -0.2483
  848MPD2    C312510   2.618   3.024  16.360  0.5470  0.2395  0.3873
  848MPD2    C412511   2.610   2.976  16.233  0.3266  0.1591 -0.6975
  848MPD2    C512512   2.580   2.846  16.204 -0.3322 -0.5774  0.7424
  848MPD2     H12513   2.593   2.954  16.569  1.3120  0.5161 -0.3841
  848MPD2    H112514   2.617   3.028  16.138 -0.1589  0.6276 -0.4730
  848MPD2    H212515   2.533   2.660  16.278  2.9522 -0.8282 -1.0421
  848MPD2    H312516   2.567   2.820  16.100 -0.3853 -0.0584  0.6168
  848MPD2     N12517   2.613   3.165  16.377 -0.1435 -0.9759 -0.0214
  848MPD2    H512518   2.598   3.223  16.295 -0.0580 -0.4345  0.3386
  848MPD2    N112519   2.550   2.711  16.544 -0.0458  0.0172 -0.5395
  848MPD2    H712520   2.539   2.756  16.634 -1.1096 -1.9173  0.2978
  849MPD2     C12521   1.475   2.623  14.162 -0.0145  0.1317 -0.4780
  849MPD2    C112522   1.549   2.507  14.172  0.5838 -0.7630  0.5980
  849MPD2    C212523   1.653   2.494  14.264  0.5058 -0.1338  0.7180
  849MPD2    C312524   1.675   2.590  14.353  0.0091  0.2814 -0.6103
  849MPD2    C412525   1.604   2.711  14.337 -0.4531 -0.1404  0.7136
  849MPD2    C512526   1.503   2.725  14.248  0.2393  0.9399  0.4049
  849MPD2     H12527   1.710   2.402  14.275  1.0749  0.5075  3.0903
  849MPD2    H112528   1.626   2.794  14.403  1.9120 -0.0187 -0.2034
  849MPD2    H212529   1.386   2.635  14.101  0.4828 -1.9922 -1.6285
  849MPD2    H312530   1.447   2.818  14.238 -2.0421 -0.4110  0.7241
  849MPD2     N12531   1.767   2.576  14.460  0.2188  0.0508  0.1750
  849MPD2    H512532   1.801   2.658  14.509 -0.7291 -0.7063  2.1017
  849MPD2    N112533   1.504   2.412  14.081 -0.5787 -0.5056  0.0726
  849MPD2    H712534   1.449   2.443  14.002  0.3574 -1.7907 -1.0920
  850MPD2     C12535   0.198   0.683  14.715  0.6913 -0.6848  0.5919
  850MPD2    C112536   0.216   0.729  14.845 -0.5538  0.2585  0.0260
  850MPD2    C212537   0.345   0.752  14.887  0.2610  0.1602  0.1035
  850MPD2    C312538   0.455   0.732  14.802  0.1685 -0.6378  0.2591
  850MPD2    C412539   0.435   0.681  14.679 -0.0402 -0.2269 -0.6706
  850MPD2    C512540   0.311   0.653  14.641 -0.1764  1.1495 -0.4686
  850MPD2     H12541   0.369   0.776  14.990  3.3151 -3.1538  0.1435
  850MPD2    H112542   0.516   0.660  14.610 -0.6521 -0.8750 -1.1961
  850MPD2    H212543   0.105   0.655  14.667 -0.4054  0.9017  1.7823
  850MPD2    H312544   0.301   0.606  14.544 -2.9034  1.3164 -0.2484
  850MPD2     N12545   0.576   0.774  14.850 -0.2336  0.4829 -0.1073
  850MPD2    H512546   0.566   0.797  14.949 -1.8147 -3.3557  0.5978
  850MPD2    N112547   0.111   0.752  14.940 -0.3941 -0.3354  0.0509
  850MPD2    H712548   0.150   0.782  15.029 -1.7641  0.5098  0.3608
  851MPD2     C12549   0.197   0.599  15.652 -0.4519  0.0743  0.2002
  851MPD2    C112550   0.072   0.605  15.589  0.3242 -0.1584 -0.5175
  851MPD2    C212551   4.715   0.524  15.642  0.8422 -0.1000  0.2906
  851MPD2    C312552   4.735   0.446  15.752  0.0219 -0.1152 -0.1219
  851MPD2    C412553   0.119   0.445  15.814  0.0731 -0.1915  0.1221
  851MPD2    C512554   0.219   0.519  15.759  0.0666 -0.1372 -0.0935
  851MPD2     H12555   4.626   0.510  15.581  1.3962  1.0153 -0.7933
  851MPD2    H112556   0.131   0.386  15.904  1.9541 -0.3948 -0.2597
  851MPD2    H212557   0.280   0.660  15.618 -1.3162  1.0171 -0.2168
  851MPD2    H312558   0.318   0.516  15.802 -0.8600  0.0895  2.0562
  851MPD2     N12559   4.636   0.363  15.796  0.1383  0.6029 -0.2146
  851MPD2    H512560   4.547   0.378  15.750 -0.5472 -0.7522  0.6870
  851MPD2    N112561   0.057   0.689  15.472 -1.2138  0.0561  0.3104
  851MPD2    H712562   0.131   0.752  15.445 -2.0040  0.8596  0.0292
  852MPD2     C12563   0.098   3.149  10.212 -0.6479  0.2424  0.3535
  852MPD2    C112564   0.002   3.242  10.242 -0.6779  0.0802 -0.1656
  852MPD2    C212565   4.732   3.354  10.167 -0.0174  0.0466 -0.3758
  852MPD2    C312566   0.080   3.383  10.062  0.2836 -0.3974  0.4035
  852MPD2    C412567   0.180   3.293  10.030 -0.3314  0.1961 -0.3257
  852MPD2    C512568   0.183   3.175  10.107  0.0140  0.2148  0.1880
  852MPD2     H12569   4.655   3.423  10.201 -0.8569 -2.6358  3.1539
  852MPD2    H112570   0.242   3.300   9.942 -1.5716 -1.7481 -1.3806
  852MPD2    H212571   0.100   3.057  10.269 -0.4056  0.9262  1.4391
  852MPD2    H312572   0.251   3.096  10.077  0.8063  0.1824  2.0718
  852MPD2     N12573   0.060   3.504   9.999  0.0084 -0.8892  0.2543
  852MPD2    H512574   4.724   3.557  10.043  1.5248  1.3562  0.1663
  852MPD2    N112575   4.634   3.224  10.334  0.4722 -0.1929 -0.1504
  852MPD2    H712576   4.568   3.301  10.342  0.2836 -0.1267 -2.2638
  853MPD2     C12577   1.803   2.861  12.057  0.1260 -0.2413  0.0486
  853MPD2    C112578   1.677   2.860  11.992  0.6154  0.1615 -0.3223
  853MPD2    C212579   1.663   2.851  11.857  0.3090 -0.1824  0.0813
  853MPD2    C312580   1.769   2.822  11.774 -0.2646 -0.4512  0.1781
  853MPD2    C412581   1.890   2.811  11.836  0.2062  0.3903 -0.1178
  853MPD2    C512582   1.908   2.820  11.972  0.6587  0.0845 -0.3110
  853MPD2     H12583   1.568   2.870  11.807  0.3286 -0.4706 -0.0632
  853MPD2    H112584   1.979   2.795  11.776 -0.2728 -0.7747 -0.5270
  853MPD2    H212585   1.830   2.864  12.162 -1.9770 -0.1074  0.5978
  853MPD2    H312586   2.006   2.791  12.009  1.0675  1.1156 -0.5683
  853MPD2     N12587   1.765   2.805  11.634  0.1210 -0.0185  0.0633
  853MPD2    H512588   1.856   2.794  11.590 -0.2910 -1.6708 -0.3796
  853MPD2    N112589   1.566   2.892  12.074 -0.0943 -0.3487  0.1805
  853MPD2    H712590   1.589   2.905  12.171  0.3211  0.1516  0.0141
  854MPD2     C12591   3.075   3.080  12.520  0.1270  0.1961  0.2485
  854MPD2    C112592   3.165   3.179  12.562  0.0727  0.7546 -0.6256
  854MPD2    C212593   3.247   3.150  12.674 -0.0435  0.3053  0.6345
  854MPD2    C312594   3.247   3.017  12.718  0.0199 -0.2663  0.2650
  854MPD2    C412595   3.167   2.922  12.675  0.5098 -0.1436 -0.0814
  854MPD2    C512596   3.078   2.954  12.578 -0.8188  1.1017 -0.0364
  854MPD2     H12597   3.310   3.224  12.719  3.6531 -2.5059  0.0629
  854MPD2    H112598   3.164   2.822  12.716  1.4643 -0.8192 -1.6688
  854MPD2    H212599   2.999   3.096  12.443  0.7526  0.9623 -0.2083
  854MPD2    H312600   3.007   2.877  12.551  0.3035  0.4469 -1.1508
  854MPD2     N12601   3.329   2.970  12.826 -0.3582  0.2434 -0.1949
  854MPD2    H512602   3.332   2.869  12.836 -1.0609  0.0465 -1.7900
  854MPD2    N112603   3.180   3.301  12.489 -0.7831 -0.4037  0.6637
  854MPD2    H712604   3.135   3.301  12.398 -2.4425  0.6498  1.4824
  855MPD2     C12605   3.230   2.839  13.677 -0.3600  0.4323  0.3622
  855MPD2    C112606   3.338   2.764  13.634 -0.1921  0.4040  0.7835
  855MPD2    C212607   3.422   2.820  13.541  0.6611  0.2662 -0.4618
  855MPD2    C312608   3.393   2.945  13.480 -0.4971  0.5211 -0.1612
  855MPD2    C412609   3.285   3.026  13.524  0.3471  0.4997  1.0052
  855MPD2    C512610   3.208   2.967  13.628  0.5199  0.2117  0.0562
  855MPD2     H12611   3.502   2.753  13.511 -2.1898 -2.7875 -1.2322
  855MPD2    H112612   3.262   3.116  13.469 -2.6484 -0.3662  0.8691
  855MPD2    H212613   3.156   2.791  13.739  1.7935 -1.8135  1.2200
  855MPD2    H312614   3.123   3.024  13.662  0.0434 -0.4843  0.0255
  855MPD2     N12615   3.476   2.987  13.370  0.1854  0.6991 -0.1815
  855MPD2    H512616   3.443   3.067  13.316 -1.3748 -0.8695 -1.5212
  855MPD2    N112617   3.371   2.640  13.688  0.5019 -0.3068 -0.1232
  855MPD2    H712618   3.456   2.596  13.654  0.5434  0.5869 -1.1715
  856MPD2     C12619   0.921   3.299  14.048  0.3804  0.4270  0.5148
  856MPD2    C112620   0.895   3.426  14.001 -0.5735 -0.7731 -1.0195
  856MPD2    C212621   0.780   3.490  14.040  0.3818 -0.4750  0.3064
  856MPD2    C312622   0.685   3.452  14.132  0.2154 -0.5885  0.6595
  856MPD2    C412623   0.704   3.321  14.168  0.3438 -0.1840 -0.3105
  856MPD2    C512624   0.817   3.250  14.129 -0.5246 -0.5387  0.1437
  856MPD2     H12625   0.776   3.586  13.989  0.1697  1.1624  3.3530
  856MPD2    H112626   0.636   3.271  14.235 -2.0092  2.5157 -0.7178
  856MPD2    H212627   1.006   3.233  14.036 -0.6037 -1.1353  2.2061
  856MPD2    H312628   0.838   3.152  14.170 -0.5670 -1.1011 -1.1671
  856MPD2     N12629   0.570   3.528  14.172  0.1580 -0.1038 -0.6034
  856MPD2    H512630   0.506   3.490  14.241 -1.2809  0.1902 -1.7743
  856MPD2    N112631   0.995   3.485  13.919  0.0496 -1.3556 -0.1802
  856MPD2    H712632   0.986   3.583  13.894  1.3856 -1.1297  0.2041
  857MPD2     C12633   2.248   1.347  12.283  0.1205  0.0915  0.1776
  857MPD2    C112634   2.386   1.348  12.264 -0.8796 -0.1606  0.1670
  857MPD2    C212635   2.457   1.465  12.281  0.3052 -0.2628  0.0362
  857MPD2    C312636   2.402   1.580  12.324 -0.1968  0.5689  0.4739
  857MPD2    C412637   2.262   1.580  12.350  0.5997  0.8738 -1.1134
  857MPD2    C512638   2.192   1.461  12.335  0.0345  0.4024 -0.0613
  857MPD2     H12639   2.563   1.467  12.261  0.2573 -1.5517 -0.2966
  857MPD2    H112640   2.219   1.670  12.393  2.4220  0.8642  0.7261
  857MPD2    H212641   2.197   1.251  12.283  1.4857 -0.6248 -1.8829
  857MPD2    H312642   2.088   1.464  12.366 -0.3904 -0.2523 -1.3840
  857MPD2     N12643   2.493   1.690  12.331 -0.4281  0.0023  0.4003
  857MPD2    H512644   2.582   1.667  12.289  0.0979  3.0559 -0.1378
  857MPD2    N112645   2.448   1.225  12.224 -0.1437 -0.1663 -0.6619
  857MPD2    H712646   2.389   1.143  12.217 -1.5690  0.7570  0.7289
  858MPD2     C12647   3.445   0.195  16.366 -0.6873 -0.2981  0.0538
  858MPD2    C112648   3.337   0.267  16.336  0.1464  0.7032  0.2447
  858MPD2    C212649   3.262   0.319  16.436  0.4944 -0.0784  0.0016
  858MPD2    C312650   3.297   0.298  16.572 -0.7040 -0.2178 -0.1525
  858MPD2    C412651   3.399   0.214  16.601 -0.6914  0.2794 -0.1145
  858MPD2    C512652   3.468   0.155  16.496  0.2239 -0.0469  0.3688
  858MPD2     H12653   3.180   0.379  16.398 -0.9928 -2.5870 -0.7077
  858MPD2    H112654   3.440   0.193  16.699  0.5666 -0.6000 -0.8309
  858MPD2    H212655   3.503   0.150  16.286 -1.1471 -1.1691  0.2087
  858MPD2    H312656   3.549   0.086  16.519 -0.3064  0.3403  3.4501
  858MPD2     N12657   3.222   0.358  16.676  0.3832  0.0841 -0.3163
  858MPD2    H512658   3.241   0.331  16.772  1.4321  0.7990 -0.3198
  858MPD2    N112659   3.307   0.282  16.200 -0.2806 -0.2097 -0.1066
  858MPD2    H712660   3.375   0.234  16.142 -2.6949  0.5819 -3.5598
  859MPD2     C12661   1.499   2.792  15.674 -0.2898  0.5565 -0.3341
  859MPD2    C112662   1.632   2.752  15.668  0.3535  0.1343 -0.3132
  859MPD2    C212663   1.671   2.638  15.730  0.9259  0.3936 -0.0550
  859MPD2    C312664   1.570   2.553  15.783  0.3707 -0.6785  0.4316
  859MPD2    C412665   1.441   2.594  15.784 -0.2478 -0.2883 -0.1315
  859MPD2    C512666   1.406   2.712  15.731  0.3327  0.4401 -0.0211
  859MPD2     H12667   1.773   2.602  15.733  0.3240 -1.2513  0.7465
  859MPD2    H112668   1.363   2.523  15.806 -1.7650  1.4414  0.0861
  859MPD2    H212669   1.455   2.882  15.632 -2.4346 -1.3781 -2.2695
  859MPD2    H312670   1.300   2.732  15.718  0.0007 -0.7140  0.8996
  859MPD2     N12671   1.592   2.424  15.837  0.6767 -0.1282 -0.0611
  859MPD2    H512672   1.508   2.373  15.863  2.2018 -3.9352 -2.5579
  859MPD2    N112673   1.711   2.837  15.590  0.2585  0.5187  0.0159
  859MPD2    H712674   1.661   2.910  15.540 -0.3896  1.9476  2.7496
  860MPD2     C12675   0.105   3.118  11.812 -0.3613 -0.3795 -0.5360
  860MPD2    C112676   0.099   3.116  11.952  0.0727  0.4420  0.6548
  860MPD2    C212677   4.720   3.102  12.014 -0.4669  0.0956 -0.5278
  860MPD2    C312678   4.597   3.108  11.949  0.0738 -0.6565 -0.3707
  860MPD2    C412679   4.599   3.106  11.811  1.0609  0.9319 -0.0601
  860MPD2    C512680   4.721   3.098  11.747  0.5370 -0.3403 -0.4384
  860MPD2     H12681   4.726   3.092  12.122  1.3277 -1.1648 -0.7424
  860MPD2    H112682   4.510   3.096  11.751  0.2379  3.0289  0.8189
  860MPD2    H212683   0.198   3.110  11.757  0.8625 -0.3974  1.5266
  860MPD2    H312684   4.719   3.083  11.640 -0.0604  2.3291 -0.7895
  860MPD2     N12685   4.477   3.102  12.018 -0.5390  0.5748  0.6608
  860MPD2    H512686   4.485   3.079  12.117 -1.5842 -0.5123  0.4960
  860MPD2    N112687   0.205   3.141  12.042  0.3753 -0.0362 -0.0815
  860MPD2    H712688   0.189   3.137  12.142  0.8146  0.7924  0.0199
  861MPD2     C12689   2.982   0.804  10.756  0.5016  0.2091 -0.0986
  861MPD2    C112690   3.009   0.911  10.834  0.0020 -0.0814  0.3727
  861MPD2    C212691   2.945   1.031  10.811  1.0988 -0.1409 -0.6116
  861MPD2    C312692   2.847   1.036  10.704 -0.2614 -0.1171  0.1620
  861MPD2    C412693   2.825   0.921  10.632 -0.1193 -0.0952 -0.0074
  861MPD2    C512694   2.883   0.806  10.660 -0.5394  0.0853  0.3365
  861MPD2     H12695   2.976   1.107  10.882 -1.8247  1.2511 -0.8310
  861MPD2    H112696   2.766   0.931  10.541 -0.2642  1.2510  0.2341
  861MPD2    H212697   3.038   0.712  10.764 -0.0578 -0.1857 -0.6979
  861MPD2    H312698   2.862   0.720  10.598  1.7473 -0.6974  0.6390
  861MPD2     N12699   2.764   1.142  10.669 -0.5352  0.2906 -0.3617
  861MPD2    H512700   2.699   1.120  10.594 -0.4497 -0.8844 -0.0998
  861MPD2    N112701   3.099   0.909  10.946 -0.5125 -0.4862  0.0594
  861MPD2    H712702   3.112   0.995  10.999  1.4462 -1.8868  1.8327
  862MPD2     C12703   2.315   1.389  10.187  0.1412 -0.2241 -0.4912
  862MPD2    C112704   2.398   1.323  10.275  0.5066  0.8074  0.7493
  862MPD2    C212705   2.420   1.190  10.248  0.5741  0.2581 -0.2255
  862MPD2    C312706   2.377   1.124  10.137  0.2865  0.1636 -0.1740
  862MPD2    C412707   2.301   1.194  10.047 -0.5736  0.0086  0.2119
  862MPD2    C512708   2.263   1.324  10.078 -0.1598  0.1125  0.5772
  862MPD2     H12709   2.467   1.135  10.329 -2.6354  0.5491  1.8268
  862MPD2    H112710   2.252   1.131   9.974  1.0896 -1.4264  0.3302
  862MPD2    H212711   2.293   1.495  10.199 -2.1179 -0.6509 -0.9300
  862MPD2    H312712   2.187   1.374  10.018 -1.0175  0.5079  1.9858
  862MPD2     N12713   2.412   0.982  10.127 -0.4095 -0.0183  0.5559
  862MPD2    H512714   2.358   0.931  10.058  0.0111  1.0800 -0.5755
  862MPD2    N112715   2.450   1.378  10.391 -0.1328  0.0626 -0.1126
  862MPD2    H712716   2.498   1.306  10.444 -0.2629  2.3450  3.0862
  863MPD2     C12717   1.044   3.870  16.958  0.8805 -0.5117 -0.2481
  863MPD2    C112718   1.113   3.942  16.861  0.0936  0.7261  0.1436
  863MPD2    C212719   1.252   3.920  16.859 -0.0398 -0.0663  0.1059
  863MPD2    C312720   1.313   3.841  16.952 -0.4948 -0.0435 -0.3915
  863MPD2    C412721   1.242   3.769  17.041  0.3937 -0.9323 -0.1470
  863MPD2    C512722   1.104   3.777  17.039  0.2841  0.0771 -0.3353
  863MPD2     H12723   1.308   3.977  16.786  0.4984  0.4869  0.9484
  863MPD2    H112724   1.280   3.696  17.111  0.8314 -1.4435 -0.9220
  863MPD2    H212725   0.936   3.872  16.946  0.8417  1.1156  0.4190
  863MPD2    H312726   1.047   3.731  17.118  1.3865  1.0176  1.0029
  863MPD2     N12727   1.454   3.822  16.944  0.3745  0.2745  0.7441
  863MPD2    H512728   1.488   3.748  17.006 -1.4996  0.6039  2.1382
  863MPD2    N112729   1.049   4.029  16.763  0.1926  0.6804  0.6519
  863MPD2    H712730   0.949   4.045  16.769 -0.3043 -1.6133 -1.5436
  864MPD2     C12731   1.749   0.319  17.025  0.0848  0.4698 -0.3454
  864MPD2    C112732   1.773   0.352  16.896 -0.0293  0.4188  0.0548
  864MPD2    C212733   1.872   0.428  16.852  0.0128  0.8594  0.0921
  864MPD2    C312734   1.968   0.467  16.946 -0.6974  0.3830 -0.1623
  864MPD2    C412735   1.953   0.429  17.076  0.2864  0.0267 -0.8689
  864MPD2    C512736   1.841   0.358  17.117 -0.4078  0.0681 -0.5738
  864MPD2     H12737   1.890   0.451  16.748  0.8865 -1.7010 -0.3277
  864MPD2    H112738   2.023   0.450  17.156 -0.3560  1.3149 -0.6464
  864MPD2    H212739   1.664   0.272  17.073  1.0769 -1.7852 -0.8090
  864MPD2    H312740   1.831   0.321  17.218  0.1470  0.7302 -0.2809
  864MPD2     N12741   2.096   0.526  16.920 -0.2093  0.3304  0.5270
  864MPD2    H512742   2.164   0.517  16.994  2.4471  0.8629 -1.8785
  864MPD2    N112743   1.685   0.290  16.796  0.0264  0.2420  0.3850
  864MPD2    H712744   1.619   0.230  16.845 -0.9135  1.6437  0.8494
  865MPD2     C12745   2.192   1.119  16.133 -0.0663 -0.4087 -0.5177
  865MPD2    C112746   2.172   0.984  16.115  0.3861  0.7725 -0.0195
  865MPD2    C212747   2.200   0.899  16.218  0.1997 -0.4273  0.4409
  865MPD2    C312748   2.260   0.940  16.341 -0.0665  0.0138  0.3554
  865MPD2    C412749   2.262   1.082  16.362 -0.2466  0.3039 -0.1760
  865MPD2    C512750   2.246   1.158  16.254  0.4719  0.0579 -0.6385
  865MPD2     H12751   2.205   0.792  16.201  1.2539 -0.1497 -1.0269
  865MPD2    H112752   2.326   1.128  16.436 -1.8845  5.4133 -1.9654
  865MPD2    H212753   2.163   1.192  16.059 -0.0802  1.2333  1.1233
  865MPD2    H312754   2.277   1.260  16.277  1.9096 -1.3816  3.7448
  865MPD2     N12755   2.311   0.852  16.443 -0.4100 -0.2506  0.2810
  865MPD2    H512756   2.328   0.882  16.538  1.0123  1.5468 -0.5404
  865MPD2    N112757   2.126   0.932  15.985 -0.1266  0.4249  0.6509
  865MPD2    H712758   2.119   1.003  15.913 -1.4476 -0.0188  0.3419
  866MPD2     C12759   3.736   1.666  11.092  0.0875 -0.3990  0.4699
  866MPD2    C112760   3.676   1.542  11.070  0.1186  0.2740  0.6888
  866MPD2    C212761   3.537   1.530  11.085 -0.1814 -0.4892  0.0149
  866MPD2    C312762   3.457   1.642  11.117  0.1160  0.1053  0.9114
  866MPD2    C412763   3.524   1.758  11.119 -0.0647 -1.0843  0.1339
  866MPD2    C512764   3.656   1.774  11.117  0.5922 -0.7225  0.6537
  866MPD2     H12765   3.485   1.435  11.077 -1.2551  0.0548  0.4908
  866MPD2    H112766   3.464   1.848  11.124  0.3540 -0.7643 -0.5608
  866MPD2    H212767   3.842   1.690  11.080 -0.1481  0.4725  0.1084
  866MPD2    H312768   3.697   1.874  11.125 -2.2628  0.7237 -2.5299
  866MPD2     N12769   3.314   1.639  11.119 -0.3781 -0.2594  0.5157
  866MPD2    H512770   3.278   1.729  11.148 -0.1752  0.1784 -0.5636
  866MPD2    N112771   3.762   1.432  11.038  0.1037 -0.4128 -0.0086
  866MPD2    H712772   3.862   1.442  11.052 -0.1054  1.0073  0.4773
  867MPD2     C12773   0.803   0.344  16.279  0.0312  0.0486  1.1521
  867MPD2    C112774   0.856   0.319  16.400  0.0817 -0.1842  0.0144
  867MPD2    C212775   0.831   0.411  16.504  0.1754  0.2039  0.5544
  867MPD2    C312776   0.762   0.529  16.477 -0.4132 -0.0328  0.0145
  867MPD2    C412777   0.717   0.559  16.353 -0.2926 -0.3344  0.3729
  867MPD2    C512778   0.733   0.462  16.257 -0.2194  0.4275  0.7494
  867MPD2     H12779   0.873   0.401  16.604 -0.3795 -3.3732  0.4358
  867MPD2    H112780   0.648   0.640  16.334  1.6407  0.8202 -1.7763
  867MPD2    H212781   0.812   0.271  16.199  0.1134 -0.0197  1.2240
  867MPD2    H312782   0.682   0.488  16.165 -1.8435  0.7639  1.7480
  867MPD2     N12783   0.725   0.623  16.570 -0.0068  0.4107 -0.1040
  867MPD2    H512784   0.697   0.714  16.536  0.5440  0.2782 -0.9016
  867MPD2    N112785   0.949   0.212  16.406  0.3841 -0.2439  0.2034
  867MPD2    H712786   0.965   0.161  16.319  0.7172  1.6337 -0.8261
  868MPD2     C12787   2.619   4.066  13.590 -0.7876 -0.0504 -0.0483
  868MPD2    C112788   2.643   4.184  13.525  0.3194 -0.6692 -0.8253
  868MPD2    C212789   2.610   4.303  13.593 -0.5630 -0.2363 -0.6745
  868MPD2    C312790   2.560   4.301  13.726 -0.4081 -0.5759  0.6341
  868MPD2    C412791   2.553   4.182  13.791  0.3149 -0.5028  0.6129
  868MPD2    C512792   2.584   4.065  13.724  0.5273 -0.1624  0.2983
  868MPD2     H12793   2.621   4.394  13.535  2.0939  0.7754  1.4307
  868MPD2    H112794   2.515   4.166  13.891  0.4779  0.8749  0.8933
  868MPD2    H212795   2.617   3.974  13.533 -0.7884  0.9247 -1.6311
  868MPD2    H312796   2.589   3.968  13.773 -1.7270 -0.0038  0.8136
  868MPD2     N12797   2.530   4.427  13.787 -0.4426  0.1349 -0.1917
  868MPD2    H512798   2.510   4.505  13.724  1.1326  0.4814 -0.2453
  868MPD2    N112799   2.666   4.176  13.385  0.9791  0.3525 -0.1236
  868MPD2    H712800   2.685   4.083  13.351 -3.0534 -0.3286 -0.4873
  869MPD2     C12801   3.425   2.142   0.346  0.3429 -0.4476 -0.8092
  869MPD2    C112802   3.326   2.240   0.364 -0.6688  0.3857 -0.1710
  869MPD2    C212803   3.366   2.356   0.423 -0.3929 -0.3809 -0.3428
  869MPD2    C312804   3.497   2.386   0.456  0.5269 -0.1895 -0.5077
  869MPD2    C412805   3.589   2.290   0.440 -0.1554  0.2572  0.3868
  869MPD2    C512806   3.548   2.164   0.397  0.5910  0.5954  0.4027
  869MPD2     H12807   3.294   2.436   0.436 -0.6525 -0.7342  0.3914
  869MPD2    H112808   3.695   2.306   0.455  0.1694  0.1189 -1.8474
  869MPD2    H212809   3.420   2.047   0.294  1.2169 -1.6425  1.2811
  869MPD2    H312810   3.625   2.089   0.385  1.5139  1.1979  2.5314
  869MPD2     N12811   3.531   2.511   0.507 -0.0426 -0.1810 -0.2954
  869MPD2    H512812   3.630   2.531   0.513  0.0428 -1.2530  2.0105
  869MPD2    N112813   3.197   2.216   0.317  0.1607  0.6587  0.1553
  869MPD2    H712814   3.193   2.128   0.266 -1.7354  0.2917  0.9351
  870MPD2     C12815   4.149   0.978   1.257 -0.6349  0.0663  0.1477
  870MPD2    C112816   4.028   0.986   1.191  0.0818  0.2032  0.7775
  870MPD2    C212817   3.968   1.107   1.175 -0.6500  0.3348 -0.4816
  870MPD2    C312818   4.011   1.219   1.254  0.3079 -0.2218 -0.0742
  870MPD2    C412819   4.120   1.198   1.339 -0.2371 -0.7743  0.5530
  870MPD2    C512820   4.189   1.084   1.329 -0.0479 -0.3325  0.4469
  870MPD2     H12821   3.872   1.116   1.126 -1.2060 -1.5353  0.2522
  870MPD2    H112822   4.148   1.279   1.407 -0.3070  0.4412 -0.8702
  870MPD2    H212823   4.194   0.881   1.270  0.0210  0.5160  1.2240
  870MPD2    H312824   4.279   1.072   1.390  0.6003 -1.4618 -0.7166
  870MPD2     N12825   3.948   1.343   1.244 -0.3758 -0.2597  0.8926
  870MPD2    H512826   3.882   1.358   1.169  2.6525  0.2632 -1.6816
  870MPD2    N112827   3.983   0.866   1.136  0.1936 -0.8732  0.2998
  870MPD2    H712828   4.036   0.781   1.153  2.3250  0.5292  0.6230
  871MPD2     C12829   0.005   0.996  16.376 -0.1358  0.1103 -0.8138
  871MPD2    C112830   4.726   0.906  16.479 -0.0664 -1.0108 -1.0627
  871MPD2    C212831   4.737   0.768  16.453  0.6443 -0.5935 -0.0634
  871MPD2    C312832   0.035   0.718  16.331  0.0704 -0.1462 -0.7106
  871MPD2    C412833   0.034   0.809  16.226 -0.2748  0.0249  0.5019
  871MPD2    C512834   0.028   0.940  16.251 -0.5232 -0.1829 -0.2712
  871MPD2     H12835   4.728   0.703  16.539  0.7699 -1.9807 -1.0982
  871MPD2    H112836   0.049   0.789  16.120 -0.5891 -0.6586  0.5853
  871MPD2    H212837   0.013   1.104  16.388  1.2125 -0.2399  1.5929
  871MPD2    H312838   0.039   1.005  16.164 -2.9079 -0.4160 -0.7379
  871MPD2     N12839   0.044   0.579  16.309 -0.2405  0.3269 -0.0167
  871MPD2    H512840   0.029   0.515  16.386  0.3685  2.0006  1.5052
  871MPD2    N112841   4.708   0.963  16.607 -0.5924  0.5419  0.5027
  871MPD2    H712842   0.010   1.055  16.622 -2.7301  1.9344 -2.3731
  872MPD2     C12843   0.637   3.320  13.281  0.2502  0.4672 -0.2605
  872MPD2    C112844   0.683   3.260  13.395 -0.1720  0.0761  0.3202
  872MPD2    C212845   0.613   3.280  13.522 -0.4765 -0.2640  0.1872
  872MPD2    C312846   0.492   3.341  13.522  0.2564  0.9514 -0.0185
  872MPD2    C412847   0.447   3.394  13.406 -0.8483 -0.0745 -0.6321
  872MPD2    C512848   0.513   3.381  13.286  0.8432 -0.4905  0.8144
  872MPD2     H12849   0.654   3.224  13.605 -2.2515 -2.3897 -0.3851
  872MPD2    H112850   0.353   3.448  13.402 -0.5104  0.7033  1.7982
  872MPD2    H212851   0.682   3.307  13.183  1.5013  1.5907  0.1598
  872MPD2    H312852   0.477   3.418  13.191  0.9028  1.8433  1.7032
  872MPD2     N12853   0.410   3.364  13.636  0.3060  0.4712  0.4923
  872MPD2    H512854   0.313   3.388  13.618 -0.5686 -3.6323 -0.4666
  872MPD2    N112855   0.794   3.173  13.395  0.2994 -0.2995 -0.1416
  872MPD2    H712856   0.825   3.159  13.490  1.9727 -0.5557 -0.7179
  873MPD2     C12857   2.724   3.007   0.778 -0.3317  0.7947 -0.3128
  873MPD2    C112858   2.593   2.969   0.775 -0.2895  0.3184  0.0996
  873MPD2    C212859   2.554   2.841   0.744  0.1871 -0.2788 -0.5433
  873MPD2    C312860   2.652   2.752   0.714  0.1404  0.5232 -0.1918
  873MPD2    C412861   2.785   2.790   0.705  0.4424  0.1278 -0.7681
  873MPD2    C512862   2.816   2.913   0.750  0.3868  0.0818 -0.8314
  873MPD2     H12863   2.450   2.815   0.726 -0.2852  1.7185 -0.7325
  873MPD2    H112864   2.870   2.726   0.685  0.3399  0.2831 -1.6738
  873MPD2    H212865   2.765   3.103   0.807  2.3979 -0.3258 -0.4592
  873MPD2    H312866   2.921   2.934   0.764  0.2051  0.8732 -0.6575
  873MPD2     N12867   2.614   2.617   0.698 -0.4380 -0.3714 -0.3606
  873MPD2    H512868   2.692   2.551   0.699  1.3915  1.7945 -0.5217
  873MPD2    N112869   2.500   3.069   0.798  0.0114 -0.0454 -0.1729
  873MPD2    H712870   2.523   3.158   0.839 -0.1693  0.3366 -0.9023
  874MPD2     C12871   1.818   3.344  16.140 -0.1257  0.4015  0.7995
  874MPD2    C112872   1.871   3.258  16.236  0.3777  0.0295 -0.5233
  874MPD2    C212873   1.995   3.288  16.294  0.7999 -0.3191 -1.1144
  874MPD2    C312874   2.060   3.410  16.266 -0.0017 -0.1459  0.6133
  874MPD2    C412875   2.006   3.504  16.183 -0.0744  0.2332  0.0128
  874MPD2    C512876   1.888   3.466  16.120  0.4178 -0.0629 -0.1435
  874MPD2     H12877   2.044   3.228  16.370 -2.7201  2.0310  3.0321
  874MPD2    H112878   2.048   3.604  16.169 -0.4643  0.5749  1.3666
  874MPD2    H212879   1.725   3.327  16.086  0.5978 -2.1737  0.3648
  874MPD2    H312880   1.834   3.539  16.061 -0.7919 -0.8249  0.0231
  874MPD2     N12881   2.185   3.421  16.328  0.7937 -0.2262  1.0945
  874MPD2    H512882   2.226   3.342  16.376 -0.6336 -0.5884  1.7198
  874MPD2    N112883   1.800   3.141  16.268  0.5641 -0.5967 -0.4930
  874MPD2    H712884   1.709   3.126  16.225 -0.8028 -2.2925  3.0089
  875MPD2     C12885   3.586   1.693  14.277  0.4260 -0.4423 -0.2660
  875MPD2    C112886   3.475   1.668  14.352  0.1684  0.8575  0.1441
  875MPD2    C212887   3.483   1.664  14.490  0.1755 -0.7712  0.0794
  875MPD2    C312888   3.601   1.691  14.554  0.1960  0.2745 -0.0324
  875MPD2    C412889   3.716   1.709  14.473 -0.2596 -0.0205  0.0263
  875MPD2    C512890   3.704   1.731  14.335  0.5181  0.3724 -0.5871
  875MPD2     H12891   3.403   1.629  14.554  0.5298 -1.1065  0.3349
  875MPD2    H112892   3.817   1.719  14.512  0.1984  1.3166 -1.4538
  875MPD2    H212893   3.583   1.689  14.168  0.2753 -2.7378 -0.1753
  875MPD2    H312894   3.791   1.759  14.277  0.6649  0.3983 -0.3566
  875MPD2     N12895   3.628   1.691  14.696 -0.7434 -0.2038  0.8008
  875MPD2    H512896   3.716   1.731  14.727 -1.2143  3.2519 -2.3201
  875MPD2    N112897   3.351   1.618  14.296  0.5802 -0.1982 -0.4848
  875MPD2    H712898   3.279   1.607  14.366 -0.2814  1.5026 -1.0950
  876MPD2     C12899   1.741   2.980  15.971 -0.2122 -0.3026 -0.7865
  876MPD2    C112900   1.874   2.992  15.928  0.4394 -0.1867 -0.2683
  876MPD2    C212901   1.963   2.888  15.943  0.0125 -0.7028 -0.4916
  876MPD2    C312902   1.917   2.776  16.005  0.0811  0.3260  0.6227
  876MPD2    C412903   1.783   2.748  16.030 -0.5905  0.2880 -0.1049
  876MPD2    C512904   1.698   2.856  16.024  0.4835  0.7526 -0.3069
  876MPD2     H12905   2.065   2.884  15.908  0.0454  1.1547 -0.5782
  876MPD2    H112906   1.747   2.652  16.064 -2.3459  1.6399  1.8239
  876MPD2    H212907   1.670   3.060  15.958  1.8047  1.8197  1.1799
  876MPD2    H312908   1.602   2.842  16.074  0.6653 -1.0321 -0.4607
  876MPD2     N12909   2.013   2.673  16.018 -0.4352  0.0264 -0.5287
  876MPD2    H512910   2.101   2.689  15.970 -1.3903  1.2867 -1.8626
  876MPD2    N112911   1.914   3.112  15.863 -0.5719 -0.5228  0.3269
  876MPD2    H712912   1.840   3.177  15.840  0.6948  0.3695 -1.1790
  877MPD2     C12913   1.897   3.465  15.150 -0.2854 -0.0026 -0.7690
  877MPD2    C112914   2.029   3.425  15.187  0.2311 -0.3628  0.5488
  877MPD2    C212915   2.130   3.435  15.099 -0.1200  0.4525  1.0973
  877MPD2    C312916   2.101   3.479  14.968  0.2485  0.1596  0.1272
  877MPD2    C412917   1.969   3.505  14.935  0.2012 -0.1495  0.6668
  877MPD2    C512918   1.869   3.498  15.023 -0.5510  0.2155 -0.1160
  877MPD2     H12919   2.226   3.407  15.141  1.2502  2.8014 -0.4365
  877MPD2    H112920   1.939   3.545  14.839  1.5032 -0.9877 -0.0807
  877MPD2    H212921   1.816   3.453  15.222 -0.1409  2.5936 -0.1684
  877MPD2    H312922   1.764   3.517  15.008 -0.6951 -0.8759 -0.5034
  877MPD2     N12923   2.187   3.480  14.862 -0.2214  0.1719 -0.4286
  877MPD2    H512924   2.158   3.534  14.781 -1.0985  1.7350  0.9365
  877MPD2    N112925   2.063   3.401  15.325  0.1264  0.8754  0.2263
  877MPD2    H712926   2.159   3.408  15.356 -0.0315  1.3591  0.6342
  878MPD2     C12927   2.158   2.438  13.350 -0.3863 -0.2551 -0.0315
  878MPD2    C112928   2.092   2.338  13.304 -0.1432 -0.0838 -0.2870
  878MPD2    C212929   1.985   2.284  13.377  0.2306  0.4444 -0.4545
  878MPD2    C312930   1.932   2.338  13.494  0.4144 -0.3299 -0.4515
  878MPD2    C412931   2.005   2.455  13.535  0.0557  0.0530 -0.7278
  878MPD2    C512932   2.119   2.495  13.462  0.4742  0.3205 -0.6126
  878MPD2     H12933   1.942   2.190  13.346  0.7543 -0.3620  1.3143
  878MPD2    H112934   1.986   2.502  13.631  1.8459 -0.7310  0.0223
  878MPD2    H212935   2.247   2.475  13.300 -0.1135  0.1426  0.7444
  878MPD2    H312936   2.173   2.582  13.499  1.6322 -0.9679  0.7670
  878MPD2     N12937   1.835   2.273  13.568 -0.6034  0.4307  0.1740
  878MPD2    H512938   1.798   2.183  13.539 -0.7077 -0.5837  3.3691
  878MPD2    N112939   2.134   2.285  13.177  0.2225  0.0287 -0.4636
  878MPD2    H712940   2.206   2.340  13.132 -0.8196  1.3473 -0.5266
  879MPD2     C12941   2.412   3.304  16.950 -0.3659 -0.2975  0.3729
  879MPD2    C112942   2.363   3.435  16.942 -0.2113 -0.6414 -0.4897
  879MPD2    C212943   2.256   3.465  16.858 -0.5246 -0.6486 -0.5871
  879MPD2    C312944   2.208   3.371  16.772  0.9278  0.1950  0.6680
  879MPD2    C412945   2.267   3.250  16.764 -0.6031 -0.0923  0.3241
  879MPD2    C512946   2.372   3.221  16.849 -0.3797 -0.1032  0.1011
  879MPD2     H12947   2.216   3.566  16.857  0.9580 -0.0497  1.1409
  879MPD2    H112948   2.234   3.174  16.694  0.0049 -0.3129  0.2704
  879MPD2    H212949   2.492   3.275  17.017  0.7339  0.2219 -0.7253
  879MPD2    H312950   2.419   3.124  16.842 -0.5507 -0.2101  0.4215
  879MPD2     N12951   2.103   3.402  16.673  0.0790  0.6097 -0.3506
  879MPD2    H512952   2.049   3.329  16.628  0.6942 -0.6675  0.9697
  879MPD2    N112953   2.414   3.525  17.036 -0.3118 -0.6403 -0.1886
  879MPD2    H712954   2.482   3.488  17.102  2.3315  0.3670 -2.3435
  880MPD2     C12955   3.241   0.844  17.745 -0.4771 -0.5476 -0.3360
  880MPD2    C112956   3.285   0.879   0.114 -0.6701 -0.0303 -0.4554
  880MPD2    C212957   3.356   0.786   0.184 -0.1565  0.1474  0.0102
  880MPD2    C312958   3.386   0.661   0.129 -0.3925  0.5429  0.0857
  880MPD2    C412959   3.326   0.631   0.011  0.3478 -0.2230 -0.0906
  880MPD2    C512960   3.261   0.728  17.687  0.0752 -0.1846  0.2605
  880MPD2     H12961   3.408   0.810   0.276  0.9478 -0.7152 -0.3878
  880MPD2    H112962   3.340   0.533  17.716  0.2923 -0.5819  0.6675
  880MPD2    H212963   3.184   0.910  17.680  1.6585  0.3559 -1.3049
  880MPD2    H312964   3.206   0.701  17.598  0.4133  0.7300 -0.2249
  880MPD2     N12965   3.482   0.579   0.197 -1.2176  0.4594  0.2105
  880MPD2    H512966   3.502   0.597   0.295 -0.5801 -3.1849  0.7505
  880MPD2    N112967   3.266   1.014   0.157 -0.1753  0.1152 -0.2185
  880MPD2    H712968   3.224   1.086   0.099  2.3112  0.2192 -1.8873
  881MPD2     C12969   3.660   1.899  17.696 -0.0650  0.1161  0.6020
  881MPD2    C112970   3.606   1.788  17.641  0.4263 -0.5246  0.1714
  881MPD2    C212971   3.552   1.689  17.721 -1.1524  0.4080 -0.5882
  881MPD2    C312972   3.537   1.718   0.104  0.8419  0.6941  0.0637
  881MPD2    C412973   3.574   1.839   0.157 -0.2937 -0.1404 -0.1118
  881MPD2    C512974   3.641   1.924   0.077  0.1323 -0.0644  0.0941
  881MPD2     H12975   3.520   1.592  17.685 -1.7426 -0.2052  1.5696
  881MPD2    H112976   3.566   1.863   0.262  1.0600 -1.2327  0.2510
  881MPD2    H212977   3.707   1.981  17.643  0.2847  1.5126  3.0854
  881MPD2    H312978   3.677   2.017   0.120  1.3692 -0.4085 -0.1980
  881MPD2     N12979   3.471   1.619   0.183  0.5199  0.5033  0.0574
  881MPD2    H512980   3.428   1.652   0.269 -0.0908  0.2166 -0.1423
  881MPD2    N112981   3.657   1.765  17.514 -0.2483  0.8230 -0.4808
  881MPD2    H712982   3.711   1.837  17.466 -1.6350  1.3613 -1.2534
  882MPD2     C12983   2.166   3.003  14.372  0.1512  0.4501 -0.1044
  882MPD2    C112984   2.130   3.125  14.419 -0.8575  0.0488 -0.4952
  882MPD2    C212985   2.003   3.142  14.476 -0.2166 -0.1708  0.1838
  882MPD2    C312986   1.922   3.031  14.496 -0.1862 -0.7720 -1.1901
  882MPD2    C412987   1.959   2.911  14.438 -0.4593  0.3728 -0.2221
  882MPD2    C512988   2.074   2.901  14.368 -0.0339  0.6351  0.5933
  882MPD2     H12989   1.988   3.233  14.533 -0.2225 -2.2554  3.5100
  882MPD2    H112990   1.897   2.824  14.458 -1.6338  0.2662 -4.4856
  882MPD2    H212991   2.265   2.994  14.330 -0.0899  2.8495 -1.1728
  882MPD2    H312992   2.107   2.808  14.321 -2.2721  0.0171  0.2383
  882MPD2     N12993   1.804   3.041  14.571  0.7264  0.4428 -0.0509
  882MPD2    H512994   1.770   3.135  14.586  1.5503  0.6423  0.5647
  882MPD2    N112995   2.235   3.224  14.412  0.2364 -0.8611 -0.3791
  882MPD2    H712996   2.332   3.198  14.404  1.4474  3.9108 -1.5566
  883MPD2     C12997   4.093   2.771  16.071  0.3167  0.6702  0.2812
  883MPD2    C112998   4.145   2.866  15.987 -0.0507  0.0581 -0.1834
  883MPD2    C212999   4.266   2.920  16.017  0.4783 -0.2125  0.5541
  883MPD2    C313000   4.331   2.886  16.141  0.1244  0.1118 -0.3849
  883MPD2    C413001   4.277   2.780  16.221  0.2096  0.2036 -0.1147
  883MPD2    C513002   4.158   2.722  16.182  0.0101 -0.1292 -0.3945
  883MPD2     H13003   4.295   3.009  15.962  1.3307 -1.1825 -0.5454
  883MPD2    H113004   4.326   2.738  16.308 -1.3878 -0.4013  0.4742
  883MPD2    H213005   3.999   2.725  16.044  1.4396 -0.3677 -1.8334
  883MPD2    H313006   4.102   2.654  16.245 -1.1659 -0.5870 -1.9202
  883MPD2     N13007   4.450   2.954  16.171  0.2860 -0.1057  0.6365
  883MPD2    H513008   4.477   3.009  16.090 -0.9836 -1.1897 -0.5114
  883MPD2    N113009   4.075   2.920  15.876  0.6161 -0.7698  0.2763
  883MPD2    H713010   4.125   2.993  15.826 -0.0985 -1.0040 -0.7653
  884MPD2     C13011   1.009   4.344  14.875 -0.5230  0.9519 -0.0250
  884MPD2    C113012   1.021   4.460  14.949  0.3584 -0.5270  0.6117
  884MPD2    C213013   0.913   4.502  15.030 -0.7826  0.3345  0.5124
  884MPD2    C313014   0.785   4.432  15.034 -0.4721  0.2737 -0.2106
  884MPD2    C413015   0.779   4.328  14.945  0.1512  0.3998 -0.2659
  884MPD2    C513016   0.889   4.278  14.870  0.1229 -0.1409  0.1781
  884MPD2     H13017   0.932   4.586  15.097  1.4408 -0.4576  0.8807
  884MPD2    H113018   0.686   4.278  14.921 -0.2809  0.9504  0.2578
  884MPD2    H213019   1.081   4.312  14.801 -0.6853  2.0051 -0.6386
  884MPD2    H313020   0.869   4.200  14.798 -0.0804  0.8742 -0.8619
  884MPD2     N13021   0.677   4.466  15.117 -0.3058  0.0778  0.0694
  884MPD2    H513022   0.597   4.404  15.115 -0.6132  0.4620  0.4425
  884MPD2    N113023   1.140   4.539  14.955 -0.2090  0.0839 -1.0595
  884MPD2    H713024   1.125   4.628  15.002  2.2878 -1.5847  2.9669
  885MPD2     C13025   3.901   3.949   0.119 -1.1095  0.5621 -0.2889
  885MPD2    C113026   3.996   4.050   0.124  0.1612 -0.4126  0.3182
  885MPD2    C213027   4.013   4.127   0.017 -0.7933  0.3518 -0.2648
  885MPD2    C313028   3.927   4.114  17.653  0.0274  0.0953  0.5140
  885MPD2    C413029   3.829   4.006  17.648  0.2882 -0.2886 -0.7452
  885MPD2    C513030   3.819   3.932   0.014 -0.2451  0.3074 -0.0679
  885MPD2     H13031   4.089   4.205   0.013 -1.1623  0.6931 -0.7174
  885MPD2    H113032   3.770   3.977  17.563  0.4758 -0.5094 -0.8017
  885MPD2    H213033   3.897   3.873   0.197 -1.7693 -0.9277 -1.7880
  885MPD2    H313034   3.744   3.854   0.008  0.4039 -0.0306 -4.0118
  885MPD2     N13035   3.943   4.217  17.556  0.5576  0.4379 -0.0229
  885MPD2    H513036   4.027   4.274  17.553  1.2051 -0.5736 -0.9411
  885MPD2    N113037   4.071   4.070   0.247 -0.0853  0.5535 -0.2869
  885MPD2    H713038   4.053   4.011   0.327 -0.5675  0.1001 -0.7338
  886MPD2     C13039   0.368   2.572  15.466  0.1817  0.1815 -0.6018
  886MPD2    C113040   0.486   2.606  15.530 -0.4037 -0.1723  0.9001
  886MPD2    C213041   0.574   2.692  15.455 -0.7142 -0.6027  0.6482
  886MPD2    C313042   0.533   2.746  15.337  0.1074  0.2446 -0.8966
  886MPD2    C413043   0.410   2.718  15.284 -0.1912  0.1595 -0.1410
  886MPD2    C513044   0.326   2.634  15.350 -0.4453  0.2382  0.3271
  886MPD2     H13045   0.669   2.711  15.504  1.2730 -2.8071 -2.3060
  886MPD2    H113046   0.370   2.762  15.193 -2.0031  0.1441  0.6383
  886MPD2    H213047   0.293   2.512  15.517  1.5041 -0.7099  0.3048
  886MPD2    H313048   0.232   2.595  15.315  0.3751 -1.7687  0.3972
  886MPD2     N13049   0.625   2.819  15.261  0.6514  0.2057 -0.2012
  886MPD2    H513050   0.596   2.854  15.170 -0.8442  1.2552  0.6859
  886MPD2    N113051   0.533   2.560  15.655 -0.2014 -0.1835 -0.1703
  886MPD2    H713052   0.625   2.597  15.679  0.5996 -2.5472  0.4272
  887MPD2     C13053   0.953   2.731  16.224  0.7274 -0.1476  0.0409
  887MPD2    C113054   0.926   2.703  16.093  0.7434 -0.2236 -0.8206
  887MPD2    C213055   1.003   2.770  15.995 -0.2260 -0.0605 -0.0750
  887MPD2    C313056   1.095   2.870  16.025  0.0381 -0.2752 -0.2167
  887MPD2    C413057   1.111   2.905  16.157  0.3323  0.2084 -0.9327
  887MPD2    C513058   1.045   2.827  16.249  0.2902  0.4561  0.6867
  887MPD2     H13059   0.980   2.747  15.891  0.0821  2.4048 -0.6720
  887MPD2    H113060   1.182   2.980  16.190  0.1554 -0.5297  1.1817
  887MPD2    H213061   0.906   2.677  16.305  0.0039 -0.8785 -0.8648
  887MPD2    H313062   1.070   2.848  16.353 -1.6738 -0.8454  1.4268
  887MPD2     N13063   1.160   2.931  15.914 -0.1294  0.2120  0.5377
  887MPD2    H513064   1.133   2.918  15.817 -1.0376  1.8582  0.5717
  887MPD2    N113065   0.829   2.614  16.046 -0.1299  0.0449  0.2370
  887MPD2    H713066   0.824   2.597  15.946 -0.1442 -1.3380  0.4720
  888MPD2     C13067   3.471   2.534  15.105  0.1666  0.0370 -0.4361
  888MPD2    C113068   3.361   2.609  15.122 -0.3219 -0.1460 -0.4171
  888MPD2    C213069   3.373   2.742  15.158 -0.0582  0.2543 -1.2210
  888MPD2    C313070   3.495   2.808  15.144  0.3319  0.2309 -0.0916
  888MPD2    C413071   3.605   2.734  15.110  0.2591 -0.8693 -0.5828
  888MPD2    C513072   3.595   2.604  15.097  0.4064 -0.3662  0.3528
  888MPD2     H13073   3.286   2.796  15.192  0.2773 -0.3327  0.5977
  888MPD2    H113074   3.696   2.787  15.086 -1.9405  4.5786  3.1731
  888MPD2    H213075   3.474   2.432  15.069 -0.9139 -0.7250  1.6031
  888MPD2    H313076   3.686   2.548  15.077 -0.0619 -0.9284 -0.2095
  888MPD2     N13077   3.500   2.940  15.170  0.7383 -0.3588  0.6260
  888MPD2    H513078   3.412   2.989  15.178  0.1546 -1.2266 -0.5347
  888MPD2    N113079   3.230   2.562  15.100  0.5016  0.0474 -0.7455
  888MPD2    H713080   3.148   2.615  15.131 -0.5719 -1.6669 -0.6658
  889MPD2     C13081   2.407   2.495  12.392 -0.1726 -0.4893  0.1092
  889MPD2    C113082   2.518   2.443  12.460 -0.5345  0.3613  0.5859
  889MPD2    C213083   2.606   2.532  12.510 -0.1292  0.4531 -0.1791
  889MPD2    C313084   2.588   2.672  12.497 -0.1049  0.2717 -0.3655
  889MPD2    C413085   2.486   2.719  12.425  0.2973  0.6413  0.2883
  889MPD2    C513086   2.394   2.631  12.376 -0.5929 -0.2496  0.8353
  889MPD2     H13087   2.697   2.499  12.557  0.1861  1.8390  0.1768
  889MPD2    H113088   2.462   2.825  12.425  1.8264  0.9914  0.6398
  889MPD2    H213089   2.325   2.434  12.357  0.7215 -0.4509 -2.0306
  889MPD2    H313090   2.311   2.669  12.317  0.1317  0.1525  0.0713
  889MPD2     N13091   2.675   2.751  12.572  0.2331 -0.5549  0.0671
  889MPD2    H513092   2.737   2.703  12.637  0.6111  1.7329  1.4132
  889MPD2    N113093   2.544   2.298  12.458  0.2354  0.0996  0.2871
  889MPD2    H713094   2.484   2.250  12.392 -0.6983 -0.7504  1.7594
  890MPD2     C13095   1.656   4.374  14.645  0.1526  0.2927 -0.2942
  890MPD2    C113096   1.781   4.412  14.700  0.1665  0.3577  1.1565
  890MPD2    C213097   1.849   4.316  14.774 -0.5000  0.8203 -0.5192
  890MPD2    C313098   1.790   4.198  14.813 -0.3930 -0.1783  1.2758
  890MPD2    C413099   1.661   4.171  14.770  0.1635  1.0847 -1.6452
  890MPD2    C513100   1.595   4.258  14.686  0.6825 -0.1965  0.0975
  890MPD2     H13101   1.949   4.332  14.813 -1.0040  1.7752  0.3602
  890MPD2    H113102   1.610   4.076  14.786  0.6679  1.1541  0.3323
  890MPD2    H213103   1.614   4.433  14.564  2.2004  1.0121 -0.8110
  890MPD2    H313104   1.499   4.240  14.638 -0.3848  0.7425  1.8759
  890MPD2     N13105   1.866   4.104  14.886 -0.3221 -0.0449 -0.3326
  890MPD2    H513106   1.967   4.118  14.884 -0.4355  0.8862  0.5838
  890MPD2    N113107   1.830   4.536  14.652 -0.3295 -0.6101 -0.1651
  890MPD2    H713108   1.768   4.589  14.591 -1.3000 -3.0270 -1.2850
  891MPD2     C13109   0.311   2.052  16.639  0.5150 -0.4153  0.0145
  891MPD2    C113110   0.236   2.127  16.731  0.6391 -0.4525  0.1383
  891MPD2    C213111   0.268   2.122  16.866  0.1806 -0.3431  0.2939
  891MPD2    C313112   0.380   2.053  16.907  0.1698  0.5687 -0.4861
  891MPD2    C413113   0.443   1.965  16.821  0.4639 -0.4238 -0.1216
  891MPD2    C513114   0.407   1.968  16.686 -0.5724 -0.9898 -0.1677
  891MPD2     H13115   0.220   2.188  16.936  2.1349  1.0887  0.2708
  891MPD2    H113116   0.512   1.887  16.850  0.3545 -0.6246 -0.3974
  891MPD2    H213117   0.290   2.060  16.533  0.6392 -0.8144 -0.0414
  891MPD2    H313118   0.448   1.900  16.612  1.4839  1.2194 -1.0745
  891MPD2     N13119   0.411   2.056  17.048  0.1232  0.3772  0.2035
  891MPD2    H513120   0.347   2.105  17.109 -0.7784 -1.5127  0.7765
  891MPD2    N113121   0.142   2.210  16.673 -0.0341  0.3465  0.1719
  891MPD2    H713122   0.142   2.204  16.571 -0.9281  1.6186  0.0924
  892MPD2     C13123   1.195   3.447  14.201  0.2807 -0.1007 -0.3631
  892MPD2    C113124   1.165   3.480  14.327 -0.3876  0.1574  0.3152
  892MPD2    C213125   1.203   3.400  14.432 -1.1327 -0.2057 -0.2051
  892MPD2    C313126   1.283   3.289  14.396 -1.0069 -0.5223  0.8429
  892MPD2    C413127   1.312   3.257  14.268  0.3385 -0.2626 -0.1177
  892MPD2    C513128   1.270   3.338  14.164  0.7651 -0.6451 -0.2716
  892MPD2     H13129   1.187   3.421  14.537  2.0202  0.3443  0.1756
  892MPD2    H113130   1.384   3.180  14.243  0.9755  0.4033 -0.3296
  892MPD2    H213131   1.168   3.503  14.112 -0.6086 -1.0129 -0.6680
  892MPD2    H313132   1.303   3.310  14.065  3.0465  1.4184 -0.0888
  892MPD2     N13133   1.344   3.203  14.494 -0.0542 -0.4181  0.8508
  892MPD2    H513134   1.409   3.139  14.450  1.0389  0.1531  1.6715
  892MPD2    N113135   1.096   3.596  14.366  0.8281  0.4529 -0.3894
  892MPD2    H713136   1.066   3.607  14.462  1.1594  0.1209 -0.2466
  893MPD2     C13137   2.598   0.995   0.882  0.2326 -0.1248 -0.3657
  893MPD2    C113138   2.710   1.046   0.940 -0.1424  0.4578  0.4203
  893MPD2    C213139   2.814   0.965   0.990  0.8050 -0.5283  0.1708
  893MPD2    C313140   2.792   0.828   1.006 -0.1130 -0.1924  0.4237
  893MPD2    C413141   2.677   0.774   0.945  0.0422  0.0796  0.0959
  893MPD2    C513142   2.583   0.859   0.885  0.7531  0.1769  0.1185
  893MPD2     H13143   2.901   1.010   1.035 -0.3243  0.0543  1.7488
  893MPD2    H113144   2.655   0.669   0.956  1.0811 -0.2385 -0.9173
  893MPD2    H213145   2.514   1.048   0.838  0.2049 -1.0695 -1.4335
  893MPD2    H313146   2.489   0.823   0.844  0.2342  0.3738  1.1448
  893MPD2     N13147   2.883   0.741   1.077  0.6068 -0.2879 -0.2388
  893MPD2    H513148   2.858   0.644   1.091  0.2074  0.0062  1.0833
  893MPD2    N113149   2.729   1.183   0.936  0.7737  0.4437  0.3908
  893MPD2    H713150   2.682   1.230   0.860  1.5638 -2.9468 -2.2014
  894MPD2     C13151   0.673   3.890   1.183  0.3725 -0.0145  0.8369
  894MPD2    C113152   0.651   4.010   1.245  0.0844  0.8825  0.1041
  894MPD2    C213153   0.724   4.119   1.210  1.0377  0.7319 -0.1446
  894MPD2    C313154   0.831   4.101   1.118  0.2632  0.8123 -0.1436
  894MPD2    C413155   0.862   3.977   1.066  0.3965 -0.1834 -0.3966
  894MPD2    C513156   0.779   3.871   1.102  0.6647  0.6338 -0.4675
  894MPD2     H13157   0.713   4.221   1.247 -0.0566  0.5502  0.0269
  894MPD2    H113158   0.939   3.960   0.991  0.8630 -1.4679  0.3881
  894MPD2    H213159   0.615   3.800   1.202  0.7886 -0.4785 -0.0935
  894MPD2    H313160   0.814   3.770   1.084 -3.5673 -0.7801 -0.6625
  894MPD2     N13161   0.890   4.225   1.084  0.4623 -0.4847  0.3659
  894MPD2    H513162   0.856   4.310   1.127  0.4426 -0.3938  0.1703
  894MPD2    N113163   0.540   4.039   1.323  0.0446 -0.2598 -0.2793
  894MPD2    H713164   0.526   4.136   1.349  1.1916 -0.2230  0.2323
  895MPD2     C13165   0.269   2.588  13.719 -0.3027  0.9626 -0.5148
  895MPD2    C113166   0.299   2.593  13.584 -0.3812 -0.1439 -0.1954
  895MPD2    C213167   0.374   2.490  13.532 -0.6198 -0.2822  0.1642
  895MPD2    C313168   0.386   2.369  13.595 -0.2890  0.0738 -0.2305
  895MPD2    C413169   0.333   2.359  13.721 -0.2215 -0.3998  0.1819
  895MPD2    C513170   0.282   2.472  13.786 -1.0107  0.4220  0.1855
  895MPD2     H13171   0.397   2.500  13.426 -1.8072 -1.5127 -0.2153
  895MPD2    H113172   0.345   2.265  13.776  0.6893 -0.9015 -0.8758
  895MPD2    H213173   0.229   2.672  13.776  0.3898  0.7451  0.2996
  895MPD2    H313174   0.254   2.458  13.890  1.4947 -0.2622  0.7501
  895MPD2     N13175   0.456   2.255  13.541 -0.4820 -0.4382 -0.3059
  895MPD2    H513176   0.442   2.171  13.596  1.1800 -0.8509 -0.4959
  895MPD2    N113177   0.282   2.713  13.512  0.1125 -0.0910  0.2994
  895MPD2    H713178   0.319   2.701  13.418  1.7338  3.3441  0.5012
  896MPD2     C13179   2.459   0.279   1.137  0.1501  0.5877 -0.0153
  896MPD2    C113180   2.432   0.277   0.998  0.6299 -0.4486 -0.1858
  896MPD2    C213181   2.304   0.232   0.958 -0.0593  0.0042 -0.4955
  896MPD2    C313182   2.208   0.195   1.050 -0.1768 -0.6648 -0.0558
  896MPD2    C413183   2.231   0.215   1.183  0.3613 -0.9868  0.2796
  896MPD2    C513184   2.357   0.254   1.225  0.1497  0.6616 -0.1558
  896MPD2     H13185   2.285   0.243   0.852  2.5230 -0.0041 -0.9592
  896MPD2    H113186   2.157   0.200   1.261  0.1884 -2.6879 -0.2096
  896MPD2    H213187   2.555   0.299   1.183 -0.5057  0.5914  1.3569
  896MPD2    H313188   2.371   0.260   1.333 -0.9956  0.8498 -0.0190
  896MPD2     N13189   2.081   0.151   0.998  0.1465 -0.0047 -0.4644
  896MPD2    H513190   2.084   0.138   0.897 -0.1760  1.6198 -0.6697
  896MPD2    N113191   2.529   0.338   0.913 -0.0774 -0.4876 -0.1029
  896MPD2    H713192   2.613   0.364   0.964 -0.4034  0.0138  0.1850
  897MPD2     C13193   3.987   1.615  10.591  0.0713  0.3089 -0.3468
  897MPD2    C113194   3.969   1.746  10.548  0.3283 -0.1403 -1.0859
  897MPD2    C213195   3.857   1.814  10.601 -0.7982 -0.3337 -0.3066
  897MPD2    C313196   3.753   1.751  10.677 -0.3622 -0.1493  0.3510
  897MPD2    C413197   3.769   1.609  10.697 -0.4594  0.4367 -0.0420
  897MPD2    C513198   3.887   1.549  10.663 -0.0878  1.0169  0.6793
  897MPD2     H13199   3.833   1.913  10.563 -1.5487  0.0784  1.2412
  897MPD2    H113200   3.693   1.552  10.750  1.3649 -1.5928  0.4075
  897MPD2    H213201   4.082   1.567  10.567 -0.1398  0.2512 -1.0599
  897MPD2    H313202   3.906   1.443  10.676 -0.4983  0.9346  0.6238
  897MPD2     N13203   3.637   1.821  10.719  0.2743 -0.7703  0.5528
  897MPD2    H513204   3.553   1.774  10.751 -0.4419  0.1165 -0.0263
  897MPD2    N113205   4.072   1.813  10.475  0.1457  0.0260  0.4550
  897MPD2    H713206   4.152   1.754  10.454 -0.2055  0.4362 -2.0303
  898MPD2     C13207   4.535   2.837   0.119 -1.1678  0.2631  0.5497
  898MPD2    C113208   4.658   2.791   0.140 -0.4770  0.4851  1.2876
  898MPD2    C213209   0.019   2.883   0.130 -1.1484 -0.0287 -0.8179
  898MPD2    C313210   0.003   3.010   0.090  0.7069 -0.1861  0.5635
  898MPD2    C413211   4.616   3.060   0.060 -0.2897 -0.1032 -0.0228
  898MPD2    C513212   4.519   2.970   0.076 -0.4720 -0.4041  0.1432
  898MPD2     H13213   0.122   2.850   0.142 -0.6065  1.0549 -2.5267
  898MPD2    H113214   4.600   3.159   0.019  0.9563  0.2421  0.3368
  898MPD2    H213215   4.446   2.777   0.128 -1.0197 -0.0670 -0.1282
  898MPD2    H313216   4.417   2.999   0.057 -0.6802 -1.4725 -0.4060
  898MPD2     N13217   0.122   3.086   0.063  0.2531 -0.0238 -0.6523
  898MPD2    H513218   0.205   3.035   0.093 -1.1233 -1.6873  0.3447
  898MPD2    N113219   4.695   2.655   0.167  0.7271  0.3272 -0.0422
  898MPD2    H713220   0.049   2.625   0.198  1.7298  0.7855 -2.5987
  899MPD2     C13221   1.928   3.259  17.061  0.2275 -0.2360  0.2690
  899MPD2    C113222   1.899   3.369  17.146 -0.2750 -0.2163  0.1492
  899MPD2    C213223   1.881   3.335  17.280 -0.0361  0.2302  0.8021
  899MPD2    C313224   1.885   3.208  17.328 -0.3815 -0.2771  0.0648
  899MPD2    C413225   1.906   3.102  17.238  0.6921  0.1276  0.1320
  899MPD2    C513226   1.927   3.128  17.110 -0.2327 -0.6578 -0.3236
  899MPD2     H13227   1.839   3.408  17.348 -1.2214 -0.6375  1.0065
  899MPD2    H113228   1.906   3.001  17.277 -2.3924 -0.4751 -1.3958
  899MPD2    H213229   1.978   3.281  16.967 -1.3167 -0.6348 -0.6306
  899MPD2    H313230   1.962   3.043  17.051 -0.8176 -0.1534 -1.3992
  899MPD2     N13231   1.863   3.179  17.466  0.6123 -0.1995 -0.7745
  899MPD2    H513232   1.859   3.081  17.491 -0.7847  0.1590  0.3786
  899MPD2    N113233   1.889   3.504  17.100 -0.4361 -0.2114 -0.5918
  899MPD2    H713234   1.873   3.578  17.168  1.1126 -0.8968  0.5232
  900MPD2     C13235   1.927   4.679  12.228  0.3292 -0.1903 -0.3547
  900MPD2    C113236   1.813   4.626  12.294  0.1401 -0.0002 -0.0398
  900MPD2    C213237   1.692   4.689  12.268  0.6112  0.7991 -0.6896
  900MPD2    C313238   1.671   0.050  12.170  0.5793 -0.1296  0.0980
  900MPD2    C413239   1.779   0.087  12.098  0.2573  0.6352  0.0226
  900MPD2    C513240   1.902   0.031  12.126 -0.5958 -0.2229 -0.1846
  900MPD2     H13241   1.610   4.663  12.333  1.3010 -0.6010 -0.3802
  900MPD2    H113242   1.785   0.145  12.007 -1.4608  2.6960  1.2519
  900MPD2    H213243   2.028   4.638  12.226  0.4089  0.0174 -0.5494
  900MPD2    H313244   1.994   0.070  12.083 -1.3441 -0.5704 -2.1138
  900MPD2     N13245   1.538   0.111  12.148  0.2050  0.5117  0.1069
  900MPD2    H513246   1.469   0.059  12.202  1.3396 -3.3557 -2.1251
  900MPD2    N113247   1.836   4.529  12.396 -0.0623 -0.0884  0.0208
  900MPD2    H713248   1.931   4.496  12.407 -0.7184 -1.7876  0.6145
  901MPD2     C13249   1.414   3.618  12.849  0.4045  0.2999  0.4549
  901MPD2    C113250   1.545   3.608  12.801  0.8039 -0.5650  0.1883
  901MPD2    C213251   1.609   3.726  12.760  0.4534  0.2853  0.1431
  901MPD2    C313252   1.543   3.846  12.740 -0.1904  0.3247 -0.3543
  901MPD2    C413253   1.424   3.849  12.797  0.8414 -0.0399  0.0736
  901MPD2    C513254   1.353   3.737  12.839 -0.0897  0.1877  0.1634
  901MPD2     H13255   1.710   3.719  12.721  0.9295 -2.6594  1.9599
  901MPD2    H113256   1.355   3.932  12.788 -1.3558 -1.8262  0.3891
  901MPD2    H213257   1.363   3.533  12.893  0.6881 -0.6586 -1.0783
  901MPD2    H313258   1.256   3.742  12.887  0.1720  1.2090  0.5764
  901MPD2     N13259   1.624   3.958  12.704  0.2007 -0.6280  0.0276
  901MPD2    H513260   1.723   3.935  12.696  0.5621  0.5730  1.0680
  901MPD2    N113261   1.593   3.473  12.784 -0.1022 -0.3795 -0.1392
  901MPD2    H713262   1.523   3.401  12.801  0.9368 -2.1460 -3.4469
  902MPD2     C13263   0.099   2.739  12.422  0.9041  0.0128  0.2147
  902MPD2    C113264   0.173   2.743  12.537  0.0179  0.3220  0.1889
  902MPD2    C213265   0.250   2.636  12.584 -0.0034 -0.2856  1.1196
  902MPD2    C313266   0.274   2.531  12.496 -0.3676 -0.0550 -0.6208
  902MPD2    C413267   0.211   2.540  12.368 -0.0191  0.3824  0.0317
  902MPD2    C513268   0.121   2.632  12.342 -0.0189  0.4580  0.1368
  902MPD2     H13269   0.285   2.645  12.686  2.4772  0.8391  0.1811
  902MPD2    H113270   0.220   2.464  12.291 -1.1182  0.1657  0.1144
  902MPD2    H213271   0.025   2.815  12.397  0.4544 -0.1677  0.9916
  902MPD2    H313272   0.055   2.624  12.256 -0.6618 -1.3474  0.8017
  902MPD2     N13273   0.367   2.431  12.511 -0.2607 -0.0638  0.4710
  902MPD2    H513274   0.370   2.368  12.432  1.8842 -0.3172  0.7427
  902MPD2    N113275   0.162   2.872  12.602 -0.4138  0.2698 -0.0759
  902MPD2    H713276   0.087   2.933  12.572 -1.3539 -0.5079  0.7023
  903MPD2     C13277   0.916   2.809  12.551  0.8782 -0.4334  0.3670
  903MPD2    C113278   0.809   2.751  12.486 -0.2662 -0.4063  0.6004
  903MPD2    C213279   0.710   2.825  12.428  0.0827  0.2456 -0.7306
  903MPD2    C313280   0.709   2.958  12.438  0.0411  0.0504 -0.0229
  903MPD2    C413281   0.818   3.019  12.493 -0.1179  0.0095 -0.7837
  903MPD2    C513282   0.921   2.941  12.539 -0.4772 -0.0848  0.2793
  903MPD2     H13283   0.622   2.777  12.385 -0.1800  0.7740 -0.7805
  903MPD2    H113284   0.840   3.124  12.508 -0.2204 -0.3561  1.8126
  903MPD2    H213285   0.992   2.746  12.596  1.5898 -1.2541 -1.9529
  903MPD2    H313286   1.001   2.999  12.585 -0.7959 -0.9182  1.8937
  903MPD2     N13287   0.599   3.031  12.387 -0.3727  0.0026 -0.0642
  903MPD2    H513288   0.541   2.981  12.320  0.9114 -1.8988  0.2577
  903MPD2    N113289   0.807   2.615  12.490  0.0372  0.2888 -0.0777
  903MPD2    H713290   0.847   2.587  12.579 -1.3721 -0.5113  0.2961
  904MPD2     C13291   0.265   1.924  13.972 -0.8523 -0.0382  0.3011
  904MPD2    C113292   0.278   2.047  14.037  0.1803  0.0212  0.5899
  904MPD2    C213293   0.396   2.085  14.090 -0.0030  0.3593 -0.2139
  904MPD2    C313294   0.504   2.005  14.066  1.0161 -0.1327 -0.2991
  904MPD2    C413295   0.491   1.884  14.002  0.3061 -0.4057 -0.0151
  904MPD2    C513296   0.366   1.841  13.968 -0.1365 -0.2680  0.5409
  904MPD2     H13297   0.410   2.176  14.147  0.6111  0.7701 -1.0298
  904MPD2    H113298   0.575   1.818  13.983  0.7880  0.0457  0.5703
  904MPD2    H213299   0.172   1.896  13.924 -0.3427 -0.4825 -0.4268
  904MPD2    H313300   0.359   1.739  13.931 -1.9582 -0.6243  1.8287
  904MPD2     N13301   0.629   2.065  14.094  0.2740 -0.0492 -0.0760
  904MPD2    H513302   0.629   2.154  14.142  2.0468  0.0324 -0.2388
  904MPD2    N113303   0.178   2.148  14.047 -0.6427 -0.1052  0.1650
  904MPD2    H713304   0.202   2.230  14.102  1.1280 -0.6901  0.2728
  905MPD2     C13305   4.707   2.541  13.430 -0.4695 -0.3579 -0.4924
  905MPD2    C113306   4.714   2.421  13.490 -0.0628 -0.8422  0.0187
  905MPD2    C213307   0.032   2.315  13.419  0.4128  0.0980  0.1419
  905MPD2    C313308   0.101   2.335  13.298 -0.0638  0.0448 -0.0216
  905MPD2    C413309   0.107   2.458  13.247  0.0195  0.8163 -0.2855
  905MPD2    C513310   0.034   2.555  13.312  0.8447 -0.2065 -0.6015
  905MPD2     H13311   0.008   2.216  13.457 -0.7800 -0.2754 -1.5944
  905MPD2    H113312   0.147   2.478  13.149 -1.9793 -1.4195 -1.5589
  905MPD2    H213313   4.664   2.625  13.484  0.8454 -0.5381  0.8155
  905MPD2    H313314   0.016   2.652  13.265  0.1127  1.4016  2.9838
  905MPD2     N13315   0.177   2.236  13.233  0.8051 -0.2035  0.3079
  905MPD2    H513316   0.230   2.271  13.155  1.2359  1.7463  1.4790
  905MPD2    N113317   4.677   2.400  13.626 -0.0020 -0.6330  0.1079
  905MPD2    H713318   4.708   2.311  13.666 -0.4997 -0.9354 -0.1840
  906MPD2     C13319   2.547   2.463  11.104  0.3255  0.1269 -0.1566
  906MPD2    C113320   2.500   2.397  10.988 -0.2238  0.5241  0.2978
  906MPD2    C213321   2.429   2.285  11.015 -0.1309  0.6084 -0.1453
  906MPD2    C313322   2.419   2.220  11.134 -0.7649 -0.0155  0.0546
  906MPD2    C413323   2.478   2.275  11.245 -0.2717 -0.0766 -0.5980
  906MPD2    C513324   2.528   2.402  11.229 -0.5830  0.5562  0.1371
  906MPD2     H13325   2.378   2.237  10.932  0.9969 -0.1585 -0.3931
  906MPD2    H113326   2.472   2.236  11.346 -0.9013 -1.4183 -1.1561
  906MPD2    H213327   2.594   2.559  11.090 -0.1128  0.1842 -1.2948
  906MPD2    H313328   2.565   2.457  11.315 -0.5014  2.0400 -0.8603
  906MPD2     N13329   2.370   2.086  11.136  0.3069  0.3783  0.1182
  906MPD2    H513330   2.323   2.065  11.049  1.3266 -0.1846 -0.3070
  906MPD2    N113331   2.516   2.427  10.849  0.6252  0.1030  0.5894
  906MPD2    H713332   2.477   2.359  10.784 -0.8289  1.5071  0.0196
  907MPD2     C13333   1.182   1.614  15.914 -0.2234  0.3243  0.0800
  907MPD2    C113334   1.191   1.481  15.869  0.5756 -0.4470 -0.8042
  907MPD2    C213335   1.232   1.392  15.959  0.0039 -0.0763 -0.0136
  907MPD2    C313336   1.257   1.410  16.094 -0.0181 -0.0655  0.1981
  907MPD2    C413337   1.231   1.534  16.142  0.2682  0.1190 -0.0069
  907MPD2    C513338   1.197   1.636  16.052 -0.8103  0.5804  0.0283
  907MPD2     H13339   1.240   1.290  15.924  0.7174 -0.4489  1.2675
  907MPD2    H113340   1.244   1.563  16.246 -1.5746  0.4749  0.1272
  907MPD2    H213341   1.152   1.697  15.851 -1.9991  0.1038  0.6287
  907MPD2    H313342   1.189   1.731  16.102  0.7412  0.8490 -0.2056
  907MPD2     N13343   1.302   1.303  16.177  0.6173 -0.3183 -0.0330
  907MPD2    H513344   1.346   1.225  16.130  1.6772  0.7413 -0.8102
  907MPD2    N113345   1.147   1.441  15.736 -0.5864  0.4408  0.3518
  907MPD2    H713346   1.139   1.341  15.722  1.2963  0.0716  1.9768
  908MPD2     C13347   4.649   1.421   9.933  0.2457 -0.3748 -0.2329
  908MPD2    C113348   4.506   1.429   9.915  1.1519  0.4553 -0.1097
  908MPD2    C213349   4.440   1.534   9.976  0.5812  0.5508  1.2148
  908MPD2    C313350   4.508   1.634  10.047  0.4177  0.1594  0.2219
  908MPD2    C413351   4.640   1.620  10.071 -0.2248  0.9361 -0.0844
  908MPD2    C513352   4.717   1.521  10.008 -0.2179  0.4840 -1.0183
  908MPD2     H13353   4.335   1.542   9.949  1.2819 -0.2765 -1.7511
  908MPD2    H113354   4.699   1.700  10.114 -0.4174 -0.2780  2.4349
  908MPD2    H213355   4.698   1.340   9.879  2.2800  0.3279  0.5445
  908MPD2    H313356   0.085   1.504  10.024 -1.2637 -3.8839  1.4401
  908MPD2     N13357   4.429   1.730  10.112 -0.1921  0.5406  0.4982
  908MPD2    H513358   4.328   1.715  10.105 -0.0186 -0.1018 -0.7781
  908MPD2    N113359   4.449   1.334   9.830  0.0314 -0.0767  0.3244
  908MPD2    H713360   4.504   1.259   9.789  1.8636  2.1701 -1.3201
  909MPD2     C13361   4.327   4.329  11.581 -0.1784 -0.3400 -0.0635
  909MPD2    C113362   4.390   4.448  11.556  0.6038 -0.5768 -0.3620
  909MPD2    C213363   4.335   4.561  11.617  0.5133 -0.1147 -0.5372
  909MPD2    C313364   4.222   4.567  11.687  0.0359  0.4191  0.0269
  909MPD2    C413365   4.158   4.444  11.705  0.2347 -0.0731 -0.5823
  909MPD2    C513366   4.213   4.326  11.658 -0.5634 -0.0463  0.7215
  909MPD2     H13367   4.398   4.648  11.600  1.6705 -0.6068  1.2677
  909MPD2    H113368   4.071   4.424  11.767  1.9061 -0.3467  1.6667
  909MPD2    H213369   4.354   4.242  11.522  0.3963  0.8415 -1.5518
  909MPD2    H313370   4.166   4.231  11.680  0.1397 -0.4247  0.5617
  909MPD2     N13371   4.173   4.687  11.738  0.2476  0.0391 -0.0738
  909MPD2    H513372   4.218   0.032  11.701  1.0547 -1.1654 -1.7675
  909MPD2    N113373   4.506   4.471  11.480  0.4633  0.8564  0.0442
  909MPD2    H713374   4.526   4.569  11.460  0.4909  0.6141 -1.1449
  910MPD2     C13375   0.633   2.023  16.417 -0.0231 -0.4952 -0.1650
  910MPD2    C113376   0.590   1.900  16.394 -0.2694  0.2559 -0.1639
  910MPD2    C213377   0.489   1.884  16.301  0.2163  0.3753  0.0584
  910MPD2    C313378   0.438   1.997  16.234 -0.7502 -0.2038 -0.6028
  910MPD2    C413379   0.475   2.126  16.276  0.9680 -0.7123 -1.1646
  910MPD2    C513380   0.565   2.136  16.378 -0.2204 -0.5404  0.3797
  910MPD2     H13381   0.460   1.785  16.268  0.8461  0.6946 -1.4671
  910MPD2    H113382   0.427   2.217  16.241  1.0891 -0.1800  0.0346
  910MPD2    H213383   0.714   2.039  16.487  1.3090  0.0990 -1.8173
  910MPD2    H313384   0.590   2.239  16.400 -3.1810 -0.2163  2.2396
  910MPD2     N13385   0.358   1.987  16.120 -0.0218  0.1610  0.2280
  910MPD2    H513386   0.341   2.075  16.072 -1.9410  0.1539  0.9110
  910MPD2    N113387   0.637   1.788  16.464 -0.4710  0.1888 -0.6145
  910MPD2    H713388   0.600   1.696  16.443  0.8106 -0.8820  1.7793
  911MPD2     C13389   3.102   2.046  16.298 -0.2530  0.5764 -0.4005
  911MPD2    C113390   3.179   2.144  16.360  0.1123  0.8809  0.0035
  911MPD2    C213391   3.140   2.272  16.373  0.3999 -0.0722  0.7934
  911MPD2    C313392   3.018   2.306  16.298  0.3107  0.4291 -0.3396
  911MPD2    C413393   2.942   2.209  16.235  0.3911 -0.8855  0.1314
  911MPD2    C513394   2.986   2.083  16.247  0.6020 -0.3682 -0.0772
  911MPD2     H13395   3.177   2.348  16.440  1.7208  1.0575 -1.2274
  911MPD2    H113396   2.856   2.217  16.169  0.0932  0.7392  0.7219
  911MPD2    H213397   3.135   1.943  16.291  2.1919  1.2991  0.5908
  911MPD2    H313398   2.928   2.005  16.198  1.8661  0.0321 -2.2050
  911MPD2     N13399   2.969   2.438  16.279 -0.7274  0.0647 -0.0841
  911MPD2    H513400   2.893   2.439  16.213  0.3054  0.9994 -1.2568
  911MPD2    N113401   3.287   2.093  16.441  0.6471 -0.2003  0.0267
  911MPD2    H713402   3.294   1.992  16.449  1.8605 -0.2532 -1.6118
  912MPD2     C13403   2.966   2.240  15.829 -0.3588  0.6060 -0.7782
  912MPD2    C113404   2.857   2.306  15.881  1.0361 -0.6917 -1.0260
  912MPD2    C213405   2.740   2.240  15.899  1.1995  0.1434  0.0844
  912MPD2    C313406   2.722   2.117  15.845  0.1752  0.7132 -0.2651
  912MPD2    C413407   2.822   2.055  15.773 -0.5745 -0.4015 -0.2558
  912MPD2    C513408   2.943   2.117  15.774 -0.0411 -0.4072  0.1918
  912MPD2     H13409   2.662   2.299  15.946  1.9017  0.7800  0.4425
  912MPD2    H113410   2.825   1.962  15.717 -0.4383  0.1485 -1.1654
  912MPD2    H213411   3.065   2.284  15.834  0.2165 -0.8352  0.9510
  912MPD2    H313412   3.024   2.060  15.730 -1.2434 -1.1507 -1.0878
  912MPD2     N13413   2.594   2.052  15.859 -0.2245  0.4902 -0.4016
  912MPD2    H513414   2.541   2.095  15.934 -1.8062  2.8791 -2.9311
  912MPD2    N113415   2.876   2.437  15.917  0.4606  0.7514  0.2113
  912MPD2    H713416   2.966   2.481  15.897  1.7696 -1.4343  1.2777
  913MPD2     C13417   3.282   3.594   9.964 -0.4515 -0.0023  0.6151
  913MPD2    C113418   3.368   3.674  10.039 -0.0464  0.3610 -0.1502
  913MPD2    C213419   3.369   3.807  10.016  0.1703  0.2498  0.3438
  913MPD2    C313420   3.289   3.870   9.927  0.2605 -0.4011 -0.1637
  913MPD2    C413421   3.201   3.785   9.857  0.1862 -0.5053 -0.5913
  913MPD2    C513422   3.201   3.650   9.869  0.0355  0.3946 -0.3173
  913MPD2     H13423   3.426   3.876  10.077 -1.3304 -0.1246  2.1675
  913MPD2    H113424   3.127   3.829   9.791  0.1750  1.6338  0.8487
  913MPD2    H213425   3.284   3.489   9.990  1.7829  0.2420  1.4104
  913MPD2    H313426   3.141   3.584   9.807  0.2220 -0.7915  0.7739
  913MPD2     N13427   3.291   4.005   9.898  0.0435  0.3979  0.4803
  913MPD2    H513428   3.229   4.023   9.819 -0.1522 -0.5345  0.4225
  913MPD2    N113429   3.445   3.609  10.140 -0.0234  0.8110 -0.8039
  913MPD2    H713430   3.427   3.512  10.164 -2.2269  1.6941  1.1951
  914MPD2     C13431   1.632   3.487  12.007  1.1009 -0.1395 -0.1395
  914MPD2    C113432   1.618   3.559  12.123  0.4949  0.7389 -0.0851
  914MPD2    C213433   1.597   3.491  12.242 -0.9907 -0.0332  0.1737
  914MPD2    C313434   1.596   3.354  12.242 -0.1253 -0.4456 -0.3465
  914MPD2    C413435   1.608   3.277  12.126  0.1532  0.0353  0.2295
  914MPD2    C513436   1.612   3.347  12.007 -0.9270 -0.0737  0.2503
  914MPD2     H13437   1.599   3.538  12.340 -2.0808 -0.2084  0.2721
  914MPD2    H113438   1.598   3.169  12.138 -1.0625  0.1608  0.3453
  914MPD2    H213439   1.641   3.546  11.917  0.7666  0.4751  0.2306
  914MPD2    H313440   1.619   3.293  11.913  0.9309 -1.2614  1.0686
  914MPD2     N13441   1.606   3.297  12.374  0.1548  0.6091 -1.0776
  914MPD2    H513442   1.598   3.367  12.448 -0.0989 -0.9544  0.3838
  914MPD2    N113443   1.643   3.697  12.124  0.2177 -0.2330  0.1790
  914MPD2    H713444   1.677   3.739  12.038  1.4201  1.6920  1.5980
  915MPD2     C13445   4.230   3.700  15.712  0.0220 -0.1384 -0.1798
  915MPD2    C113446   4.188   3.802  15.632  0.5505 -0.2257  0.0603
  915MPD2    C213447   4.102   3.905  15.676 -0.5434  0.3648 -0.1169
  915MPD2    C313448   4.069   3.902  15.813  0.0683 -0.2884  0.3128
  915MPD2    C413449   4.128   3.807  15.894 -0.0868  0.1819 -0.1445
  915MPD2    C513450   4.193   3.698  15.840  0.0231 -0.1608 -0.5857
  915MPD2     H13451   4.061   3.990  15.622  0.1575  0.6520 -0.1864
  915MPD2    H113452   4.129   3.809  16.002  1.8642 -0.7570 -0.1509
  915MPD2    H213453   4.305   3.625  15.690  0.1556  0.3010 -1.2000
  915MPD2    H313454   4.228   3.620  15.907 -1.0439 -0.2203 -0.0909
  915MPD2     N13455   3.977   4.002  15.864 -0.5101 -0.0567  0.3128
  915MPD2    H513456   3.939   4.060  15.790  0.4059  0.2586  0.0855
  915MPD2    N113457   4.233   3.792  15.498 -0.3022  0.2633 -0.3744
  915MPD2    H713458   4.282   3.709  15.467 -1.1229  0.6750 -2.7557
  916MPD2     C13459   2.503   2.526  15.659 -0.6160  0.2103 -0.8521
  916MPD2    C113460   2.452   2.403  15.672 -0.0641  0.3200 -0.0735
  916MPD2    C213461   2.514   2.294  15.615  0.0118 -0.6174  0.0567
  916MPD2    C313462   2.632   2.311  15.541 -0.0305 -0.2634  0.4106
  916MPD2    C413463   2.679   2.441  15.523  0.7196 -0.9128  0.3468
  916MPD2    C513464   2.612   2.546  15.579 -0.5159 -0.5797  1.0270
  916MPD2     H13465   2.467   2.196  15.616  0.0108 -0.6138  0.2950
  916MPD2    H113466   2.755   2.468  15.450 -1.9288  1.5228 -1.5312
  916MPD2    H213467   2.460   2.615  15.705 -1.9958 -0.3058 -1.1446
  916MPD2    H313468   2.647   2.649  15.575  3.1794 -1.9328 -0.9819
  916MPD2     N13469   2.700   2.196  15.485  0.3305  0.3099  0.3496
  916MPD2    H513470   2.656   2.104  15.493  0.6552  0.2002  0.8841
  916MPD2    N113471   2.342   2.396  15.750  0.2782 -0.4507  0.5947
  916MPD2    H713472   2.332   2.465  15.824  1.1010 -0.6419  0.8833
  917MPD2     C13473   2.615   4.250  10.805 -0.3748  0.6440 -0.7893
  917MPD2    C113474   2.703   4.245  10.904  0.1763  0.1757 -0.0391
  917MPD2    C213475   2.786   4.350  10.925 -0.6552  0.8348  0.0505
  917MPD2    C313476   2.783   4.463  10.839  0.0402 -0.8023 -0.8788
  917MPD2    C413477   2.701   4.458  10.727  0.4704  0.0755  0.5440
  917MPD2    C513478   2.620   4.351  10.708 -0.2582  0.2875 -0.6237
  917MPD2     H13479   2.865   4.341  10.999 -0.3948  0.0674 -0.3221
  917MPD2    H113480   2.703   4.535  10.650 -0.6677  1.0301  1.4850
  917MPD2    H213481   2.541   4.173  10.791 -0.9276  1.2312 -1.1300
  917MPD2    H313482   2.549   4.345  10.627  0.1062  1.5079 -1.0481
  917MPD2     N13483   2.863   4.582  10.858  0.3056  0.3295 -0.6825
  917MPD2    H513484   2.834   4.658  10.797 -3.3840 -1.4026 -1.0991
  917MPD2    N113485   2.683   4.138  10.990  0.4051 -0.2902 -0.0091
  917MPD2    H713486   2.624   4.066  10.950 -0.5922  0.2338  0.5409
  918MPD2     C13487   2.325   4.127  11.938 -0.6983  0.0224  0.6611
  918MPD2    C113488   2.423   4.213  11.887  0.5229 -0.0650 -0.7499
  918MPD2    C213489   2.464   4.201  11.756 -0.1649  0.1830 -0.7976
  918MPD2    C313490   2.421   4.092  11.675 -0.1072  0.5563  0.0614
  918MPD2    C413491   2.338   4.002  11.734 -0.2923  0.4343  0.1952
  918MPD2    C513492   2.295   4.022  11.860 -0.2893  0.3122  0.1937
  918MPD2     H13493   2.542   4.264  11.716  0.5420  1.1257  2.1219
  918MPD2    H113494   2.297   3.911  11.690  0.6006 -0.8605  2.0214
  918MPD2    H213495   2.284   4.145  12.037  1.3559  0.8957  1.3555
  918MPD2    H313496   2.222   3.954  11.903 -2.2239  3.8568  2.5571
  918MPD2     N13497   2.473   4.075  11.542 -0.0264  0.1667  0.6394
  918MPD2    H513498   2.546   4.138  11.509 -3.1642  2.6588 -1.4701
  918MPD2    N113499   2.474   4.317  11.966 -0.6686 -0.1188 -0.5276
  918MPD2    H713500   2.551   4.363  11.919 -0.0194 -0.0783  0.5764
  919MPD2     C13501   3.748   3.684  11.634  0.5135  0.4193 -0.3547
  919MPD2    C113502   3.723   3.558  11.588 -0.0737  0.5725  0.5792
  919MPD2    C213503   3.709   3.543  11.441  0.0059  0.1147 -0.4623
  919MPD2    C313504   3.718   3.645  11.352  0.0331  0.3633 -1.1064
  919MPD2    C413505   3.736   3.767  11.409  0.2421  0.1589  0.2294
  919MPD2    C513506   3.756   3.792  11.550 -0.4291  0.7467  0.3460
  919MPD2     H13507   3.691   3.446  11.395  0.3005 -0.9254  1.5997
  919MPD2    H113508   3.750   3.854  11.347  0.1528 -0.1174 -0.1823
  919MPD2    H213509   3.759   3.702  11.741 -1.6162  1.4695 -0.3129
  919MPD2    H313510   3.779   3.892  11.584 -1.4499  1.5899 -1.4333
  919MPD2     N13511   3.703   3.638  11.213  0.4564 -0.1547 -0.3565
  919MPD2    H513512   3.709   3.719  11.152  2.5602  0.5966  0.8514
  919MPD2    N113513   3.710   3.448  11.673  0.7083  0.2006 -1.1352
  919MPD2    H713514   3.696   3.359  11.625  0.9132  0.1002 -1.0080
  920MPD2     C13515   3.175   3.894  10.420 -0.2680  0.1731  0.0084
  920MPD2    C113516   3.120   3.768  10.441 -0.8536  0.6275  0.1799
  920MPD2    C213517   3.170   3.692  10.540 -0.0322 -0.4302  0.0679
  920MPD2    C313518   3.270   3.741  10.622  0.4985  0.1426  0.2729
  920MPD2    C413519   3.311   3.870  10.611 -0.1415  0.4118 -0.7400
  920MPD2    C513520   3.267   3.944  10.508 -0.1616 -0.3207 -0.9876
  920MPD2     H13521   3.136   3.592  10.564 -0.9019 -0.3240 -0.7275
  920MPD2    H113522   3.378   3.921  10.680 -0.0529 -2.2715  1.1654
  920MPD2    H213523   3.136   3.963  10.346 -1.2548  0.5976  0.9206
  920MPD2    H313524   3.308   4.043  10.492 -0.6131 -0.2101 -1.4618
  920MPD2     N13525   3.324   3.652  10.715  0.2825  0.1531 -0.3130
  920MPD2    H513526   3.289   3.558  10.704  0.9268  0.2100 -2.7240
  920MPD2    N113527   3.026   3.713  10.355 -0.0914  0.3860 -0.4808
  920MPD2    H713528   3.008   3.615  10.374  1.2750  0.5453  1.6139
  921MPD2     C13529   4.076   2.670  16.672  0.5191 -0.0528 -0.6942
  921MPD2    C113530   4.124   2.550  16.640  0.3388 -0.1233 -0.2395
  921MPD2    C213531   4.044   2.437  16.626 -0.3185 -0.1508  0.0796
  921MPD2    C313532   3.909   2.450  16.621  0.3923 -0.7154 -0.2808
  921MPD2    C413533   3.857   2.576  16.660 -0.6129 -0.3144 -0.4099
  921MPD2    C513534   3.940   2.681  16.685 -0.6820  0.7556 -0.1336
  921MPD2     H13535   4.094   2.342  16.612  0.4994  0.0299  1.7775
  921MPD2    H113536   3.753   2.604  16.645 -0.2371  1.4988  0.4080
  921MPD2    H213537   4.141   2.756  16.683  1.3316 -0.9784  1.7931
  921MPD2    H313538   3.900   2.777  16.715 -2.0799  0.0422  0.3027
  921MPD2     N13539   3.825   2.347  16.587 -0.3835 -0.7598  0.3924
  921MPD2    H513540   3.728   2.376  16.592  0.4691  2.4124 -1.1942
  921MPD2    N113541   4.264   2.541  16.638  0.2243  0.0392 -0.8863
  921MPD2    H713542   4.305   2.632  16.623  0.9827  0.1071  1.6815
  922MPD2     C13543   0.071   0.606  17.132  0.1110 -0.1671 -0.3061
  922MPD2    C113544   4.733   0.625  17.248 -0.8491 -0.1733  0.5652
  922MPD2    C213545   4.646   0.520  17.283 -0.3397 -0.7261 -0.4603
  922MPD2    C313546   4.644   0.409  17.203  0.1046 -0.7915 -0.1208
  922MPD2    C413547   4.717   0.394  17.087  0.7342 -0.7006 -1.5194
  922MPD2    C513548   0.059   0.496  17.047  0.1577  0.0069 -0.1342
  922MPD2     H13549   4.577   0.531  17.366 -0.7808 -0.2514 -0.8866
  922MPD2    H113550   4.711   0.310  17.018 -1.0067 -0.1718 -2.0136
  922MPD2    H213551   0.148   0.673  17.093  0.5046 -1.6135 -2.0548
  922MPD2    H313552   0.128   0.483  16.965 -0.5200  1.1961 -0.8919
  922MPD2     N13553   4.557   0.306  17.238 -0.0615  0.4032 -0.0942
  922MPD2    H513554   4.483   0.332  17.302  0.3202 -1.9564  1.3224
  922MPD2    N113555   0.013   0.735  17.332 -0.1572 -0.5230  0.4128
  922MPD2    H713556   4.702   0.734  17.421 -0.4832  1.1296  0.2548
  923MPD2     C13557   0.655   1.731   8.788 -0.6549  0.5338 -0.6668
  923MPD2    C113558   0.647   1.847   8.859 -0.0409 -0.0812 -0.5795
  923MPD2    C213559   0.762   1.923   8.879 -0.2348  0.3543 -0.3024
  923MPD2    C313560   0.893   1.874   8.856 -1.0626  0.4561 -0.6395
  923MPD2    C413561   0.896   1.754   8.796  0.6952  0.4187  0.6586
  923MPD2    C513562   0.778   1.681   8.761  0.7347 -0.1143  0.6865
  923MPD2     H13563   0.764   2.026   8.916 -0.2999  0.7383 -1.3805
  923MPD2    H113564   0.995   1.722   8.767  1.3854  1.8092  1.4948
  923MPD2    H213565   0.564   1.675   8.771  0.4088 -1.3452 -0.1679
  923MPD2    H313566   0.780   1.595   8.694  1.3959 -0.3150  0.9616
  923MPD2     N13567   1.013   1.939   8.890 -0.6107 -0.8973 -0.1405
  923MPD2    H513568   1.093   1.879   8.878 -0.1243 -1.1495  4.4452
  923MPD2    N113569   0.511   1.878   8.901  0.2897  0.2346 -0.9319
  923MPD2    H713570   0.439   1.809   8.881 -0.7894  1.0618  0.0930
  924MPD2     C13571   1.306   0.542  15.885  0.1461 -0.1380  0.2216
  924MPD2    C113572   1.308   0.509  16.013 -0.1593 -0.2345  0.9600
  924MPD2    C213573   1.333   0.611  16.105 -0.3236 -0.7425  0.1108
  924MPD2    C313574   1.358   0.741  16.061  0.1732  0.0022 -0.5413
  924MPD2    C413575   1.348   0.773  15.930  0.4185  0.7074  0.2821
  924MPD2    C513576   1.330   0.672  15.842 -0.3915 -0.3465 -0.5111
  924MPD2     H13577   1.336   0.583  16.210  2.3513  0.8175  0.4354
  924MPD2    H113578   1.373   0.875  15.903  0.9380  0.0299 -1.7490
  924MPD2    H213579   1.296   0.456  15.819 -1.7210 -1.2346  1.9476
  924MPD2    H313580   1.346   0.684  15.736  0.9546 -0.1452 -0.2871
  924MPD2     N13581   1.391   0.846  16.155  0.1367  0.3528 -0.0139
  924MPD2    H513582   1.402   0.940  16.118 -1.1243  0.1826 -0.7974
  924MPD2    N113583   1.295   0.375  16.044 -0.0437 -0.6723 -0.2160
  924MPD2    H713584   1.304   0.310  15.966  0.8115  0.1290 -0.7868
  925MPD2     C13585   0.412   3.191  14.447 -0.6066  0.5295 -0.3626
  925MPD2    C113586   0.285   3.241  14.430  0.1029 -0.3926  0.1311
  925MPD2    C213587   0.208   3.277  14.540 -0.6223 -0.4216  0.4315
  925MPD2    C313588   0.252   3.262  14.670  0.4743  0.2630  0.0383
  925MPD2    C413589   0.376   3.210  14.690 -0.5369 -0.4493 -0.1037
  925MPD2    C513590   0.449   3.168  14.579 -0.4506 -0.0830 -0.8079
  925MPD2     H13591   0.112   3.326  14.529 -0.9774 -0.9177  1.3085
  925MPD2    H113592   0.421   3.194  14.787 -1.0164  0.2488  0.2370
  925MPD2    H213593   0.485   3.172  14.369  0.1629 -0.5062  0.6155
  925MPD2    H313594   0.553   3.147  14.597 -0.3742  0.6483 -0.4062
  925MPD2     N13595   0.183   3.296  14.787  0.8527 -0.4511  0.5524
  925MPD2    H513596   0.233   3.297  14.875 -1.5248 -1.4499  1.9347
  925MPD2    N113597   0.236   3.272  14.300  0.0577  0.3060 -0.2804
  925MPD2    H713598   0.153   3.330  14.300 -0.9625 -1.1651  2.6814
  926MPD2     C13599   3.816   1.461  13.277 -0.0311 -0.4695 -0.4600
  926MPD2    C113600   3.741   1.560  13.212  0.1673  0.3785  0.6024
  926MPD2    C213601   3.804   1.678  13.181  0.2800  0.1193 -0.4345
  926MPD2    C313602   3.936   1.702  13.217 -0.4282  0.6153  0.1998
  926MPD2    C413603   3.999   1.604  13.293 -0.0273 -0.2425 -0.1885
  926MPD2    C513604   3.944   1.481  13.324 -0.8320  0.2306  0.0611
  926MPD2     H13605   3.747   1.760  13.138 -0.9752  0.2031  1.3932
  926MPD2    H113606   4.101   1.626  13.323 -0.0825 -0.0428 -0.1492
  926MPD2    H213607   3.765   1.366  13.288  1.1561 -0.8922  1.4656
  926MPD2    H313608   4.007   1.401  13.362 -0.3597  0.7141  0.2966
  926MPD2     N13609   3.999   1.828  13.207  0.1669  0.6440 -0.1401
  926MPD2    H513610   4.084   1.839  13.262 -0.2847 -1.0894  0.8871
  926MPD2    N113611   3.605   1.553  13.186  0.2507  0.5695  0.3651
  926MPD2    H713612   3.563   1.632  13.138  0.5458 -0.9979 -2.4384
  927MPD2     C13613   3.511   3.675   0.081 -0.5707  0.5002  0.1072
  927MPD2    C113614   3.461   3.796   0.048  0.2649 -0.0544  0.3180
  927MPD2    C213615   3.474   3.846  17.668 -0.3238 -0.2271  0.0411
  927MPD2    C313616   3.531   3.767  17.568 -0.2945 -0.0610 -0.0175
  927MPD2    C413617   3.581   3.646  17.610 -0.1890 -0.2661 -0.9094
  927MPD2    C513618   3.579   3.604  17.738  0.2414 -0.3084 -0.1814
  927MPD2     H13619   3.442   3.947  17.645  1.0351 -0.0201 -0.9208
  927MPD2    H113620   3.635   3.581  17.541  0.3876 -0.1384 -0.5765
  927MPD2    H213621   3.495   3.633   0.180 -1.0179 -0.0432 -0.1977
  927MPD2    H313622   3.611   3.503   0.009  2.2266 -0.0060 -1.7460
  927MPD2     N13623   3.538   3.814  17.434  0.5625  0.3047 -0.2080
  927MPD2    H513624   3.494   3.902  17.409  0.9853  0.2023 -1.2821
  927MPD2    N113625   3.383   3.865   0.149 -0.0358  0.3924  0.6355
  927MPD2    H713626   3.374   3.825   0.241  0.3155 -1.5292 -0.1530
  928MPD2     C13627   0.983   1.861   0.896 -0.5032 -0.0989 -0.0194
  928MPD2    C113628   1.120   1.872   0.920  0.4753  0.8513 -0.0704
  928MPD2    C213629   1.192   1.962   0.837 -0.0216 -0.2742  0.2014
  928MPD2    C313630   1.130   2.010   0.723 -0.0558 -0.1878  0.5713
  928MPD2    C413631   0.995   1.996   0.701 -0.4948  0.3815  0.6430
  928MPD2    C513632   0.923   1.934   0.794 -0.1345 -0.5716  0.1709
  928MPD2     H13633   1.296   1.989   0.855  0.5307  0.3868 -3.9195
  928MPD2    H113634   0.949   2.035   0.610 -0.2322 -1.5177 -0.2988
  928MPD2    H213635   0.919   1.810   0.966  0.3974 -0.9564  0.1829
  928MPD2    H313636   0.815   1.943   0.791 -0.2928 -2.9261 -1.1047
  928MPD2     N13637   1.204   2.083   0.621 -0.1175 -0.0237 -0.0048
  928MPD2    H513638   1.158   2.122   0.539  1.1848  0.0374 -0.7097
  928MPD2    N113639   1.174   1.790   1.025  0.2202  0.0112  0.6208
  928MPD2    H713640   1.107   1.727   1.068  0.2756 -0.9238 -0.6432
  929MPD2     C13641   1.878   2.262  10.252 -1.1595  0.6029 -0.3044
  929MPD2    C113642   1.837   2.136  10.298 -1.0702 -0.1452  0.2968
  929MPD2    C213643   1.717   2.087  10.244  0.3014  0.3759  0.4707
  929MPD2    C313644   1.637   2.171  10.164  0.3328 -0.0604 -0.1734
  929MPD2    C413645   1.686   2.288  10.121 -0.1387 -0.5110  0.4283
  929MPD2    C513646   1.808   2.338  10.164 -0.1418 -0.5035 -0.1003
  929MPD2     H13647   1.665   1.999  10.282 -0.5834  1.1092  0.9428
  929MPD2    H113648   1.620   2.348  10.060  0.2785 -1.1035 -0.6108
  929MPD2    H213649   1.980   2.295  10.270 -0.9192  0.2647 -1.0461
  929MPD2    H313650   1.848   2.434  10.134  2.1907 -0.8480  1.8781
  929MPD2     N13651   1.503   2.149  10.135 -0.6145 -0.4980  0.5421
  929MPD2    H513652   1.449   2.220  10.086 -0.4789  0.5628  1.9372
  929MPD2    N113653   1.905   2.075  10.413  0.6859  0.3789  0.6559
  929MPD2    H713654   1.986   2.127  10.445  1.4354 -0.4043  0.0069
  930MPD2     C13655   3.095   4.260  14.258  0.2608  0.6294  0.2935
  930MPD2    C113656   3.111   4.296  14.125 -0.4524  0.1546  0.6159
  930MPD2    C213657   3.072   4.201  14.028 -1.1046 -0.7667 -0.1914
  930MPD2    C313658   3.017   4.081  14.070 -0.6540 -0.1941  0.0657
  930MPD2    C413659   2.989   4.057  14.204 -0.2263  0.5652 -0.0631
  930MPD2    C513660   3.028   4.147  14.302 -0.3413 -0.4189 -0.4430
  930MPD2     H13661   3.099   4.226  13.926  0.5509  0.3109  0.5058
  930MPD2    H113662   2.948   3.959  14.226 -0.9495  1.0402  0.6781
  930MPD2    H213663   3.117   4.335  14.333 -2.3401  1.5415  0.1607
  930MPD2    H313664   3.017   4.125  14.408 -1.1499 -2.9789 -1.0684
  930MPD2     N13665   2.983   3.985  13.976  0.0461  0.1254 -0.9966
  930MPD2    H513666   2.961   3.891  14.009  3.5795  0.0181  1.0900
  930MPD2    N113667   3.166   4.425  14.094 -0.5736  0.4065 -0.5513
  930MPD2    H713668   3.188   4.493  14.166 -1.6505  0.9740 -0.7628
  931MPD2     C13669   3.633   4.003   0.721  0.2796  0.2265 -0.0375
  931MPD2    C113670   3.495   4.010   0.729  0.4423 -0.5715 -0.5794
  931MPD2    C213671   3.429   3.966   0.843 -0.4297  0.2715 -0.6474
  931MPD2    C313672   3.501   3.910   0.951 -0.6594 -0.0052  0.1734
  931MPD2    C413673   3.641   3.921   0.953 -0.2827 -0.5885  0.3851
  931MPD2    C513674   3.701   3.968   0.839 -0.0087  0.0223 -0.2971
  931MPD2     H13675   3.323   3.947   0.841 -0.1727 -1.5134  1.6187
  931MPD2    H113676   3.705   3.899   1.037 -2.2000 -2.6195  1.3388
  931MPD2    H213677   3.683   4.039   0.632  2.5763  2.1096  2.0033
  931MPD2    H313678   3.807   3.946   0.839  0.1595  0.7951 -1.6293
  931MPD2     N13679   3.438   3.852   1.058  0.5867  0.0418  0.0094
  931MPD2    H513680   3.500   3.796   1.115 -1.0895 -1.3286  0.5052
  931MPD2    N113681   3.424   4.044   0.611  1.0815 -0.6213  0.0324
  931MPD2    H713682   3.474   4.043   0.523  1.8981  0.1560  0.4738
  932MPD2     C13683   0.740   2.969  11.468  0.0246  0.3031 -0.0344
  932MPD2    C113684   0.622   3.041  11.490 -0.1750 -0.4604 -0.3607
  932MPD2    C213685   0.512   2.962  11.515 -0.0819  0.4032  0.0450
  932MPD2    C313686   0.517   2.833  11.545 -0.4896  0.2378  0.1899
  932MPD2    C413687   0.636   2.765  11.530  0.1246 -0.7080  0.8868
  932MPD2    C513688   0.748   2.837  11.490  0.6105  0.2567  0.1197
  932MPD2     H13689   0.415   3.011  11.512 -0.3364 -0.0353  1.3969
  932MPD2    H113690   0.655   2.660  11.548  1.0938 -0.7932 -0.6417
  932MPD2    H213691   0.835   3.015  11.441 -1.1173  1.7168 -1.6222
  932MPD2    H313692   0.843   2.784  11.478 -0.7972 -2.1991 -0.2190
  932MPD2     N13693   0.404   2.756  11.589  0.3773 -0.7422 -0.2578
  932MPD2    H513694   0.420   2.669  11.640 -0.2778 -0.6925  0.0396
  932MPD2    N113695   0.604   3.179  11.477  0.0526 -0.1710 -0.8737
  932MPD2    H713696   0.508   3.210  11.487  0.2702 -0.4021  2.0061
  933MPD2     C13697   1.205   0.985   1.288 -0.9633  0.5955  0.0172
  933MPD2    C113698   1.151   1.096   1.229 -0.0556  0.0600  0.6429
  933MPD2    C213699   1.014   1.102   1.203 -0.0613  0.0370  0.2386
  933MPD2    C313700   0.932   1.002   1.245 -0.0782 -0.0181  0.1872
  933MPD2    C413701   0.986   0.888   1.303 -0.2657  0.0972 -0.5641
  933MPD2    C513702   1.120   0.884   1.324 -0.1896 -0.5690  0.0412
  933MPD2     H13703   0.970   1.182   1.145  1.8990  0.1387 -1.1183
  933MPD2    H113704   0.929   0.802   1.337 -0.0254  0.1196 -0.1013
  933MPD2    H213705   1.310   0.974   1.313 -1.3726 -2.8005  0.3190
  933MPD2    H313706   1.151   0.792   1.372 -1.2987 -1.1902 -0.4138
  933MPD2     N13707   0.795   1.026   1.224 -0.9611 -0.6115 -0.3274
  933MPD2    H513708   0.770   1.113   1.178  1.5607  0.0399 -0.4214
  933MPD2    N113709   1.242   1.203   1.198 -0.0656  0.4002 -0.0962
  933MPD2    H713710   1.338   1.186   1.227 -0.5739  0.0846  1.3789
  934MPD2     C13711   2.353   4.233   1.954  0.2513  0.2491  0.1948
  934MPD2    C113712   2.442   4.276   1.851  0.3895  0.5836  0.0037
  934MPD2    C213713   2.402   4.276   1.719  0.1896  0.1765  0.6226
  934MPD2    C313714   2.273   4.227   1.687 -0.8605  0.0530  0.1660
  934MPD2    C413715   2.189   4.176   1.785 -0.2602 -0.2197 -0.8505
  934MPD2    C513716   2.228   4.187   1.912 -0.4107  0.4427  0.1019
  934MPD2     H13717   2.470   4.317   1.646  0.3932 -0.8249  0.2493
  934MPD2    H113718   2.093   4.130   1.764 -0.2175 -0.8458  0.3386
  934MPD2    H213719   2.377   4.223   2.060  1.4501  0.6283 -0.0444
  934MPD2    H313720   2.155   4.165   1.989  1.1567 -0.2486  1.3718
  934MPD2     N13721   2.232   4.214   1.551  0.6525 -0.1460 -0.0611
  934MPD2    H513722   2.141   4.172   1.534 -0.5408  2.1092  0.7975
  934MPD2    N113723   2.566   4.327   1.881  0.0790  0.0956  0.3062
  934MPD2    H713724   2.624   4.355   1.802 -1.1429  0.4300 -0.4773
  935MPD2     C13725   2.760   4.153   0.735 -0.3296 -0.4636 -0.1667
  935MPD2    C113726   2.638   4.111   0.689 -0.0785  0.0494  0.7351
  935MPD2    C213727   2.527   4.158   0.756  0.4624  0.0181 -0.1825
  935MPD2    C313728   2.537   4.221   0.877  0.7084  0.3490  0.1818
  935MPD2    C413729   2.657   4.253   0.923  0.5811 -1.0188 -0.4578
  935MPD2    C513730   2.773   4.223   0.853 -0.6060  0.5758 -0.4580
  935MPD2     H13731   2.432   4.131   0.712  0.3610  0.4424 -0.2274
  935MPD2    H113732   2.657   4.317   1.010  1.8889 -0.0003 -1.1999
  935MPD2    H213733   2.849   4.131   0.678 -0.0453  0.0618  0.0666
  935MPD2    H313734   2.874   4.252   0.879  0.5858 -1.4312 -2.7735
  935MPD2     N13735   2.430   4.251   0.969  0.9919  0.2235  0.2894
  935MPD2    H513736   2.451   4.292   1.059 -0.6763  1.2116  0.2247
  935MPD2    N113737   2.621   4.034   0.572  0.2460  0.3695  0.3342
  935MPD2    H713738   2.532   4.025   0.523  0.3549 -1.9741  0.5917
  936MPD2     C13739   1.296   0.937  13.113 -0.0620 -0.1904  0.0958
  936MPD2    C113740   1.187   0.993  13.056  0.3649  0.1279 -0.2299
  936MPD2    C213741   1.189   1.011  12.922  0.4960 -0.1930  0.4720
  936MPD2    C313742   1.302   0.985  12.845 -0.2855  0.0292 -0.4979
  936MPD2    C413743   1.417   0.949  12.907 -0.3194  0.3572  0.3436
  936MPD2    C513744   1.414   0.916  13.038  0.5886 -0.1834 -0.2607
  936MPD2     H13745   1.104   1.059  12.876 -0.8198 -0.1806  2.9224
  936MPD2    H113746   1.511   0.954  12.854 -0.2098  0.6337  0.5641
  936MPD2    H213747   1.298   0.908  13.218 -0.3725 -0.7459 -0.0525
  936MPD2    H313748   1.502   0.900  13.099  2.9822  3.0879 -2.8778
  936MPD2     N13749   1.286   1.029  12.706  0.1418  0.1375 -0.3950
  936MPD2    H513750   1.199   1.077  12.687  1.1117  1.6499 -0.9634
  936MPD2    N113751   1.067   1.028  13.122 -0.1110  0.5670 -0.3685
  936MPD2    H713752   0.990   1.058  13.064 -1.7924 -2.7734  0.1060
  937MPD2     C13753   3.802   2.773  11.541  0.1205  0.4592  0.1519
  937MPD2    C113754   3.875   2.885  11.572 -0.1861 -0.4613  1.2256
  937MPD2    C213755   3.972   2.917  11.483 -0.1904  0.0955  0.0549
  937MPD2    C313756   4.005   2.844  11.370 -0.1513 -0.6453 -0.4495
  937MPD2    C413757   3.926   2.736  11.344 -0.0252  0.3141 -0.5055
  937MPD2    C513758   3.832   2.699  11.434  0.1674  0.7765  0.0549
  937MPD2     H13759   4.031   3.005  11.508 -2.0106  0.8905  1.5803
  937MPD2    H113760   3.939   2.675  11.255  1.8433  1.5056 -1.0244
  937MPD2    H213761   3.735   2.733  11.616  0.7553  0.2802  0.6225
  937MPD2    H313762   3.762   2.621  11.404  0.8933  0.0453  0.2653
  937MPD2     N13763   4.112   2.884  11.285 -0.3710 -0.7005  1.0240
  937MPD2    H513764   4.163   2.966  11.315  2.8203 -2.8148  1.4296
  937MPD2    N113765   3.843   2.984  11.676 -0.3794 -0.1824 -0.5490
  937MPD2    H713766   3.910   3.059  11.683 -0.3289 -0.4800  2.1311
  938MPD2     C13767   1.167   3.679   0.145 -0.0421 -0.3875  0.7281
  938MPD2    C113768   1.155   3.796   0.221 -0.2032  0.1108  0.1079
  938MPD2    C213769   1.086   3.790   0.345 -0.5777 -0.5784  0.9307
  938MPD2    C313770   1.051   3.664   0.394 -0.7636 -0.7102 -0.2312
  938MPD2    C413771   1.071   3.554   0.317  0.0058 -0.1257  0.9567
  938MPD2    C513772   1.131   3.556   0.194 -0.2870 -0.1176 -0.6268
  938MPD2     H13773   1.057   3.879   0.399 -0.1470  0.8381 -1.1533
  938MPD2    H113774   1.040   3.463   0.367 -0.6893 -0.2008  0.4016
  938MPD2    H213775   1.216   3.686   0.048  1.7431 -0.4244  1.6268
  938MPD2    H313776   1.154   3.467   0.137 -2.1411 -1.5584  0.8574
  938MPD2     N13777   0.989   3.650   0.519  0.0871 -0.1628  0.0208
  938MPD2    H513778   0.981   3.556   0.557 -0.0300  0.6182  1.9607
  938MPD2    N113779   1.189   3.925   0.182 -0.0592  0.0075 -0.4265
  938MPD2    H713780   1.162   3.998   0.248  0.0496 -1.1971  0.9397
  939MPD2     C13781   1.661   0.140   0.336  0.4761 -0.3586  0.5587
  939MPD2    C113782   1.748   0.217   0.412  0.4928 -0.4060  0.5625
  939MPD2    C213783   1.881   0.223   0.369 -0.4051  0.5854  0.2880
  939MPD2    C313784   1.922   0.177   0.244 -0.2444  0.1838  0.0940
  939MPD2    C413785   1.831   0.117   0.163 -0.8615 -0.5420  0.0305
  939MPD2    C513786   1.701   0.103   0.215 -0.6636 -0.3808 -0.2120
  939MPD2     H13787   1.958   0.274   0.425 -0.9639 -0.5477  2.0679
  939MPD2    H113788   1.852   0.074   0.066  0.8680 -0.6292  0.4452
  939MPD2    H213789   1.559   0.128   0.371  0.5629  0.9161  1.2743
  939MPD2    H313790   1.628   0.047   0.158  0.4305 -2.1864  0.1823
  939MPD2     N13791   2.061   0.184   0.203 -0.2459 -0.1715 -0.2853
  939MPD2    H513792   2.124   0.240   0.259  0.5472 -1.0035 -0.3292
  939MPD2    N113793   1.695   0.294   0.514  0.6197  0.0500  0.0307
  939MPD2    H713794   1.594   0.303   0.515  0.4521 -1.7032 -0.3194
  940MPD2     C13795   1.732   0.900  13.806  0.7626  0.2450 -0.6044
  940MPD2    C113796   1.804   1.019  13.791 -0.1721 -0.4968  0.5913
  940MPD2    C213797   1.771   1.081  13.677 -0.4075  0.2860  0.0139
  940MPD2    C313798   1.663   1.045  13.595  0.4264  0.5740 -0.2678
  940MPD2    C413799   1.594   0.927  13.617 -0.6578  0.0973 -0.0435
  940MPD2    C513800   1.641   0.861  13.723 -0.1675  0.8663  0.0688
  940MPD2     H13801   1.824   1.172  13.651  0.7258 -0.2757  0.4020
  940MPD2    H113802   1.520   0.884  13.551 -0.0357  1.8200 -1.8332
  940MPD2    H213803   1.757   0.832  13.886 -1.5452 -0.2651 -0.3049
  940MPD2    H313804   1.605   0.761  13.745 -0.8932  1.1229  0.0331
  940MPD2     N13805   1.630   1.118  13.474  0.6270  0.1566  0.1279
  940MPD2    H513806   1.559   1.076  13.415 -0.7245  2.0233  0.4102
  940MPD2    N113807   1.912   1.064  13.875 -0.2410 -0.0511  0.0596
  940MPD2    H713808   1.966   1.139  13.832 -2.0646  0.3209 -1.5696
  941MPD2     C13809   0.611   1.009   9.603 -0.1583  0.4683  0.8177
  941MPD2    C113810   0.667   0.965   9.722 -0.1881 -0.2289 -0.0083
  941MPD2    C213811   0.602   0.865   9.798  0.1461  0.3168 -0.5324
  941MPD2    C313812   0.484   0.805   9.759  0.0424  0.3383 -0.4960
  941MPD2    C413813   0.419   0.855   9.647  0.2152  0.2170  0.4532
  941MPD2    C513814   0.484   0.956   9.573  0.0400  0.1824  0.7868
  941MPD2     H13815   0.656   0.820   9.880  1.4547  3.8497  0.5757
  941MPD2    H113816   0.323   0.822   9.608  0.5857 -1.4690  0.9595
  941MPD2    H213817   0.648   1.090   9.540  1.2463  0.8812  2.1836
  941MPD2    H313818   0.437   0.987   9.480 -1.6467  2.3114  2.3516
  941MPD2     N13819   0.432   0.690   9.817 -0.4211 -0.2013  0.2342
  941MPD2    H513820   0.339   0.667   9.783 -0.8413  1.7145  0.1148
  941MPD2    N113821   0.797   1.006   9.756 -0.4878 -0.0879  0.7688
  941MPD2    H713822   0.834   0.971   9.844  0.1672 -0.0980  0.4913
  942MPD2     C13823   0.036   1.627   9.697 -0.5568 -0.1567 -0.4729
  942MPD2    C113824   0.004   1.612   9.559  0.5637 -0.1464  0.1051
  942MPD2    C213825   0.109   1.609   9.469  0.0463  0.0076  0.1624
  942MPD2    C313826   0.240   1.625   9.518  0.4352 -0.2189  0.6636
  942MPD2    C413827   0.269   1.629   9.652  0.2674 -0.3158  0.0249
  942MPD2    C513828   0.165   1.640   9.737 -0.8692  1.0707  0.4182
  942MPD2     H13829   0.081   1.596   9.365  0.0258  1.2237  0.0187
  942MPD2    H113830   0.370   1.660   9.678  0.4984 -1.8130  0.9216
  942MPD2    H213831   4.695   1.639   9.769 -0.9956  1.3994 -1.2300
  942MPD2    H313832   0.186   1.663   9.841  0.4893  0.4713  0.2782
  942MPD2     N13833   0.354   1.654   9.436  0.2772  0.7516  0.2849
  942MPD2    H513834   0.437   1.676   9.490 -2.1960  0.0311  4.4084
  942MPD2    N113835   4.609   1.624   9.517 -0.2499 -0.4105  0.6806
  942MPD2    H713836   4.586   1.617   9.419  2.6326  1.9601 -0.1646
  943MPD2     C13837   4.281   0.920   9.999  0.6931 -0.5721 -0.3253
  943MPD2    C113838   4.230   0.797  10.046 -0.3983  0.1293 -0.7303
  943MPD2    C213839   4.244   0.763  10.176  0.4318  0.6729 -0.4072
  943MPD2    C313840   4.306   0.851  10.267 -0.3836 -0.1694  0.1831
  943MPD2    C413841   4.336   0.980  10.225  0.0337 -0.1142 -0.2277
  943MPD2    C513842   4.331   1.011  10.092  0.5363  0.2851 -0.1397
  943MPD2     H13843   4.221   0.665  10.214 -3.2231  1.7584  0.1765
  943MPD2    H113844   4.377   1.050  10.297 -1.0862  0.5938 -0.2862
  943MPD2    H213845   4.271   0.951   9.896 -1.1104  0.3164  0.1195
  943MPD2    H313846   4.383   1.100  10.059 -1.5977  1.6989  0.2820
  943MPD2     N13847   4.315   0.823  10.411 -0.8321  0.5508 -0.1118
  943MPD2    H513848   4.354   0.893  10.474  0.4738 -0.4236  0.1776
  943MPD2    N113849   4.158   0.719   9.943  0.1039 -0.7506  0.0226
  943MPD2    H713850   4.167   0.747   9.846 -0.0883  0.2787  0.2996
  944MPD2     C13851   3.957   4.711  11.313  0.1437 -0.1640  0.0130
  944MPD2    C113852   3.873   4.667  11.211  0.2832  1.0164 -0.1454
  944MPD2    C213853   3.739   4.707  11.204 -0.2679  0.7579 -0.1457
  944MPD2    C313854   3.689   0.043  11.312  0.5872  0.3215 -0.0494
  944MPD2    C413855   3.770   0.074  11.422 -0.1441  0.1993  0.3602
  944MPD2    C513856   3.900   0.056  11.404  0.2881 -0.8077 -0.1018
  944MPD2     H13857   3.669   4.681  11.125  2.0167  1.7885 -2.4716
  944MPD2    H113858   3.744   0.137  11.506  1.1113  1.3497 -0.1132
  944MPD2    H213859   4.061   4.683  11.324  0.5982  1.6851  0.5133
  944MPD2    H313860   3.969   0.092  11.480 -0.7811 -2.5327  1.7024
  944MPD2     N13861   3.555   0.085  11.303  0.0188 -0.0144  0.5819
  944MPD2    H513862   3.508   0.062  11.216  2.4711 -1.4055 -0.3553
  944MPD2    N113863   3.932   4.597  11.103 -0.4446  0.9126 -0.0227
  944MPD2    H713864   4.032   4.607  11.110 -0.5239  1.2762  0.5669
    1TMC1    C113865   2.621   0.348  14.118 -0.3113 -0.8792  0.1503
    1TMC1    C213866   2.508   0.358  14.191  0.2360  0.0361 -0.0126
    1TMC1    C313867   2.392   0.332  14.126  0.1815 -0.0253  0.2420
    1TMC1    C413868   2.633   0.300  13.991  0.3138  0.1197 -0.0660
    1TMC1    C513869   2.510   0.282  13.927 -0.4510 -0.9066  0.1689
    1TMC1    C613870   2.389   0.300  13.989  0.3296  0.7838  0.5043
    1TMC1     C13871   2.743   0.390  14.193 -0.7990  0.1888  0.3215
    1TMC1     O13872   2.842   0.323  14.183  0.0994 -0.0434  0.5680
    1TMC1     H13873   2.509   0.400  14.291 -1.4499 -2.8169  1.2120
    1TMC1    H113874   2.722   0.300  13.930  0.1013  0.8431 -0.3799
    1TMC1    H213875   2.299   0.266  13.939  0.5131  2.8974 -1.2680
    1TMC1    C713876   2.497   0.178  13.828  0.7818  0.1152 -0.0205
    1TMC1    C813877   2.280   0.279  14.204 -0.8685 -0.0804  0.1260
    1TMC1    O113878   2.407   0.185  13.743  0.4049  0.3463  0.0360
    1TMC1    O213879   2.171   0.261  14.156 -0.0854  1.0185  0.2761
    1TMC1    O313880   2.558   0.071  13.882  0.1237  0.7242  0.0868
    1TMC1    H313881   2.604   0.075  13.968 -1.7278 -1.8965  1.1991
    1TMC1    O513882   2.332   0.211  14.305 -0.2607 -0.2599 -0.1868
    1TMC1    H513883   2.429   0.208  14.318 -0.4593  0.1798  1.4689
    2MPD2     C13884   2.948   0.595  14.613 -0.1939 -0.1650 -0.4015
    2MPD2    C113885   2.844   0.673  14.569 -0.2025 -0.1803 -0.2783
    2MPD2    C213886   2.776   0.641  14.452  0.5324  0.3470  1.1257
    2MPD2    C313887   2.817   0.538  14.370 -0.4496  0.2051  0.7209
    2MPD2    C413888   2.924   0.465  14.417 -0.3034  0.8658 -0.0200
    2MPD2    C513889   2.982   0.494  14.539 -0.2994  0.7325 -0.2286
    2MPD2     H13890   2.693   0.700  14.415  1.9132 -0.2362 -2.9929
    2MPD2    H113891   2.962   0.385  14.355 -0.2768 -0.6434  1.9464
    2MPD2    H213892   3.002   0.626  14.702 -0.5306  1.2761 -0.6854
    2MPD2    H313893   3.070   0.438  14.567  0.4280  2.1075  0.2149
    2MPD2     N13894   2.733   0.505  14.266 -0.3817  0.3512 -0.3171
    2MPD2    H513895   2.642   0.550  14.264 -1.6312 -2.1826 -0.0058
    2MPD2    N113896   2.815   0.788  14.651 -0.0004  0.3189 -0.0380
    2MPD2    H713897   2.865   0.789  14.739  0.3391 -0.2319 -0.2271
    3TMC2    C113898   2.750   1.007  14.710 -0.1202 -0.3118 -0.9837
    3TMC2    C213899   2.851   1.007  14.804  0.1419 -0.5417 -0.1568
    3TMC2    C313900   2.826   1.098  14.905  0.7241  0.0449  0.0198
    3TMC2    C413901   2.644   1.097  14.708 -0.3217 -0.3783  0.0264
    3TMC2    C513902   2.638   1.192  14.803  0.4169 -0.2415 -0.3345
    3TMC2    C613903   2.735   1.195  14.901 -0.1442  0.0993 -0.1050
    3TMC2     C13904   2.735   0.894  14.621 -0.2641 -0.3251  0.5590
    3TMC2     O13905   2.664   0.909  14.525 -0.0503  0.5381  0.1839
    3TMC2     H13906   2.942   0.948  14.804 -1.3509 -2.8500 -0.7113
    3TMC2    H113907   2.559   1.083  14.642  0.1967  0.0355 -0.7244
    3TMC2    H213908   2.728   1.265  14.983 -3.1295 -0.1146 -0.1737
    3TMC2    C713909   2.535   1.293  14.810  0.1395  0.7724 -0.4588
    3TMC2    C813910   2.915   1.094  15.014  0.5135  0.8906 -0.2897
    3TMC2    O113911   2.498   1.324  14.919  0.3828 -0.1592  0.2661
    3TMC2    O213912   2.957   0.985  15.055  0.1936  0.1185 -0.2840
    3TMC2    O513913   2.980   1.211  15.027 -0.2640  0.2392  0.1321
    3TMC2    H513914   2.939   1.286  14.979 -1.7492  0.5193  1.8459
    4TMC2    C113915   1.890   1.624  14.110  0.1224 -0.3448  0.3753
    4TMC2    C213916   1.920   1.590  13.984 -0.0013  0.0766  0.0371
    4TMC2    C313917   2.038   1.535  13.960  0.0716  0.8620  0.3801
    4TMC2    C413918   1.987   1.609  14.205 -0.3078 -0.0986  0.4188
    4TMC2    C513919   2.116   1.571  14.175  0.2328 -0.7940 -0.2678
    4TMC2    C613920   2.139   1.521  14.050 -0.0471  0.0828 -0.2784
    4TMC2     C13921   1.761   1.686  14.144 -0.4941  0.0604  0.9635
    4TMC2     O13922   1.739   1.700  14.264 -0.0305  0.0012 -0.5612
    4TMC2     H13923   1.858   1.609  13.897 -0.1987  0.1074  0.1860
    4TMC2    H113924   1.960   1.643  14.304  0.7900  2.0953 -0.0406
    4TMC2    H213925   2.240   1.489  14.027  0.2075 -1.2973  2.7550
    4TMC2    C713926   2.214   1.553  14.281 -1.3518  0.0841  1.4577
    4TMC2    C813927   2.059   1.473  13.833  0.7387  0.2485 -0.0625
    4TMC2    O113928   2.323   1.506  14.245  0.0553 -0.4996  0.4034
    4TMC2    O213929   2.167   1.424  13.804  0.0895 -0.0047 -0.2375
    4TMC2    O513930   1.942   1.409  13.810  0.6157  0.5230 -0.5721
    4TMC2    H513931   1.858   1.452  13.839 -0.6607 -0.4562 -2.8326
    5MPD2     C13932   1.285   1.821  13.981 -0.3394  0.1363  0.4321
    5MPD2    C113933   1.359   1.759  13.886  0.2487  0.0638 -0.1980
    5MPD2    C213934   1.489   1.723  13.907  0.3067  0.2913  0.1159
    5MPD2    C313935   1.544   1.737  14.034  1.0320  0.2018  0.0354
    5MPD2    C413936   1.469   1.791  14.131 -0.2217  0.3904  0.2288
    5MPD2    C513937   1.339   1.837  14.105  0.3123  0.3240  0.0798
    5MPD2     H13938   1.558   1.705  13.826  0.0265 -1.8972  0.3567
    5MPD2    H113939   1.514   1.822  14.225 -0.2360 -0.3280  0.4765
    5MPD2    H213940   1.185   1.860  13.964  0.4035  1.5883 -0.4807
    5MPD2    H313941   1.291   1.902  14.176  2.1383  0.9851  0.6934
    5MPD2     N13942   1.676   1.690  14.040 -0.4488  0.2923 -0.0040
    5MPD2    H513943   1.712   1.657  13.952 -0.2654 -1.7604  0.8314
    5MPD2    N113944   1.302   1.745  13.757  0.2933 -0.7138  0.2657
    5MPD2    H713945   1.210   1.784  13.744  0.7234  0.5603  1.0638
    6MPD1     C13946   1.209   2.589  12.283 -1.4598  0.5697 -0.0843
    6MPD1    C113947   1.184   2.469  12.221  0.6992  0.4249  0.4287
    6MPD1    C213948   1.149   2.360  12.297 -0.3525  0.9645 -1.0188
    6MPD1    C313949   1.107   2.383  12.426 -0.6345  0.7506  0.6114
    6MPD1    C413950   1.121   2.506  12.487  0.2189 -0.1621  0.2911
    6MPD1    C513951   1.172   2.611  12.409  0.7209  0.0749 -0.8940
    6MPD1     H13952   1.132   2.266  12.245  1.6208  1.4706 -2.5511
    6MPD1    H113953   1.065   2.524  12.578 -1.2746  0.7200 -0.8004
    6MPD1    H213954   1.267   2.661  12.225  1.6912 -0.7892  1.3652
    6MPD1    H313955   1.183   2.698  12.473  1.0642 -0.2033 -0.5735
    6MPD1     N13956   1.051   2.279  12.501 -0.1621 -0.1137 -0.1741
    6MPD1    H513957   1.022   2.304  12.595  0.5219  1.6923 -0.4466
    6MPD1    N113958   1.240   2.444  12.094 -0.1856  0.6374 -0.8239
    6MPD1    H613959   1.225   2.517  12.026 -1.7657 -0.8376 -2.0500
    6MPD1    H713960   1.200   2.359  12.055 -0.8041  1.2471 -1.5069
    7MPD2     C13961   0.810   2.172  13.173  0.1069  0.8868 -0.3697
    7MPD2    C113962   0.857   2.051  13.127 -0.2435 -0.1591 -0.6440
    7MPD2    C213963   0.889   1.953  13.213  0.8081  0.6303 -0.3808
    7MPD2    C313964   0.887   1.970  13.351  0.6786 -0.2311  0.1237
    7MPD2    C413965   0.851   2.090  13.401 -0.0276 -0.7467 -0.2930
    7MPD2    C513966   0.812   2.189  13.307 -0.2943 -0.2306 -0.0577
    7MPD2     H13967   0.931   1.864  13.168 -0.6210  0.0923 -0.6407
    7MPD2    H113968   0.853   2.103  13.508 -1.5869 -1.8226 -0.1314
    7MPD2    H213969   0.789   2.260  13.113  0.1967  1.6595  0.7206
    7MPD2    H313970   0.798   2.285  13.356  0.4660 -0.0277 -0.2467
    7MPD2     N13971   0.937   1.875  13.441 -0.2339 -0.2762 -0.1685
    7MPD2    H513972   0.958   1.897  13.538 -0.7597  1.4190 -0.4257
    7MPD2    N113973   0.862   2.011  12.994 -0.9679 -0.3645  0.0501
    7MPD2    H713974   0.895   1.917  12.977 -2.0361 -1.1870  2.5589
    8TMC3    C113975   1.033   1.661  13.503  0.2401 -0.1362 -0.6614
    8TMC3    C213976   1.151   1.710  13.555  0.4163 -0.1069 -0.0278
    8TMC3    C313977   1.256   1.630  13.565  0.1930  0.4326 -0.4911
    8TMC3    C413978   1.038   1.533  13.454 -0.4382 -0.2092 -0.8175
    8TMC3    C513979   1.152   1.461  13.455  0.8865  0.0831 -0.3976
    8TMC3    C613980   1.265   1.504  13.510  0.0243 -0.2530  0.7984
    8TMC3     C13981   0.976   1.743  13.401  0.1511 -0.3526  0.1517
    8TMC3     O13982   0.943   1.698  13.296 -0.4774 -0.1214  0.3080
    8TMC3     H13983   1.148   1.812  13.590 -0.4363  0.1714 -0.8911
    8TMC3    H113984   0.955   1.502  13.392 -0.8310 -0.9846  0.0880
    8TMC3    H213985   1.359   1.451  13.497 -1.4735 -2.7183  0.0311
    8TMC3    C713986   1.181   1.400  13.325 -0.0278  0.8462 -0.0331
    8TMC3    C813987   1.352   1.661  13.659  1.0671 -0.4391  0.4835
    8TMC3    O113988   1.250   1.303  13.317 -0.2999  0.5076 -0.2790
    8TMC3    O213989   1.450   1.582  13.662  0.5083 -0.0309 -0.1642
    9TMC3    C113990   1.016   2.065  12.579 -0.2491  0.2268 -0.0588
    9TMC3    C213991   1.052   1.936  12.575  0.3700 -1.0259 -0.1653
    9TMC3    C313992   1.002   1.854  12.671  0.2142  0.1408 -0.8980
    9TMC3    C413993   0.939   2.126  12.676 -0.5548 -0.1112  0.1735
    9TMC3    C513994   0.892   2.038  12.768  0.0842 -0.2188  0.0288
    9TMC3    C613995   0.909   1.903  12.763  0.6634  0.1609  1.3043
    9TMC3     C13996   1.061   2.148  12.470  0.4846  0.0003 -0.3428
    9TMC3     O13997   1.084   2.091  12.367 -0.5052  0.0536  0.4501
    9TMC3     H13998   1.100   1.897  12.487 -0.0496 -1.0759 -0.3711
    9TMC3    H113999   0.897   2.226  12.668  0.4961  0.3513  0.4299
    9TMC3    H214000   0.844   1.834  12.816  0.9349  0.3296  1.8682
    9TMC3    C714001   0.838   2.095  12.890  0.3130 -0.6027 -0.7452
    9TMC3    C814002   1.075   1.733  12.691 -0.2019  0.0588 -0.8441
    9TMC3    O114003   0.799   2.211  12.883  0.4119 -0.1290 -0.1513
    9TMC3    O214004   1.141   1.688  12.597 -0.3245 -0.3589 -0.2568
   10MPD2     C14005   1.241   1.378  13.022 -0.7562 -0.5729 -0.4981
   10MPD2    C114006   1.170   1.475  13.088  0.4116 -0.1661 -1.1673
   10MPD2    C214007   1.108   1.573  13.019 -0.0784  0.0996  0.6630
   10MPD2    C314008   1.121   1.582  12.884  1.5501 -0.4439 -0.1915
   10MPD2    C414009   1.201   1.490  12.815 -0.1147 -0.6036  0.0851
   10MPD2    C514010   1.249   1.386  12.882  0.6174  0.6265  0.0005
   10MPD2     H14011   1.063   1.654  13.075  0.1024 -0.0765  1.0636
   10MPD2    H114012   1.217   1.494  12.708  0.7505 -0.7489  0.2107
   10MPD2    H214013   1.284   1.294  13.075 -1.2666 -0.9281 -0.6479
   10MPD2    H314014   1.309   1.320  12.820  1.5362  0.1658  1.3791
   10MPD2     N14015   1.074   1.701  12.827  0.0010  0.0433  1.1677
   10MPD2    H514016   1.024   1.757  12.896 -0.3533 -0.2235  1.1253
   10MPD2    N114017   1.153   1.490  13.226 -0.2665 -0.2278  0.3197
   10MPD2    H714018   1.106   1.576  13.252 -2.0800 -0.4591 -2.1624
   11MPD2     C14019   2.320   1.501  14.778  0.5621  0.0482  0.3898
   11MPD2    C114020   2.376   1.427  14.673  0.1949 -0.2559 -1.0309
   11MPD2    C214021   2.335   1.475  14.546 -0.4188 -0.0414 -0.0938
   11MPD2    C314022   2.233   1.570  14.528 -0.7184 -0.4701 -0.1689
   11MPD2    C414023   2.179   1.622  14.638 -0.0660 -0.3013  0.2911
   11MPD2    C514024   2.221   1.591  14.763 -0.0269 -0.0759  0.0617
   11MPD2     H14025   2.376   1.425  14.459 -2.1736  1.5895 -1.8671
   11MPD2    H114026   2.092   1.687  14.635  0.0718 -0.1444 -0.3543
   11MPD2    H214027   2.344   1.480  14.881 -2.3040  0.9513  1.2504
   11MPD2    H314028   2.174   1.632  14.852 -1.6492  1.0454 -1.3293
   11MPD2     N14029   2.181   1.608  14.402 -0.5152  0.3967  0.0054
   11MPD2    H514030   2.100   1.669  14.397 -0.8118 -0.0590 -0.8518
   11MPD2    N114031   2.486   1.335  14.688  0.4249  0.0857 -0.3742
   11MPD2    H714032   2.537   1.296  14.609 -0.1637  0.9145 -1.1504
    1MPD1     C14033   3.988   2.769  17.219  0.0697 -0.3708 -0.2734
    1MPD1    C114034   3.993   2.761  17.083  0.0225 -0.1019  0.1800
    1MPD1    C214035   3.969   2.875  17.008 -0.0856 -0.7103 -0.6132
    1MPD1    C314036   3.927   2.996  17.065 -0.2731  0.6489  0.5697
    1MPD1    C414037   3.917   3.003  17.203  0.1441 -0.5515 -0.0937
    1MPD1    C514038   3.951   2.886  17.278  0.1794 -0.1777  0.5162
    1MPD1     H14039   3.975   2.870  16.900  1.0768 -0.3752 -0.5602
    1MPD1    H114040   3.884   3.094  17.251  0.3127  0.1580 -1.3026
    1MPD1    H214041   4.022   2.689  17.283 -2.3402  0.0316  1.5115
    1MPD1    H314042   3.932   2.892  17.384 -1.1236  1.2124  0.1980
    1MPD1     N14043   3.909   3.114  16.992 -0.1878  0.2088  0.0573
    1MPD1    H514044   3.879   3.197  17.042  0.3558 -0.0994  0.8879
    1MPD1    N114045   4.044   2.640  17.032 -0.4576  0.7423  0.5994
    1MPD1    H614046   4.008   2.640  16.937  0.4455  1.7941  0.2585
    1MPD1    H714047   4.003   2.561  17.081  0.9460  0.8175  1.8991
    2MPD1     C14048   3.360   3.531  16.127  0.2697  0.2247  0.0218
    2MPD1    C114049   3.385   3.636  16.209 -0.1716  0.3832  0.4044
    2MPD1    C214050   3.481   3.614  16.311 -0.6047 -0.3788  0.6207
    2MPD1    C314051   3.530   3.486  16.340 -0.3983  0.1176  0.0996
    2MPD1    C414052   3.487   3.381  16.261  0.1689 -0.1980 -0.8524
    2MPD1    C514053   3.410   3.404  16.151 -0.3615  0.3693 -0.3966
    2MPD1     H14054   3.521   3.697  16.368  2.3437  1.0070 -3.4666
    2MPD1    H114055   3.512   3.278  16.285  0.2552  0.9868  4.1629
    2MPD1    H214056   3.306   3.541  16.034  0.0096 -0.9798  0.0453
    2MPD1    H314057   3.384   3.314  16.097 -0.6473  0.5097 -0.4910
    2MPD1     N14058   3.621   3.472  16.449  0.5712  0.1311 -0.0204
    2MPD1    H514059   3.618   3.553  16.510 -0.4815 -0.8074  1.1645
    2MPD1    N114060   3.349   3.766  16.185  0.1806  0.0570  0.5186
    2MPD1    H614061   3.346   3.835  16.259  0.3316  2.2221 -1.5146
    2MPD1    H714062   3.261   3.766  16.135  0.3930 -1.8973  0.1178
    3TMC3    C114063   3.776   3.370  16.606 -0.1080 -0.1096  1.0526
    3TMC3    C214064   3.793   3.485  16.676  0.4144 -0.3399 -0.2901
    3TMC3    C314065   3.827   3.476  16.809  0.1510 -0.2081 -0.7732
    3TMC3    C414066   3.807   3.246  16.661 -0.4914  0.2259  0.2801
    3TMC3    C514067   3.845   3.242  16.797 -0.5114  0.2418  0.3822
    3TMC3    C614068   3.864   3.356  16.871  0.0004 -0.2270 -0.5415
    3TMC3     C14069   3.689   3.357  16.483  0.1620 -0.0838  0.3371
    3TMC3     O14070   3.701   3.254  16.418 -0.4968  0.0943 -0.5023
    3TMC3     H14071   3.775   3.585  16.639  2.3184 -0.4957 -1.6764
    3TMC3    H114072   3.793   3.153  16.608  2.6919  0.4544 -0.9829
    3TMC3    H214073   3.898   3.357  16.974 -1.0181 -3.5234 -0.1848
    3TMC3    C714074   3.900   3.123  16.852  0.5887 -0.4839  0.3348
    3TMC3    C814075   3.845   3.597  16.893 -0.2014  0.2632  0.0271
    3TMC3    O114076   3.913   3.035  16.768 -0.0532  0.0058 -0.2503
    3TMC3    O214077   3.920   3.599  16.986  0.0941 -0.3450  0.4583
    4MPD1     C14078   3.787   4.095  17.000  0.1895 -0.0247  0.1120
    4MPD1    C114079   3.698   4.063  16.898  0.5449  0.2793 -0.1699
    4MPD1    C214080   3.698   3.933  16.854 -1.2290  0.6099  0.1377
    4MPD1    C314081   3.775   3.835  16.912 -0.3852  0.8036 -0.2182
    4MPD1    C414082   3.861   3.878  17.014  0.3466 -0.2057 -0.8557
    4MPD1    C514083   3.855   4.003  17.065  0.4184  0.1195  0.0499
    4MPD1     H14084   3.634   3.924  16.768 -0.8237  0.6362 -0.1668
    4MPD1    H114085   3.933   3.817  17.068 -1.4665  0.8168  2.7270
    4MPD1    H214086   3.790   4.194  17.042  1.0163  0.0421 -0.1064
    4MPD1    H314087   3.925   4.029  17.144  1.6082 -1.3539 -0.5268
    4MPD1     N14088   3.770   3.711  16.851  0.4058  0.8376  0.1904
    4MPD1    H514089   3.700   3.693  16.780  3.0265  1.1138 -2.4918
    4MPD1    N114090   3.621   4.164  16.841  0.3070 -0.4297  0.3523
    4MPD1    H614091   3.590   4.236  16.906 -0.4647  0.0366 -0.5360
    4MPD1    H714092   3.548   4.125  16.783 -1.9737  2.4189  1.2754
    1TCq1    O114093   1.425   2.641  11.859  0.4441  0.0915  0.0819
    1TCq1    C114094   1.298   2.664  11.834 -0.2625  0.0372  0.3311
    1TCq1    O214095   1.226   2.700  11.928  0.3665  0.3403  0.4129
    1TCq1    C214096   1.250   2.599  11.712 -0.3478 -0.8034 -0.1427
    1TCq1    C314097   1.118   2.553  11.718  1.1807  0.1154  0.2704
    1TCq1    C414098   1.076   2.484  11.605  0.6868  0.1217  0.3202
    1TCq1    C514099   1.141   2.496  11.490  0.3403 -0.3893  0.0956
    1TCq1    C614100   1.263   2.556  11.493 -0.1807  0.0566  0.0965
    1TCq1    C714101   1.326   2.604  11.604  0.1766  0.7155 -0.2090
    1TCq1    C814102   1.334   2.581  11.364  0.5214  0.4198 -0.4808
    1TCq1    O414103   1.457   2.597  11.370 -0.0571 -0.8667 -0.4181
    1TCq1    C914104   0.929   2.464  11.595 -0.0232 -0.2245 -0.1843
    1TCq1    O514105   0.861   2.475  11.702 -0.1186  0.0891 -0.0674
    1TCq1    O614106   0.868   2.477  11.484 -0.6684  0.0318 -0.0651
    1TCq1    H114107   1.476   2.619  11.778  2.3499  3.0458  0.4849
    1TCq1    H214108   1.059   2.559  11.809 -0.3699  0.2286 -0.7287
    1TCq1    H314109   1.097   2.446  11.405  1.4882  1.2680 -1.4700
    1TCq1    H414110   1.427   2.644  11.605  0.0599  1.0015  2.7912
    2MPD1     C14111   1.352   2.609  10.851 -0.8030 -0.3985 -0.4914
    2MPD1    C114112   1.221   2.638  10.884 -0.7952  0.4326  0.2433
    2MPD1    C214113   1.187   2.606  11.020 -0.6457  0.4634  0.9484
    2MPD1    C314114   1.281   2.574  11.116  0.1914  0.2770  0.4925
    2MPD1    C414115   1.406   2.546  11.071 -0.3819  0.0435 -0.1938
    2MPD1    C514116   1.441   2.565  10.941 -0.4985  0.0561 -0.1348
    2MPD1     H14117   1.089   2.637  11.053 -0.8258 -0.4028  1.2362
    2MPD1    H114118   1.493   2.533  11.134 -0.3466  0.1080 -0.2283
    2MPD1    H214119   1.380   2.615  10.746 -0.4793  0.2395 -0.3672
    2MPD1    H314120   1.542   2.543  10.909 -1.5241  0.8032 -3.8803
    2MPD1     N14121   1.242   2.577  11.258  0.1983  0.5195  0.6036
    2MPD1    H514122   1.147   2.595  11.288  0.1305  1.9059 -0.4585
    2MPD1    N114123   1.123   2.659  10.788 -0.4304 -0.1310 -0.3753
    2MPD1    H614124   1.156   2.699  10.700 -0.5092  0.2444 -0.2318
    2MPD1    H714125   1.040   2.706  10.824 -1.0906 -0.3679 -1.5896
    1TMC1    C114126   3.694   4.353   0.793 -1.0380 -0.6848  0.3446
    1TMC1    C214127   3.826   4.324   0.794 -0.3195  0.0941 -0.5049
    1TMC1    C314128   3.882   4.296   0.917  0.0073 -0.6687 -0.1678
    1TMC1    C414129   3.613   4.321   0.903 -0.1518  0.1489  0.2778
    1TMC1    C514130   3.671   4.287   1.028 -0.0919  0.6507 -0.1766
    1TMC1    C614131   3.810   4.275   1.032  0.1516  0.3597  0.0913
    1TMC1     C14132   3.631   4.363   0.664  0.1622 -0.5029 -0.1102
    1TMC1     O14133   3.697   4.385   0.561 -0.4081  0.2905  0.1898
    1TMC1     H14134   3.889   4.338   0.708  0.1720 -1.5573 -0.4140
    1TMC1    H114135   3.507   4.341   0.909 -0.0692  1.0159 -1.1264
    1TMC1    H214136   3.856   4.252   1.127  0.0670 -0.5345 -0.0832
    1TMC1    C714137   3.599   4.286   1.158 -0.2522  0.5984  0.6384
    1TMC1    C814138   4.031   4.276   0.915 -0.0396  0.2251  0.4922
    1TMC1    O114139   3.657   4.244   1.255  0.6207 -0.0695 -0.1541
    1TMC1    O214140   4.097   4.285   1.017 -0.4271 -0.3447 -0.4000
    1TMC1    O314141   3.464   4.273   1.145  0.1824  0.3717 -0.5515
    1TMC1    H314142   3.420   4.281   1.057 -0.3838  1.9132 -0.1283
    1TMC1    O514143   4.058   4.190   0.814  0.3635 -0.5253 -0.2230
    1TMC1    H514144   3.994   4.183   0.739 -0.2524  0.1602  0.2430
    2MPD1     C14145   3.232   4.499   0.382 -0.3644  0.1734 -0.5514
    2MPD1    C114146   3.191   4.496   0.514  0.6417 -0.5581 -0.3534
    2MPD1    C214147   3.283   4.441   0.604 -0.1892  0.9931  0.1409
    2MPD1    C314148   3.417   4.418   0.568 -0.1301 -0.3755 -0.3998
    2MPD1    C414149   3.449   4.421   0.429 -0.6378  0.1995 -0.5936
    2MPD1    C514150   3.357   4.463   0.339  0.0216 -0.0052  0.3912
    2MPD1     H14151   3.253   4.436   0.708 -1.7142  2.9926 -0.2123
    2MPD1    H114152   3.544   4.382   0.393  0.0126  0.7150  0.5927
    2MPD1    H214153   3.154   4.519   0.310  0.3663 -0.0889 -1.4222
    2MPD1    H314154   3.382   4.465   0.234  1.0808 -2.7710  0.5861
    2MPD1     N14155   3.496   4.372   0.673  0.9392  0.7457  0.5605
    2MPD1    H514156   3.445   4.347   0.757  2.7818 -3.0733  0.5495
    2MPD1    N114157   3.051   4.520   0.537 -0.4738  0.0720  0.3587
    2MPD1    H614158   3.002   4.577   0.468 -3.1260 -0.7145  1.5814
    2MPD1    H714159   3.045   4.563   0.629  2.2418 -0.8583  0.9796
    1MPD1     C14160   2.189   2.156  11.866 -0.1519  0.2066  0.0153
    1MPD1    C114161   2.266   2.080  11.775  0.5242 -0.4696 -0.0702
    1MPD1    C214162   2.366   2.143  11.704  0.5034  0.6585 -0.0017
    1MPD1    C314163   2.402   2.276  11.740  0.0605  0.5123  0.1160
    1MPD1    C414164   2.321   2.354  11.823 -0.2243 -0.0131  0.8839
    1MPD1    C514165   2.227   2.290  11.893  0.0694  1.0415 -0.6112
    1MPD1     H14166   2.418   2.093  11.623 -1.2916  0.3817 -0.9861
    1MPD1    H114167   2.345   2.456  11.851 -1.1877  0.7020 -0.8817
    1MPD1    H214168   2.117   2.104  11.928 -0.2760  0.4656  0.0890
    1MPD1    H314169   2.169   2.338  11.971  1.4157 -0.6855  1.4822
    1MPD1     N14170   2.523   2.319  11.686 -0.6151  0.0093  0.1745
    1MPD1    H514171   2.576   2.244  11.643  0.3699  1.2919 -0.8551
    1MPD1    N114172   2.243   1.944  11.759 -0.0108  0.8899 -0.2949
    1MPD1    H614173   2.336   1.902  11.764 -0.0423  0.6948 -1.3597
    1MPD1    H714174   2.180   1.912  11.832  2.9107 -1.4472  1.1822
    2MPD1     C14175   2.800   2.822  11.586 -0.6713  0.2685  0.0389
    2MPD1    C114176   2.678   2.878  11.556 -0.5486 -0.0293 -0.0658
    2MPD1    C214177   2.623   2.869  11.428 -0.4126  0.0885 -0.1685
    2MPD1    C314178   2.707   2.836  11.326 -0.9613 -0.1740  0.5182
    2MPD1    C414179   2.830   2.786  11.352  0.3619  0.1513 -0.0312
    2MPD1    C514180   2.877   2.776  11.479 -0.0383 -0.3965  0.2248
    2MPD1     H14181   2.524   2.907  11.405  0.5789  2.2767 -0.8481
    2MPD1    H114182   2.894   2.761  11.268  0.3424  3.0593 -0.9104
    2MPD1    H214183   2.831   2.808  11.689 -0.0167 -0.7549 -0.2963
    2MPD1    H314184   2.979   2.745  11.498  0.8681  0.8544 -2.7206
    2MPD1     N14185   2.675   2.866  11.195 -0.1270 -0.4298  0.4807
    2MPD1    H514186   2.742   2.850  11.121  0.8609 -0.5992  1.4122
    2MPD1    N114187   2.598   2.914  11.665 -0.1187 -0.3639  0.3661
    2MPD1    H614188   2.523   2.978  11.641 -1.3737 -2.1449 -0.3916
    2MPD1    H714189   2.652   2.971  11.731  2.2148 -3.3078  0.9927
    3MPD1     C14190   2.324   2.731  10.190 -0.7469 -0.5149 -0.8785
    3MPD1    C114191   2.464   2.746  10.190 -0.3732 -0.3450 -0.0064
    3MPD1    C214192   2.521   2.777  10.310 -0.0090 -0.3781 -0.0125
    3MPD1    C314193   2.452   2.813  10.427 -0.0428 -0.4572 -0.2123
    3MPD1    C414194   2.314   2.803  10.415  0.4123 -0.9293 -0.2830
    3MPD1    C514195   2.255   2.750  10.305 -0.3400 -0.0200  0.2369
    3MPD1     H14196   2.629   2.784  10.319 -0.1542 -0.3385  1.6866
    3MPD1    H114197   2.242   2.837  10.488  0.7882 -2.1675  0.6666
    3MPD1    H214198   2.278   2.698  10.098 -0.9453 -0.2226 -0.8843
    3MPD1    H314199   2.147   2.754  10.304 -0.5316 -4.4824  0.0567
    3MPD1     N14200   2.519   2.871  10.538  0.1068  0.0055 -0.6892
    3MPD1    H514201   2.618   2.891  10.536  0.4091 -1.2862  1.8475
    3MPD1    N114202   2.535   2.691  10.079 -0.2281  0.4295  0.4843
    3MPD1    H614203   2.635   2.710  10.073 -0.3193  0.8030  0.1461
    3MPD1    H714204   2.493   2.684   9.987  0.1821  3.4173  0.0593
    4MPD2     C14205   3.250   2.752  11.722  0.2492 -0.8059  0.0884
    4MPD2    C114206   3.213   2.663  11.628  0.5469  0.1682  0.5181
    4MPD2    C214207   3.291   2.653  11.514  0.0767  0.1389 -0.3926
    4MPD2    C314208   3.398   2.739  11.484 -0.0122  0.4472  0.2601
    4MPD2    C414209   3.422   2.835  11.581  0.6164 -0.1357 -0.0371
    4MPD2    C514210   3.357   2.836  11.701  0.4120 -0.6579  0.3710
    4MPD2     H14211   3.263   2.581  11.438  1.1366  0.3354 -0.9650
    4MPD2    H114212   3.513   2.894  11.577  1.0800 -0.9024 -0.7900
    4MPD2    H214213   3.188   2.755  11.811 -1.2756 -1.5860 -0.9412
    4MPD2    H314214   3.379   2.910  11.777 -0.6931  0.4843 -0.4192
    4MPD2     N14215   3.458   2.724  11.360 -0.2552  0.2108 -0.1276
    4MPD2    H514216   3.430   2.646  11.301 -1.5964  0.0431  0.7110
    4MPD2    N114217   3.114   2.570  11.647  0.3596 -0.4964  0.0217
    4MPD2    H714218   3.093   2.504  11.572  0.0033  0.3093 -0.5949
    5TMC3    C114219   2.931   2.458  11.727  0.3387 -0.1049  0.4644
    5TMC3    C214220   2.797   2.499  11.726  0.1493 -0.1380  0.1577
    5TMC3    C314221   2.711   2.441  11.638 -0.4773 -0.0413 -0.0977
    5TMC3    C414222   2.964   2.370  11.638 -0.9621 -0.3341  0.3577
    5TMC3    C514223   2.886   2.313  11.541  0.5418 -0.4275  0.2565
    5TMC3    C614224   2.754   2.349  11.538 -0.3747 -0.1520 -0.5170
    5TMC3     C14225   3.026   2.564  11.755  0.6172 -0.3497  0.0214
    5TMC3     O14226   3.000   2.649  11.841  0.0762  0.3882  0.0951
    5TMC3     H14227   2.755   2.562  11.803 -2.4560 -0.3392 -1.1085
    5TMC3    H114228   3.067   2.337  11.649  0.0813  2.7070 -0.3869
    5TMC3    H214229   2.681   2.326  11.462 -0.1498 -0.8757 -0.5166
    5TMC3    C714230   2.963   2.333  11.418 -0.0590 -0.2143  0.0022
    5TMC3    C814231   2.585   2.442  11.705 -0.2963 -0.3634  0.8248
    5TMC3    O114232   3.071   2.388  11.426 -0.0405  0.0638 -0.0508
    5TMC3    O214233   2.529   2.542  11.746 -1.0643  0.5098 -0.1595
    6TMC3    C114234   2.578   2.953  11.005 -0.3144 -0.1733 -0.2654
    6TMC3    C214235   2.500   2.906  10.903  0.0534  0.2443 -0.0733
    6TMC3    C314236   2.538   2.931  10.776  0.2023  0.2207  0.8576
    6TMC3    C414237   2.702   3.012  10.981 -0.0624 -0.0719 -0.0552
    6TMC3    C514238   2.730   3.041  10.849 -0.2445  0.6279 -0.8683
    6TMC3    C614239   2.651   3.004  10.744 -0.8471 -0.0465  0.0724
    6TMC3     C14240   2.553   2.897  11.136  0.3156 -0.2083 -0.6035
    6TMC3     O14241   2.443   2.891  11.186  1.1115 -0.1649  0.3898
    6TMC3     H14242   2.402   2.873  10.935 -1.2540  2.9217 -1.2504
    6TMC3    H114243   2.764   3.047  11.063 -1.2642 -0.5295  1.0625
    6TMC3    H214244   2.667   3.032  10.640  0.9829  1.1028  0.6671
    6TMC3    C714245   2.864   3.082  10.815 -0.3977 -0.2867  0.4283
    6TMC3    C814246   2.458   2.882  10.666  0.0846 -0.2427 -0.0236
    6TMC3    O114247   2.910   3.016  10.719  0.2248 -0.4246 -0.0400
    6TMC3    O214248   2.349   2.843  10.699 -0.3797 -0.5543  0.2062
    7MPD2     C14249   3.004   2.433  10.917  0.8281  0.0701  1.0081
    7MPD2    C114250   3.104   2.434  11.019 -0.3620  0.8122  0.6302
    7MPD2    C214251   3.072   2.396  11.142 -0.4103  0.5071 -0.1305
    7MPD2    C314252   2.940   2.349  11.168 -0.1190  0.0847 -0.2705
    7MPD2    C414253   2.858   2.326  11.059  0.3389  0.2369 -0.5488
    7MPD2    C514254   2.884   2.388  10.945  0.9591 -0.2518  0.3565
    7MPD2     H14255   3.142   2.395  11.224  0.1446 -0.7575 -0.6127
    7MPD2    H114256   2.760   2.285  11.078  0.4104  1.6774  3.0299
    7MPD2    H214257   3.021   2.464  10.815 -0.8579  0.8416  0.9690
    7MPD2    H314258   2.823   2.395  10.856 -2.7657 -0.7326  2.8673
    7MPD2     N14259   2.885   2.314  11.303  0.0287  0.1945  0.1133
    7MPD2    H514260   2.809   2.247  11.305  0.4559 -0.3547 -2.3175
    7MPD2    N114261   3.230   2.486  10.975 -0.1597  0.2268 -0.0844
    7MPD2    H714262   3.246   2.510  10.878 -0.0167  0.1550 -0.0801
    8TMC3    C114263   3.438   2.610  11.024 -0.5780 -0.0347  0.0835
    8TMC3    C214264   3.412   2.697  10.931  0.5688 -0.2104  0.2033
    8TMC3    C314265   3.456   2.823  10.950  0.4907  0.4279  0.0572
    8TMC3    C414266   3.514   2.637  11.132 -0.4864  0.2200  0.3089
    8TMC3    C514267   3.550   2.768  11.151 -0.3133  0.2823 -0.8724
    8TMC3    C614268   3.522   2.865  11.058  0.1003  0.1898 -0.0030
    8TMC3     C14269   3.330   2.524  11.066  0.6187 -0.3686  0.6727
    8TMC3     O14270   3.331   2.515  11.188 -0.0997 -0.2397  0.5613
    8TMC3     H14271   3.355   2.667  10.844 -0.1665  0.3538  0.4962
    8TMC3    H114272   3.554   2.550  11.183  2.6565 -0.9827 -4.1442
    8TMC3    H214273   3.533   2.967  11.092  1.1540  1.1530 -3.2718
    8TMC3    C714274   3.523   2.817  11.288 -0.0239 -0.3978 -0.2070
    8TMC3    C814275   3.363   2.920  10.884  0.6951  0.0005 -0.3448
    8TMC3    O114276   3.537   2.932  11.324  0.0738 -0.4298 -0.4274
    8TMC3    O214277   3.294   2.883  10.790 -0.3399  0.1400  0.0694
    9MPD2     C14278   3.300   3.253  11.006 -0.6490  0.9828  0.2670
    9MPD2    C114279   3.267   3.140  10.944 -0.3956  0.1834 -0.5736
    9MPD2    C214280   3.142   3.118  10.904 -0.3544  0.1172 -0.4290
    9MPD2    C314281   3.039   3.207  10.927  0.8894 -0.5360 -0.3958
    9MPD2    C414282   3.077   3.322  10.994  0.1989 -0.5141  0.2849
    9MPD2    C514283   3.199   3.343  11.038  0.7198  0.2587 -0.2209
    9MPD2     H14284   3.110   3.022  10.866 -0.0209 -1.1125  2.4218
    9MPD2    H114285   3.009   3.399  11.030  0.7641  0.3803 -0.5419
    9MPD2    H214286   3.397   3.260  11.054 -0.0956  0.9690 -0.8434
    9MPD2    H314287   3.216   3.435  11.094 -0.6854  0.1963  0.3132
    9MPD2     N14288   2.912   3.171  10.902  0.0135  0.2421  0.2771
    9MPD2    H514289   2.837   3.217  10.953  0.6869  0.4848  1.0547
    9MPD2    N114290   3.366   3.041  10.945  0.3795 -0.2283  0.3354
    9MPD2    H714291   3.434   3.062  11.017  0.1468 -1.0551  0.7890
    1MPD1     C14292   3.115   1.708  17.109  0.0588 -0.5995 -0.2201
    1MPD1    C114293   3.117   1.823  17.027 -0.1481 -0.2531  0.9748
    1MPD1    C214294   3.062   1.807  16.901  0.2882 -0.2902 -0.1532
    1MPD1    C314295   3.009   1.686  16.855 -0.1466  0.0811  0.2230
    1MPD1    C414296   3.014   1.576  16.939  0.0059 -0.0793  0.3143
    1MPD1    C514297   3.072   1.585  17.063 -0.0053  0.2686  0.1689
    1MPD1     H14298   3.050   1.890  16.833 -0.3122 -0.4309 -0.2241
    1MPD1    H114299   2.973   1.478  16.918  0.8485  0.0152 -1.7911
    1MPD1    H214300   3.143   1.704  17.214 -0.8081 -0.1351  0.0332
    1MPD1    H314301   3.066   1.507  17.139  2.4494 -0.8759 -0.8166
    1MPD1     N14302   2.938   1.672  16.732  0.7562 -0.2212 -0.1543
    1MPD1    H514303   2.904   1.578  16.712  1.4345 -0.2441 -1.2044
    1MPD1    N114304   3.144   1.952  17.075  0.0173  0.4976  0.1091
    1MPD1    H614305   3.218   1.952  17.144  0.8783 -0.7131 -0.8262
    1MPD1    H714306   3.178   2.010  16.998  1.6836 -0.2785  0.2700
    2TMC2    C114307   2.590   1.610  16.521  0.1640 -0.3777  1.1465
    2TMC2    C214308   2.608   1.620  16.386 -0.8193 -0.6794  0.7463
    2TMC2    C314309   2.714   1.691  16.343  0.1112  0.2860  0.2534
    2TMC2    C414310   2.692   1.644  16.604  0.1088  0.9146  0.0393
    2TMC2    C514311   2.794   1.718  16.553  0.3976  0.3436 -0.0664
    2TMC2    C614312   2.809   1.741  16.421 -0.1494  0.0981 -0.1935
    2TMC2     C14313   2.497   1.516  16.566 -0.1342  0.1231 -0.5947
    2TMC2     O14314   2.511   1.473  16.684 -0.4188  0.0605 -0.0639
    2TMC2     H14315   2.533   1.595  16.312 -0.4358  0.5766 -0.0849
    2TMC2    H114316   2.680   1.630  16.711 -2.0569  0.9552 -0.1975
    2TMC2    H214317   2.891   1.804  16.386  1.7623 -2.8334 -0.9595
    2TMC2    C714318   2.906   1.770  16.643  0.6812  0.0154  0.3454
    2TMC2    C814319   2.713   1.732  16.203 -0.4794  0.2493 -0.4711
    2TMC2    O114320   2.962   1.878  16.620 -0.6060 -0.1420  0.2176
    2TMC2    O214321   2.754   1.836  16.155 -0.7717  0.4317  0.0653
    2TMC2    O514322   2.684   1.611  16.145 -0.1326 -0.0590  1.1268
    2TMC2    H514323   2.677   1.543  16.216 -0.4895 -0.1320  1.0240
    3MPD1     C14324   2.048   1.282  16.559 -0.2348  1.0723  0.3294
    3MPD1    C114325   2.039   1.376  16.461 -0.2160 -0.0931  0.2548
    3MPD1    C214326   2.153   1.460  16.437  0.8865  0.1748  0.2545
    3MPD1    C314327   2.272   1.436  16.507  0.7750  0.5553 -0.6617
    3MPD1    C414328   2.278   1.326  16.592  0.1970  0.5355 -0.2273
    3MPD1    C514329   2.166   1.252  16.625 -0.1619 -0.6766 -0.3476
    3MPD1     H14330   2.135   1.536  16.362  0.7612 -3.2752 -3.2392
    3MPD1    H114331   2.367   1.290  16.642  0.6467 -1.1731 -2.2382
    3MPD1    H214332   1.971   1.214  16.591  0.7698  0.8952  2.3252
    3MPD1    H314333   2.165   1.170  16.696 -0.1155 -0.8949 -0.5966
    3MPD1     N14334   2.383   1.511  16.486 -0.1011  0.4517  0.0922
    3MPD1    H514335   2.365   1.581  16.414  0.1546  0.7986  0.3639
    3MPD1    N114336   1.913   1.425  16.412  0.3564 -0.4311  0.0914
    3MPD1    H614337   1.923   1.473  16.323  1.1185  0.6945  0.7906
    3MPD1    H714338   1.850   1.345  16.402  0.8939 -0.7267 -0.8994
    1TMC1    C114339   0.445   0.364  13.278  0.0428  0.3983 -0.4875
    1TMC1    C214340   0.386   0.355  13.402  0.6173 -0.1419  0.5748
    1TMC1    C314341   0.271   0.278  13.414  0.6535 -0.2021  0.4109
    1TMC1    C414342   0.388   0.316  13.165  0.3915 -0.0731 -0.2553
    1TMC1    C514343   0.278   0.234  13.181 -0.1126 -0.3740 -0.3546
    1TMC1    C614344   0.223   0.216  13.304 -1.2455 -0.9827 -0.3445
    1TMC1     C14345   0.572   0.436  13.266 -0.4360 -0.5090 -0.5397
    1TMC1     O14346   0.610   0.468  13.152  0.0533  0.4651  0.3704
    1TMC1     H14347   0.422   0.403  13.493  2.5185  2.9077 -1.7607
    1TMC1    H114348   0.430   0.338  13.068 -2.1004  0.1493 -1.2902
    1TMC1    H214349   0.139   0.149  13.317  0.0517 -2.4353  0.6405
    1TMC1    C714350   0.222   0.160  13.070 -0.5149 -0.0501 -0.0398
    1TMC1    C814351   0.178   0.312  13.519  0.7030  0.3406  0.2183
    1TMC1    O114352   0.123   0.090  13.080 -0.3055 -0.4221 -0.3270
    1TMC1    O214353   0.179   0.426  13.561  0.1383  0.5763  0.0346
    1TMC1    O314354   0.323   0.145  12.980  0.2209  0.7775  0.1577
    1TMC1    H314355   0.412   0.149  13.022 -0.2577  0.0122  1.2504
    1TMC1    O514356   0.081   0.225  13.529  0.4290  0.5885 -0.3236
    1TMC1    H514357   0.106   0.131  13.513  0.3469  0.6274 -0.6809
    2MPD2     C14358   0.817   0.586  13.337 -0.4615  0.0403 -0.2685
    2MPD2    C114359   0.769   0.483  13.412  0.2564 -0.0212  0.6846
    2MPD2    C214360   0.851   0.454  13.523 -0.2778  0.3840  0.0145
    2MPD2    C314361   0.977   0.509  13.543 -0.4437  0.4460 -0.6468
    2MPD2    C414362   1.025   0.606  13.453 -0.0602 -0.1848 -0.4379
    2MPD2    C514363   0.935   0.647  13.359  0.4366  0.0746  0.4825
    2MPD2     H14364   0.810   0.384  13.596  1.2504  1.8377  2.2617
    2MPD2    H114365   1.123   0.653  13.461 -0.6286  1.2732 -2.1574
    2MPD2    H214366   0.760   0.627  13.255 -3.1248 -0.4114  1.3220
    2MPD2    H314367   0.967   0.724  13.289  0.5456  0.4006  0.8923
    2MPD2     N14368   1.064   0.462  13.647 -0.0202  0.5211  0.7936
    2MPD2    H514369   1.040   0.378  13.698  0.1538 -0.2174 -0.3430
    2MPD2    N114370   0.645   0.425  13.384 -0.7766  0.8712  0.0527
    2MPD2    H714371   0.610   0.350  13.443 -0.7693  0.9784  0.1922
    3TCq1    O114372   1.604   0.436  14.079 -0.2553 -0.7388 -0.2909
    3TCq1    C114373   1.574   0.468  13.948  0.2632 -0.1705 -0.2939
    3TCq1    O214374   1.635   0.545  13.874 -0.5300  0.3409  0.3330
    3TCq1    C214375   1.450   0.400  13.911 -0.0960 -0.2625 -0.2802
    3TCq1    C314376   1.397   0.307  13.997  0.3460 -0.5718 -0.3135
    3TCq1    C414377   1.262   0.278  13.969 -0.5471  0.7756 -0.0311
    3TCq1    C514378   1.191   0.337  13.870 -0.2236  0.2498  0.1204
    3TCq1    C614379   1.256   0.424  13.787  0.1050 -0.2186  0.2934
    3TCq1    C714380   1.385   0.461  13.808  0.5794  0.1240  0.2076
    3TCq1    C814381   1.186   0.505  13.683 -1.0043 -0.6098  0.7180
    3TCq1    O414382   1.252   0.597  13.632  0.3138 -0.1014 -0.5968
    3TCq1    C914383   1.198   0.184  14.062 -0.2012  0.0789 -0.4171
    3TCq1    O514384   1.080   0.154  14.057  0.0193  0.4830  0.1397
    3TCq1    O614385   1.276   0.149  14.161 -0.1986  0.1796  0.4275
    3TCq1    H114386   1.535   0.395  14.136 -0.8644 -0.0658 -0.5399
    3TCq1    H214387   1.452   0.253  14.073  2.1433  1.0576 -0.4399
    3TCq1    H314388   1.085   0.317  13.862 -0.5097  1.5994  0.5671
    3TCq1    H414389   1.432   0.529  13.739 -0.1416  1.3248  0.8868
    1MPD2     C14390   0.120   1.914  15.137 -0.1249  0.3147  0.3196
    1MPD2    C114391   0.047   1.826  15.065 -0.1386 -0.4738  0.5740
    1MPD2    C214392   0.105   1.707  15.036  0.5108 -0.6825 -0.1575
    1MPD2    C314393   0.227   1.670  15.082 -0.2413 -0.2383 -0.3605
    1MPD2    C414394   0.305   1.759  15.149 -0.1301 -0.9562 -0.3612
    1MPD2    C514395   0.246   1.879  15.179 -0.3948  0.0676  0.4354
    1MPD2     H14396   0.051   1.633  14.979 -1.3177 -1.7147  2.9550
    1MPD2    H114397   0.399   1.732  15.197 -0.7305  0.2396  1.5238
    1MPD2    H214398   0.078   2.010  15.165  1.5843  1.3697 -0.7298
    1MPD2    H314399   0.306   1.946  15.239 -0.2621  1.3351 -1.0954
    1MPD2     N14400   0.272   1.550  15.024  0.7083 -0.6674 -0.2673
    1MPD2    H514401   0.217   1.505  14.952  0.1064  0.2652 -0.3974
    1MPD2    N114402   4.650   1.855  15.031 -0.4107 -0.2584  0.9514
    1MPD2    H714403   4.621   1.948  15.061  1.5699  1.1809 -1.6448
    2TMC3    C114404   4.423   1.823  14.958 -0.4056  0.0239 -0.2156
    2TMC3    C214405   4.350   1.704  14.961 -0.0146 -0.7110  0.1002
    2TMC3    C314406   4.253   1.682  14.864 -0.2683  0.1445  0.0084
    2TMC3    C414407   4.397   1.909  14.856 -0.0651 -0.4415 -0.0356
    2TMC3    C514408   4.286   1.899  14.771  0.1060  0.2062 -0.3346
    2TMC3    C614409   4.215   1.783  14.775  0.5346  0.0020  0.3467
    2TMC3     C14410   4.560   1.777  14.960 -0.0044  1.1838  1.1982
    2TMC3     O14411   4.566   1.672  14.894 -0.7811  0.4530  0.4993
    2TMC3     H14412   4.375   1.625  15.032  1.3514 -1.4285 -1.1769
    2TMC3    H114413   4.465   1.994  14.851  0.9646 -1.2422  0.3325
    2TMC3    H214414   4.138   1.758  14.702  0.0667 -1.1720  1.2279
    2TMC3    C714415   4.282   1.966  14.641 -0.6861 -0.1169 -0.9123
    2TMC3    C814416   4.247   1.553  14.799 -0.4137 -0.1119  1.0438
    2TMC3    O114417   4.183   1.956  14.574  0.4482  0.4803 -0.2341
    2TMC3    O214418   4.160   1.526  14.719 -0.4428  0.1475  0.1908
    3TCq1    O114419   4.695   3.142  14.421 -0.2147  0.2012 -0.1504
    3TCq1    C114420   4.690   3.028  14.343  0.3315  0.1083  0.0177
    3TCq1    O214421   4.696   3.035  14.224 -0.0015 -1.0303 -0.3143
    3TCq1    C214422   4.645   2.918  14.429  0.3816 -0.0441 -0.5862
    3TCq1    C314423   4.691   2.914  14.560 -0.3554 -0.4942  0.7134
    3TCq1    C414424   4.680   2.791  14.620 -0.1730  0.6868  0.1917
    3TCq1    C514425   4.624   2.682  14.554  0.0045 -0.1187  0.5848
    3TCq1    C614426   4.592   2.691  14.421 -0.3522  0.1509 -0.2703
    3TCq1    C714427   4.613   2.811  14.355  0.6075 -0.4029  0.2199
    3TCq1    C814428   4.524   2.582  14.355  0.1791 -0.9792 -0.2505
    3TCq1    O414429   4.479   2.611  14.246  0.0358  0.0899 -0.1406
    3TCq1    C914430   4.704   2.769  14.761  0.3231  0.2510 -0.2587
    3TCq1    O514431   4.712   2.870  14.835 -0.0670 -0.4219 -0.1258
    3TCq1    O614432   0.006   2.660  14.806  0.9159 -0.4579  0.0657
    3TCq1    H114433   4.665   3.127  14.513  1.9435  0.5374  0.6267
    3TCq1    H214434   4.732   2.999  14.612 -0.2576 -0.1015  0.0013
    3TCq1    H314435   4.614   2.593  14.614 -0.8104  0.3741  1.1898
    3TCq1    H414436   4.586   2.835  14.252  0.2983  0.5339  0.5183
    4MPD2     C14437   4.368   2.332  14.301 -0.5342  0.4638 -0.8003
    4MPD2    C114438   4.450   2.353  14.412  0.0723 -0.7780 -0.5116
    4MPD2    C214439   4.462   2.250  14.507  0.0332  0.7893 -0.2105
    4MPD2    C314440   4.388   2.137  14.501 -0.5948 -0.3665  0.1899
    4MPD2    C414441   4.305   2.117  14.392  0.1345  0.1566 -0.2250
    4MPD2    C514442   4.305   2.207  14.295  0.0391  0.1029 -0.2413
    4MPD2     H14443   4.524   2.256  14.595  2.3636 -4.0794 -1.5548
    4MPD2    H114444   4.258   2.020  14.378  0.2683  0.1631 -0.7289
    4MPD2    H214445   4.359   2.391  14.210  0.3511  1.5038 -0.2125
    4MPD2    H314446   4.244   2.178  14.210 -1.7335 -0.4840  1.2441
    4MPD2     N14447   4.385   2.050  14.618  0.7051  0.1042  0.3178
    4MPD2    H514448   4.446   2.079  14.694  0.9110  0.8832 -0.1397
    4MPD2    N114449   4.518   2.469  14.430 -0.4897 -0.9942 -0.3350
    4MPD2    H714450   4.566   2.476  14.519 -1.5560  0.4976  0.1127
    5TMC2    C114451   0.198   1.235  14.901  0.2950  0.5631  0.0257
    5TMC2    C214452   0.212   1.127  14.983  0.2539  0.1236 -0.2046
    5TMC2    C314453   0.308   1.138  15.083 -0.1896  0.3797 -0.3320
    5TMC2    C414454   0.284   1.342  14.920 -0.0770 -0.1189  0.2459
    5TMC2    C514455   0.373   1.352  15.020  0.1056  0.2535 -0.2154
    5TMC2    C614456   0.379   1.249  15.112  0.2861  0.3839 -0.6573
    5TMC2     C14457   0.067   1.282  14.876  0.7204 -0.2134  0.2960
    5TMC2     O14458   0.056   1.405  14.882 -0.2306 -0.1804  0.6728
    5TMC2     H14459   0.145   1.042  14.986 -0.3091  0.5728 -0.1098
    5TMC2    H114460   0.292   1.417  14.843  0.2263 -0.7050 -0.2966
    5TMC2    H214461   0.454   1.253  15.190  0.6679  2.6899 -1.1402
    5TMC2    C714462   0.376   1.479  15.082  0.2427 -0.4244 -0.7111
    5TMC2    C814463   0.359   1.014  15.129 -0.4549 -0.1033 -0.1780
    5TMC2    O114464   0.443   1.500  15.177 -0.0060 -0.1235 -0.2499
    5TMC2    O214465   0.288   0.923  15.167 -0.0533  0.4610  0.2315
    5TMC2    O514466   0.458   0.997  15.034 -0.2468  0.8006 -0.6824
    5TMC2    H514467   0.486   1.082  14.994  1.8338  1.6138  2.4728
    6MPD2     C14468   4.321   1.239  14.766 -0.2839 -0.2094 -0.3050
    6MPD2    C114469   4.390   1.341  14.829 -0.6284 -0.0262  0.6406
    6MPD2    C214470   4.516   1.313  14.868  0.3740 -0.0003  0.6640
    6MPD2    C314471   4.582   1.197  14.829 -0.4696  0.3789 -0.0993
    6MPD2    C414472   4.512   1.094  14.762  0.8083  0.3755  0.2125
    6MPD2    C514473   4.378   1.116  14.737  0.2075  0.9027  0.5212
    6MPD2     H14474   4.569   1.393  14.919 -1.0034 -0.4168  2.7513
    6MPD2    H114475   4.562   0.999  14.750 -1.0664 -0.5808  0.0147
    6MPD2    H214476   4.220   1.253  14.730  0.9477  2.0008 -2.9038
    6MPD2    H314477   4.338   1.038  14.672  0.2110  0.5190  0.9791
    6MPD2     N14478   4.721   1.177  14.849 -0.3415  0.1476 -0.3521
    6MPD2    H514479   0.037   1.100  14.812 -1.5883 -0.4517 -0.9178
    6MPD2    N114480   4.348   1.480  14.847 -0.5256 -0.4986  0.0846
    6MPD2    H714481   4.417   1.547  14.879  1.3728 -1.1534 -2.6998
  945NH4     N114482   1.068   2.286  14.753 -0.1962  0.1942  0.3561
  945NH4     H214483   1.129   2.337  14.686 -0.4873  0.1805  0.0832
  945NH4     H314484   1.057   2.183  14.744  0.6938 -0.0333  1.7500
  945NH4     H414485   0.972   2.318  14.729 -0.3976 -2.3481 -2.1958
  945NH4     H514486   1.088   2.303  14.854 -1.7483  1.8098  0.3917
  946SOD     NA14487   1.486   2.378  12.162  0.0255 -0.5206  0.3351
  947SOD     NA14488   4.298   2.605  13.302 -0.2525  0.3133  0.0986
  948SOD     NA14489   2.848   0.941  12.641  0.3670 -0.0211  0.0519
  949SOD     NA14490   1.450   4.042  16.570 -0.3275 -0.4219  0.2212
  950SOD     NA14491   1.645   1.671   6.552 -0.1618  0.2464  0.3630
  951SOD     NA14492   1.074   2.429  10.724  0.4037  0.5998 -0.1317
  952SOD     NA14493   3.676   2.393   1.943 -0.6537 -0.2517  0.4108
  953SOL     OW14494   4.202   1.676   5.661 -0.1125 -0.1902  0.2607
  953SOL    HW114495   4.141   1.728   5.609  0.1816  0.7015  0.8001
  953SOL    HW214496   4.137   1.620   5.703 -1.5317 -0.6901 -2.5974
  954SOL     OW14497   2.323   0.207  12.985  0.6402 -0.6796  0.1054
  954SOL    HW114498   2.376   0.286  12.984  1.6512 -1.3840 -1.2611
  954SOL    HW214499   2.285   0.212  13.073  0.2416  1.9643 -0.2283
  955SOL     OW14500   2.634   1.739   7.963  0.0330 -0.1620  0.1601
  955SOL    HW114501   2.716   1.731   7.913  0.3198 -0.8827  0.7525
  955SOL    HW214502   2.662   1.797   8.034  0.3951  2.0738 -1.7971
  956SOL     OW14503   2.465   1.023  14.374  1.0499 -0.1195 -0.2809
  956SOL    HW114504   2.395   1.060  14.427  0.1730  0.4084 -1.8006
  956SOL    HW214505   2.509   0.971  14.441 -1.2897 -0.2240  1.1445
  957SOL     OW14506   2.974   4.213   3.349 -0.6782  0.4934 -0.0931
  957SOL    HW114507   3.065   4.202   3.321 -1.0756 -0.3889 -1.0378
  957SOL    HW214508   2.922   4.169   3.281  0.7262 -1.1768 -0.0970
  958SOL     OW14509   3.610   0.736  17.671 -0.2439 -0.7193  0.1448
  958SOL    HW114510   3.514   0.729  17.664 -0.2921  0.2039 -0.1837
  958SOL    HW214511   3.611   0.822  17.714 -1.3350 -1.0243  0.7928
  959SOL     OW14512   3.216   3.230   8.488  0.6318  0.2108  0.4861
  959SOL    HW114513   3.228   3.287   8.412 -1.0329 -0.8439 -0.5812
  959SOL    HW214514   3.135   3.182   8.469  1.1315  0.1331 -1.4626
  960SOL     OW14515   2.054   0.998   8.313 -0.3300 -0.2728  0.2958
  960SOL    HW114516   2.113   0.943   8.262 -0.8501  1.8395 -2.5661
  960SOL    HW214517   1.990   1.029   8.249 -0.1150  1.2423  0.8188
  961SOL     OW14518   0.473   1.590   4.631  0.7634  0.0800 -0.5212
  961SOL    HW114519   0.478   1.653   4.559  2.3190 -0.2822 -0.7148
  961SOL    HW214520   0.386   1.607   4.666  0.1907 -0.3378 -1.7140
  962SOL     OW14521   1.421   0.260   8.798  0.1977 -0.4354 -0.3422
  962SOL    HW114522   1.506   0.273   8.840 -0.0340 -1.1770  0.3539
  962SOL    HW214523   1.370   0.341   8.803  1.3448  0.3603 -1.4051
  963SOL     OW14524   4.380   3.167   9.274 -0.4630 -0.2093 -0.7311
  963SOL    HW114525   4.437   3.227   9.321 -1.6066  1.1313 -1.0602
  963SOL    HW214526   4.308   3.154   9.335 -0.4061 -0.8219 -0.7917
  964SOL     OW14527   0.471   1.167  17.645  0.0273 -0.5965 -0.0144
  964SOL    HW114528   0.548   1.142  17.695 -0.4705  1.3837  1.6870
  964SOL    HW214529   0.401   1.113  17.683 -1.1580  0.6134 -0.4610
  965SOL     OW14530   2.691   0.405   9.048 -0.6655 -0.6105 -0.1928
  965SOL    HW114531   2.639   0.325   9.054  0.1171 -1.1208 -0.1455
  965SOL    HW214532   2.740   0.401   9.131 -3.2019 -1.7416  1.2650
  966SOL     OW14533   0.213   3.280   3.131  0.6187  0.0206  0.4036
  966SOL    HW114534   0.172   3.304   3.047 -0.8200 -1.6611  0.6275
  966SOL    HW214535   0.275   3.218   3.093  1.7307  1.3339  0.0787
  967SOL     OW14536   0.995   1.345   1.993  0.3606 -0.1173  0.3509
  967SOL    HW114537   1.037   1.431   1.994  0.6642 -0.2451 -1.6344
  967SOL    HW214538   1.060   1.287   1.954  1.2345  0.3008  1.1674
  968SOL     OW14539   2.607   1.300   0.701  0.1288  0.0191  0.7031
  968SOL    HW114540   2.532   1.312   0.759  1.2788  0.0834  2.1906
  968SOL    HW214541   2.570   1.309   0.613 -0.6596 -2.0196  0.8175
  969SOL     OW14542   1.802   2.192   5.710  0.3321 -0.3826 -0.0982
  969SOL    HW114543   1.854   2.212   5.633 -1.3110 -1.2456 -1.4474
  969SOL    HW214544   1.855   2.134   5.765 -1.6018 -1.0294  1.1017
  970SOL     OW14545   0.759   4.618   8.429 -0.8763 -0.3121  0.0006
  970SOL    HW114546   0.720   4.571   8.355 -1.8897  1.7539 -0.7690
  970SOL    HW214547   0.692   4.685   8.443 -2.1928 -2.1660  2.6709
  971SOL     OW14548   0.624   2.583   8.671  0.4194  0.1505  0.2026
  971SOL    HW114549   0.684   2.650   8.636 -1.1712  2.0270  1.0683
  971SOL    HW214550   0.633   2.600   8.765  2.1841  1.9056 -0.2703
  972SOL     OW14551   3.190   1.841   2.390  0.6152  0.8877 -0.3835
  972SOL    HW114552   3.192   1.925   2.436 -0.2471 -0.7516  2.6551
  972SOL    HW214553   3.098   1.850   2.364  0.9056  0.6264 -1.5164
  973SOL     OW14554   3.859   2.201  11.070 -0.3438 -0.2330 -0.1573
  973SOL    HW114555   3.886   2.149  10.995  2.4429  0.6254  0.2613
  973SOL    HW214556   3.903   2.145  11.134 -0.7381 -1.0380 -0.5859
  974SOL     OW14557   3.382   2.962  17.311  0.5085 -0.6025  0.1228
  974SOL    HW114558   3.402   2.966  17.218 -3.4576  2.2491 -0.5991
  974SOL    HW214559   3.397   3.050  17.345  2.1965 -0.5326 -0.8562
  975SOL     OW14560   2.402   2.628   2.754  0.4791  0.4032  0.2394
  975SOL    HW114561   2.456   2.646   2.831 -1.4373 -2.2619  2.2119
  975SOL    HW214562   2.318   2.646   2.797 -0.3179 -0.1415 -1.0799
  976SOL     OW14563   4.017   3.342   4.636 -0.2521  0.7744 -0.1941
  976SOL    HW114564   3.975   3.323   4.719  1.0256  3.5653  1.0678
  976SOL    HW214565   3.953   3.402   4.599 -0.1738  0.5689 -0.6689
  977SOL     OW14566   2.125   4.560   1.420  0.4360  0.5858  0.1096
  977SOL    HW114567   2.160   4.548   1.332 -3.1497  1.7345 -1.4866
  977SOL    HW214568   2.190   4.602   1.475 -0.5798  0.7273  1.2230
  978SOL     OW14569   4.349   3.048  15.670  0.3661 -0.1415 -0.4340
  978SOL    HW114570   4.340   2.953  15.683 -0.1559 -0.5996 -4.1484
  978SOL    HW214571   4.359   3.056  15.575  1.9816  0.0479 -0.2424
  979SOL     OW14572   1.325   0.920   8.978  0.1454  0.2680 -0.2912
  979SOL    HW114573   1.308   0.972   9.057 -2.7818  3.4501 -3.0554
  979SOL    HW214574   1.236   0.918   8.943  0.1522  0.0915 -0.2986
  980SOL     OW14575   0.109   2.324  11.526 -0.2024 -0.2583 -0.4777
  980SOL    HW114576   0.137   2.341  11.436 -0.9691  0.6861 -0.5362
  980SOL    HW214577   0.094   2.230  11.516  0.5577 -0.4023 -0.1963
  981SOL     OW14578   3.474   4.303   2.530 -0.0808 -0.0410 -0.2447
  981SOL    HW114579   3.460   4.255   2.448 -0.4192  1.4835 -1.0772
  981SOL    HW214580   3.540   4.368   2.505 -0.9493  0.8774 -0.1522
  982SOL     OW14581   1.655   1.389   2.247  0.6753 -0.2447 -0.0351
  982SOL    HW114582   1.715   1.372   2.320 -1.6716  0.4046  2.0549
  982SOL    HW214583   1.713   1.407   2.173 -3.4930  0.9964 -3.0055
  983SOL     OW14584   1.684   2.676   3.402  0.1285  0.4533 -0.4787
  983SOL    HW114585   1.677   2.586   3.435 -1.5963  0.1966 -1.5431
  983SOL    HW214586   1.744   2.666   3.327  1.4406 -0.6189  0.7018
  984SOL     OW14587   2.835   3.919   4.745 -0.1963 -0.1038 -0.7247
  984SOL    HW114588   2.856   3.922   4.838 -0.8404  0.7468 -0.6130
  984SOL    HW214589   2.915   3.882   4.706 -0.7582 -0.8883 -1.1321
  985SOL     OW14590   1.023   1.279   6.860  0.1897  0.2497  0.7570
  985SOL    HW114591   1.104   1.314   6.822  0.6573  0.2972  1.7720
  985SOL    HW214592   1.027   1.326   6.944 -2.2835 -0.1183  1.0741
  986SOL     OW14593   1.031   4.001   8.518 -0.1237 -0.2834 -0.1747
  986SOL    HW114594   0.977   3.927   8.492 -0.9217  0.3835 -0.3869
  986SOL    HW214595   1.107   3.988   8.461 -0.3862  0.3750 -0.6602
  987SOL     OW14596   1.321   1.447  11.570 -0.2368  0.5353  0.6822
  987SOL    HW114597   1.353   1.511  11.633 -1.3652  0.9566  0.8253
  987SOL    HW214598   1.280   1.374  11.615 -1.1307 -0.2718 -1.4129
  988SOL     OW14599   0.623   0.907   7.565  0.1741 -0.2778 -0.3095
  988SOL    HW114600   0.547   0.862   7.528  0.3726 -1.7347  1.0887
  988SOL    HW214601   0.640   0.847   7.638 -1.9754  1.8403  1.9268
  989SOL     OW14602   1.116   3.714   8.858 -0.5307 -0.3771 -0.2118
  989SOL    HW114603   1.148   3.780   8.796  0.9382  0.6030  1.5835
  989SOL    HW214604   1.153   3.641   8.808 -1.8798 -0.7902 -0.6194
  990SOL     OW14605   2.199   2.309   4.693 -0.4136  0.2483 -0.1544
  990SOL    HW114606   2.234   2.361   4.766  0.5115 -1.0866  0.3575
  990SOL    HW214607   2.110   2.342   4.683 -0.1152  0.5120 -1.9763
  991SOL     OW14608   4.580   3.969   7.451 -0.2231 -0.0879 -0.1591
  991SOL    HW114609   4.499   3.955   7.402 -0.2120  0.3968 -0.3125
  991SOL    HW214610   4.640   3.990   7.379  0.1508 -0.7516 -0.0471
  992SOL     OW14611   0.718   4.588  11.797  0.8440  0.2808 -0.0136
  992SOL    HW114612   0.691   4.609  11.708 -0.1091  0.5397  0.3382
  992SOL    HW214613   0.790   4.650  11.808  1.4755 -0.7071  1.3632
  993SOL     OW14614   3.371   3.953   2.536  0.0462  0.4965 -0.4474
  993SOL    HW114615   3.292   3.938   2.588  1.5026  1.6770  2.0721
  993SOL    HW214616   3.336   4.004   2.463  0.8435 -0.1044 -1.2485
  994SOL     OW14617   0.146   0.666   8.431 -0.2657  0.5365 -0.9212
  994SOL    HW114618   0.199   0.599   8.473  1.8642  2.1321 -1.0739
  994SOL    HW214619   0.058   0.633   8.449 -0.3425 -0.3487 -2.8992
  995SOL     OW14620   4.263   1.423  12.400 -0.7093 -1.0097  0.5537
  995SOL    HW114621   4.344   1.417  12.450 -1.0534  1.8614  1.4359
  995SOL    HW214622   4.287   1.403  12.309  0.8074 -0.9621  0.9377
  996SOL     OW14623   0.465   0.195   4.824 -0.3023  0.4093 -0.4589
  996SOL    HW114624   0.463   0.197   4.919  1.6021 -1.8849 -0.3636
  996SOL    HW214625   0.526   0.123   4.810 -1.6815 -0.6488 -1.1043
  997SOL     OW14626   0.200   1.328   2.099 -0.4662 -0.3756  0.3241
  997SOL    HW114627   0.185   1.373   2.182  0.7121  0.6723 -0.0459
  997SOL    HW214628   0.292   1.306   2.108 -0.6984 -0.5214  2.1817
  998SOL     OW14629   3.864   2.556   9.753 -0.0574 -0.6363 -0.5020
  998SOL    HW114630   3.819   2.472   9.748 -0.0691 -0.7116  0.8662
  998SOL    HW214631   3.946   2.529   9.794 -1.0871 -0.6784  1.5207
  999SOL     OW14632   0.684   1.446  13.682 -0.0742  0.0822  0.4638
  999SOL    HW114633   0.772   1.428  13.713  0.4670 -0.2765 -1.2835
  999SOL    HW214634   0.664   1.366  13.634 -1.6110  0.4712  0.4505
 1000SOL     OW14635   1.385   2.827   8.378 -0.3712  0.5802 -0.1035
 1000SOL    HW114636   1.433   2.805   8.298  0.3908  0.1103  0.4812
 1000SOL    HW214637   1.341   2.909   8.353 -0.1951  0.3638 -1.1004
 1001SOL     OW14638   0.433   2.707  13.120  0.2541  0.0613 -0.5453
 1001SOL    HW114639   0.521   2.713  13.157 -0.1977 -0.7908  0.6556
 1001SOL    HW214640   0.438   2.615  13.096  2.4497  0.0965 -0.1988
 1002SOL     OW14641   0.442   4.148   9.044 -0.5785  0.0238  0.5841
 1002SOL    HW114642   0.385   4.212   9.085 -1.9653 -0.5705 -0.4282
 1002SOL    HW214643   0.526   4.188   9.069  0.0156 -1.2648  0.6520
 1003SOL     OW14644   1.197   2.111  16.039  0.3113  0.1373  0.0799
 1003SOL    HW114645   1.177   2.044  16.104  1.4673  0.6614  0.9716
 1003SOL    HW214646   1.120   2.169  16.034  0.8028  0.6590 -1.3538
 1004SOL     OW14647   1.522   2.360  12.378  0.2116  0.0148  0.1709
 1004SOL    HW114648   1.610   2.340  12.411 -0.0294  2.5392  2.3046
 1004SOL    HW214649   1.482   2.406  12.451  1.4736 -1.5713  1.8535
 1005SOL     OW14650   4.072   4.220   7.016  0.2370 -0.0393 -0.0331
 1005SOL    HW114651   3.995   4.248   7.066  1.3538  1.3758  0.8897
 1005SOL    HW214652   4.149   4.232   7.073  0.5855 -1.1990 -0.2700
 1006SOL     OW14653   0.290   0.863   5.588 -0.3606  0.5113 -0.0147
 1006SOL    HW114654   0.295   0.889   5.680  1.2034 -0.2152  0.1092
 1006SOL    HW214655   0.374   0.887   5.549  0.3130  0.1110  1.2130
 1007SOL     OW14656   4.196   2.766   6.777  0.6503  0.0700 -0.3601
 1007SOL    HW114657   4.213   2.781   6.684 -1.0060 -0.3323 -0.7182
 1007SOL    HW214658   4.250   2.691   6.799  2.0916  1.1060 -0.3325
 1008SOL     OW14659   3.230   0.623  15.971 -0.2918 -0.3124 -0.4791
 1008SOL    HW114660   3.243   0.679  15.894 -0.3780 -0.4422 -0.5894
 1008SOL    HW214661   3.162   0.566  15.934 -3.2821  1.0718  2.8773
 1009SOL     OW14662   1.262   1.188   4.166 -0.1512 -0.4794 -0.2252
 1009SOL    HW114663   1.216   1.192   4.082 -1.0956  1.7315  0.3981
 1009SOL    HW214664   1.197   1.127   4.202 -1.9351  0.6445 -1.4850
 1010SOL     OW14665   4.420   2.720   3.189 -0.2714 -0.0177 -0.4674
 1010SOL    HW114666   4.425   2.730   3.284 -0.3917  0.9120 -0.5518
 1010SOL    HW214667   4.479   2.646   3.175 -0.1336 -0.1655  0.8452
 1011SOL     OW14668   1.970   2.374  15.582 -0.1177  0.2661  0.7436
 1011SOL    HW114669   2.025   2.451  15.597  1.8607 -1.2023  1.0530
 1011SOL    HW214670   1.925   2.374  15.666 -2.1371 -0.8739 -0.3285
 1012SOL     OW14671   3.912   4.712   9.222 -0.2761  0.7810  0.2100
 1012SOL    HW114672   3.989   0.030   9.209  0.6887 -0.3134  1.2389
 1012SOL    HW214673   3.888   0.002   9.310  3.1665 -0.3234  1.5025
 1013SOL     OW14674   0.227   4.440   2.618 -0.3453 -0.2109 -0.3279
 1013SOL    HW114675   0.254   4.371   2.557 -2.7114 -0.2817 -1.3049
 1013SOL    HW214676   0.305   4.492   2.603 -1.8874  2.2611  0.2212
 1014SOL     OW14677   3.993   2.987   4.087  0.1264  0.0661 -0.0592
 1014SOL    HW114678   3.951   2.945   4.162 -0.9574  0.6273 -0.3513
 1014SOL    HW214679   4.033   2.912   4.044  1.5430  1.3070 -0.8816
 1015SOL     OW14680   2.807   3.260  15.931 -0.4580  0.2519  0.0988
 1015SOL    HW114681   2.787   3.314  16.007 -1.6378  1.8729 -1.3537
 1015SOL    HW214682   2.810   3.335  15.871 -2.2392  0.0367 -0.2848
 1016SOL     OW14683   1.683   0.352   8.935  1.1806  0.0375 -0.2286
 1016SOL    HW114684   1.773   0.348   8.967  1.7937  2.1366 -1.7245
 1016SOL    HW214685   1.641   0.406   9.002 -0.0834  1.5496 -2.2576
 1017SOL     OW14686   3.008   1.576  16.186 -0.1520 -0.5336 -0.1160
 1017SOL    HW114687   3.040   1.625  16.109 -1.0435 -0.7512 -0.6220
 1017SOL    HW214688   2.979   1.490  16.159  1.3286 -0.7702 -0.9686
 1018SOL     OW14689   2.940   0.000   9.500 -0.1088 -0.4576 -0.1705
 1018SOL    HW114690   2.891   0.083   9.504  0.6000 -0.1360  1.5870
 1018SOL    HW214691   3.030   0.029   9.487  0.1817 -1.5517 -0.6162
 1019SOL     OW14692   4.540   1.375   7.204 -0.0345  0.4055  0.2771
 1019SOL    HW114693   4.534   1.403   7.295  0.8752 -0.8022  0.6975
 1019SOL    HW214694   4.464   1.318   7.190  0.9076 -0.2806 -2.1385
 1020SOL     OW14695   4.113   0.951   8.801  0.5181 -0.3117 -0.2812
 1020SOL    HW114696   4.088   1.031   8.847 -0.4800 -1.0368  0.4332
 1020SOL    HW214697   4.072   0.885   8.857  0.7370 -1.1155 -1.0761
 1021SOL     OW14698   2.029   3.174   7.793 -0.1075 -0.0648 -0.7347
 1021SOL    HW114699   2.071   3.145   7.875  1.0202  2.0240 -0.5604
 1021SOL    HW214700   1.993   3.092   7.760 -1.5311 -0.5949  2.0618
 1022SOL     OW14701   1.947   1.213   9.043  0.2979  0.0376 -0.7983
 1022SOL    HW114702   1.915   1.256   8.964 -0.3746  0.7974 -0.1100
 1022SOL    HW214703   1.873   1.157   9.065  1.0744 -0.8857 -0.5433
 1023SOL     OW14704   1.360   4.668   9.145  0.0566 -0.6349  0.0468
 1023SOL    HW114705   1.291   4.734   9.142  0.3818 -0.2460  0.9849
 1023SOL    HW214706   1.318   4.594   9.101 -0.4382  0.7732 -1.8529
 1024SOL     OW14707   0.376   2.457   8.075 -0.6615 -0.2839  0.0831
 1024SOL    HW114708   0.387   2.382   8.134 -0.0142 -1.3959 -1.4398
 1024SOL    HW214709   0.280   2.464   8.074 -0.4586  2.4547  0.7032
 1025SOL     OW14710   1.334   0.084  10.504  0.0307  0.1327 -1.1847
 1025SOL    HW114711   1.398   0.057  10.570  1.0853 -1.0530 -2.6846
 1025SOL    HW214712   1.304   4.733  10.487  1.6577 -0.5324 -0.5987
 1026SOL     OW14713   4.219   3.455   1.773  0.6772  0.2390  0.1581
 1026SOL    HW114714   4.292   3.434   1.831  0.8961 -2.5266 -1.1182
 1026SOL    HW214715   4.257   3.494   1.694 -0.9581  2.4999  0.4828
 1027SOL     OW14716   4.204   0.725   1.543  0.6761 -0.4743  0.2172
 1027SOL    HW114717   4.286   0.773   1.532  0.4147 -0.1207 -0.2275
 1027SOL    HW214718   4.167   0.766   1.621 -2.5199  0.4188 -1.7520
 1028SOL     OW14719   0.391   2.375   7.483  0.2714 -0.0283 -0.4477
 1028SOL    HW114720   0.368   2.412   7.569 -0.8211 -0.7806 -0.4105
 1028SOL    HW214721   0.415   2.285   7.506 -1.1648 -0.4295 -0.5135
 1029SOL     OW14722   0.195   1.387   9.054  0.2504 -0.3285 -0.0995
 1029SOL    HW114723   0.234   1.459   9.104 -1.5090  1.2644 -1.0418
 1029SOL    HW214724   0.118   1.362   9.105  0.3587  0.1800  0.3150
 1030SOL     OW14725   3.562   3.410   5.386  0.1173 -0.2708  0.4564
 1030SOL    HW114726   3.533   3.491   5.344 -0.2159 -1.7126 -2.1042
 1030SOL    HW214727   3.528   3.343   5.326 -1.0260  1.1344 -0.4584
 1031SOL     OW14728   0.910   3.078   4.775 -0.1691  0.0309 -0.1398
 1031SOL    HW114729   0.859   3.153   4.805 -1.5177 -1.1369  0.5389
 1031SOL    HW214730   0.844   3.035   4.721 -0.1239  0.0422 -0.2030
 1032SOL     OW14731   0.945   4.650   7.033 -0.0583  0.3503  0.3025
 1032SOL    HW114732   1.032   4.664   7.069 -0.4112 -1.0212  1.6842
 1032SOL    HW214733   0.933   4.556   7.050 -0.4701  0.3543  0.0436
 1033SOL     OW14734   4.356   2.133   2.449 -0.4650  0.2597  0.2375
 1033SOL    HW114735   4.336   2.221   2.481 -0.7589 -0.1024  1.0531
 1033SOL    HW214736   4.368   2.152   2.356 -1.2275  2.8547  0.6659
 1034SOL     OW14737   1.513   1.131   4.268  0.0237  0.1741  0.9047
 1034SOL    HW114738   1.524   1.042   4.235  0.3768  0.5032  0.1393
 1034SOL    HW214739   1.443   1.163   4.211  0.2459 -0.4097  0.2987
 1035SOL     OW14740   0.955   1.778   4.755 -0.0568  0.0693  0.9663
 1035SOL    HW114741   0.911   1.806   4.836 -1.2618 -0.0724  0.3607
 1035SOL    HW214742   0.983   1.693   4.790  0.3228 -1.9628 -4.3637
 1036SOL     OW14743   1.240   4.177   9.179 -0.0213  0.4206 -0.4017
 1036SOL    HW114744   1.236   4.227   9.261  0.5773 -1.4251  0.7631
 1036SOL    HW214745   1.148   4.150   9.184  0.1981 -0.3318 -0.3925
 1037SOL     OW14746   4.430   3.913   8.886 -0.1192 -0.0706 -0.1065
 1037SOL    HW114747   4.471   3.835   8.849 -1.8989 -1.5703  1.0711
 1037SOL    HW214748   4.374   3.871   8.952  1.9217 -0.4924  1.3698
 1038SOL     OW14749   3.753   1.812   8.291  0.3805 -0.2035 -0.4770
 1038SOL    HW114750   3.674   1.763   8.269  0.3785 -0.8368  0.9135
 1038SOL    HW214751   3.798   1.764   8.362 -2.0447 -1.6419  0.0828
 1039SOL     OW14752   1.790   2.657   3.997 -0.2741  0.4132  0.0862
 1039SOL    HW114753   1.707   2.633   4.037  0.2720 -1.8194 -0.1095
 1039SOL    HW214754   1.852   2.608   4.052  1.6810  0.2885 -2.1835
 1040SOL     OW14755   2.853   0.343   9.267 -0.1589 -0.4529 -0.4293
 1040SOL    HW114756   2.929   0.339   9.208 -0.7127  0.9009 -1.2279
 1040SOL    HW214757   2.873   0.271   9.327  0.9556 -1.6659 -2.2087
 1041SOL     OW14758   2.108   0.430   2.422  0.1760  0.6529  0.5593
 1041SOL    HW114759   2.056   0.496   2.468 -1.5119 -1.2661  1.4167
 1041SOL    HW214760   2.171   0.477   2.368 -0.7478 -0.7795 -1.7800
 1042SOL     OW14761   2.423   3.405   2.030 -0.1727  0.0631  0.6080
 1042SOL    HW114762   2.486   3.459   2.078  2.1987 -0.5430 -1.8345
 1042SOL    HW214763   2.428   3.316   2.067  1.2084 -0.2560 -0.3464
 1043SOL     OW14764   4.720   1.223  12.575 -0.0126 -0.0941  0.5910
 1043SOL    HW114765   4.639   1.271  12.591 -0.3752 -0.5909  0.2648
 1043SOL    HW214766   4.719   1.202  12.481  0.2470  2.3217  0.0374
 1044SOL     OW14767   0.671   2.502   2.109 -0.9977 -0.4988  0.0757
 1044SOL    HW114768   0.639   2.556   2.037  1.3226 -0.5423 -0.9826
 1044SOL    HW214769   0.761   2.492   2.078 -0.7509  1.7725  0.0538
 1045SOL     OW14770   1.933   0.748  11.718 -0.5622 -0.0839  0.4007
 1045SOL    HW114771   1.840   0.759  11.702 -0.1043  1.3688 -1.2528
 1045SOL    HW214772   1.916   0.719  11.807 -1.1998 -1.2943 -0.1192
 1046SOL     OW14773   1.577   4.553  14.230  0.2310  0.3405 -0.0400
 1046SOL    HW114774   1.614   4.640  14.216 -0.2606  1.1269  3.5294
 1046SOL    HW214775   1.625   4.510  14.159  0.7710 -0.7281  0.9716
 1047SOL     OW14776   2.406   3.732   9.859  0.1104 -0.7200 -0.2642
 1047SOL    HW114777   2.423   3.639   9.844  0.9858 -0.6212  0.1007
 1047SOL    HW214778   2.424   3.766   9.772 -1.2701 -0.9059 -0.6160
 1048SOL     OW14779   4.280   3.032   9.022  0.5236 -0.0607 -0.2320
 1048SOL    HW114780   4.306   2.993   9.105 -1.0628  0.3228  0.4327
 1048SOL    HW214781   4.354   3.081   8.985  0.4182 -0.3405 -0.8196
 1049SOL     OW14782   3.629   3.030  10.240  0.0133 -0.0901 -0.4223
 1049SOL    HW114783   3.584   3.083  10.306  1.2551  0.4860 -0.0400
 1049SOL    HW214784   3.701   3.088  10.215  0.1550 -0.0250  0.1349
 1050SOL     OW14785   3.445   4.308  13.788  0.5856  0.4468  0.0930
 1050SOL    HW114786   3.357   4.341  13.806  0.2586  0.9449 -2.4847
 1050SOL    HW214787   3.431   4.223  13.746  1.1666 -0.6814  2.1819
 1051SOL     OW14788   2.152   1.474   6.434 -0.2164  0.1607  0.5802
 1051SOL    HW114789   2.160   1.509   6.523 -1.3824 -0.0271  0.7555
 1051SOL    HW214790   2.247   1.473   6.421 -0.0574  0.7822  1.6835
 1052SOL     OW14791   3.146   3.193  14.431  0.4106 -0.0327 -0.1517
 1052SOL    HW114792   3.151   3.132  14.357  0.5565  0.3041 -0.4226
 1052SOL    HW214793   3.236   3.226  14.425  0.0544  0.5413 -2.3470
 1053SOL     OW14794   1.097   0.555   7.472 -0.4758  0.2351  0.0024
 1053SOL    HW114795   1.024   0.538   7.412 -1.5924  0.7623  1.2188
 1053SOL    HW214796   1.060   0.555   7.560  2.1766 -0.2011  1.1102
 1054SOL     OW14797   1.369   4.163   8.612  0.1798  0.4429  0.2976
 1054SOL    HW114798   1.457   4.126   8.609  0.4718  1.1630 -0.1102
 1054SOL    HW214799   1.339   4.138   8.699  0.1802  2.5644  0.9136
 1055SOL     OW14800   4.003   1.018   7.149  0.1141 -0.2966  0.3139
 1055SOL    HW114801   4.085   0.969   7.142  2.4134  3.3390  1.4039
 1055SOL    HW214802   3.998   1.068   7.067 -0.7895  2.4027  2.0152
 1056SOL     OW14803   0.676   3.009  16.114  0.1410 -0.6050  0.2366
 1056SOL    HW114804   0.628   3.046  16.189 -0.9625 -3.5377  0.9892
 1056SOL    HW214805   0.610   2.962  16.063  1.1502  0.2723 -1.8667
 1057SOL     OW14806   4.535   4.028   7.740  0.0969  0.0528 -0.2771
 1057SOL    HW114807   4.608   3.986   7.785 -0.2016 -0.4454 -0.2645
 1057SOL    HW214808   4.540   4.000   7.648 -0.4491 -2.6780  0.5570
 1058SOL     OW14809   4.388   2.164   6.748  0.5085  0.2649  0.3263
 1058SOL    HW114810   4.391   2.163   6.843 -2.0975 -1.1578  0.4003
 1058SOL    HW214811   4.451   2.097   6.720 -0.5025 -0.5283 -0.0462
 1059SOL     OW14812   3.513   4.110   7.330 -0.5165 -0.1237 -0.2547
 1059SOL    HW114813   3.500   4.126   7.236 -0.8997  1.5178  0.0710
 1059SOL    HW214814   3.458   4.033   7.345 -0.5366 -0.4092 -1.7871
 1060SOL     OW14815   1.531   0.678   4.403  0.6459 -0.2043 -0.0669
 1060SOL    HW114816   1.501   0.754   4.353  0.5296  0.5203  1.0976
 1060SOL    HW214817   1.448   0.640   4.429  0.7825 -0.7322 -0.3976
 1061SOL     OW14818   3.153   0.657   5.249 -0.2976 -0.1437 -0.0885
 1061SOL    HW114819   3.233   0.648   5.197  1.1899  1.9077  1.8654
 1061SOL    HW214820   3.097   0.689   5.179  0.4076  1.1387 -0.0548
 1062SOL     OW14821   1.428   3.285   4.431 -0.8743 -0.4181  0.6139
 1062SOL    HW114822   1.455   3.338   4.355  1.0707 -0.9002  0.9707
 1062SOL    HW214823   1.380   3.348   4.484  1.0797 -0.6550  2.6654
 1063SOL     OW14824   3.161   4.164   7.157  0.4787 -0.5794  0.0434
 1063SOL    HW114825   3.185   4.072   7.143  0.2882 -0.9421  2.1578
 1063SOL    HW214826   3.130   4.191   7.071 -0.2138  3.6244  1.6503
 1064SOL     OW14827   2.165   1.564   6.708  0.0551 -0.6443  0.0322
 1064SOL    HW114828   2.124   1.628   6.765 -0.5510 -0.9347 -0.0761
 1064SOL    HW214829   2.245   1.548   6.758  0.8785  1.7190 -0.5507
 1065SOL     OW14830   3.679   4.695   4.832 -0.4207 -0.1700  0.1959
 1065SOL    HW114831   3.633   4.716   4.914 -2.5576 -3.1100 -0.2449
 1065SOL    HW214832   3.664   0.038   4.783  1.9903  1.2838  1.8471
 1066SOL     OW14833   3.452   4.463   3.082  0.2299  0.2718 -0.5542
 1066SOL    HW114834   3.425   4.371   3.075  2.1101 -0.3203  0.0224
 1066SOL    HW214835   3.517   4.479   3.013  0.0621  2.2926 -0.2574
 1067SOL     OW14836   1.016   1.640   1.394 -0.2776 -0.3242 -0.6857
 1067SOL    HW114837   0.983   1.650   1.483 -2.5320  3.1584 -1.9186
 1067SOL    HW214838   0.974   1.565   1.352  1.2078 -0.5899 -1.7142
 1068SOL     OW14839   2.451   3.994   8.474  0.3579  0.0644  0.1777
 1068SOL    HW114840   2.385   3.928   8.450  0.2365 -0.3713  1.6982
 1068SOL    HW214841   2.458   3.982   8.569  1.2580  0.5079  0.1687
 1069SOL     OW14842   2.036   0.939   4.291 -0.5076 -0.2581  0.4850
 1069SOL    HW114843   2.002   1.027   4.273 -1.4221 -0.5839  0.6072
 1069SOL    HW214844   1.977   0.913   4.362 -1.1462 -0.3824 -0.0922
 1070SOL     OW14845   4.561   0.809   5.948  0.0777  0.0259 -0.1858
 1070SOL    HW114846   4.589   0.866   6.020 -1.6753 -0.1724  0.6665
 1070SOL    HW214847   4.473   0.798   5.984  0.0646 -0.9249 -0.5186
 1071SOL     OW14848   2.000   2.296   0.821  0.2296 -0.3055  0.6863
 1071SOL    HW114849   1.918   2.273   0.777  0.3927  0.5454 -0.0686
 1071SOL    HW214850   2.002   2.391   0.825 -1.7546 -0.2471  0.4307
 1072SOL     OW14851   0.135   4.441   9.392 -0.1428  0.2161 -0.0329
 1072SOL    HW114852   0.082   4.465   9.468  0.3929  1.3080 -0.0203
 1072SOL    HW214853   0.070   4.472   9.328  2.1148  1.7955 -1.5310
 1073SOL     OW14854   4.552   3.876   2.613  0.0706  0.3021  0.1693
 1073SOL    HW114855   4.517   3.928   2.541  1.2463 -0.8354 -1.2375
 1073SOL    HW214856   4.605   3.824   2.552 -0.9179 -4.0336  2.9727
 1074SOL     OW14857   4.264   2.898   1.687 -0.7663  0.1676  0.0801
 1074SOL    HW114858   4.252   2.803   1.693  0.5012 -0.0394 -0.7360
 1074SOL    HW214859   4.203   2.934   1.752  0.6653 -1.5248  2.3587
 1075SOL     OW14860   2.446   2.048   2.646  0.6399  0.5038  0.0673
 1075SOL    HW114861   2.520   2.107   2.662 -0.4048  1.8097  0.0430
 1075SOL    HW214862   2.380   2.118   2.644  0.7022  0.5483 -0.3646
 1076SOL     OW14863   2.287   4.225  16.761 -0.0325  0.2015 -1.1100
 1076SOL    HW114864   2.355   4.184  16.707  2.2697  0.7077  1.3759
 1076SOL    HW214865   2.311   4.187  16.845 -2.2554  1.4480  0.0981
 1077SOL     OW14866   4.358   1.586  13.331 -0.6353 -0.0150 -0.6073
 1077SOL    HW114867   4.326   1.508  13.285 -0.5452 -0.1786 -0.3924
 1077SOL    HW214868   4.449   1.581  13.302 -1.1254 -0.5764 -2.0545
 1078SOL     OW14869   3.232   1.227   5.622 -0.0349  0.0212  0.1676
 1078SOL    HW114870   3.316   1.248   5.582 -1.0493  2.0094 -0.9434
 1078SOL    HW214871   3.204   1.310   5.662  1.7084  0.5701  0.2540
 1079SOL     OW14872   0.981   4.082   5.196  0.3163  0.6879 -0.0323
 1079SOL    HW114873   0.938   4.111   5.276  0.9063  0.4369  0.3758
 1079SOL    HW214874   1.071   4.075   5.228  0.3344 -1.1879 -0.4729
 1080SOL     OW14875   0.568   2.072   5.797 -0.1721 -0.0773 -0.0902
 1080SOL    HW114876   0.479   2.091   5.768  0.5498  3.3642 -0.0564
 1080SOL    HW214877   0.590   2.138   5.863  0.0516 -1.6485  1.4019
 1081SOL     OW14878   3.851   4.405   4.634  0.0330 -0.3631  0.4813
 1081SOL    HW114879   3.800   4.408   4.715 -0.1255  0.0860  0.3639
 1081SOL    HW214880   3.887   4.493   4.636 -2.3202  0.6367 -0.7928
 1082SOL     OW14881   0.407   2.803   6.654  0.3644 -0.3153  0.4010
 1082SOL    HW114882   0.463   2.819   6.730  1.0776 -0.6980 -0.0383
 1082SOL    HW214883   0.424   2.710   6.640 -3.3587 -0.4512 -3.1307
 1083SOL     OW14884   2.887   3.565   3.737  0.9082 -0.2086  0.4324
 1083SOL    HW114885   2.962   3.509   3.716  0.7576  0.1746 -1.1787
 1083SOL    HW214886   2.918   3.647   3.699 -0.2532  0.1195  0.1995
 1084SOL     OW14887   1.004   0.252   1.891  0.0130 -0.3895  0.4371
 1084SOL    HW114888   0.925   0.305   1.884 -0.6326 -1.6477 -2.0385
 1084SOL    HW214889   1.014   0.234   1.984  1.3635  0.4004  0.4442
 1085SOL     OW14890   2.861   3.243   9.743  0.0043  0.4929  0.2526
 1085SOL    HW114891   2.937   3.225   9.689  0.6654 -0.3768  1.4712
 1085SOL    HW214892   2.862   3.338   9.731  4.5058  0.3802 -0.1486
 1086SOL     OW14893   0.774   4.595   4.136 -0.4857  0.4650 -0.6855
 1086SOL    HW114894   0.744   4.505   4.121  2.2961 -0.4833 -0.6508
 1086SOL    HW214895   0.732   4.614   4.219  0.7705  0.6995 -0.0961
 1087SOL     OW14896   0.328   2.410  14.160  0.4034 -0.0789  0.3695
 1087SOL    HW114897   0.348   2.491  14.114 -0.5482  0.1758  0.4190
 1087SOL    HW214898   0.400   2.408  14.224  0.0899 -2.0734  0.6829
 1088SOL     OW14899   3.546   1.662   8.245  0.0194 -0.0261 -0.2764
 1088SOL    HW114900   3.463   1.615   8.254 -0.2129  0.6139  0.9884
 1088SOL    HW214901   3.595   1.598   8.193  0.7051 -0.5533  1.0313
 1089SOL     OW14902   1.671   3.704   4.340  0.1013 -0.2034  0.0861
 1089SOL    HW114903   1.734   3.734   4.405 -1.3024  0.4606  1.1443
 1089SOL    HW214904   1.597   3.752   4.377 -1.4922 -2.3854 -0.2698
 1090SOL     OW14905   2.437   2.076   1.530 -0.0378 -0.0079 -0.0384
 1090SOL    HW114906   2.370   2.059   1.464  0.5878 -2.5333 -0.0074
 1090SOL    HW214907   2.388   2.043   1.605 -0.6174 -1.3219 -0.9915
 1091SOL     OW14908   2.055   3.092   2.908  0.2629  0.5797 -0.3984
 1091SOL    HW114909   2.047   3.077   2.814  0.2187 -1.8014 -0.0098
 1091SOL    HW214910   1.987   3.036   2.945  0.4000  0.4555 -0.3359
 1092SOL     OW14911   2.232   2.997   2.086  0.1151 -0.1841  0.2081
 1092SOL    HW114912   2.156   2.988   2.027  1.6762  1.0378 -1.9548
 1092SOL    HW214913   2.206   2.947   2.164 -0.9783 -0.1910 -0.1512
 1093SOL     OW14914   1.353   3.809   4.056 -0.0884  0.2737 -0.2179
 1093SOL    HW114915   1.395   3.729   4.088 -0.8908  0.4514  1.2563
 1093SOL    HW214916   1.400   3.822   3.973 -0.6757  0.6566 -0.4937
 1094SOL     OW14917   0.440   0.063   7.504  0.4177 -0.0300 -0.3455
 1094SOL    HW114918   0.361   0.074   7.452 -1.3725  1.5485  2.7031
 1094SOL    HW214919   0.490   0.015   7.438  0.6518 -0.1509 -0.0819
 1095SOL     OW14920   1.776   4.327   8.222  0.1738  0.7942  0.3514
 1095SOL    HW114921   1.733   4.356   8.142  2.1023 -0.6916 -1.2055
 1095SOL    HW214922   1.860   4.373   8.224  0.3658  0.4486 -0.0446
 1096SOL     OW14923   0.331   4.582   5.799 -0.4225  0.3218 -0.5502
 1096SOL    HW114924   0.274   4.641   5.750  0.0996  0.6638 -0.7459
 1096SOL    HW214925   0.325   4.612   5.890 -0.8331  0.1380 -0.5180
 1097SOL     OW14926   4.631   0.265  16.770 -0.1573  0.4772  0.0001
 1097SOL    HW114927   4.571   0.326  16.813 -1.3193 -0.6285 -0.0553
 1097SOL    HW214928   4.596   0.180  16.793  4.5358 -1.3693  0.3063
 1098SOL     OW14929   1.949   0.741   3.548 -0.0313 -0.3746  0.0327
 1098SOL    HW114930   1.972   0.827   3.583 -0.5021 -1.9953  4.3889
 1098SOL    HW214931   1.861   0.735   3.584  1.3429 -1.6764  3.2822
 1099SOL     OW14932   3.581   4.041  10.640  0.2998 -0.2078 -0.2387
 1099SOL    HW114933   3.583   4.040  10.735 -0.2371 -0.5861 -0.2351
 1099SOL    HW214934   3.623   3.956  10.622 -2.7989 -1.6977 -0.4332
 1100SOL     OW14935   3.336   4.611   8.295 -0.0995  0.0805  0.2581
 1100SOL    HW114936   3.301   4.700   8.307 -1.0501  0.2091 -3.4164
 1100SOL    HW214937   3.366   4.615   8.204  0.8864 -0.4126  0.5667
 1101SOL     OW14938   4.183   0.596  16.056  0.0837  0.1967  0.0100
 1101SOL    HW114939   4.146   0.674  16.016  2.5857  0.7939 -1.1494
 1101SOL    HW214940   4.127   0.521  16.073 -0.7565  0.7341 -0.4139
 1102SOL     OW14941   2.225   3.872   6.079  0.2142 -0.2911  0.0929
 1102SOL    HW114942   2.147   3.917   6.048 -0.0451 -0.5799  0.3286
 1102SOL    HW214943   2.206   3.789   6.035  2.3375  0.6195 -2.5699
 1103SOL     OW14944   0.356   4.523   4.538 -0.3656  0.2385 -0.0225
 1103SOL    HW114945   0.295   4.505   4.609  0.0821  0.5046  0.4321
 1103SOL    HW214946   0.432   4.472   4.568  0.0323  0.4901 -0.5914
 1104SOL     OW14947   1.818   2.406   5.945  0.5347  0.3695 -0.2603
 1104SOL    HW114948   1.748   2.442   5.999  0.5320 -0.7823  0.5037
 1104SOL    HW214949   1.794   2.314   5.939 -2.8769  1.3262 -1.0177
 1105SOL     OW14950   1.633   3.845  14.539 -0.8542  0.1698  0.0307
 1105SOL    HW114951   1.564   3.899  14.577 -2.7865 -2.2931  0.0343
 1105SOL    HW214952   1.683   3.920  14.507  0.9366 -0.7081  0.7616
 1106SOL     OW14953   0.380   0.996   6.560 -0.5325 -0.2816 -0.2180
 1106SOL    HW114954   0.425   1.024   6.481  1.1335 -2.8230 -0.1549
 1106SOL    HW214955   0.365   0.902   6.552  0.7475 -0.2860 -2.2868
 1107SOL     OW14956   2.865   2.200   6.089 -0.0991  0.3534  0.2498
 1107SOL    HW114957   2.821   2.269   6.039 -4.0002 -1.8919  0.5458
 1107SOL    HW214958   2.898   2.244   6.167  0.4320 -0.4805  0.5025
 1108SOL     OW14959   4.200   3.598   0.533 -0.1064 -0.0837 -0.7533
 1108SOL    HW114960   4.261   3.545   0.584 -2.2104 -1.1737  0.6590
 1108SOL    HW214961   4.252   3.679   0.533  0.8518 -0.7023 -1.7341
 1109SOL     OW14962   0.849   0.773  15.886  0.0686 -0.7083  0.4307
 1109SOL    HW114963   0.778   0.797  15.946  0.4261 -0.0053  0.5642
 1109SOL    HW214964   0.921   0.747  15.944  0.3202  0.3952  0.6100
 1110SOL     OW14965   2.349   1.886  10.685 -0.0072 -0.1455  0.5016
 1110SOL    HW114966   2.336   1.854  10.595 -1.4229 -2.0226  1.3820
 1110SOL    HW214967   2.277   1.843  10.731  1.5107  0.4549  3.4021
 1111SOL     OW14968   3.299   4.137   7.851  0.1408 -0.1380  0.9299
 1111SOL    HW114969   3.375   4.194   7.843  0.1444 -0.2962 -0.0951
 1111SOL    HW214970   3.250   4.173   7.925 -1.8703  0.2487 -0.6031
 1112SOL     OW14971   3.275   2.105   4.476 -0.6376 -0.0783 -0.2028
 1112SOL    HW114972   3.231   2.188   4.454  1.6449  1.3140  0.4632
 1112SOL    HW214973   3.334   2.150   4.537 -1.4361 -0.7174  1.0379
 1113SOL     OW14974   3.913   0.070  17.174  0.1145  0.4070 -0.0913
 1113SOL    HW114975   3.922   0.163  17.196 -0.7420  0.3159  0.6305
 1113SOL    HW214976   3.933   0.033  17.260  1.2821  3.0595  0.7722
 1114SOL     OW14977   0.151   2.720   7.840  0.0069 -0.3324  0.3902
 1114SOL    HW114978   0.243   2.701   7.823  0.0731  0.3526 -0.0056
 1114SOL    HW214979   0.137   2.645   7.898  0.2403 -1.3685 -0.8779
 1115SOL     OW14980   1.418   3.490  12.513 -1.2210 -0.4986 -0.0424
 1115SOL    HW114981   1.468   3.563  12.551  1.0055 -1.3726 -1.3613
 1115SOL    HW214982   1.358   3.532  12.452  0.3675 -0.0251 -1.2720
 1116SOL     OW14983   4.353   3.314   5.457  0.3136 -0.2263 -0.0387
 1116SOL    HW114984   4.327   3.226   5.427  1.0639 -0.0971 -1.0715
 1116SOL    HW214985   4.301   3.367   5.397 -0.0652 -1.3786 -0.7427
 1117SOL     OW14986   0.802   4.413   1.881 -0.1174  0.2282  0.7407
 1117SOL    HW114987   0.884   4.421   1.931  0.3369 -1.9611  0.3438
 1117SOL    HW214988   0.764   4.501   1.889  1.1979  1.0056 -1.8690
 1118SOL     OW14989   3.564   1.547   6.540  0.3271  0.0108  0.5480
 1118SOL    HW114990   3.634   1.610   6.556 -0.6740  1.6029 -1.3015
 1118SOL    HW214991   3.603   1.467   6.575 -2.1045 -0.8354  1.3690
 1119SOL     OW14992   2.418   2.333   1.735 -0.3006  0.5695 -0.3775
 1119SOL    HW114993   2.438   2.278   1.658  3.5974  1.1294  0.2429
 1119SOL    HW214994   2.491   2.394   1.740  0.4777 -0.2510 -1.6934
 1120SOL     OW14995   2.466   0.058   6.633  0.3796  0.2961 -0.0242
 1120SOL    HW114996   2.476   4.733   6.561 -1.3942  2.2886 -2.0332
 1120SOL    HW214997   2.533   0.027   6.694 -0.9754 -1.5154  0.5385
 1121SOL     OW14998   1.638   0.895   1.400 -0.0799 -0.1490 -0.0261
 1121SOL    HW114999   1.616   0.905   1.493  0.3452  1.4820 -0.1148
 1121SOL    HW215000   1.734   0.888   1.394 -0.0607 -0.1327  0.2543
 1122SOL     OW15001   3.081   3.888   2.325 -0.3148  0.2637  0.0851
 1122SOL    HW115002   3.136   3.944   2.271  2.5127 -0.5467  2.1057
 1122SOL    HW215003   2.999   3.938   2.317 -0.4606  0.2999  1.6973
 1123SOL     OW15004   1.564   3.965  16.171  0.4154  0.0039  0.1564
 1123SOL    HW115005   1.618   3.901  16.217 -0.1531  0.0513  0.8907
 1123SOL    HW215006   1.617   3.987  16.095  0.5838 -0.8144  0.0309
 1124SOL     OW15007   4.408   3.087   2.515  0.0330  0.3081  0.4454
 1124SOL    HW115008   4.395   3.078   2.610 -1.4618 -1.2034  0.1068
 1124SOL    HW215009   4.315   3.076   2.496  0.3228 -1.2702 -0.0951
 1125SOL     OW15010   3.665   3.972   7.546 -0.2082 -0.0813 -1.2796
 1125SOL    HW115011   3.749   3.981   7.499  0.9865  0.7493  1.0242
 1125SOL    HW215012   3.605   4.013   7.484 -1.3475  0.8685  0.4868
 1126SOL     OW15013   2.124   2.339  14.053 -0.1021 -0.6292  0.0147
 1126SOL    HW115014   2.098   2.342  14.145  0.7110 -3.6976  0.3619
 1126SOL    HW215015   2.089   2.424  14.027  1.8110  0.9257  2.6433
 1127SOL     OW15016   3.432   1.606  16.552 -0.2357 -0.2211  0.0286
 1127SOL    HW115017   3.342   1.577  16.539 -0.1133 -0.1545 -1.0003
 1127SOL    HW215018   3.463   1.628  16.464 -2.7455 -0.9156 -1.0062
 1128SOL     OW15019   1.618   3.610   8.774  0.3532 -0.6489  0.1370
 1128SOL    HW115020   1.588   3.699   8.758 -0.5542 -0.7285  1.3592
 1128SOL    HW215021   1.603   3.612   8.869 -0.0850  1.1510  0.0310
 1129SOL     OW15022   0.237   4.680   8.528  0.4017  0.6703 -0.0791
 1129SOL    HW115023   0.299   4.707   8.460 -1.4330  0.0099 -2.0078
 1129SOL    HW215024   0.153   4.666   8.484 -0.2054  0.0514  1.2612
 1130SOL     OW15025   4.513   4.399   4.561  0.5283 -0.3325  0.4655
 1130SOL    HW115026   4.540   4.308   4.549 -1.3573 -0.6877 -0.9002
 1130SOL    HW215027   4.420   4.395   4.582  0.1963 -1.5853 -1.2749
 1131SOL     OW15028   1.693   0.188   5.729 -0.2756 -0.2192  0.4482
 1131SOL    HW115029   1.685   0.280   5.753 -0.0457 -0.3805  1.1357
 1131SOL    HW215030   1.606   0.163   5.698 -0.4269 -1.2721  1.7226
 1132SOL     OW15031   2.906   1.449  14.931  0.2800  0.3144  0.3775
 1132SOL    HW115032   2.847   1.503  14.984  0.4732 -1.7779  2.7623
 1132SOL    HW215033   2.984   1.505  14.929 -0.3124  1.1698  1.3517
 1133SOL     OW15034   2.009   3.804  12.352  0.3632  0.0763  0.7419
 1133SOL    HW115035   1.929   3.797  12.405 -0.3374  1.4262 -0.1344
 1133SOL    HW215036   2.045   3.885  12.386 -0.6192  1.6865 -2.0751
 1134SOL     OW15037   0.644   4.015   3.224 -0.0446 -0.0431  0.0948
 1134SOL    HW115038   0.706   4.025   3.295  0.1764  0.5796 -0.1883
 1134SOL    HW215039   0.557   4.008   3.264  0.0790 -0.4877  0.2848
 1135SOL     OW15040   0.087   4.644   7.553  0.1137 -0.0796 -0.2812
 1135SOL    HW115041   0.122   4.719   7.504  1.2891  0.1163  0.8554
 1135SOL    HW215042   0.140   4.569   7.524  2.2725  2.1503 -2.1127
 1136SOL     OW15043   4.686   0.560  12.834  0.1312  0.2350 -0.2514
 1136SOL    HW115044   4.593   0.550  12.856  0.6846 -0.0453  1.8774
 1136SOL    HW215045   4.721   0.595  12.916  0.9343 -1.4212  0.1031
 1137SOL     OW15046   0.892   4.356   3.234  0.4710 -0.4664  0.2584
 1137SOL    HW115047   0.907   4.413   3.158  0.1610  1.8273  1.9088
 1137SOL    HW215048   0.979   4.320   3.249  1.2245  1.6872  1.1011
 1138SOL     OW15049   1.092   0.763   6.999 -0.6729 -0.0017  0.0128
 1138SOL    HW115050   0.997   0.761   6.984 -0.1629 -2.5057 -2.8091
 1138SOL    HW215051   1.115   0.854   7.014 -3.0568  0.5084  0.6051
 1139SOL     OW15052   3.254   0.509   4.789 -0.0279  0.4045 -0.0973
 1139SOL    HW115053   3.320   0.443   4.813  0.1561  0.9220  0.8352
 1139SOL    HW215054   3.171   0.479   4.827  0.9620 -3.1465 -0.7154
 1140SOL     OW15055   2.264   3.522  10.045 -0.8786  0.0698  0.2864
 1140SOL    HW115056   2.359   3.518  10.054 -1.0865  0.8895  2.8396
 1140SOL    HW215057   2.236   3.433  10.068 -0.5738 -0.5032 -1.5996
 1141SOL     OW15058   2.184   2.995   7.504  0.8830  0.2283  0.2951
 1141SOL    HW115059   2.127   3.071   7.511  3.5974  2.3242 -0.3657
 1141SOL    HW215060   2.252   3.018   7.567  0.8886  1.2377 -0.0866
 1142SOL     OW15061   1.066   3.929  12.252 -0.3570  0.1550 -0.1026
 1142SOL    HW115062   1.116   3.912  12.331  0.5807 -2.0686 -1.1830
 1142SOL    HW215063   1.082   3.851  12.198  0.4607 -0.4105  0.9651
 1143SOL     OW15064   1.858   1.492  12.393  0.5863 -0.0927 -0.1332
 1143SOL    HW115065   1.918   1.530  12.457 -0.7086  0.2806  0.8683
 1143SOL    HW215066   1.771   1.517  12.424 -0.1474 -0.5294 -1.8649
 1144SOL     OW15067   2.172   0.490  11.251 -0.0732 -0.2849  0.2000
 1144SOL    HW115068   2.192   0.554  11.319 -1.7543  0.6340 -0.1710
 1144SOL    HW215069   2.077   0.488  11.257 -0.0628  1.2037  0.8230
 1145SOL     OW15070   3.615   0.588   7.852  0.3793 -0.5145 -0.1452
 1145SOL    HW115071   3.701   0.630   7.844  1.6166 -3.3138 -1.3532
 1145SOL    HW215072   3.618   0.557   7.942  0.2816  2.3852  0.8686
 1146SOL     OW15073   2.522   1.752   4.030  0.1792 -0.6776  0.0992
 1146SOL    HW115074   2.540   1.661   4.052  2.4461 -1.0634 -3.3405
 1146SOL    HW215075   2.474   1.729   3.950  3.8401  2.6501 -3.0889
 1147SOL     OW15076   3.509   1.891   9.245 -0.0088 -0.3146  0.0164
 1147SOL    HW115077   3.548   1.967   9.288 -0.9643 -0.6632  1.5312
 1147SOL    HW215078   3.440   1.936   9.196  0.9266  1.5876  0.4264
 1148SOL     OW15079   1.479   0.269   1.978  0.4274 -0.0828  0.1523
 1148SOL    HW115080   1.488   0.222   2.061  1.1624  1.4983  0.9804
 1148SOL    HW215081   1.470   0.203   1.910 -0.8303  0.7547 -0.5003
 1149SOL     OW15082   4.322   1.617   5.223 -0.4520  0.7079 -0.1205
 1149SOL    HW115083   4.289   1.574   5.302 -2.8417  1.1277 -0.8901
 1149SOL    HW215084   4.381   1.681   5.263 -2.0067  1.4969  0.8817
 1150SOL     OW15085   0.376   1.288   7.979  0.0811  0.3924 -0.1486
 1150SOL    HW115086   0.461   1.326   7.958  0.8815 -0.3222  1.7406
 1150SOL    HW215087   0.374   1.219   7.913 -2.2466 -1.7823  2.1927
 1151SOL     OW15088   2.022   0.003   9.618 -0.3920  0.2066  0.5121
 1151SOL    HW115089   2.036   0.065   9.690 -0.1705 -0.4367  1.0213
 1151SOL    HW215090   2.087   4.675   9.642  0.3757  0.6540 -0.3268
 1152SOL     OW15091   3.515   2.522   8.291 -0.1744 -0.0071  0.4740
 1152SOL    HW115092   3.446   2.537   8.227  0.1511  1.6670  0.5238
 1152SOL    HW215093   3.472   2.536   8.376 -0.2271 -0.3667  0.5065
 1153SOL     OW15094   0.122   4.073   9.207  0.2025 -0.2775 -0.1007
 1153SOL    HW115095   0.175   4.018   9.264  1.9258  1.4187 -0.0731
 1153SOL    HW215096   0.180   4.148   9.192  0.7993 -0.9807 -1.2740
 1154SOL     OW15097   1.022   2.333   1.685  0.3251  0.5823 -0.3312
 1154SOL    HW115098   0.998   2.377   1.603  0.1506 -1.1142 -1.1726
 1154SOL    HW215099   1.057   2.410   1.731  1.2106 -0.2842  0.4340
 1155SOL     OW15100   0.987   3.665   4.693  0.6597 -0.7822  0.6455
 1155SOL    HW115101   0.933   3.678   4.771 -0.9361 -1.0894 -0.4035
 1155SOL    HW215102   0.924   3.673   4.622 -0.5878 -0.1406  1.8105
 1156SOL     OW15103   4.216   2.507   1.423  0.0772 -0.1264  0.2931
 1156SOL    HW115104   4.136   2.529   1.375 -0.1493 -0.4136  0.5400
 1156SOL    HW215105   4.260   2.585   1.390  1.3806 -1.5389 -1.3386
 1157SOL     OW15106   2.769   4.411   6.791  0.2428  0.1720 -0.3085
 1157SOL    HW115107   2.825   4.418   6.869  1.1828 -0.9485 -0.8792
 1157SOL    HW215108   2.835   4.380   6.728  1.5277  0.3802  0.9203
 1158SOL     OW15109   2.928   2.765   4.252  0.4410 -0.9063  0.2603
 1158SOL    HW115110   2.871   2.842   4.258  1.7644  0.0204  1.3011
 1158SOL    HW215111   2.927   2.719   4.336  0.7053  0.4422  1.0051
 1159SOL     OW15112   4.666   3.985   5.768 -0.2190 -0.0834 -0.3063
 1159SOL    HW115113   4.673   4.080   5.770  0.7228 -0.1036 -2.0077
 1159SOL    HW215114   4.733   3.959   5.704 -1.8005 -3.3622 -0.6411
 1160SOL     OW15115   2.680   2.173   2.700  0.2139 -0.3085 -0.1715
 1160SOL    HW115116   2.743   2.245   2.688 -1.0886  0.9053  0.3421
 1160SOL    HW215117   2.743   2.105   2.723  0.0185 -0.3794  0.1412
 1161SOL     OW15118   4.147   3.775  11.615  0.2555  0.4392 -0.4906
 1161SOL    HW115119   4.241   3.783  11.600  0.1812  0.6088 -0.8423
 1161SOL    HW215120   4.140   3.725  11.697 -1.5425 -0.0073 -0.8930
 1162SOL     OW15121   3.027   4.095  15.903  0.6127 -0.1371  0.0723
 1162SOL    HW115122   3.015   4.000  15.904 -1.8215  0.1662  0.8815
 1162SOL    HW215123   2.977   4.113  15.983 -0.7433 -3.2605 -0.0708
 1163SOL     OW15124   1.864   2.477   2.376  0.0265  0.3408 -0.1470
 1163SOL    HW115125   1.956   2.462   2.356  0.6185  2.1781  1.1933
 1163SOL    HW215126   1.825   2.394   2.349  1.3966 -0.1949 -0.4745
 1164SOL     OW15127   3.951   0.099  16.907  0.5619 -0.1567 -0.5416
 1164SOL    HW115128   3.945   0.087  17.002  1.3979 -0.4318 -0.5246
 1164SOL    HW215129   3.920   0.188  16.897 -0.4358 -0.6924 -2.1485
 1165SOL     OW15130   1.012   0.458   8.285 -0.2087  0.4296 -0.1234
 1165SOL    HW115131   0.952   0.409   8.229 -0.7518 -0.3098  1.0903
 1165SOL    HW215132   1.076   0.480   8.218 -0.1161  1.9274  0.4574
 1166SOL     OW15133   3.047   1.119  15.942  0.0862 -0.0521 -0.1385
 1166SOL    HW115134   3.095   1.086  15.867  0.7033 -1.1843  0.7501
 1166SOL    HW215135   2.982   1.049  15.942  0.8989 -0.7976 -0.4003
 1167SOL     OW15136   0.519   0.976   2.492  0.2682 -0.2213  0.0076
 1167SOL    HW115137   0.489   0.936   2.574 -0.7309 -0.9871 -0.7221
 1167SOL    HW215138   0.444   0.957   2.436  1.6903  0.6734 -2.1850
 1168SOL     OW15139   3.787   4.720   5.175  0.1084 -0.0795 -0.5698
 1168SOL    HW115140   3.770   0.072   5.150 -2.6577 -0.2127  0.8674
 1168SOL    HW215141   3.883   4.712   5.174 -0.1580 -3.6031  0.4895
 1169SOL     OW15142   2.234   1.266   3.221  0.0541 -0.0797  0.3013
 1169SOL    HW115143   2.236   1.180   3.261 -1.1971  0.6239  1.8921
 1169SOL    HW215144   2.325   1.272   3.194 -0.4898  1.8939 -1.1652
 1170SOL     OW15145   2.764   2.760   3.853 -0.0747  0.2305  0.2334
 1170SOL    HW115146   2.801   2.703   3.785 -1.9276  0.4079 -0.9171
 1170SOL    HW215147   2.696   2.702   3.889 -0.5616  1.1656  0.8334
 1171SOL     OW15148   0.759   2.854   1.357 -0.3380 -0.1945 -0.1307
 1171SOL    HW115149   0.800   2.816   1.279  0.2561 -0.5039  0.3340
 1171SOL    HW215150   0.753   2.948   1.338 -1.9895 -0.9978 -3.5739
 1172SOL     OW15151   4.334   4.159   6.297  0.4583  0.4733  0.1939
 1172SOL    HW115152   4.289   4.218   6.356  0.6642  1.0528 -0.2324
 1172SOL    HW215153   4.388   4.115   6.363 -0.7885  0.7090  1.3656
 1173SOL     OW15154   2.240   1.399   9.098 -0.4329  0.6886  0.0848
 1173SOL    HW115155   2.262   1.488   9.071  0.7516  0.9203  1.8139
 1173SOL    HW215156   2.224   1.427   9.188  1.1393 -0.1391  0.6206
 1174SOL     OW15157   1.794   2.178  15.551 -0.0052 -0.2599 -0.4546
 1174SOL    HW115158   1.843   2.260  15.545  0.7583 -0.7861 -1.5330
 1174SOL    HW215159   1.712   2.201  15.507  0.4587  1.4802 -0.3768
 1175SOL     OW15160   1.001   0.198  13.216 -0.5590 -0.0181 -0.4637
 1175SOL    HW115161   0.965   0.198  13.305 -0.6561  2.9618 -0.5158
 1175SOL    HW215162   1.020   0.104  13.212 -2.5756 -0.4702  0.5288
 1176SOL     OW15163   3.361   2.810   6.219 -0.1708 -0.8589  0.2210
 1176SOL    HW115164   3.360   2.769   6.305 -2.2688 -2.2043 -0.4483
 1176SOL    HW215165   3.272   2.846   6.212 -0.1318 -1.1130 -1.6242
 1177SOL     OW15166   0.580   2.463  13.108 -0.3336  0.5874 -0.0787
 1177SOL    HW115167   0.668   2.497  13.121 -1.0476  1.4788  2.3659
 1177SOL    HW215168   0.565   2.419  13.192  1.5236 -0.7020 -0.4245
 1178SOL     OW15169   4.077   4.320  16.563 -0.1802 -0.4655 -0.0777
 1178SOL    HW115170   4.147   4.356  16.618  0.1048  1.9829 -2.0555
 1178SOL    HW215171   4.014   4.304  16.633 -0.3841 -1.6428 -0.5432
 1179SOL     OW15172   1.372   1.555   1.606  0.3987  0.0174 -0.1307
 1179SOL    HW115173   1.443   1.612   1.575  0.9114  0.3554  1.6503
 1179SOL    HW215174   1.308   1.625   1.622  0.9819  0.0465  2.1126
 1180SOL     OW15175   1.580   2.955   5.663 -0.1008 -0.4516  0.5682
 1180SOL    HW115176   1.573   3.017   5.590 -0.4102 -1.1711 -0.0135
 1180SOL    HW215177   1.671   2.956   5.691  0.3425 -0.9153 -0.8529
 1181SOL     OW15178   1.493   3.034   7.036  0.4705  0.1319  0.5482
 1181SOL    HW115179   1.405   2.999   7.027  0.3511  0.5070  0.2604
 1181SOL    HW215180   1.540   2.953   7.054  0.5292  0.4365  1.7393
 1182SOL     OW15181   3.934   2.511   9.227  0.1757 -0.1620  0.0309
 1182SOL    HW115182   3.912   2.439   9.168  0.0581  1.7966 -2.2866
 1182SOL    HW215183   4.029   2.499   9.221 -0.0100 -1.4017 -0.3157
 1183SOL     OW15184   2.768   4.144   6.988 -0.6128  0.1140 -0.3703
 1183SOL    HW115185   2.751   4.231   7.024 -0.4912  0.0532 -0.1665
 1183SOL    HW215186   2.863   4.153   6.977 -0.3761  0.7165  2.1129
 1184SOL     OW15187   3.781   3.814  15.600  0.4303  0.3933 -0.3845
 1184SOL    HW115188   3.731   3.867  15.663  2.0769 -0.1220  1.3698
 1184SOL    HW215189   3.823   3.885  15.550  0.5689  0.5378 -0.0651
 1185SOL     OW15190   0.181   2.487  17.013 -0.0318 -0.1779 -0.2811
 1185SOL    HW115191   0.171   2.546  16.938  0.8961  1.1574  0.6597
 1185SOL    HW215192   0.087   2.483  17.034  0.0133 -1.6495 -0.3033
 1186SOL     OW15193   0.152   4.128   2.446  0.3756  0.1992 -0.0101
 1186SOL    HW115194   0.126   4.081   2.525 -1.0563 -0.1599 -0.6865
 1186SOL    HW215195   0.231   4.166   2.483 -1.0589  3.8068 -0.6425
 1187SOL     OW15196   0.293   3.743   5.150  0.2521  0.0602 -0.1467
 1187SOL    HW115197   0.236   3.686   5.201  1.1696 -1.5465 -0.9237
 1187SOL    HW215198   0.303   3.683   5.075 -3.0992 -2.6585  1.5885
 1188SOL     OW15199   3.104   4.013   8.859  0.6135  0.4929 -0.4446
 1188SOL    HW115200   3.188   3.987   8.821  0.8410 -1.4522  1.3755
 1188SOL    HW215201   3.059   3.931   8.879  0.9245  0.1471 -1.1863
 1189SOL     OW15202   0.764   1.919   0.382 -0.1518 -0.1917  0.6755
 1189SOL    HW115203   0.758   1.826   0.407 -2.1485  0.4202  2.4271
 1189SOL    HW215204   0.736   1.910   0.291  2.2986  1.6574 -0.2666
 1190SOL     OW15205   2.285   4.145   8.964  0.3664  0.4357 -0.5469
 1190SOL    HW115206   2.240   4.154   9.048  1.1739  0.1152 -0.0673
 1190SOL    HW215207   2.377   4.160   8.987  0.0359 -1.8543  2.3276
 1191SOL     OW15208   4.441   1.439   6.302  0.2929  0.1441  0.3823
 1191SOL    HW115209   4.441   1.479   6.215  0.2067  0.5945  0.5890
 1191SOL    HW215210   4.527   1.468   6.332 -0.3182  1.3627  0.9495
 1192SOL     OW15211   4.719   3.829   5.998 -0.3568 -0.5415  0.2086
 1192SOL    HW115212   0.058   3.808   5.945  0.8459  0.0849  1.7103
 1192SOL    HW215213   4.668   3.871   5.929  0.0474  0.1833  0.3595
 1193SOL     OW15214   2.437   3.304   3.581 -0.2419 -0.1571  0.3444
 1193SOL    HW115215   2.490   3.230   3.610  0.3767 -1.2939 -3.6712
 1193SOL    HW215216   2.412   3.358   3.656 -1.3670  1.3561 -1.1106
 1194SOL     OW15217   3.436   0.300   5.204  0.1561  0.2847  0.1861
 1194SOL    HW115218   3.402   0.381   5.243 -0.1941  0.6452 -0.8593
 1194SOL    HW215219   3.363   0.238   5.204 -0.5957  1.1624  0.0301
 1195SOL     OW15220   2.481   3.992  14.067  0.3626  0.1069 -0.3036
 1195SOL    HW115221   2.433   4.075  14.057 -0.2692 -0.1339  0.7712
 1195SOL    HW215222   2.454   3.937  13.993  1.5332  0.1671 -0.7826
 1196SOL     OW15223   3.363   2.896   4.184 -0.7116 -0.2429  0.0893
 1196SOL    HW115224   3.330   2.892   4.095 -2.5345  0.0497  0.7571
 1196SOL    HW215225   3.447   2.942   4.181 -0.0414 -1.4523  0.4256
 1197SOL     OW15226   1.776   3.747   7.440  0.5639 -0.2330 -0.3111
 1197SOL    HW115227   1.867   3.758   7.465  0.7032 -0.8611 -0.5585
 1197SOL    HW215228   1.782   3.666   7.390  2.2584  0.0289 -0.5253
 1198SOL     OW15229   1.777   2.987   0.588  0.3491  1.0353  0.4675
 1198SOL    HW115230   1.812   3.064   0.633 -1.4146  2.1652 -0.1123
 1198SOL    HW215231   1.862   2.950   0.563  0.1877  1.1780 -0.2835
 1199SOL     OW15232   4.161   3.245   4.427  0.1667 -0.3152  0.1176
 1199SOL    HW115233   4.097   3.250   4.497  0.1457 -0.8764  0.1333
 1199SOL    HW215234   4.099   3.249   4.354  1.7639  0.7019 -1.1984
 1200SOL     OW15235   2.052   3.799   0.012  0.9093  0.5007  0.2224
 1200SOL    HW115236   2.127   3.809   0.071  0.1685 -0.4679  1.3155
 1200SOL    HW215237   2.098   3.822  17.682  0.8990 -0.7574 -0.1360
 1201SOL     OW15238   3.708   1.070   8.582  0.0786 -0.3566 -0.3002
 1201SOL    HW115239   3.663   1.074   8.666 -1.6774  0.9126 -1.2886
 1201SOL    HW215240   3.639   1.047   8.520 -2.4639 -1.8824  3.1328
 1202SOL     OW15241   0.037   0.545  10.895  0.0183 -0.2888 -0.3652
 1202SOL    HW115242   0.103   0.495  10.943 -1.3267 -1.2189  0.5330
 1202SOL    HW215243   0.079   0.525  10.812  0.1021 -0.2529 -0.3311
 1203SOL     OW15244   1.110   0.980   6.672  0.0489  0.3760  0.4280
 1203SOL    HW115245   1.167   1.046   6.711 -0.4355 -0.1768  2.0820
 1203SOL    HW215246   1.177   0.917   6.648  0.6422  1.9759 -2.1889
 1204SOL     OW15247   2.280   2.050   4.110  0.5282 -0.4562  0.6278
 1204SOL    HW115248   2.250   1.990   4.042 -1.6536 -0.3851  1.5144
 1204SOL    HW215249   2.336   1.985   4.152  2.0274 -0.5114 -1.4660
 1205SOL     OW15250   2.544   2.228  13.748  0.4892 -0.1491 -0.2440
 1205SOL    HW115251   2.489   2.207  13.673 -1.9678  3.6275  0.4835
 1205SOL    HW215252   2.490   2.203  13.824  0.1912  0.6892 -0.1845
 1206SOL     OW15253   4.486   2.315   9.707 -0.1780  0.6233 -0.1189
 1206SOL    HW115254   4.578   2.329   9.687 -0.7162 -0.2873 -3.2279
 1206SOL    HW215255   4.462   2.394   9.756 -0.0494  0.1217  0.7527
 1207SOL     OW15256   1.670   1.128  14.170  0.7898 -0.2869 -0.1758
 1207SOL    HW115257   1.618   1.048  14.178 -0.8083  0.8053  0.5350
 1207SOL    HW215258   1.665   1.149  14.077 -0.6693 -0.6730 -0.1823
 1208SOL     OW15259   2.661   4.724   8.578  0.1452  0.2100  0.0540
 1208SOL    HW115260   2.615   4.642   8.559 -0.4287 -0.0485  2.6004
 1208SOL    HW215261   2.734   4.677   8.617 -0.6555 -0.1305  1.1297
 1209SOL     OW15262   0.882   3.683   1.851  0.4953 -0.1029  0.2906
 1209SOL    HW115263   0.867   3.775   1.873 -0.3658  0.2389 -1.7994
 1209SOL    HW215264   0.881   3.649   1.941  0.7806 -0.5100  0.1397
 1210SOL     OW15265   0.745   1.848  11.856 -0.2040  0.3708  0.4060
 1210SOL    HW115266   0.784   1.882  11.776 -0.0337  2.4137  1.3542
 1210SOL    HW215267   0.653   1.871  11.846 -0.2674  0.9538  2.4073
 1211SOL     OW15268   3.890   1.690   2.841  0.5924 -0.5036 -0.0324
 1211SOL    HW115269   3.839   1.618   2.804  0.5968  0.4790 -1.9550
 1211SOL    HW215270   3.945   1.708   2.765  0.1131  0.3344 -0.1773
 1212SOL     OW15271   2.364   1.086   6.115 -0.1631 -0.1264 -0.0944
 1212SOL    HW115272   2.287   1.141   6.110  0.3706  0.9088  2.9189
 1212SOL    HW215273   2.409   1.134   6.184  1.0761  0.5608 -1.3794
 1213SOL     OW15274   2.737   0.416   5.558 -0.0550 -0.2143  0.1916
 1213SOL    HW115275   2.679   0.373   5.495 -1.8556  1.1617  0.9224
 1213SOL    HW215276   2.687   0.486   5.599  1.4555  0.7861  0.3444
 1214SOL     OW15277   3.710   4.725   2.941 -0.1605 -0.2400 -0.3234
 1214SOL    HW115278   3.785   0.025   2.988  0.0211 -0.8358 -0.1343
 1214SOL    HW215279   3.755   4.662   2.885 -1.1190 -2.6761  1.6729
 1215SOL     OW15280   2.093   2.289   2.034 -0.7117  0.0868 -0.2903
 1215SOL    HW115281   2.146   2.313   2.109  0.4465  0.3720 -1.1938
 1215SOL    HW215282   2.036   2.225   2.076 -0.4524  0.7096  0.9869
 1216SOL     OW15283   4.135   2.795   9.133  0.0196  0.2892  0.0406
 1216SOL    HW115284   4.074   2.786   9.206  1.6545  0.9483  1.4795
 1216SOL    HW215285   4.184   2.869   9.169  0.0142 -0.2642  1.1699
 1217SOL     OW15286   0.762   4.680   8.702 -0.0587 -0.1088  0.4773
 1217SOL    HW115287   0.668   4.688   8.715 -0.3878 -2.1103 -0.7162
 1217SOL    HW215288   0.757   4.654   8.610  1.1180  0.0701  0.3643
 1218SOL     OW15289   1.172   1.248  11.796  0.0085  0.2277 -0.2060
 1218SOL    HW115290   1.109   1.213  11.858 -0.5063  1.7057  0.1101
 1218SOL    HW215291   1.252   1.230  11.844 -0.4661 -1.0158  0.1010
 1219SOL     OW15292   1.768   4.485   5.834 -0.2271 -0.1845 -0.1629
 1219SOL    HW115293   1.850   4.523   5.802 -0.4094  1.0205  0.7748
 1219SOL    HW215294   1.741   4.463   5.745  0.1833 -0.9689 -0.0948
 1220SOL     OW15295   4.501   4.479   4.200 -0.2200 -0.0302  0.0950
 1220SOL    HW115296   4.560   4.417   4.242  1.3413  1.4832  0.1531
 1220SOL    HW215297   4.416   4.444   4.227  0.7228  0.2176  3.4409
 1221SOL     OW15298   0.292   4.230   9.972  0.1262 -0.4150  0.1806
 1221SOL    HW115299   0.269   4.320   9.993 -2.0338 -1.2165  1.2536
 1221SOL    HW215300   0.358   4.209  10.038 -1.1652  1.4722  2.0665
 1222SOL     OW15301   0.084   4.707   9.998  0.1081 -0.1071  0.2908
 1222SOL    HW115302   0.165   0.006  10.033 -0.2980 -1.4499  2.5882
 1222SOL    HW215303   0.024   0.018  10.054 -3.7947 -1.9257 -2.2651
 1223SOL     OW15304   1.166   4.291   5.750  0.1448 -0.2660 -0.2697
 1223SOL    HW115305   1.228   4.327   5.687 -1.6149  0.8932 -1.3295
 1223SOL    HW215306   1.210   4.286   5.835  0.6176 -0.6708 -0.5369
 1224SOL     OW15307   0.173   2.068   6.216  0.1459 -0.3655 -0.0353
 1224SOL    HW115308   0.187   2.009   6.142 -1.2973 -1.3283  0.4640
 1224SOL    HW215309   0.266   2.071   6.238  0.5013  0.7574 -1.6810
 1225SOL     OW15310   4.662   3.610   7.798  0.6575 -0.1517 -0.0061
 1225SOL    HW115311   4.719   3.610   7.875 -0.7384 -0.8411  1.0321
 1225SOL    HW215312   4.634   3.702   7.805  1.1422  0.1342 -1.9642
 1226SOL     OW15313   4.500   0.646   5.019  0.4186 -0.7327 -0.9319
 1226SOL    HW115314   4.582   0.671   5.061  1.2245 -0.9217 -2.3726
 1226SOL    HW215315   4.505   0.690   4.934 -0.1429  2.8511  0.9048
 1227SOL     OW15316   0.414   4.631   2.884 -0.0698 -0.4402  0.0057
 1227SOL    HW115317   0.460   4.713   2.868 -0.5856 -0.2406 -0.4558
 1227SOL    HW215318   0.482   4.586   2.935  0.3975  0.1523 -0.0955
 1228SOL     OW15319   4.380   1.121   4.031 -0.6783 -0.3466  0.1260
 1228SOL    HW115320   4.346   1.157   3.949  0.8868  0.2524 -0.2681
 1228SOL    HW215321   4.437   1.046   4.011 -0.0744 -0.0488  0.7500
 1229SOL     OW15322   3.365   3.557   7.381  0.1555 -0.3925  0.4791
 1229SOL    HW115323   3.365   3.525   7.291 -0.3325  1.3850 -0.1565
 1229SOL    HW215324   3.279   3.522   7.407 -0.6748  1.4509  0.2714
 1230SOL     OW15325   1.251   2.732   5.028  0.0842 -0.4899  0.0914
 1230SOL    HW115326   1.295   2.775   4.955  1.3901  2.0261  2.3474
 1230SOL    HW215327   1.190   2.793   5.070 -1.5735 -1.6056 -0.6965
 1231SOL     OW15328   3.942   3.112   9.617  0.2368 -0.2699  0.0885
 1231SOL    HW115329   4.026   3.071   9.636 -0.6455 -1.7258  0.8827
 1231SOL    HW215330   3.941   3.190   9.673  0.2750  0.1832 -0.5453
 1232SOL     OW15331   1.769   2.045   8.146  0.1845  0.2015 -0.9702
 1232SOL    HW115332   1.677   2.049   8.119  0.6138  0.3298 -2.4165
 1232SOL    HW215333   1.783   1.950   8.141  0.2876  0.1234  0.7915
 1233SOL     OW15334   3.364   2.090   4.135  0.0406 -0.2288 -0.0574
 1233SOL    HW115335   3.436   2.082   4.073 -0.0386  2.5193 -0.4986
 1233SOL    HW215336   3.387   2.016   4.191  0.2282 -0.3349 -0.2755
 1234SOL     OW15337   0.718   2.177   5.591 -0.0734 -0.7006  0.5825
 1234SOL    HW115338   0.669   2.141   5.665 -4.5514  0.2400 -1.9220
 1234SOL    HW215339   0.681   2.131   5.516 -0.7399 -1.0095  1.1035
 1235SOL     OW15340   2.820   2.826  17.039  0.4972  0.0794 -0.3033
 1235SOL    HW115341   2.730   2.817  17.071  0.7572 -0.4001  0.2694
 1235SOL    HW215342   2.828   2.751  16.979 -1.9935 -0.8518  0.5427
 1236SOL     OW15343   0.351   3.752   5.628  0.0317  0.5996  0.5178
 1236SOL    HW115344   0.405   3.761   5.707  0.0912  0.3830  0.5014
 1236SOL    HW215345   0.377   3.826   5.573 -1.2984 -1.5010 -2.9135
 1237SOL     OW15346   2.462   2.647   9.347 -0.3930  0.2364  0.1489
 1237SOL    HW115347   2.554   2.653   9.322 -0.3065  1.1756  0.6900
 1237SOL    HW215348   2.412   2.667   9.268 -1.7769 -1.1395  0.6649
 1238SOL     OW15349   3.478   1.363   7.906 -0.2541  0.5822  0.2595
 1238SOL    HW115350   3.543   1.396   7.967 -0.7224  1.3814  0.3224
 1238SOL    HW215351   3.502   1.403   7.823 -1.5093  2.0693  0.6157
 1239SOL     OW15352   0.800   3.887   2.454  0.1490  0.2150  0.2079
 1239SOL    HW115353   0.850   3.813   2.487 -0.8092 -0.1032  0.9345
 1239SOL    HW215354   0.862   3.957   2.435  0.9922 -0.9994 -1.5158
 1240SOL     OW15355   1.021   0.925   6.245  0.7280  0.4629 -0.3711
 1240SOL    HW115356   1.109   0.904   6.278  0.3255  2.5847  2.0977
 1240SOL    HW215357   0.978   0.934   6.330  1.4273 -0.5515  0.0845
 1241SOL     OW15358   0.458   0.308   6.132 -0.3182  0.0647  0.0312
 1241SOL    HW115359   0.534   0.253   6.110 -0.3482  1.4418 -3.6146
 1241SOL    HW215360   0.499   0.368   6.193  1.0530 -0.4437 -0.3861
 1242SOL     OW15361   0.659   1.303   5.743 -0.3038 -0.4233 -0.0532
 1242SOL    HW115362   0.563   1.301   5.746 -0.3477  1.1922 -0.5308
 1242SOL    HW215363   0.681   1.392   5.714 -2.8140  0.0217 -0.5660
 1243SOL     OW15364   4.189   4.377  17.622  0.0387 -0.3118 -0.1400
 1243SOL    HW115365   4.106   4.410  17.658  0.3755  0.3212  0.0505
 1243SOL    HW215366   4.242   4.374  17.702 -0.1730 -0.8992 -0.0207
 1244SOL     OW15367   3.728   0.141   8.628  0.3620 -0.4436 -0.6871
 1244SOL    HW115368   3.689   0.180   8.549 -0.2912 -0.7325 -0.5086
 1244SOL    HW215369   3.796   0.208   8.634  1.8933 -2.1870  1.3677
 1245SOL     OW15370   4.411   2.785   5.138  0.0649  0.0620  0.2518
 1245SOL    HW115371   4.505   2.790   5.157 -0.2947 -1.9605  2.5156
 1245SOL    HW215372   4.373   2.749   5.218 -1.2708 -0.8687 -0.7956
 1246SOL     OW15373   2.126   4.387  12.855 -0.2297 -0.0710  0.0987
 1246SOL    HW115374   2.036   4.389  12.886 -0.1325  2.8970  0.2217
 1246SOL    HW215375   2.144   4.470  12.900  1.5542 -1.2246  1.5196
 1247SOL     OW15376   2.558   3.984   4.491 -0.0872 -0.5035 -0.1874
 1247SOL    HW115377   2.473   3.993   4.533 -0.0063 -1.3158  0.1569
 1247SOL    HW215378   2.553   3.890   4.469  0.2028 -0.4191 -0.6223
 1248SOL     OW15379   4.321   2.902   3.824 -0.0477 -0.0135  0.1644
 1248SOL    HW115380   4.393   2.947   3.867 -0.5159  0.2658  0.6544
 1248SOL    HW215381   4.280   2.974   3.776 -0.8857 -0.4310  0.2561
 1249SOL     OW15382   0.340   3.632  17.184  0.0995 -0.4208 -0.5266
 1249SOL    HW115383   0.430   3.612  17.158 -0.0345 -0.2827 -1.0899
 1249SOL    HW215384   0.340   3.728  17.179  1.3566 -0.3196  1.1647
 1250SOL     OW15385   4.307   2.943  17.368 -0.0666  1.2281 -0.1268
 1250SOL    HW115386   4.349   2.969  17.286 -0.0368  0.8682 -0.2235
 1250SOL    HW215387   4.220   2.916  17.338 -0.5327  0.7231  1.6758
 1251SOL     OW15388   4.432   3.647  11.467 -0.1583 -0.1966  0.5048
 1251SOL    HW115389   4.401   3.704  11.396 -0.3789 -0.9962 -0.0339
 1251SOL    HW215390   4.370   3.575  11.474 -2.6065  2.2358  4.0396
 1252SOL     OW15391   3.909   0.331   7.014  0.5892  0.2744  0.4975
 1252SOL    HW115392   3.925   0.307   7.106  0.3123  1.3134  0.8123
 1252SOL    HW215393   3.814   0.338   7.017  0.5891  0.5253 -0.2356
 1253SOL     OW15394   1.384   0.794   3.978  0.2232 -0.7046  0.6425
 1253SOL    HW115395   1.348   0.710   4.007 -1.6370 -0.0977  0.0569
 1253SOL    HW215396   1.306   0.844   3.955  1.4113 -1.2158 -4.4477
 1254SOL     OW15397   4.334   1.600   2.487  0.5652 -0.3964  0.0411
 1254SOL    HW115398   4.329   1.556   2.572  2.5486  0.0395  0.3647
 1254SOL    HW215399   4.373   1.683   2.512  1.9331 -0.8015 -0.7519
 1255SOL     OW15400   0.080   3.523  15.975 -0.4563 -0.1478  1.0951
 1255SOL    HW115401   0.103   3.575  16.052 -1.3902  1.1528  0.5013
 1255SOL    HW215402   0.099   3.431  15.992  0.0923 -0.2121  0.1486
 1256SOL     OW15403   2.462   3.156   6.783 -0.2707 -0.1969 -0.4430
 1256SOL    HW115404   2.482   3.205   6.703  1.4757  0.1640  0.2266
 1256SOL    HW215405   2.519   3.080   6.775 -1.5890 -1.0303 -2.0550
 1257SOL     OW15406   1.869   0.636   4.997  0.1200  0.4887 -0.0652
 1257SOL    HW115407   1.837   0.636   5.087  1.6659  0.2322  0.4861
 1257SOL    HW215408   1.792   0.622   4.942  0.2493  0.5335 -0.2560
 1258SOL     OW15409   3.235   2.074   6.762  0.0303 -0.1244 -0.1863
 1258SOL    HW115410   3.282   2.013   6.819  0.8401  0.1494 -0.5538
 1258SOL    HW215411   3.154   2.032   6.732 -0.2284  0.4392 -0.2657
 1259SOL     OW15412   0.872   1.693   4.469 -0.4870 -0.0058  0.1215
 1259SOL    HW115413   0.930   1.631   4.513  0.1440  1.3808  1.2277
 1259SOL    HW215414   0.937   1.757   4.442  0.0751  0.2128  2.0032
 1260SOL     OW15415   3.542   2.476   1.753  0.5501  0.3218  0.6799
 1260SOL    HW115416   3.542   2.549   1.690  0.1797  0.1601  0.4929
 1260SOL    HW215417   3.447   2.460   1.757  0.3316  1.6036  0.8353
 1261SOL     OW15418   2.083   2.439   3.880 -0.3528  0.0946 -1.0307
 1261SOL    HW115419   2.016   2.466   3.817 -0.6494 -0.5234 -0.9871
 1261SOL    HW215420   2.022   2.413   3.949 -1.4310  1.9239 -1.3076
 1262SOL     OW15421   2.324   0.364   4.992  0.2378  0.2203  0.0633
 1262SOL    HW115422   2.260   0.370   5.063  0.2228  0.5650  0.0173
 1262SOL    HW215423   2.386   0.433   5.015 -2.7739  2.8607  0.2149
 1263SOL     OW15424   0.176   3.733   2.704 -0.3365 -0.0227 -0.4291
 1263SOL    HW115425   0.198   3.804   2.764 -1.4533 -1.0375  1.1810
 1263SOL    HW215426   0.154   3.777   2.622  1.1491 -0.3309 -0.9879
 1264SOL     OW15427   2.209   3.436   9.061  0.2583 -0.6612  0.3951
 1264SOL    HW115428   2.218   3.342   9.051  0.3997 -0.6709  0.6260
 1264SOL    HW215429   2.267   3.450   8.986 -0.4559  0.1609 -0.0141
 1265SOL     OW15430   4.390   2.775  14.060 -0.0568 -0.3438 -0.2806
 1265SOL    HW115431   4.459   2.837  14.038 -0.0043  0.5352  2.3651
 1265SOL    HW215432   4.431   2.708  14.114  0.4306  1.2149  1.2806
 1266SOL     OW15433   3.394   4.147  13.129 -0.2617  0.4932  0.6149
 1266SOL    HW115434   3.329   4.134  13.198 -0.1569 -0.8638  0.4673
 1266SOL    HW215435   3.425   4.237  13.140  2.8964 -0.2762 -1.9370
 1267SOL     OW15436   1.937   2.636   4.327 -0.4377  0.9214  0.1699
 1267SOL    HW115437   1.899   2.715   4.289  0.4867  2.0188  1.4763
 1267SOL    HW215438   2.014   2.672   4.373  0.1439  1.1285 -0.9654
 1268SOL     OW15439   0.814   2.760   4.373  0.0095  0.3845 -0.1972
 1268SOL    HW115440   0.765   2.683   4.402  2.2946 -1.7705 -1.9795
 1268SOL    HW215441   0.744   2.825   4.371 -1.2243 -0.9523  0.2128
 1269SOL     OW15442   3.604   4.573  10.754 -0.3735 -0.5569 -0.4977
 1269SOL    HW115443   3.614   4.483  10.722  1.6018 -0.5334  0.0005
 1269SOL    HW215444   3.649   4.558  10.837 -2.0569 -0.1017  0.4883
 1270SOL     OW15445   0.632   1.448   3.225 -0.4262 -0.5745 -0.3808
 1270SOL    HW115446   0.589   1.395   3.158 -0.8457 -2.4174  1.3445
 1270SOL    HW215447   0.717   1.407   3.240  1.0488  1.6704 -2.5885
 1271SOL     OW15448   0.180   4.059   6.498 -0.2583  0.3725 -0.2272
 1271SOL    HW115449   0.204   4.095   6.413 -0.2180  2.0926  0.5038
 1271SOL    HW215450   0.157   3.968   6.484 -0.6760  0.1341  1.9523
 1272SOL     OW15451   0.022   4.638   8.103  0.5822  0.1167  0.7089
 1272SOL    HW115452   0.111   4.655   8.074  0.9820 -0.9442  1.3097
 1272SOL    HW215453   4.722   4.697   8.038  1.5637 -0.8416 -0.7500
 1273SOL     OW15454   3.632   2.176   5.139  0.0383  0.2185  0.0014
 1273SOL    HW115455   3.589   2.260   5.152 -0.7556 -0.2310  0.2617
 1273SOL    HW215456   3.602   2.124   5.214  0.7784 -1.3988 -0.8126
 1274SOL     OW15457   0.507   3.157   1.746  0.1747  0.6331  0.1298
 1274SOL    HW115458   0.458   3.205   1.679 -0.1707 -0.0828 -0.1325
 1274SOL    HW215459   0.434   3.101   1.772  1.7991 -1.4723  0.1815
 1275SOL     OW15460   2.844   3.329   2.290  0.0179 -0.5104  0.1898
 1275SOL    HW115461   2.789   3.279   2.350 -2.2594  1.1884 -0.4608
 1275SOL    HW215462   2.771   3.380   2.256  1.1237 -0.6631 -2.4887
 1276SOL     OW15463   1.470   4.277   3.350  0.0861 -0.0131  0.0273
 1276SOL    HW115464   1.501   4.363   3.323 -0.2273  0.8302  2.3657
 1276SOL    HW215465   1.419   4.302   3.427  0.4479 -1.3685  0.7061
 1277SOL     OW15466   0.230   2.107   7.080  0.2802  0.1866  0.0681
 1277SOL    HW115467   0.196   2.031   7.033 -0.6348  1.8934 -2.0652
 1277SOL    HW215468   0.154   2.129   7.134  0.4491  0.4139  0.2168
 1278SOL     OW15469   2.976   0.047   3.024 -0.5395 -0.1984  0.2870
 1278SOL    HW115470   3.017   4.729   3.090  1.6464  0.3865 -0.5821
 1278SOL    HW215471   2.898   4.732   3.008  0.9518 -1.6641 -2.0670
 1279SOL     OW15472   0.375   2.111   3.490 -0.3981  0.1383 -0.2887
 1279SOL    HW115473   0.302   2.051   3.472 -0.1452  0.4523 -2.2674
 1279SOL    HW215474   0.374   2.176   3.420  1.3908  1.8270  1.2544
 1280SOL     OW15475   3.358   3.907   3.078  0.1236 -0.1221  0.3864
 1280SOL    HW115476   3.414   3.846   3.126  0.8430  0.4437  0.2681
 1280SOL    HW215477   3.416   3.924   3.003 -2.7494 -1.0578 -2.0650
 1281SOL     OW15478   4.498   0.988   4.800 -0.0017 -0.1177 -0.2821
 1281SOL    HW115479   4.528   1.067   4.757 -0.6759  0.9352  1.1730
 1281SOL    HW215480   4.414   0.968   4.758 -0.6072 -0.6632  1.1644
 1282SOL     OW15481   4.079   1.284   2.422 -0.0171  0.2510 -0.1980
 1282SOL    HW115482   4.096   1.195   2.454 -0.0088  0.7759  1.2617
 1282SOL    HW215483   4.162   1.324   2.449 -1.1036  1.5152  1.2791
 1283SOL     OW15484   0.350   1.164   7.454  0.6760  0.5761  0.1972
 1283SOL    HW115485   0.435   1.180   7.412  0.9607 -0.2247  0.4798
 1283SOL    HW215486   0.303   1.120   7.383 -0.1227 -0.4268  1.3447
 1284SOL     OW15487   0.973   2.987   0.751 -0.1111 -0.4015 -0.6998
 1284SOL    HW115488   1.023   3.067   0.769  0.0541 -0.4828 -0.7920
 1284SOL    HW215489   1.034   2.922   0.788  1.2363  0.5743 -1.2009
 1285SOL     OW15490   1.728   0.013   4.732  0.1318 -0.0345 -0.1805
 1285SOL    HW115491   1.768   4.707   4.807 -1.7840  0.2162  0.9926
 1285SOL    HW215492   1.760   0.102   4.746 -0.2289 -0.1579  1.4036
 1286SOL     OW15493   1.227   3.045   8.359  0.7171 -0.4007  0.6061
 1286SOL    HW115494   1.196   3.102   8.289  0.2332 -0.2702  0.9249
 1286SOL    HW215495   1.225   3.108   8.431 -2.2775  0.0314  0.1477
 1287SOL     OW15496   4.676   0.735   9.772 -0.0001 -0.5273 -0.4481
 1287SOL    HW115497   0.024   0.775   9.761  1.0090 -1.8799  2.4368
 1287SOL    HW215498   4.695   0.641   9.765  0.6045 -0.2485 -2.6438
 1288SOL     OW15499   2.233   0.900   8.652 -0.0951 -0.0925 -0.3572
 1288SOL    HW115500   2.207   0.894   8.744 -0.5925 -0.1766 -0.5028
 1288SOL    HW215501   2.325   0.881   8.670  0.2817  2.9059  0.7493
 1289SOL     OW15502   1.138   1.884   4.063  0.2905 -0.5665  0.0183
 1289SOL    HW115503   1.102   1.963   4.023  2.1264 -0.4107 -1.3562
 1289SOL    HW215504   1.178   1.827   3.997 -1.2400 -2.8702  1.0770
 1290SOL     OW15505   2.816   2.516   2.359 -0.2779 -0.4565 -0.1251
 1290SOL    HW115506   2.876   2.503   2.432 -0.5799 -1.2672 -0.0205
 1290SOL    HW215507   2.740   2.468   2.393 -0.4876 -0.8981 -1.1996
 1291SOL     OW15508   0.306   4.587   7.864  0.0160 -0.0777 -0.2230
 1291SOL    HW115509   0.293   4.497   7.834 -0.5528  0.2612 -0.9786
 1291SOL    HW215510   0.218   4.623   7.851  1.0814  2.6222  0.1300
 1292SOL     OW15511   3.450   3.249   8.988  0.6751 -0.4247  0.1653
 1292SOL    HW115512   3.526   3.294   9.024 -0.3846  0.4927  1.2401
 1292SOL    HW215513   3.391   3.325   8.985  1.0773 -0.1208 -0.0817
 1293SOL     OW15514   0.147   4.512   5.391  0.1560 -0.7784 -0.6172
 1293SOL    HW115515   0.137   4.550   5.304 -1.8304 -1.9381 -0.8994
 1293SOL    HW215516   0.201   4.579   5.434 -1.5596  0.5702 -0.5739
 1294SOL     OW15517   2.947   2.356   4.999  0.1460  0.5511  0.6090
 1294SOL    HW115518   2.953   2.264   4.976 -1.1885 -0.5828  4.7999
 1294SOL    HW215519   3.025   2.389   4.955 -0.6284 -1.2660 -2.1538
 1295SOL     OW15520   4.366   4.612   8.036  0.0365  0.6158  0.0692
 1295SOL    HW115521   4.398   4.547   7.973 -1.3412  1.2290 -1.2387
 1295SOL    HW215522   4.352   4.695   7.991 -1.9194  1.4906  2.3314
 1296SOL     OW15523   3.585   1.603   7.804  0.1074 -0.8375  0.4416
 1296SOL    HW115524   3.629   1.588   7.720 -0.7228  0.9610 -0.3123
 1296SOL    HW215525   3.653   1.645   7.857 -0.2937  0.3453  0.0079
 1297SOL     OW15526   1.771   3.363   5.518 -0.1121 -0.5010  0.4979
 1297SOL    HW115527   1.833   3.401   5.580 -0.7740  0.0864  0.7976
 1297SOL    HW215528   1.762   3.447   5.473 -3.3712 -1.2824 -0.2828
 1298SOL     OW15529   3.626   0.380   2.613  0.5219 -0.1429 -0.3643
 1298SOL    HW115530   3.592   0.319   2.679  1.4065  0.3544  0.5366
 1298SOL    HW215531   3.696   0.324   2.578  0.0854 -0.5776 -0.5515
 1299SOL     OW15532   2.121   4.480  16.219 -0.5202 -0.3827  0.1021
 1299SOL    HW115533   2.071   4.538  16.162 -0.0189 -0.5161 -0.4758
 1299SOL    HW215534   2.079   4.497  16.304  0.6879  0.2990  0.5595
 1300SOL     OW15535   3.334   0.966  12.728  0.0709 -0.0532 -0.3152
 1300SOL    HW115536   3.422   0.936  12.703 -0.7825 -1.2626 -1.9119
 1300SOL    HW215537   3.286   0.916  12.662 -0.2545 -2.9471  2.1447
 1301SOL     OW15538   4.457   3.734  11.969 -0.1572  0.7110  0.0250
 1301SOL    HW115539   4.549   3.709  11.979  0.1314  1.5677 -0.5581
 1301SOL    HW215540   4.458   3.803  11.903  0.3421 -0.2891 -1.0094
 1302SOL     OW15541   3.719   1.648   0.748  0.2300  0.6083 -0.1287
 1302SOL    HW115542   3.661   1.610   0.813  1.4487  0.1581  0.6884
 1302SOL    HW215543   3.768   1.578   0.705 -0.9111  1.2834 -2.5387
 1303SOL     OW15544   2.972   1.663   5.344 -0.3890 -0.3104 -0.3654
 1303SOL    HW115545   2.898   1.659   5.284  1.3224 -1.0917 -2.4496
 1303SOL    HW215546   2.937   1.696   5.427  0.3887 -0.5341  0.0570
 1304SOL     OW15547   1.067   0.247   7.379  0.1392  0.5331  0.0627
 1304SOL    HW115548   1.084   0.305   7.454 -0.8933  2.4570 -1.1927
 1304SOL    HW215549   0.976   0.226   7.398 -0.1244  0.7104 -1.0320
 1305SOL     OW15550   2.295   4.045   9.232  0.2274 -0.2827 -0.2769
 1305SOL    HW115551   2.381   4.017   9.263  1.3585  1.7186 -1.5728
 1305SOL    HW215552   2.232   3.978   9.257  1.0399 -0.3877  1.4242
 1306SOL     OW15553   2.411   1.456   6.421 -0.4512  0.5143 -0.2569
 1306SOL    HW115554   2.457   1.527   6.375  1.0173 -1.1096 -1.2937
 1306SOL    HW215555   2.449   1.453   6.508  2.1023  0.7117 -1.3769
 1307SOL     OW15556   3.470   4.226  17.725  0.2042  0.0902  0.4427
 1307SOL    HW115557   3.412   4.298  17.700 -0.1097 -0.9282 -1.7306
 1307SOL    HW215558   3.401   4.167   0.007  1.7549 -0.3374  2.9361
 1308SOL     OW15559   4.574   1.040   2.344  0.5528 -0.0087  0.1554
 1308SOL    HW115560   4.577   1.112   2.408 -0.4325  1.6351 -1.6472
 1308SOL    HW215561   4.560   1.087   2.262 -2.6714 -0.0034  0.7131
 1309SOL     OW15562   1.280   2.702  13.244  0.3427  0.2975 -0.3507
 1309SOL    HW115563   1.338   2.725  13.171  0.6508  0.1973 -0.1373
 1309SOL    HW215564   1.306   2.613  13.266 -0.8655  0.1363  0.4438
 1310SOL     OW15565   0.198   0.825   6.230  0.6185  0.0777 -0.2276
 1310SOL    HW115566   0.202   0.797   6.139 -0.3894 -0.1237 -0.2158
 1310SOL    HW215567   0.264   0.775   6.277  0.7465  0.3227 -0.1420
 1311SOL     OW15568   3.969   4.706   5.804 -0.0650  0.1141  0.3283
 1311SOL    HW115569   3.973   4.635   5.868  2.4286 -0.6609 -0.6626
 1311SOL    HW215570   3.993   0.039   5.863 -1.4974  1.1881 -0.3914
 1312SOL     OW15571   4.517   1.954   9.857 -0.3326 -0.3196 -0.1650
 1312SOL    HW115572   4.446   1.923   9.913 -2.2460  1.6785 -1.4518
 1312SOL    HW215573   4.525   1.872   9.809 -1.8472 -0.6606  0.1711
 1313SOL     OW15574   2.296   2.401   3.160  0.3060 -0.0105  0.1351
 1313SOL    HW115575   2.252   2.348   3.094 -0.0141  0.5565 -0.1031
 1313SOL    HW215576   2.221   2.433   3.211 -1.3574  0.4239 -2.5618
 1314SOL     OW15577   4.663   0.107   9.746 -0.0133 -0.0493 -0.2810
 1314SOL    HW115578   4.656   0.178   9.810 -0.5100 -0.2463 -0.1190
 1314SOL    HW215579   4.648   0.032   9.805  0.6605  1.1677  1.4313
 1315SOL     OW15580   4.044   3.388   1.358  0.2885 -0.1633 -0.4785
 1315SOL    HW115581   4.106   3.441   1.407  0.3406 -1.0118  0.3816
 1315SOL    HW215582   4.063   3.427   1.273  1.3082 -0.1579 -0.2544
 1316SOL     OW15583   2.325   1.276   2.284 -0.2610 -0.1826 -0.3607
 1316SOL    HW115584   2.294   1.349   2.338 -0.1924 -1.7773  1.8370
 1316SOL    HW215585   2.416   1.302   2.273 -0.2179 -0.2722 -0.2047
 1317SOL     OW15586   0.018   3.437  17.297  0.3156  0.1802  0.0012
 1317SOL    HW115587   4.698   3.512  17.282 -1.8298 -1.0127  2.3618
 1317SOL    HW215588   0.099   3.466  17.255 -0.3462  1.6013 -0.3054
 1318SOL     OW15589   4.489   3.853   3.809 -0.0316 -0.6812  0.1219
 1318SOL    HW115590   4.438   3.870   3.888 -0.1321 -1.0010  0.1263
 1318SOL    HW215591   4.443   3.771   3.789  2.6132 -2.1583  0.1853
 1319SOL     OW15592   0.584   2.330   9.660  0.2084 -0.3995 -0.0853
 1319SOL    HW115593   0.602   2.302   9.571 -2.2198 -1.0747 -0.3749
 1319SOL    HW215594   0.539   2.414   9.650 -0.9766 -0.9606  0.4136
 1320SOL     OW15595   3.360   0.623   0.671  0.1326  0.1565  0.3269
 1320SOL    HW115596   3.447   0.591   0.649  0.1952  0.3725  0.2615
 1320SOL    HW215597   3.366   0.632   0.766  0.4479 -1.2024  0.4328
 1321SOL     OW15598   4.046   0.827   4.953  0.3623 -0.6381 -0.1134
 1321SOL    HW115599   4.061   0.797   5.043 -0.3625  0.0066  0.2244
 1321SOL    HW215600   3.978   0.894   4.965 -1.3548 -2.0521 -2.0023
 1322SOL     OW15601   0.447   2.119   0.476 -0.1151  0.1507  0.1145
 1322SOL    HW115602   0.406   2.164   0.550  0.5967 -0.6322  0.9915
 1322SOL    HW215603   0.538   2.129   0.504 -1.3200  1.8648  3.3762
 1323SOL     OW15604   1.670   0.184   7.307 -0.3836 -0.1017 -0.4285
 1323SOL    HW115605   1.606   0.246   7.271 -0.0834  0.6516  0.3414
 1323SOL    HW215606   1.620   0.106   7.284  0.8362 -0.4457 -1.8798
 1324SOL     OW15607   4.465   3.187  15.989  0.3717 -0.3766  0.0530
 1324SOL    HW115608   4.490   3.251  15.922  0.7574  0.7510  1.2775
 1324SOL    HW215609   4.380   3.222  16.014  2.0158  2.3985  1.8289
 1325SOL     OW15610   2.048   1.857   8.292  0.6939  0.2605  0.4836
 1325SOL    HW115611   2.103   1.852   8.214  0.3008  0.5021  0.1917
 1325SOL    HW215612   2.049   1.951   8.309  1.0585  0.2951  0.2613
 1326SOL     OW15613   1.688   4.040  16.522 -0.2038  0.1589 -0.3939
 1326SOL    HW115614   1.778   4.010  16.536  0.5130  3.4301  1.8744
 1326SOL    HW215615   1.709   4.130  16.498 -0.3164  0.4010  0.3987
 1327SOL     OW15616   0.551   2.869   6.103 -0.2690 -0.3326 -0.7686
 1327SOL    HW115617   0.523   2.957   6.078 -0.8347 -0.0004  0.9936
 1327SOL    HW215618   0.551   2.888   6.197  0.8437 -0.3638 -0.7533
 1328SOL     OW15619   4.017   3.188   1.580 -0.7519 -0.2020  0.3638
 1328SOL    HW115620   4.098   3.155   1.541 -1.8156  0.2006 -2.1860
 1328SOL    HW215621   4.011   3.280   1.556  0.0146  0.3637  2.3201
 1329SOL     OW15622   0.965   4.490   5.146 -0.2276 -0.3300 -0.1180
 1329SOL    HW115623   0.892   4.474   5.205  0.6458  1.7704  1.5072
 1329SOL    HW215624   0.960   4.409   5.095 -1.5122  0.2397 -0.8966
 1330SOL     OW15625   4.111   4.526   9.258 -0.0830 -0.6644 -0.0628
 1330SOL    HW115626   4.110   4.460   9.189 -0.9204 -2.7431  1.9300
 1330SOL    HW215627   4.034   4.579   9.241 -0.2632 -0.8278  0.2396
 1331SOL     OW15628   3.214   2.811  13.266 -0.8364  0.2503 -0.2202
 1331SOL    HW115629   3.195   2.898  13.232 -2.4455 -0.3288 -0.8235
 1331SOL    HW215630   3.214   2.835  13.358 -0.4066  1.2922 -0.4975
 1332SOL     OW15631   0.977   1.327   7.609 -0.3485 -0.2610  0.6854
 1332SOL    HW115632   0.969   1.268   7.534 -1.8170  0.7020  0.0861
 1332SOL    HW215633   0.912   1.395   7.594  0.4591 -0.3044 -3.0759
 1333SOL     OW15634   2.591   2.441   9.111 -0.2069 -0.4204 -0.3664
 1333SOL    HW115635   2.510   2.392   9.098 -0.9408  0.2470  1.7239
 1333SOL    HW215636   2.588   2.490   9.029  0.5713 -1.3698 -0.9626
 1334SOL     OW15637   2.360   4.656  16.735  0.3372  0.2823 -0.4568
 1334SOL    HW115638   2.361   0.002  16.782 -3.5839  0.3417 -0.5112
 1334SOL    HW215639   2.286   4.605  16.768  3.2057 -2.9305  1.0228
 1335SOL     OW15640   1.866   2.327   8.559 -0.0273 -0.4704  0.0181
 1335SOL    HW115641   1.838   2.284   8.479  0.6868  0.2009 -0.5945
 1335SOL    HW215642   1.944   2.272   8.561  0.2244 -0.1242 -0.3423
 1336SOL     OW15643   4.649   2.262  10.053 -0.0360  0.2385 -0.1516
 1336SOL    HW115644   4.602   2.238   9.972  1.5896 -0.3184 -0.9274
 1336SOL    HW215645   4.581   2.311  10.099 -0.0189 -1.0054  1.1839
 1337SOL     OW15646   1.231   3.925   8.351 -0.2866 -0.3233  0.4253
 1337SOL    HW115647   1.292   3.851   8.351  0.0892 -0.0127  0.4215
 1337SOL    HW215648   1.176   3.900   8.276 -0.2726  3.5427 -0.8746
 1338SOL     OW15649   4.281   4.422   6.121  0.1040  0.8955 -0.2224
 1338SOL    HW115650   4.251   4.343   6.076  0.1384 -0.1410  1.5631
 1338SOL    HW215651   4.205   4.466   6.159  0.3959  1.2837 -0.0886
 1339SOL     OW15652   3.272   1.685  15.551  0.2226  0.0659  0.2939
 1339SOL    HW115653   3.269   1.596  15.588 -3.2590  0.2069  0.3582
 1339SOL    HW215654   3.193   1.676  15.497  1.0495  1.4664 -1.1410
 1340SOL     OW15655   2.482   3.697   8.340 -0.2705  0.1102  0.3206
 1340SOL    HW115656   2.451   3.615   8.302 -2.5211 -0.2938  3.0420
 1340SOL    HW215657   2.411   3.729   8.396  2.0842 -0.5571  3.6561
 1341SOL     OW15658   1.501   1.549  17.244 -0.2058 -0.6596  0.4578
 1341SOL    HW115659   1.410   1.524  17.258 -1.1042  0.6162 -3.0861
 1341SOL    HW215660   1.500   1.602  17.164 -1.7378  0.0802  0.9753
 1342SOL     OW15661   1.471   3.853   9.511  0.0692 -0.0973 -0.0566
 1342SOL    HW115662   1.429   3.778   9.552  3.1121 -0.3891  2.4641
 1342SOL    HW215663   1.419   3.927   9.542  0.4369 -0.1750  0.7451
 1343SOL     OW15664   4.709   2.160   8.602  0.8508 -0.2608 -0.3705
 1343SOL    HW115665   0.052   2.109   8.598  0.6893 -0.7170  2.3145
 1343SOL    HW215666   4.676   2.126   8.685  3.0605 -1.4370  0.0195
 1344SOL     OW15667   4.108   2.182   9.362  0.6645 -0.2783  0.0104
 1344SOL    HW115668   4.131   2.183   9.269 -1.8155  1.1030 -0.5772
 1344SOL    HW215669   4.019   2.151   9.348  1.0439 -0.2499 -2.4842
 1345SOL     OW15670   2.154   1.117   5.742 -0.2855  0.1097  0.2967
 1345SOL    HW115671   2.242   1.156   5.747 -0.4564  0.6336 -0.6664
 1345SOL    HW215672   2.178   1.024   5.740 -1.3389 -0.1803  1.3407
 1346SOL     OW15673   3.459   3.685   4.279 -0.1129  0.3968 -0.4751
 1346SOL    HW115674   3.420   3.634   4.350  0.0917  1.8593  0.6828
 1346SOL    HW215675   3.386   3.746   4.286  0.6591  1.3167 -0.4215
 1347SOL     OW15676   0.169   2.395  15.855 -0.4667  0.2459  0.4413
 1347SOL    HW115677   0.102   2.415  15.790 -0.7251 -2.0140 -0.0084
 1347SOL    HW215678   0.244   2.384  15.797 -0.3772  0.4422  0.5198
 1348SOL     OW15679   2.548   0.037   2.088 -0.8590 -0.1381  0.0133
 1348SOL    HW115680   2.484   0.100   2.121 -0.4030  0.5164 -0.3493
 1348SOL    HW215681   2.525   4.694   2.134  0.3562  0.0113  0.8676
 1349SOL     OW15682   1.376   3.507   7.274  0.4159 -0.3162  0.3133
 1349SOL    HW115683   1.322   3.578   7.239 -0.5955 -1.2174  0.0598
 1349SOL    HW215684   1.309   3.475   7.334  0.4315 -1.6055 -0.3702
 1350SOL     OW15685   2.500   2.585   7.447  0.4029 -0.1570  0.1689
 1350SOL    HW115686   2.416   2.624   7.472  0.5779 -0.7604  1.6846
 1350SOL    HW215687   2.537   2.544   7.525  1.0738 -1.0476 -0.6094
 1351SOL     OW15688   1.192   1.455   2.832  0.2041 -0.1815 -0.7569
 1351SOL    HW115689   1.108   1.431   2.793 -0.6890 -0.2798  1.2343
 1351SOL    HW215690   1.149   1.495   2.908  0.3757  1.7986 -1.7046
 1352SOL     OW15691   2.174   2.607  12.122  0.1171  0.2588 -0.0992
 1352SOL    HW115692   2.259   2.615  12.079 -0.5874 -1.0147 -1.7317
 1352SOL    HW215693   2.121   2.669  12.071  2.3660  2.7082  0.4970
 1353SOL     OW15694   4.556   0.825  12.719 -0.8458  0.5759  0.1805
 1353SOL    HW115695   4.582   0.791  12.633  1.1925 -1.7483  1.7235
 1353SOL    HW215696   4.531   0.741  12.756 -0.5238  0.1248 -0.6330
 1354SOL     OW15697   4.388   0.994   7.360  0.2084 -0.4773 -0.2497
 1354SOL    HW115698   4.372   0.906   7.326 -1.9533 -1.6755  3.9057
 1354SOL    HW215699   4.470   0.979   7.408  0.2096 -1.3071 -0.5062
 1355SOL     OW15700   2.262   3.793   8.462 -0.1161 -0.9409 -0.7001
 1355SOL    HW115701   2.215   3.709   8.458 -0.4542 -0.8554  1.3543
 1355SOL    HW215702   2.203   3.837   8.523 -0.2552  0.9183 -2.1950
 1356SOL     OW15703   1.237   2.201   5.122  0.0102 -0.1178  0.4982
 1356SOL    HW115704   1.198   2.188   5.036  0.8766  2.4497 -0.2696
 1356SOL    HW215705   1.256   2.294   5.128 -2.0991  0.4071 -1.1391
 1357SOL     OW15706   4.690   2.090   2.889  0.7874 -0.0298 -0.2249
 1357SOL    HW115707   0.001   2.020   2.931  0.4984 -0.5564 -0.7629
 1357SOL    HW215708   0.013   2.135   2.832  1.6207  0.6999  1.2538
 1358SOL     OW15709   2.884   0.718   3.346  0.2718 -0.0738 -0.6002
 1358SOL    HW115710   2.805   0.663   3.338 -0.4964  0.9227  0.1053
 1358SOL    HW215711   2.878   0.738   3.440 -0.4558  1.1867 -0.9231
 1359SOL     OW15712   1.458   4.715   9.578  0.2161 -0.1736  0.3978
 1359SOL    HW115713   1.513   0.029   9.637  0.2661 -0.7373  0.8502
 1359SOL    HW215714   1.528   4.650   9.570  0.8803  0.5258  0.4702
 1360SOL     OW15715   3.862   1.757   8.612 -0.2764 -0.4137 -0.5456
 1360SOL    HW115716   3.803   1.745   8.687 -0.3928 -2.9164 -1.0488
 1360SOL    HW215717   3.843   1.851   8.603  0.1328 -0.3340 -0.6066
 1361SOL     OW15718   4.529   3.802  16.629 -0.5497 -0.1026 -0.1780
 1361SOL    HW115719   4.487   3.872  16.580  1.3390  1.1298 -0.0569
 1361SOL    HW215720   4.620   3.834  16.627 -0.1217 -1.2967 -0.1067
 1362SOL     OW15721   3.037   1.005   6.092  0.3406 -0.0942 -0.2811
 1362SOL    HW115722   2.945   1.004   6.064  0.5668 -0.9683 -0.9657
 1362SOL    HW215723   3.057   1.095   6.069  0.3517 -0.2686 -0.9318
 1363SOL     OW15724   1.926   2.598   7.254 -0.2738 -0.3339 -0.2805
 1363SOL    HW115725   1.905   2.671   7.312  1.7986 -1.0474  1.3508
 1363SOL    HW215726   1.996   2.549   7.298 -2.6368 -1.1272  2.5781
 1364SOL     OW15727   2.591   1.985   7.430  0.3577  0.3130  0.5702
 1364SOL    HW115728   2.554   1.926   7.365  1.8480  0.8512 -0.7744
 1364SOL    HW215729   2.615   2.064   7.382 -1.0744  0.5636  0.2649
 1365SOL     OW15730   3.935   2.373   6.224 -0.0183 -0.2592  0.0265
 1365SOL    HW115731   3.978   2.360   6.140 -3.0668 -1.2563 -1.3790
 1365SOL    HW215732   4.005   2.424   6.265  1.5645 -2.3689 -0.1115
 1366SOL     OW15733   3.146   1.563  15.874 -0.0407  0.1155 -0.5504
 1366SOL    HW115734   3.074   1.513  15.912  0.1233  0.6414  0.4409
 1366SOL    HW215735   3.156   1.524  15.787  2.2225  0.7629 -0.5605
 1367SOL     OW15736   3.236   3.042   7.756  0.5845  0.1705 -0.4755
 1367SOL    HW115737   3.181   3.031   7.678  0.6219 -3.3073 -0.0012
 1367SOL    HW215738   3.172   3.092   7.806  0.9670 -0.7871  0.9461
 1368SOL     OW15739   4.096   4.451   7.805  0.6120  0.1256 -0.0565
 1368SOL    HW115740   4.172   4.471   7.750  0.8525  0.2664  0.3272
 1368SOL    HW215741   4.080   4.357   7.795 -0.1226  0.1245  1.1041
 1369SOL     OW15742   3.124   1.626   1.597  0.3542  0.2943  0.1915
 1369SOL    HW115743   3.091   1.578   1.674  0.9915 -0.7801 -0.2129
 1369SOL    HW215744   3.187   1.566   1.557  0.3323  0.4473 -0.0671
 1370SOL     OW15745   1.551   3.740   9.797 -0.0007  0.0831 -0.1009
 1370SOL    HW115746   1.460   3.714   9.785  0.1403 -0.8125  0.7386
 1370SOL    HW215747   1.549   3.834   9.816  2.7970  0.0815  0.2420
 1371SOL     OW15748   2.287   2.534  14.970  0.7161  0.0893 -0.1682
 1371SOL    HW115749   2.199   2.570  14.970  0.8752  0.4796  0.1526
 1371SOL    HW215750   2.306   2.537  15.064 -1.2707  0.3813  0.2233
 1372SOL     OW15751   2.244   1.801  10.450 -0.0641  0.0569 -0.3207
 1372SOL    HW115752   2.227   1.835  10.362  5.5567 -0.2404 -1.5022
 1372SOL    HW215753   2.306   1.729  10.433 -0.4184 -0.0508 -1.1708
 1373SOL     OW15754   2.250   2.705   1.285 -0.0153 -0.5776  0.2595
 1373SOL    HW115755   2.276   2.797   1.285 -0.3004 -0.5051  2.7074
 1373SOL    HW215756   2.160   2.693   1.316 -0.8033 -0.1000 -1.8564
 1374SOL     OW15757   2.235   0.406   1.667  0.1690  0.1089  0.0735
 1374SOL    HW115758   2.305   0.348   1.637 -1.1248 -1.7530  0.7020
 1374SOL    HW215759   2.179   0.341   1.709 -1.3770  1.3756 -0.0172
 1375SOL     OW15760   3.846   0.476   3.761  0.2302 -0.5561  0.0088
 1375SOL    HW115761   3.836   0.523   3.844 -0.7691 -1.6320  0.4961
 1375SOL    HW215762   3.923   0.515   3.719  0.7285 -2.6314 -0.9789
 1376SOL     OW15763   2.491   2.263  13.215 -0.7962 -0.0522  0.6758
 1376SOL    HW115764   2.432   2.301  13.149 -2.0000 -0.2295  1.6664
 1376SOL    HW215765   2.511   2.328  13.283  1.0880  1.1212 -0.9900
 1377SOL     OW15766   2.085   0.893  13.400  0.0090  0.6337 -0.2800
 1377SOL    HW115767   2.076   0.825  13.467  1.1830 -1.3543 -2.1497
 1377SOL    HW215768   2.176   0.919  13.408  0.3829 -1.0151  0.8621
 1378SOL     OW15769   0.321   0.907   3.517 -0.3217 -0.2430  0.6129
 1378SOL    HW115770   0.392   0.877   3.461  1.3797  0.2245  2.5199
 1378SOL    HW215771   0.375   0.921   3.595  1.6786  0.2546 -0.8511
 1379SOL     OW15772   0.669   0.577  11.245  0.4859  0.1386 -0.1191
 1379SOL    HW115773   0.710   0.663  11.256 -1.9038  1.3821 -0.8554
 1379SOL    HW215774   0.736   0.518  11.279 -0.3870  0.0015  1.3579
 1380SOL     OW15775   4.421   0.029   9.368  0.3281 -0.1869 -0.0897
 1380SOL    HW115776   4.493   4.704   9.372  1.8665  1.5435 -0.0857
 1380SOL    HW215777   4.460   0.094   9.310 -2.0117  1.0147 -0.3140
 1381SOL     OW15778   1.586   0.710   2.578  0.1806 -0.0793  0.2931
 1381SOL    HW115779   1.649   0.717   2.650  1.5000 -0.2392 -0.8359
 1381SOL    HW215780   1.627   0.734   2.495 -2.0926  0.0395 -0.7881
 1382SOL     OW15781   2.052   3.370   5.625 -0.1923  0.5331 -0.9154
 1382SOL    HW115782   2.079   3.452   5.667 -1.1102  0.1645  0.4023
 1382SOL    HW215783   2.126   3.357   5.565  0.6724  0.8914  0.0637
 1383SOL     OW15784   2.824   3.643   6.211  0.4509 -0.1733 -0.3134
 1383SOL    HW115785   2.804   3.550   6.211 -0.8785  0.1145  0.9465
 1383SOL    HW215786   2.918   3.658   6.205  0.4794 -0.1572  0.1604
 1384SOL     OW15787   4.517   3.407   9.350  0.0891 -0.1012  0.1167
 1384SOL    HW115788   4.479   3.494   9.341  0.8243  0.3280  1.2525
 1384SOL    HW215789   4.580   3.416   9.278 -2.0912  0.2745 -1.7707
 1385SOL     OW15790   1.617   1.016  10.932 -0.0630  0.3893 -0.2710
 1385SOL    HW115791   1.540   1.072  10.926 -0.5221 -0.0631  1.2785
 1385SOL    HW215792   1.674   1.043  10.860  0.4763 -0.4538 -0.1637
 1386SOL     OW15793   0.243   3.776   5.918  0.2014  0.2540 -0.0239
 1386SOL    HW115794   0.259   3.868   5.898  1.3257  0.7956  3.4115
 1386SOL    HW215795   0.285   3.771   6.004 -0.7445 -1.1615  0.3651
 1387SOL     OW15796   2.197   3.439   4.867  0.5107  0.4072  0.3033
 1387SOL    HW115797   2.182   3.351   4.833 -0.0041 -0.8288  3.6692
 1387SOL    HW215798   2.140   3.421   4.942  0.7613  0.7603  0.5813
 1388SOL     OW15799   2.817   1.915   9.369 -0.1498 -0.0214 -0.1702
 1388SOL    HW115800   2.784   1.974   9.437  1.7877  2.2586 -1.1855
 1388SOL    HW215801   2.802   1.832   9.413 -2.5758  1.2281  1.3085
 1389SOL     OW15802   0.067   2.938   9.034 -0.3036  0.5018  0.0598
 1389SOL    HW115803   0.143   2.995   9.022  2.0914 -2.4214  1.4136
 1389SOL    HW215804   0.110   2.853   9.026  1.7513  1.5482 -0.0327
 1390SOL     OW15805   2.317   1.317   2.631 -0.0084  0.5148  0.0937
 1390SOL    HW115806   2.324   1.408   2.659 -0.0789  0.7055 -0.5036
 1390SOL    HW215807   2.385   1.316   2.563  1.4367  1.8699  1.5209
 1391SOL     OW15808   1.216   3.263   8.130 -0.6251 -0.3236  0.3947
 1391SOL    HW115809   1.273   3.334   8.159 -1.5756  1.1792 -1.4142
 1391SOL    HW215810   1.153   3.322   8.089  0.2338 -1.5010 -2.6292
 1392SOL     OW15811   2.711   4.586  14.812 -0.1140  0.0320  0.1069
 1392SOL    HW115812   2.752   4.631  14.738  0.8419 -0.3827  0.3914
 1392SOL    HW215813   2.622   4.621  14.812 -0.0504  0.1887  0.6318
 1393SOL     OW15814   3.244   3.113   6.480 -0.2674  0.0753 -0.0089
 1393SOL    HW115815   3.185   3.052   6.436 -0.7067  0.8496 -0.4802
 1393SOL    HW215816   3.264   3.059   6.556 -0.9395 -0.4683 -0.2185
 1394SOL     OW15817   0.746   0.787  14.395 -0.3644  0.1268 -0.2673
 1394SOL    HW115818   0.781   0.876  14.390  1.5203 -0.4870  1.7313
 1394SOL    HW215819   0.751   0.777  14.490 -0.3039 -0.4089 -0.3284
 1395SOL     OW15820   3.955   2.044  10.855 -0.0705 -0.1518  0.2104
 1395SOL    HW115821   4.049   2.027  10.848  0.2696  1.7257  0.1568
 1395SOL    HW215822   3.927   1.977  10.793  0.4720  0.0541 -0.2495
 1396SOL     OW15823   0.215   3.000   6.105 -0.6479  0.0568 -0.4557
 1396SOL    HW115824   0.151   3.069   6.088  0.4874  1.3293  0.4005
 1396SOL    HW215825   0.293   3.034   6.062 -0.6473 -1.1147 -1.3827
 1397SOL     OW15826   2.001   2.586  13.871 -0.6199  0.0339  0.1609
 1397SOL    HW115827   1.937   2.531  13.826  0.2307  0.8719 -2.0407
 1397SOL    HW215828   1.939   2.658  13.887 -0.8121 -0.2716  0.8153
 1398SOL     OW15829   3.895   2.384   4.139  0.0394 -0.1482 -0.1370
 1398SOL    HW115830   3.967   2.345   4.187  0.6783 -0.8544 -1.6856
 1398SOL    HW215831   3.889   2.340   4.054 -1.8768  0.8825 -0.5404
 1399SOL     OW15832   3.269   3.853   9.509 -0.5064 -0.6360 -0.9184
 1399SOL    HW115833   3.353   3.877   9.548 -0.8426 -1.5633  0.3583
 1399SOL    HW215834   3.293   3.762   9.493  2.1065  0.4346 -3.0569
 1400SOL     OW15835   2.665   1.639   9.504 -0.1300  0.0534  0.6188
 1400SOL    HW115836   2.620   1.705   9.558  0.1416  0.8166 -0.0823
 1400SOL    HW215837   2.617   1.565   9.541  1.7324 -1.0417  0.8663
 1401SOL     OW15838   2.475   2.846  16.805 -0.1274  0.1118  0.2392
 1401SOL    HW115839   2.536   2.919  16.818  0.5279 -0.5729  1.0041
 1401SOL    HW215840   2.490   2.798  16.887 -0.2262 -3.0283 -1.5838
 1402SOL     OW15841   4.592   4.165   5.520 -0.5834 -0.2298 -0.0493
 1402SOL    HW115842   4.687   4.173   5.514 -0.7793 -0.4470 -3.5650
 1402SOL    HW215843   4.570   4.090   5.464  0.4506 -0.2439 -0.4269
 1403SOL     OW15844   3.441   1.206  10.407 -0.2937  0.8766 -0.3309
 1403SOL    HW115845   3.509   1.147  10.376  0.5624  2.2081 -0.9673
 1403SOL    HW215846   3.415   1.156  10.485  1.3343 -0.8103 -0.8958
 1404SOL     OW15847   0.519   0.700  17.123 -0.2654  0.1855  0.3339
 1404SOL    HW115848   0.475   0.684  17.206  1.1148  0.5474  1.1491
 1404SOL    HW215849   0.456   0.651  17.070 -0.3814  1.3455 -0.5996
 1405SOL     OW15850   0.984   2.956  14.690  0.1995  1.0921  0.3274
 1405SOL    HW115851   1.025   2.869  14.684  0.4459  1.3839 -2.1021
 1405SOL    HW215852   0.902   2.929  14.649 -0.3210 -1.6767  3.2035
 1406SOL     OW15853   2.222   3.549   8.619 -0.5984  0.7051 -0.1912
 1406SOL    HW115854   2.279   3.596   8.681 -1.7927  1.0309  0.6651
 1406SOL    HW215855   2.279   3.476   8.595 -0.1314  0.7210  0.8596
 1407SOL     OW15856   1.489   3.492  14.654  0.2183 -0.5162  0.0810
 1407SOL    HW115857   1.568   3.449  14.623 -0.6539 -0.4293 -2.2799
 1407SOL    HW215858   1.435   3.497  14.575  2.6556 -1.0275 -1.6307
 1408SOL     OW15859   1.727   1.004   9.104  0.9638  0.2940 -0.2107
 1408SOL    HW115860   1.784   0.928   9.114  1.5804  0.4161 -2.6660
 1408SOL    HW215861   1.725   1.020   9.198  0.2097  1.5069 -0.4351
 1409SOL     OW15862   4.325   4.456   1.024 -0.6994 -0.8892  0.1583
 1409SOL    HW115863   4.323   4.431   0.931  0.6804 -2.4058  0.5268
 1409SOL    HW215864   4.291   4.374   1.061 -1.1046 -1.1972 -0.8774
 1410SOL     OW15865   2.530   4.639   7.010  0.2037  0.0072 -0.7116
 1410SOL    HW115866   2.593   4.674   6.947 -2.4687  1.1373 -2.7941
 1410SOL    HW215867   2.454   4.661   6.955  0.9166  3.0343 -0.5298
 1411SOL     OW15868   2.656   1.767   4.739  0.5667 -0.5021 -0.0691
 1411SOL    HW115869   2.588   1.701   4.756 -1.4838  1.8285  0.7500
 1411SOL    HW215870   2.609   1.849   4.727 -2.4118 -2.0305  1.1354
 1412SOL     OW15871   3.873   0.546  13.016  0.1749 -0.0403 -0.4099
 1412SOL    HW115872   3.803   0.603  12.985 -1.1009 -1.0341  0.5994
 1412SOL    HW215873   3.902   0.507  12.934  1.7291  0.3116 -0.0260
 1413SOL     OW15874   2.621   3.506   2.254  0.5578 -0.0669  0.2860
 1413SOL    HW115875   2.547   3.564   2.236 -0.3176 -1.0407  0.7680
 1413SOL    HW215876   2.646   3.547   2.337  2.1227  0.7692 -0.6029
 1414SOL     OW15877   4.564   0.986   6.799  0.7007  0.1320  0.1420
 1414SOL    HW115878   4.650   0.948   6.780 -0.4438 -2.2007 -0.3692
 1414SOL    HW215879   4.579   1.057   6.862  0.4498 -0.3322  0.7272
 1415SOL     OW15880   2.257   4.538   8.638 -0.0562  0.0358 -0.1329
 1415SOL    HW115881   2.189   4.484   8.598 -0.3508  0.2638  0.0643
 1415SOL    HW215882   2.201   4.599   8.686  0.4418  2.2103 -2.2923
 1416SOL     OW15883   2.636   2.261   8.114 -0.1675  0.4346  0.6289
 1416SOL    HW115884   2.635   2.179   8.163  2.0653 -0.3925 -0.7085
 1416SOL    HW215885   2.673   2.247   8.027  0.6207 -3.4409  1.5755
 1417SOL     OW15886   0.474   1.746   5.394 -0.3773 -0.1527  0.1536
 1417SOL    HW115887   0.475   1.721   5.301 -0.4454  0.6447 -0.0590
 1417SOL    HW215888   0.397   1.695   5.420 -0.7716 -0.6645 -2.0097
 1418SOL     OW15889   3.873   1.903   8.880 -0.1142  0.9086 -0.2157
 1418SOL    HW115890   3.956   1.879   8.839  0.8147  1.1399  1.5615
 1418SOL    HW215891   3.816   1.829   8.902  2.9475 -0.6131  2.4079
 1419SOL     OW15892   0.425   1.887  10.732  0.2097 -0.2958 -0.1021
 1419SOL    HW115893   0.516   1.861  10.716  0.1450 -0.4158 -0.2832
 1419SOL    HW215894   0.440   1.980  10.715  0.5004 -0.4210 -0.5545
 1420SOL     OW15895   3.631   0.363   1.643 -0.0014 -0.1445  0.3101
 1420SOL    HW115896   3.712   0.347   1.594 -0.3919  1.5722 -0.8899
 1420SOL    HW215897   3.631   0.279   1.689  0.4868  0.1309  0.8203
 1421SOL     OW15898   3.539   0.141  11.864  0.2438 -0.0839  0.2780
 1421SOL    HW115899   3.454   0.107  11.837  0.0404  0.0348  0.7675
 1421SOL    HW215900   3.587   0.060  11.844 -1.5677 -0.8367 -1.0410
 1422SOL     OW15901   4.667   0.753   3.221 -0.4323  0.2855 -0.3541
 1422SOL    HW115902   0.008   0.803   3.240 -0.0724 -0.7796  0.9187
 1422SOL    HW215903   4.628   0.740   3.308 -0.6776  0.5341 -0.4242
 1423SOL     OW15904   3.596   0.488   6.595  0.3437  0.3409 -0.1938
 1423SOL    HW115905   3.677   0.530   6.622  1.2563 -2.3557  1.1830
 1423SOL    HW215906   3.625   0.434   6.522 -2.1893 -0.6599 -0.4689
 1424SOL     OW15907   4.674   2.867   5.127  0.6378 -0.0338 -0.2182
 1424SOL    HW115908   4.649   2.953   5.160  0.6184  0.3170 -1.1425
 1424SOL    HW215909   0.005   2.888   5.063  1.7896 -0.7896  0.7703
 1425SOL     OW15910   2.634   0.867  16.226  0.1519 -0.2184  0.0170
 1425SOL    HW115911   2.627   0.793  16.285 -0.1196 -0.2216 -0.0193
 1425SOL    HW215912   2.725   0.848  16.201  0.8984 -0.4475  2.9314
 1426SOL     OW15913   2.969   1.772   4.995  0.2905 -0.1789 -0.1076
 1426SOL    HW115914   2.893   1.828   5.010  0.0070 -0.2269 -1.3040
 1426SOL    HW215915   2.940   1.686   5.025 -2.7193  1.2993  1.2082
 1427SOL     OW15916   1.782   0.127   5.130  0.3406  0.1261  0.1626
 1427SOL    HW115917   1.814   0.120   5.220  2.0648 -0.1149 -0.4484
 1427SOL    HW215918   1.813   0.211   5.098  1.6079  0.4298  2.1673
 1428SOL     OW15919   3.208   1.065   3.231  0.6108  0.3001 -0.2193
 1428SOL    HW115920   3.296   1.037   3.207  0.9096 -1.0979  2.5146
 1428SOL    HW215921   3.160   0.987   3.206 -0.0730  0.3331  1.0198
 1429SOL     OW15922   4.120   4.264  13.890  0.0241  0.4091  0.1701
 1429SOL    HW115923   4.033   4.231  13.867  0.7150 -0.8878 -0.6062
 1429SOL    HW215924   4.117   4.359  13.880 -0.2245  0.4697  0.8588
 1430SOL     OW15925   4.324   0.453   6.978  0.9243 -0.1849 -0.0247
 1430SOL    HW115926   4.251   0.502   7.017 -0.0997 -2.0387  0.4471
 1430SOL    HW215927   4.283   0.370   6.952  2.5433 -1.1236  0.4189
 1431SOL     OW15928   0.807   4.580   3.691 -0.3021 -0.2698 -0.0278
 1431SOL    HW115929   0.873   4.581   3.760 -0.6146  2.5497  0.2509
 1431SOL    HW215930   0.842   4.511   3.635  1.8506  0.5481  0.2938
 1432SOL     OW15931   1.559   2.536   5.747 -0.1001  0.2626 -0.0245
 1432SOL    HW115932   1.605   2.529   5.830  1.5764 -2.4316 -1.1795
 1432SOL    HW215933   1.591   2.461   5.698  1.9237  1.1387 -0.0506
 1433SOL     OW15934   2.439   3.998   6.436 -0.3761 -0.2279  0.0055
 1433SOL    HW115935   2.510   3.934   6.429  1.5135  1.8801 -0.2354
 1433SOL    HW215936   2.391   3.960   6.510 -0.2602  2.5549  1.5310
 1434SOL     OW15937   4.498   4.610   0.819 -0.0966 -0.1152  0.0504
 1434SOL    HW115938   4.413   4.635   0.856  0.8925 -0.4894  2.5079
 1434SOL    HW215939   4.482   4.533   0.764  1.6966 -0.1709 -0.3953
 1435SOL     OW15940   3.432   3.300  13.480 -0.1371 -0.6245  0.1642
 1435SOL    HW115941   3.357   3.297  13.539 -1.2012 -1.3126 -1.2090
 1435SOL    HW215942   3.497   3.284  13.548 -0.2733 -1.3465  0.1229
 1436SOL     OW15943   4.473   2.499   9.465  0.2709 -0.0983  0.3719
 1436SOL    HW115944   4.495   2.572   9.523 -2.4668 -0.3189  1.6619
 1436SOL    HW215945   4.507   2.532   9.381  0.0455  0.9504  0.6944
 1437SOL     OW15946   0.463   3.205   4.221  0.1845  0.2450  1.0751
 1437SOL    HW115947   0.378   3.223   4.181  2.0057  0.5438 -2.6515
 1437SOL    HW215948   0.467   3.289   4.268 -0.3152 -1.1249  3.5726
 1438SOL     OW15949   4.336   0.053   2.535 -0.4722 -0.3710  0.1074
 1438SOL    HW115950   4.258   0.100   2.505  1.6465  3.2255  0.2012
 1438SOL    HW215951   4.393   0.106   2.591 -1.5094  0.9491 -0.0810
 1439SOL     OW15952   1.987   2.860   4.612  0.5432 -0.2945 -0.1812
 1439SOL    HW115953   1.954   2.770   4.611  0.1738 -0.1768  1.1812
 1439SOL    HW215954   2.066   2.844   4.562  0.6685 -2.5649  0.7721
 1440SOL     OW15955   1.968   1.044   0.424  0.1114  0.5042 -0.1404
 1440SOL    HW115956   1.891   1.088   0.460  0.5430  1.3825 -0.2938
 1440SOL    HW215957   1.982   1.079   0.336  0.3507 -0.0792 -0.3290
 1441SOL     OW15958   1.079   0.637   5.621 -0.2776 -0.4139 -0.1292
 1441SOL    HW115959   1.009   0.676   5.568 -1.1481  0.5816  1.7692
 1441SOL    HW215960   1.035   0.586   5.689 -0.2526  0.9410  0.9113
 1442SOL     OW15961   4.359   3.596  10.204 -0.0195 -0.7970 -0.3752
 1442SOL    HW115962   4.411   3.582  10.283 -0.4273 -0.5974 -0.0696
 1442SOL    HW215963   4.271   3.628  10.228 -0.0505 -1.2907  0.1663
 1443SOL     OW15964   3.441   0.626  16.563 -0.2802  0.5412  0.7462
 1443SOL    HW115965   3.502   0.655  16.630 -1.5759 -1.0879  2.6156
 1443SOL    HW215966   3.493   0.602  16.485  1.5118  2.2255  1.4292
 1444SOL     OW15967   1.930   0.018   6.860 -0.5719 -0.4123  0.5610
 1444SOL    HW115968   1.916   0.053   6.948 -0.9605  1.7654 -0.3818
 1444SOL    HW215969   1.941   0.101   6.815 -0.4570 -0.6278  0.1941
 1445SOL     OW15970   0.233   3.290   9.292  0.3379 -0.2897  0.0929
 1445SOL    HW115971   0.171   3.332   9.352  1.0969  1.5144 -0.3894
 1445SOL    HW215972   0.172   3.260   9.225 -0.1839  1.4434 -0.2071
 1446SOL     OW15973   0.240   3.325   4.969 -0.6481 -0.1656  0.2630
 1446SOL    HW115974   0.227   3.278   5.051  0.1656 -1.6781 -0.4911
 1446SOL    HW215975   0.221   3.263   4.899 -2.3060 -0.9061  1.3767
 1447SOL     OW15976   3.524   2.050   8.641 -0.2107  0.0425 -0.7852
 1447SOL    HW115977   3.513   2.125   8.583 -0.8387  0.3417 -0.2763
 1447SOL    HW215978   3.478   1.984   8.589  2.2091 -2.1220 -0.1487
 1448SOL     OW15979   0.090   1.569   6.678  0.2194  0.6693 -0.0276
 1448SOL    HW115980   0.148   1.516   6.624 -0.3906  0.3470 -0.3716
 1448SOL    HW215981   0.152   1.590   6.747  0.7617 -1.7796  0.2209
 1449SOL     OW15982   1.544   4.693   5.384  0.1317 -0.5329 -0.0725
 1449SOL    HW115983   1.626   4.719   5.427 -0.0044 -0.9887  0.4640
 1449SOL    HW215984   1.557   4.598   5.383 -0.1429 -0.5959  1.9431
 1450SOL     OW15985   0.688   0.510  10.963 -0.1071 -0.3787  0.0735
 1450SOL    HW115986   0.656   0.563  11.036  1.2597  0.7904 -0.1579
 1450SOL    HW215987   0.760   0.468  11.010  0.6476  0.8527  0.0395
 1451SOL     OW15988   3.488   4.239   7.070 -0.0001  0.6288  0.2525
 1451SOL    HW115989   3.536   4.207   6.993  0.4964  0.9785  0.4197
 1451SOL    HW215990   3.405   4.273   7.037 -0.7713 -0.5080  1.0570
 1452SOL     OW15991   2.450   2.021   3.152  0.0586 -0.0933 -0.2955
 1452SOL    HW115992   2.478   2.072   3.076 -0.8283  0.4648 -0.2421
 1452SOL    HW215993   2.504   2.066   3.217 -0.7273 -0.2562  0.4677
 1453SOL     OW15994   0.290   2.254  16.029 -0.1223  0.6542  0.5079
 1453SOL    HW115995   0.304   2.319  16.098 -0.7223  1.1934  0.1236
 1453SOL    HW215996   0.246   2.315  15.970  0.3429 -0.5874 -1.1053
 1454SOL     OW15997   1.347   1.368   4.464  0.3400 -0.1933 -0.8253
 1454SOL    HW115998   1.406   1.359   4.539 -1.8422  0.6777  1.0054
 1454SOL    HW215999   1.399   1.434   4.417  1.4744 -0.3897  0.1325
 1455SOL     OW16000   0.082   4.668   4.743 -0.4985 -0.0534 -0.2006
 1455SOL    HW116001   0.073   0.017   4.703  1.8360 -0.0127 -0.5942
 1455SOL    HW216002   0.164   4.674   4.791  0.3133  0.9051 -1.7202
 1456SOL     OW16003   0.999   4.487   1.394  0.0476 -0.2669  0.2143
 1456SOL    HW116004   1.061   4.561   1.394  3.3077 -2.9825 -2.9634
 1456SOL    HW216005   1.066   4.420   1.384 -1.3100 -1.8075  1.5775
 1457SOL     OW16006   1.653   4.378   7.022  0.2694 -0.1184  0.4411
 1457SOL    HW116007   1.715   4.416   6.959  0.9741 -3.2051 -0.7336
 1457SOL    HW216008   1.703   4.297   7.037 -2.3941 -2.2299 -2.1403
 1458SOL     OW16009   1.215   1.018   5.525  0.2830 -0.8072 -0.3032
 1458SOL    HW116010   1.304   0.982   5.529  0.5771 -0.1996 -1.3049
 1458SOL    HW216011   1.233   1.111   5.510  2.4425 -1.1611  0.0936
 1459SOL     OW16012   4.452   2.963   6.376  0.2819 -0.1056 -0.1664
 1459SOL    HW116013   4.542   2.934   6.358  0.0022 -1.1286  0.0722
 1459SOL    HW216014   4.423   2.978   6.286 -0.0118  1.6735  0.2279
 1460SOL     OW16015   0.230   0.141   5.944 -0.2469  0.5901 -0.2186
 1460SOL    HW116016   0.268   0.083   6.010 -0.1769 -0.8458 -1.5152
 1460SOL    HW216017   0.155   0.188   5.980 -1.1175 -1.1677  0.2496
 1461SOL     OW16018   0.382   3.753   3.140  1.3418 -0.7824 -0.6986
 1461SOL    HW116019   0.477   3.752   3.136  1.3120  1.9758 -2.3319
 1461SOL    HW216020   0.364   3.722   3.229  1.0731  1.6348  0.0818
 1462SOL     OW16021   2.557   2.996  13.652  0.2211 -0.4218 -0.3201
 1462SOL    HW116022   2.642   3.002  13.696 -0.4892 -0.9996  1.1094
 1462SOL    HW216023   2.506   3.039  13.720  1.8335  0.3277  0.4163
 1463SOL     OW16024   4.157   1.245   8.362  0.3236 -0.5183 -0.6918
 1463SOL    HW116025   4.232   1.191   8.340  1.4591  2.1242 -3.2102
 1463SOL    HW216026   4.086   1.184   8.384  2.0517 -1.3330  2.5788
 1464SOL     OW16027   1.943   4.509   6.946  0.2196 -0.0558 -0.4181
 1464SOL    HW116028   1.957   4.499   7.040  0.4203 -2.1121 -0.6634
 1464SOL    HW216029   1.965   4.601   6.936  2.0772 -0.5838 -1.2116
 1465SOL     OW16030   0.865   3.286   2.726  0.1833 -0.2593  0.5230
 1465SOL    HW116031   0.831   3.375   2.737  0.7974 -0.0355  0.6513
 1465SOL    HW216032   0.959   3.284   2.746  0.5284 -0.3691 -1.1381
 1466SOL     OW16033   1.853   0.985   7.731 -0.2488 -0.2072  0.5268
 1466SOL    HW116034   1.838   0.897   7.699 -0.1159  0.6092 -1.7696
 1466SOL    HW216035   1.943   0.972   7.761 -0.1555 -0.8309 -0.0346
 1467SOL     OW16036   4.387   0.933   7.888  0.7342 -0.2830  0.2850
 1467SOL    HW116037   4.321   0.994   7.920 -0.6526 -1.0539 -1.1512
 1467SOL    HW216038   4.467   0.950   7.939 -0.5055  0.5725  1.9330
 1468SOL     OW16039   2.159   2.924   9.454 -0.4884 -0.3676  0.0377
 1468SOL    HW116040   2.190   2.955   9.369 -3.1320  0.3252 -0.6757
 1468SOL    HW216041   2.096   2.854   9.437 -0.4156 -0.1020 -1.3023
 1469SOL     OW16042   4.373   4.535   9.178 -0.0099 -0.2209 -0.6093
 1469SOL    HW116043   4.388   4.623   9.144 -0.5038 -0.7877 -2.2958
 1469SOL    HW216044   4.279   4.548   9.193  0.1444 -1.4811  1.3378
 1470SOL     OW16045   1.050   2.998   7.715  0.3955  0.2785  0.7550
 1470SOL    HW116046   1.046   3.017   7.622  3.0687 -0.1204  0.5619
 1470SOL    HW216047   0.959   2.996   7.743  0.2940  0.8284  0.4614
 1471SOL     OW16048   4.487   1.132  11.171  0.5233  0.4826 -0.4357
 1471SOL    HW116049   4.553   1.099  11.110  1.0004 -0.8717  0.8144
 1471SOL    HW216050   4.407   1.132  11.118  0.3473 -1.1249 -0.1612
 1472SOL     OW16051   0.954   3.005   6.965  0.8447  0.0406 -0.1450
 1472SOL    HW116052   0.914   3.026   6.881 -0.9435  1.5293  1.0904
 1472SOL    HW216053   0.877   2.981   7.016  0.1463  2.3117 -0.1344
 1473SOL     OW16054   4.546   3.102   8.927  0.4015  0.2960 -0.2266
 1473SOL    HW116055   4.639   3.084   8.938  0.3566 -0.3069 -0.8573
 1473SOL    HW216056   4.545   3.192   8.959 -2.2593 -0.6184  2.2800
 1474SOL     OW16057   1.098   2.043  15.491 -0.0788  0.1243  0.3933
 1474SOL    HW116058   1.134   1.977  15.431 -2.7088 -1.4888  0.5761
 1474SOL    HW216059   1.146   2.023  15.572  1.8587 -0.9972 -1.0018
 1475SOL     OW16060   3.075   0.912   8.100 -0.1509  0.2869 -0.0367
 1475SOL    HW116061   3.129   0.838   8.072 -0.2633 -0.0098  0.5407
 1475SOL    HW216062   2.993   0.890   8.056 -0.3958 -1.1786  1.1590
 1476SOL     OW16063   2.039   1.143   7.383  0.1859  0.0158  0.3953
 1476SOL    HW116064   1.958   1.195   7.387 -0.7306 -1.3146 -0.8077
 1476SOL    HW216065   2.090   1.191   7.448 -0.7514  0.1855  1.0209
 1477SOL     OW16066   4.142   0.269   3.353  0.5943  0.3300  0.1136
 1477SOL    HW116067   4.148   0.266   3.257  1.4613 -3.3889  0.2822
 1477SOL    HW216068   4.195   0.193   3.375  0.0005 -0.3294 -0.7089
 1478SOL     OW16069   4.087   1.660   3.053 -0.2384 -0.2367 -0.8313
 1478SOL    HW116070   4.040   1.705   2.983 -3.0815 -0.1097  1.1415
 1478SOL    HW216071   4.067   1.567   3.044 -0.4231 -0.1003 -1.7801
 1479SOL     OW16072   4.357   1.299   4.459 -0.0431 -0.3677  0.3276
 1479SOL    HW116073   4.262   1.305   4.460 -0.1618 -2.4085 -0.0095
 1479SOL    HW216074   4.380   1.280   4.368 -0.4116 -2.3450  0.6475
 1480SOL     OW16075   2.266   4.307   8.194  0.1623  0.0352  0.4217
 1480SOL    HW116076   2.206   4.290   8.267 -3.2404 -1.8119 -2.8044
 1480SOL    HW216077   2.243   4.400   8.184  0.5691  0.0967  0.0486
 1481SOL     OW16078   2.024   2.588   1.913  0.0896  0.1384 -0.1910
 1481SOL    HW116079   1.992   2.512   1.961 -0.3500 -0.4177 -1.3485
 1481SOL    HW216080   1.940   2.633   1.916 -0.1183 -0.0645 -2.5737
 1482SOL     OW16081   0.718   0.624   7.988 -0.0818 -0.1576  0.0251
 1482SOL    HW116082   0.685   0.622   8.078 -2.1516  1.6979 -0.6573
 1482SOL    HW216083   0.810   0.600   7.989 -0.3986 -1.3976 -0.9549
 1483SOL     OW16084   4.038   1.989  11.189  0.1635 -0.3775 -0.1614
 1483SOL    HW116085   4.084   2.021  11.266  1.5127 -2.0922 -0.2441
 1483SOL    HW216086   4.092   1.916  11.160  1.1856  0.8034 -1.2261
 1484SOL     OW16087   1.519   1.089   7.433 -0.0203  0.6172 -0.4362
 1484SOL    HW116088   1.589   1.065   7.372  0.1168  1.2042 -0.5044
 1484SOL    HW216089   1.472   1.006   7.427  0.0744  0.5663 -0.4764
 1485SOL     OW16090   4.195   1.811   6.936  1.3957 -0.2313  0.4211
 1485SOL    HW116091   4.280   1.802   6.892  1.3461 -0.0388  0.2856
 1485SOL    HW216092   4.143   1.766   6.869  2.4306 -1.8656  0.7263
 1486SOL     OW16093   4.444   2.626   9.244 -0.1703  0.1832 -0.1852
 1486SOL    HW116094   4.511   2.654   9.182 -0.5641  0.3182 -0.5419
 1486SOL    HW216095   4.393   2.702   9.271 -0.6323  0.2186 -1.1836
 1487SOL     OW16096   3.779   1.500   4.155 -0.0808  0.5288  0.1341
 1487SOL    HW116097   3.828   1.457   4.085 -1.2120  0.3372 -0.5266
 1487SOL    HW216098   3.693   1.458   4.149 -0.3382  1.2246 -0.9760
 1488SOL     OW16099   1.728   4.686   3.736 -0.1074  0.1226  0.2843
 1488SOL    HW116100   1.636   4.681   3.764 -1.1134  4.5522 -2.2380
 1488SOL    HW216101   1.738   4.591   3.740 -2.0621 -0.1572 -1.4729
 1489SOL     OW16102   0.804   2.021   6.205  0.7384  0.3388 -0.1773
 1489SOL    HW116103   0.890   2.058   6.183  0.4736  2.0194  1.6329
 1489SOL    HW216104   0.759   2.104   6.212  0.0730 -0.0991  0.7941
 1490SOL     OW16105   3.614   3.831  16.132 -0.7110  0.0963 -0.2979
 1490SOL    HW116106   3.640   3.786  16.052  0.1709  1.8103 -0.9957
 1490SOL    HW216107   3.547   3.770  16.160 -1.3332  0.2335 -1.4963
 1491SOL     OW16108   2.060   2.773   5.351  0.2018  0.5176  0.2599
 1491SOL    HW116109   2.076   2.730   5.267 -0.3436 -0.5019  0.6807
 1491SOL    HW216110   2.089   2.864   5.340  2.2418 -0.4189 -1.9927
 1492SOL     OW16111   2.270   4.139  15.402 -0.1090  0.7798  0.3034
 1492SOL    HW116112   2.338   4.201  15.429 -0.3718  0.3010  2.0713
 1492SOL    HW216113   2.222   4.135  15.484  0.7318 -3.3567  0.5877
 1493SOL     OW16114   0.186   2.947  13.996  0.6636 -0.1098  0.4455
 1493SOL    HW116115   0.115   2.885  14.012  1.1945 -0.8887 -0.2598
 1493SOL    HW216116   0.133   3.016  13.955  0.1447 -0.4454  0.5420
 1494SOL     OW16117   3.789   2.425  11.280 -0.3684  0.2389  0.0075
 1494SOL    HW116118   3.836   2.342  11.283  0.0689  0.5915  2.8063
 1494SOL    HW216119   3.721   2.408  11.346  0.4775 -2.4239  0.1938
 1495SOL     OW16120   4.380   4.239   7.832 -0.1508  0.0041  0.0919
 1495SOL    HW116121   4.441   4.179   7.790  1.3089  1.8322 -0.4118
 1495SOL    HW216122   4.419   4.321   7.802 -1.8328  0.9447  0.4500
 1496SOL     OW16123   0.024   4.221   6.060 -0.2341  0.3071  0.3614
 1496SOL    HW116124   0.032   4.204   5.966 -0.2792  0.1452  0.3870
 1496SOL    HW216125   4.691   4.284   6.067  0.0838  0.7123 -0.0723
 1497SOL     OW16126   2.999   0.204   0.437  0.3857  0.2243  0.0779
 1497SOL    HW116127   2.928   0.174   0.492 -0.3736  1.3893 -0.2721
 1497SOL    HW216128   2.980   0.294   0.409 -3.0047 -0.9480 -1.3658
 1498SOL     OW16129   2.624   1.219   8.941 -0.1970  0.0385  0.0747
 1498SOL    HW116130   2.701   1.245   8.992 -0.2876  0.0012  0.2302
 1498SOL    HW216131   2.659   1.171   8.867  3.4511  0.2066  1.6637
 1499SOL     OW16132   1.800   0.636   9.235  0.5018 -0.2418  0.0529
 1499SOL    HW116133   1.753   0.648   9.152 -0.8083  0.0196  0.8223
 1499SOL    HW216134   1.836   0.548   9.229 -1.3736 -0.8439 -2.5144
 1500SOL     OW16135   2.207   2.513   8.809 -0.6676 -0.5756  0.3897
 1500SOL    HW116136   2.198   2.422   8.838  0.0536 -0.4372  1.0349
 1500SOL    HW216137   2.118   2.543   8.827 -0.3722  1.4279 -1.4896
 1501SOL     OW16138   4.036   0.016   2.559  0.5196  0.8035 -0.0370
 1501SOL    HW116139   4.058   0.067   2.481  0.3765 -0.3218 -0.8103
 1501SOL    HW216140   4.053   4.663   2.537 -1.5871  0.2386  0.7247
 1502SOL     OW16141   3.076   2.409   3.886  0.0355  0.1266  0.3207
 1502SOL    HW116142   3.169   2.409   3.909  0.6498  1.7532 -2.1081
 1502SOL    HW216143   3.081   2.395   3.791 -0.2290  2.7628 -0.0753
 1503SOL     OW16144   0.100   2.085   4.414  0.1169 -0.3761  1.2736
 1503SOL    HW116145   0.055   2.082   4.499 -0.7465  1.9115  0.8895
 1503SOL    HW216146   0.062   2.163   4.374  0.3922 -1.0686 -0.3232
 1504SOL     OW16147   4.485   4.071  17.001  0.5247 -0.4472 -0.4313
 1504SOL    HW116148   4.447   4.118  16.927 -0.3673  0.8663  0.8705
 1504SOL    HW216149   4.574   4.106  16.996  0.6615 -0.5253  1.8672
 1505SOL     OW16150   2.344   4.045   4.121  0.1786  0.0089  0.2682
 1505SOL    HW116151   2.386   3.995   4.050  2.7348 -3.5080  4.2242
 1505SOL    HW216152   2.312   3.970   4.171 -1.1859  1.8432  2.1528
 1506SOL     OW16153   3.150   2.407   5.911  0.1761  0.1426 -0.1200
 1506SOL    HW116154   3.223   2.366   5.866  0.8788 -2.3891  3.3931
 1506SOL    HW216155   3.192   2.491   5.930  0.9841 -0.4421  0.6808
 1507SOL     OW16156   4.331   0.771   6.657  0.0148  0.3476  0.2306
 1507SOL    HW116157   4.288   0.688   6.637 -2.5931  2.3285 -2.3590
 1507SOL    HW216158   4.385   0.789   6.581 -1.4165 -1.6002 -1.2285
 1508SOL     OW16159   2.791   4.103   4.548  0.5755 -0.2593 -0.1287
 1508SOL    HW116160   2.703   4.105   4.512  0.1572  0.0360  0.8882
 1508SOL    HW216161   2.768   4.064   4.633  0.8559 -1.7263 -0.7373
 1509SOL     OW16162   4.691   2.140  12.901 -0.5998  0.1079 -0.8005
 1509SOL    HW116163   4.672   2.219  12.950 -0.8437 -0.3543 -0.1565
 1509SOL    HW216164   0.044   2.116  12.916 -0.8933 -1.0680 -0.8765
 1510SOL     OW16165   3.965   1.977   3.915  0.4399 -0.7936 -0.2722
 1510SOL    HW116166   3.938   1.930   3.836 -1.2976 -1.0916  0.4982
 1510SOL    HW216167   3.893   1.949   3.970  0.4168 -0.6919 -0.2512
 1511SOL     OW16168   0.038   3.418  16.313  0.1158 -0.0319 -0.4688
 1511SOL    HW116169   0.024   3.452  16.401 -1.2735  1.7487 -1.3819
 1511SOL    HW216170   4.684   3.408  16.289 -0.2624  0.4629  0.7746
 1512SOL     OW16171   1.687   3.261   1.620  0.2985 -0.4950 -0.1705
 1512SOL    HW116172   1.634   3.217   1.687  1.0774 -1.6276 -0.2953
 1512SOL    HW216173   1.642   3.346   1.616 -0.0132 -0.6410  0.1521
 1513SOL     OW16174   3.934   0.409   6.268 -0.2206 -0.3036 -0.2172
 1513SOL    HW116175   3.851   0.384   6.307  0.5887  0.9811  2.3597
 1513SOL    HW216176   3.903   0.456   6.190 -0.1776  0.7315  0.3793
 1514SOL     OW16177   0.118   1.661   2.064 -0.2403  0.1057 -0.2015
 1514SOL    HW116178   0.136   1.621   2.148  2.8002  3.7867  0.8744
 1514SOL    HW216179   0.206   1.694   2.047  1.8887 -3.8841  3.2683
 1515SOL     OW16180   1.991   3.496   4.281  0.2537  0.0101 -0.1611
 1515SOL    HW116181   1.980   3.452   4.197 -3.5924  0.4651  0.1146
 1515SOL    HW216182   1.919   3.558   4.269 -0.3640 -0.3610  1.5945
 1516SOL     OW16183   3.161   2.453  16.006 -0.1742 -0.7527  0.0401
 1516SOL    HW116184   3.236   2.509  16.027 -2.3551  2.3195 -0.4284
 1516SOL    HW216185   3.170   2.384  16.072  0.7710  0.4603  1.1926
 1517SOL     OW16186   1.515   0.465   7.227 -0.7250  0.5294  0.2445
 1517SOL    HW116187   1.502   0.548   7.181 -0.9804  0.4787  0.2204
 1517SOL    HW216188   1.449   0.470   7.296 -1.7914 -0.1985 -0.7053
 1518SOL     OW16189   0.534   2.548   5.516  0.2699  0.1757 -0.1189
 1518SOL    HW116190   0.442   2.520   5.518  0.1594  0.5778  0.3814
 1518SOL    HW216191   0.566   2.523   5.603  0.9154  0.7640 -0.1894
 1519SOL     OW16192   2.118   4.139   8.391  0.2556 -0.0939 -0.0331
 1519SOL    HW116193   2.037   4.106   8.351  0.4118 -0.7746  0.2087
 1519SOL    HW216194   2.122   4.065   8.452 -0.8445 -0.9398 -0.9817
 1520SOL     OW16195   1.831   2.917   4.145  0.6838  0.2061 -0.0055
 1520SOL    HW116196   1.774   2.843   4.125 -1.7159  2.1024 -0.1551
 1520SOL    HW216197   1.792   2.968   4.216  0.7612 -1.0394  0.9288
 1521SOL     OW16198   0.245   0.404   4.290  0.5530  0.4135  0.1195
 1521SOL    HW116199   0.198   0.321   4.297 -1.0798  1.2935 -0.3086
 1521SOL    HW216200   0.212   0.471   4.350 -1.8645  0.1513 -0.9029
 1522SOL     OW16201   1.422   2.470  13.220 -0.0266 -0.5623  0.2416
 1522SOL    HW116202   1.510   2.464  13.256  0.3145 -0.8220 -0.6388
 1522SOL    HW216203   1.408   2.377  13.203  2.3648 -0.9590  0.4373
 1523SOL     OW16204   2.204   0.441   6.224  0.5092 -0.4403 -0.6801
 1523SOL    HW116205   2.183   0.391   6.145 -1.0217 -1.2990  0.2548
 1523SOL    HW216206   2.146   0.401   6.289  0.4425  1.2622  0.3046
 1524SOL     OW16207   4.189   0.147   1.619 -0.0548  0.4995  0.2220
 1524SOL    HW116208   4.212   0.238   1.601  0.6900  0.2808  0.0407
 1524SOL    HW216209   4.272   0.109   1.649 -0.0233  1.1187  0.9134
 1525SOL     OW16210   3.890   3.550   5.065 -0.4085 -0.1263 -0.8150
 1525SOL    HW116211   3.938   3.633   5.067 -2.1491  0.8627  0.9390
 1525SOL    HW216212   3.894   3.520   5.156 -2.1771  1.9629 -0.0399
 1526SOL     OW16213   3.253   0.112   5.046  0.2448  0.2517 -0.1144
 1526SOL    HW116214   3.170   0.160   5.052 -0.3425 -0.9027  1.1302
 1526SOL    HW216215   3.228   0.020   5.059  2.0246 -0.2635 -0.3899
 1527SOL     OW16216   0.349   1.503  11.904  0.1614  0.0751 -0.1698
 1527SOL    HW116217   0.413   1.477  11.969 -0.0389  0.8551  0.3393
 1527SOL    HW216218   0.323   1.590  11.935  1.1021  0.1029  0.5255
 1528SOL     OW16219   2.861   3.001  16.012  0.2510  0.1967  0.7084
 1528SOL    HW116220   2.866   3.089  15.975  0.3165 -0.3760 -0.6353
 1528SOL    HW216221   2.836   2.959  15.930 -2.5573  0.3475  1.4789
 1529SOL     OW16222   0.982   4.129  10.685  0.1638 -0.2338 -0.2250
 1529SOL    HW116223   0.975   4.079  10.766 -3.1248  0.9857  0.2350
 1529SOL    HW216224   0.916   4.195  10.705 -1.6409 -2.1875  0.2700
 1530SOL     OW16225   2.413   4.604   7.475 -0.2890  1.0155  0.4157
 1530SOL    HW116226   2.487   4.635   7.423  0.9739 -0.1856  1.5190
 1530SOL    HW216227   2.456   4.634   7.555 -1.0222  1.6928  0.5570
 1531SOL     OW16228   1.527   0.203   6.070  0.0918 -0.3562 -0.6066
 1531SOL    HW116229   1.573   0.250   6.139 -0.0352  0.8150 -1.3121
 1531SOL    HW216230   1.602   0.185   6.014  0.5440 -2.1971  0.5883
 1532SOL     OW16231   2.153   2.986   7.970 -0.2659  0.1951  0.4308
 1532SOL    HW116232   2.080   2.934   8.004 -0.3796 -0.5602 -0.9593
 1532SOL    HW216233   2.185   3.003   8.058  1.8827 -0.3757 -0.2340
 1533SOL     OW16234   1.498   1.683  17.020  0.0668  0.6578 -0.5288
 1533SOL    HW116235   1.469   1.615  16.960 -0.9210 -0.2438  0.9472
 1533SOL    HW216236   1.575   1.717  16.974  0.8599  0.5016  0.6884
 1534SOL     OW16237   0.740   0.678   8.958  0.2307  0.2085 -0.7001
 1534SOL    HW116238   0.677   0.651   9.026 -0.2441  2.2979 -0.3191
 1534SOL    HW216239   0.716   0.770   8.950 -0.3576  0.0484 -0.8201
 1535SOL     OW16240   2.641   2.894   2.383 -0.4323 -0.1418  0.6111
 1535SOL    HW116241   2.652   2.978   2.340  0.4103 -1.2729 -1.3958
 1535SOL    HW216242   2.620   2.921   2.472  0.8664 -1.0896  1.1996
 1536SOL     OW16243   2.452   3.923   2.590  0.2214  0.0195 -0.8001
 1536SOL    HW116244   2.408   3.951   2.671  0.3172 -2.4546  0.1123
 1536SOL    HW216245   2.531   3.976   2.586 -0.4309  0.8258 -3.0025
 1537SOL     OW16246   3.031   2.221   2.227  0.1163 -0.0349  0.2528
 1537SOL    HW116247   2.945   2.242   2.189  0.9771  0.5433 -1.3579
 1537SOL    HW216248   3.070   2.305   2.204  0.1115 -0.2656 -0.5971
 1538SOL     OW16249   4.406   3.568  15.448 -0.1310 -0.1106  0.5297
 1538SOL    HW116250   4.363   3.500  15.500 -3.0349  1.3266 -0.0292
 1538SOL    HW216251   4.438   3.514  15.375 -0.3632  1.4441 -0.7090
 1539SOL     OW16252   0.573   3.473   8.631 -0.4526 -0.1981  0.3697
 1539SOL    HW116253   0.634   3.401   8.614  0.3697  0.7008 -0.4655
 1539SOL    HW216254   0.503   3.443   8.573 -1.4335 -0.5625  1.7545
 1540SOL     OW16255   3.090   1.218   2.094  0.2966  0.2280  0.2827
 1540SOL    HW116256   2.998   1.227   2.068  0.2832  1.9792  0.9938
 1540SOL    HW216257   3.103   1.297   2.146 -1.8977 -0.4293  1.8825
 1541SOL     OW16258   1.104   0.303   9.403  0.4445  0.2149  0.3275
 1541SOL    HW116259   1.150   0.343   9.329 -0.5717  3.5696  1.5168
 1541SOL    HW216260   1.153   0.221   9.416  1.8186  0.7165 -1.6076
 1542SOL     OW16261   2.976   3.761  11.563 -0.1604 -0.1251 -0.4437
 1542SOL    HW116262   2.941   3.839  11.605  3.1343  1.4076 -0.5005
 1542SOL    HW216263   2.991   3.803  11.478  0.2274 -0.6574 -0.6428
 1543SOL     OW16264   3.708   1.037   7.158  0.0126 -0.0649 -0.4649
 1543SOL    HW116265   3.800   1.021   7.179 -0.1207 -0.1870  0.0064
 1543SOL    HW216266   3.673   0.956   7.121  0.5382  0.1398 -1.4147
 1544SOL     OW16267   2.395   1.111   8.494  0.1673 -0.2569  0.5832
 1544SOL    HW116268   2.337   1.035   8.494 -1.7074  1.1186 -2.8256
 1544SOL    HW216269   2.396   1.128   8.588 -1.1642 -0.8766  0.7082
 1545SOL     OW16270   4.458   4.559   5.752  0.4309  0.4634  0.2280
 1545SOL    HW116271   4.428   4.474   5.784  0.1177  1.3917  2.3986
 1545SOL    HW216272   4.399   4.574   5.679 -0.5224 -1.2140  0.6651
 1546SOL     OW16273   1.016   4.576   7.943 -0.4922 -0.4643 -0.4908
 1546SOL    HW116274   1.041   4.560   8.034 -1.8736 -1.5016 -0.2957
 1546SOL    HW216275   0.923   4.559   7.950 -0.4410  0.0193  1.2669
 1547SOL     OW16276   4.469   3.775   6.336  0.2205  0.4253 -0.3503
 1547SOL    HW116277   4.503   3.712   6.273  3.0368  1.4452  0.1615
 1547SOL    HW216278   4.498   3.858   6.297  1.1900  0.2785  0.0783
 1548SOL     OW16279   1.575   2.845   9.760 -0.3253  0.2475 -0.6166
 1548SOL    HW116280   1.633   2.836   9.684  0.0875 -0.7885 -0.1732
 1548SOL    HW216281   1.522   2.915   9.721 -1.6918 -0.4428 -0.0064
 1549SOL     OW16282   3.125   2.379   7.357 -0.2160  0.4214 -0.0367
 1549SOL    HW116283   3.185   2.410   7.289 -0.6662  0.8588 -0.2375
 1549SOL    HW216284   3.148   2.286   7.351 -0.9591  0.3313 -1.6975
 1550SOL     OW16285   3.742   2.587   4.210 -0.3283  0.4311  0.0197
 1550SOL    HW116286   3.795   2.509   4.227 -1.1069  0.2785  1.7933
 1550SOL    HW216287   3.659   2.573   4.255  0.1732  2.5362  1.6110
 1551SOL     OW16288   2.150   4.142   9.910 -0.2308 -0.3065 -0.1729
 1551SOL    HW116289   2.149   4.046   9.902 -3.8283 -0.1313 -1.9304
 1551SOL    HW216290   2.084   4.151   9.978  0.3006 -1.9540  0.5584
 1552SOL     OW16291   4.069   1.981   6.118 -0.5427  0.2876 -0.0474
 1552SOL    HW116292   4.135   1.997   6.184  0.3434  1.4035 -1.2010
 1552SOL    HW216293   4.054   1.888   6.137 -1.3174  0.7937  1.7855
 1553SOL     OW16294   3.597   4.259   6.247  0.0529  0.2549 -0.0936
 1553SOL    HW116295   3.544   4.339   6.240 -1.7038 -0.8872  0.1159
 1553SOL    HW216296   3.531   4.211   6.298 -1.0488  1.4057 -0.4260
 1554SOL     OW16297   3.791   4.660   4.408 -0.2895 -0.8341  0.6372
 1554SOL    HW116298   3.863   4.675   4.469  0.3115 -0.0857 -0.2490
 1554SOL    HW216299   3.714   4.645   4.463 -1.3288 -2.4749 -1.2808
 1555SOL     OW16300   2.247   1.220   1.981 -0.0408 -0.7745 -0.3513
 1555SOL    HW116301   2.315   1.193   2.043 -1.9878 -1.7827  1.3665
 1555SOL    HW216302   2.179   1.154   1.997 -4.6698  4.1104 -0.0010
 1556SOL     OW16303   4.203   4.618   3.920  0.2014 -0.3766  0.3112
 1556SOL    HW116304   4.257   4.697   3.919  1.7911 -1.4462  1.6427
 1556SOL    HW216305   4.243   4.562   3.987  2.0287  0.3873 -0.1325
 1557SOL     OW16306   0.428   2.458  17.155 -0.9925 -0.2439  0.3535
 1557SOL    HW116307   0.397   2.491  17.239  0.3600 -3.8128  2.2728
 1557SOL    HW216308   0.342   2.456  17.112 -1.2475  0.5830  0.8350
 1558SOL     OW16309   3.535   4.266   2.263  0.2751  0.0854 -0.2729
 1558SOL    HW116310   3.603   4.203   2.239 -0.7211 -1.1469  0.1477
 1558SOL    HW216311   3.561   4.345   2.216 -1.6287  0.9133  0.0434
 1559SOL     OW16312   2.218   2.624  14.070 -0.3108 -0.1119 -0.3171
 1559SOL    HW116313   2.313   2.639  14.066  0.0693 -2.2300  0.7072
 1559SOL    HW216314   2.190   2.625  13.979  1.4399 -1.6717 -0.8882
 1560SOL     OW16315   4.136   3.323  16.688  0.1797 -0.5844 -0.3892
 1560SOL    HW116316   4.107   3.309  16.599 -1.0952  0.0258 -0.0639
 1560SOL    HW216317   4.211   3.263  16.692  0.9638  0.4519  0.7573
 1561SOL     OW16318   0.202   1.427   4.121 -0.3273  0.0209  0.2960
 1561SOL    HW116319   0.195   1.333   4.138 -3.1577 -0.0845 -1.4607
 1561SOL    HW216320   0.112   1.456   4.140 -0.6103 -0.1211 -0.8290
 1562SOL     OW16321   3.863   2.250  10.517  0.3089 -0.2572  0.4142
 1562SOL    HW116322   3.806   2.192  10.567  1.4826  0.6274  2.7586
 1562SOL    HW216323   3.931   2.186  10.497 -0.7000 -0.8268 -1.1924
 1563SOL     OW16324   2.448   2.361   5.213  0.2600 -0.0333  0.2112
 1563SOL    HW116325   2.532   2.316   5.205  0.6692  0.6279  0.7753
 1563SOL    HW216326   2.427   2.334   5.302 -2.0381 -2.2756 -0.9938
 1564SOL     OW16327   3.611   1.329   2.711  0.4867 -0.3219  0.4320
 1564SOL    HW116328   3.675   1.347   2.780  0.1851  3.0566 -0.1799
 1564SOL    HW216329   3.659   1.260   2.664 -1.1079 -0.5061 -0.9301
 1565SOL     OW16330   0.153   2.849   4.520 -0.1165 -0.3078 -0.3639
 1565SOL    HW116331   0.228   2.854   4.461 -1.6627  0.6071 -2.2543
 1565SOL    HW216332   0.085   2.865   4.454  1.1932 -1.3228 -1.9593
 1566SOL     OW16333   1.290   2.346   2.379  0.0577  0.2391 -0.2179
 1566SOL    HW116334   1.334   2.431   2.375 -1.6156  1.0513 -1.0559
 1566SOL    HW216335   1.266   2.350   2.472 -0.9220  2.1327 -0.5625
 1567SOL     OW16336   4.703   0.318   7.015 -0.2936 -0.0550  0.4077
 1567SOL    HW116337   4.679   0.375   6.943  0.6033  0.6913  0.6952
 1567SOL    HW216338   0.049   0.283   6.985 -1.5254  0.3581 -3.5048
 1568SOL     OW16339   0.761   3.644   7.220 -0.4983 -0.4797 -0.1671
 1568SOL    HW116340   0.704   3.567   7.213 -2.0952  0.8187 -1.2772
 1568SOL    HW216341   0.814   3.611   7.293  0.9454  1.9527 -0.1238
 1569SOL     OW16342   4.255   2.466   4.110  0.3318  0.4510  0.4016
 1569SOL    HW116343   4.221   2.536   4.055  0.5395 -0.3392 -0.7560
 1569SOL    HW216344   4.172   2.432   4.143  0.5104  0.7153  1.1119
 1570SOL     OW16345   3.089   3.694  16.729 -0.2759  0.1261  0.1302
 1570SOL    HW116346   3.079   3.599  16.732 -2.7056  0.4210  1.7053
 1570SOL    HW216347   3.171   3.696  16.779 -1.3785 -0.2554  1.9610
 1571SOL     OW16348   4.650   2.119  17.039  0.1717 -0.8156  0.3560
 1571SOL    HW116349   4.568   2.122  16.990  0.5412  0.8424 -0.1728
 1571SOL    HW216350   4.706   2.179  16.990 -0.9283 -1.0895 -1.2500
 1572SOL     OW16351   1.416   1.876   2.612  0.3731  0.0566 -0.1997
 1572SOL    HW116352   1.359   1.860   2.688  1.0291  1.9659  0.6906
 1572SOL    HW216353   1.356   1.831   2.553  0.2292  0.9715 -0.7480
 1573SOL     OW16354   0.320   2.437  16.222 -0.0191  0.4468 -0.5369
 1573SOL    HW116355   0.237   2.484  16.228 -0.3203  0.0391 -1.4770
 1573SOL    HW216356   0.345   2.431  16.314 -0.4624 -4.6142 -0.7318
 1574SOL     OW16357   3.770   2.100  11.780  0.4211 -0.3503  0.0333
 1574SOL    HW116358   3.859   2.084  11.748  0.6505  0.0660  0.4628
 1574SOL    HW216359   3.721   2.025  11.745  0.4125 -0.1143 -0.4490
 1575SOL     OW16360   1.470   3.443   7.891  0.0151 -0.6855  1.3286
 1575SOL    HW116361   1.454   3.512   7.956  0.6690  0.7027 -0.0040
 1575SOL    HW216362   1.563   3.454   7.870 -0.2597 -0.0353  0.4512
 1576SOL     OW16363   1.286   1.774   9.441 -0.3363 -0.0470 -0.1391
 1576SOL    HW116364   1.258   1.812   9.524 -1.6632 -1.9781  0.2882
 1576SOL    HW216365   1.197   1.753   9.411 -0.8662  1.0883  0.6355
 1577SOL     OW16366   0.425   3.376   9.698  0.6872  0.6401  0.6249
 1577SOL    HW116367   0.346   3.418   9.733  1.0895  0.6624  1.5289
 1577SOL    HW216368   0.483   3.396   9.771  2.1167 -1.4001  0.0483
 1578SOL     OW16369   1.953   0.006  10.723  0.1697 -0.5266  0.1914
 1578SOL    HW116370   2.002   0.063  10.782  0.7732  0.9259 -1.6871
 1578SOL    HW216371   2.008   4.666  10.723  0.8628 -0.0272  1.2709
 1579SOL     OW16372   0.133   0.847   9.450  0.9933  0.0992  0.0639
 1579SOL    HW116373   0.100   0.764   9.484  2.8414  0.3429  2.4134
 1579SOL    HW216374   0.067   0.909   9.483  1.6212  0.6772  0.2234
 1580SOL     OW16375   0.942   1.262  17.721  0.2555  0.3531  0.2765
 1580SOL    HW116376   0.959   1.172  17.693 -0.7951  0.5072 -0.8499
 1580SOL    HW216377   0.920   1.244   0.062 -0.9980  1.1555  0.1279
 1581SOL     OW16378   0.074   4.714   5.174 -0.0404 -0.0436  0.3045
 1581SOL    HW116379   0.000   0.004   5.119  0.8201  1.6747  0.0280
 1581SOL    HW216380   0.091   0.062   5.213 -0.3129 -0.2668  0.9179
 1582SOL     OW16381   2.104   3.578  13.751 -0.0621  0.5432 -0.0374
 1582SOL    HW116382   2.181   3.559  13.698  0.2925  1.6308  0.0958
 1582SOL    HW216383   2.066   3.648  13.699 -0.5451 -0.6763 -1.3101
 1583SOL     OW16384   3.389   3.378   5.647  0.6867  0.2606 -0.0386
 1583SOL    HW116385   3.332   3.302   5.634 -2.2911  2.5393 -0.2778
 1583SOL    HW216386   3.459   3.375   5.582  0.0574 -0.2798 -0.6695
 1584SOL     OW16387   4.368   2.738   8.454 -0.0404  0.4916  0.1414
 1584SOL    HW116388   4.412   2.674   8.397 -1.0005 -0.9378  0.9870
 1584SOL    HW216389   4.429   2.811   8.455 -1.2120  1.4639 -1.7327
 1585SOL     OW16390   0.338   0.726  17.607  0.2474  0.5910 -0.3199
 1585SOL    HW116391   0.363   0.812  17.641 -1.6264  1.1954 -0.4224
 1585SOL    HW216392   0.386   0.667  17.664 -1.7574 -0.2610  0.5102
 1586SOL     OW16393   1.790   2.356  12.481  0.2574  0.8849  0.1901
 1586SOL    HW116394   1.866   2.401  12.516 -0.6757  2.6427 -0.0510
 1586SOL    HW216395   1.793   2.266  12.512 -3.4247 -0.0491 -2.0917
 1587SOL     OW16396   2.804   3.073   6.384 -0.0479 -0.2460 -0.2357
 1587SOL    HW116397   2.800   3.034   6.297 -1.3697  0.1181 -0.3437
 1587SOL    HW216398   2.744   3.148   6.373  0.4742 -0.3888 -4.0353
 1588SOL     OW16399   1.918   1.436   8.182 -0.6260 -0.1629 -0.2166
 1588SOL    HW116400   1.929   1.382   8.104 -0.7702 -0.0313 -0.3282
 1588SOL    HW216401   1.830   1.410   8.208 -0.8750  0.6474 -0.2372
 1589SOL     OW16402   1.801   3.079   6.656 -0.0394  0.1304 -0.0268
 1589SOL    HW116403   1.741   3.136   6.703 -0.2365  1.6248 -2.0945
 1589SOL    HW216404   1.889   3.113   6.671 -0.5473  1.6878 -0.5755
 1590SOL     OW16405   1.727   2.515   4.927 -0.4053  0.0971 -0.3714
 1590SOL    HW116406   1.789   2.579   4.890 -2.5966  0.6835 -3.0344
 1590SOL    HW216407   1.675   2.488   4.851  1.5101 -0.3092 -1.5562
 1591SOL     OW16408   0.404   0.267   5.364 -0.1809  0.1363 -0.1693
 1591SOL    HW116409   0.457   0.337   5.401 -2.0140  0.6296  1.5092
 1591SOL    HW216410   0.318   0.294   5.397 -0.6042 -0.8952 -0.3962
 1592SOL     OW16411   4.304   2.438   3.067 -0.0904  0.3203  0.1451
 1592SOL    HW116412   4.253   2.469   2.992 -0.2897 -1.4404 -0.4641
 1592SOL    HW216413   4.380   2.405   3.019  1.2904  1.9644  1.2164
 1593SOL     OW16414   1.563   3.871   8.776 -0.0503  0.0310  0.4361
 1593SOL    HW116415   1.487   3.847   8.828 -0.1328 -0.2095  0.2051
 1593SOL    HW216416   1.567   3.964   8.798  0.0967  0.6644 -2.2747
 1594SOL     OW16417   2.835   2.282   1.823 -0.2954 -0.2001 -0.1856
 1594SOL    HW116418   2.795   2.348   1.766  0.1279  0.6960  0.5567
 1594SOL    HW216419   2.802   2.204   1.778  0.6240 -1.3913  1.1733
 1595SOL     OW16420   1.560   4.735   5.012 -0.1597  0.8439  0.2464
 1595SOL    HW116421   1.626   0.060   5.040 -0.3598  0.1201  2.3276
 1595SOL    HW216422   1.524   0.051   4.942 -1.0768  0.4470  0.4098
 1596SOL     OW16423   4.591   1.232   2.534  0.0556  0.2354  0.2252
 1596SOL    HW116424   4.539   1.201   2.608 -0.7773  2.2869  0.4845
 1596SOL    HW216425   4.528   1.290   2.492  0.2392 -0.0161 -0.4034
 1597SOL     OW16426   2.454   3.084   3.204  0.5522  0.2304  0.3358
 1597SOL    HW116427   2.537   3.128   3.224 -0.3303  1.8823  0.4393
 1597SOL    HW216428   2.407   3.166   3.188 -1.1932 -0.7133  0.7600
 1598SOL     OW16429   0.652   0.598   2.434  0.1072  0.3627  0.1736
 1598SOL    HW116430   0.664   0.519   2.487  1.3158 -0.6248 -1.5562
 1598SOL    HW216431   0.557   0.606   2.427  0.2671 -0.1429 -2.3514
 1599SOL     OW16432   3.124   3.336   2.269  0.4473 -0.0560 -0.5252
 1599SOL    HW116433   3.029   3.348   2.264  0.7477  1.7398 -2.0985
 1599SOL    HW216434   3.124   3.285   2.349  0.9565  0.4837 -0.1809
 1600SOL     OW16435   1.029   1.204   5.883 -0.2300 -0.0326 -0.0243
 1600SOL    HW116436   1.064   1.286   5.849  0.6162 -1.2543 -2.1246
 1600SOL    HW216437   1.069   1.148   5.817  1.1666 -0.9837  1.6363
 1601SOL     OW16438   0.769   3.871   5.125  0.3812 -0.5685  0.5831
 1601SOL    HW116439   0.840   3.931   5.145 -1.1496  1.0826  1.0412
 1601SOL    HW216440   0.810   3.793   5.162  1.4938  0.0649  0.6788
 1602SOL     OW16441   1.154   3.696  14.631 -0.4381 -0.1000  0.3418
 1602SOL    HW116442   1.162   3.790  14.646 -1.7999 -0.1738  1.4490
 1602SOL    HW216443   1.165   3.670  14.723  1.6812 -1.8750 -0.4216
 1603SOL     OW16444   3.328   1.833   3.792  0.3487 -0.1859  0.0630
 1603SOL    HW116445   3.292   1.746   3.775 -0.4086  0.0210  0.5866
 1603SOL    HW216446   3.398   1.813   3.854 -0.4710 -1.9623  0.4257
 1604SOL     OW16447   1.242   3.560  16.292 -1.2915 -0.5537 -0.0927
 1604SOL    HW116448   1.209   3.649  16.305  1.9085  0.5074  0.6649
 1604SOL    HW216449   1.284   3.547  16.377 -0.7695  0.8186 -0.1294
 1605SOL     OW16450   4.633   2.454   3.576  0.4325  0.4117  0.1384
 1605SOL    HW116451   4.580   2.529   3.604  0.3145  0.5571 -0.4763
 1605SOL    HW216452   4.703   2.457   3.641  0.1631  0.4801  0.4253
 1606SOL     OW16453   0.367   2.658  14.014  0.5330 -0.3262 -0.1154
 1606SOL    HW116454   0.295   2.718  13.995 -1.5336 -2.6563  0.3701
 1606SOL    HW216455   0.432   2.712  14.060  0.2007 -1.5584  1.7828
 1607SOL     OW16456   2.005   3.592   2.378  0.5197 -0.1671  0.1919
 1607SOL    HW116457   1.944   3.518   2.382  1.8029 -1.3285 -2.3018
 1607SOL    HW216458   1.963   3.663   2.428  1.7553  0.6382  0.0723
 1608SOL     OW16459   2.273   0.087   7.290  0.1557 -0.0752  0.4262
 1608SOL    HW116460   2.209   0.127   7.230  1.1358  1.2155  0.2583
 1608SOL    HW216461   2.231   0.006   7.319 -1.3068 -0.3074 -2.2961
 1609SOL     OW16462   1.970   2.669   6.590  0.4790 -0.0794 -0.2391
 1609SOL    HW116463   2.013   2.701   6.512  1.3992  2.4995  1.3413
 1609SOL    HW216464   1.884   2.710   6.590 -0.6175 -2.3303  1.5873
 1610SOL     OW16465   2.594   3.926   1.969 -0.0252 -0.0681  0.1830
 1610SOL    HW116466   2.650   3.867   2.019 -1.6979 -0.5494  1.5130
 1610SOL    HW216467   2.525   3.939   2.034 -0.5860 -2.0557  0.0136
 1611SOL     OW16468   0.045   1.225   5.366  0.4693  0.2591 -0.3071
 1611SOL    HW116469   4.737   1.253   5.287  0.7596 -1.3532 -1.0479
 1611SOL    HW216470   0.068   1.311   5.400 -1.5119  0.6119  0.1502
 1612SOL     OW16471   4.044   2.021   7.986  0.5458  0.2217  0.4821
 1612SOL    HW116472   4.027   1.949   8.047  1.0286 -0.7437 -0.5158
 1612SOL    HW216473   4.068   2.097   8.039 -1.2740  1.7837 -0.9361
 1613SOL     OW16474   0.533   3.071   7.076  0.0509 -0.0591 -0.4195
 1613SOL    HW116475   0.459   3.078   7.137 -1.3138  0.1113 -2.1196
 1613SOL    HW216476   0.491   3.057   6.992  0.5412 -1.7000 -0.3987
 1614SOL     OW16477   3.320   0.938   3.558 -0.9489 -0.1898 -0.3265
 1614SOL    HW116478   3.250   0.901   3.504  0.3641 -0.0454 -2.1242
 1614SOL    HW216479   3.266   1.007   3.598 -0.6388 -0.3285  0.3330
 1615SOL     OW16480   3.101   0.170   9.172  0.3668  0.5515  0.6297
 1615SOL    HW116481   3.183   0.173   9.123 -1.0694 -2.2102 -1.9981
 1615SOL    HW216482   3.063   0.086   9.145  0.8334  0.3149  0.7039
 1616SOL     OW16483   3.726   0.732   2.240 -0.1370  0.6854  0.0320
 1616SOL    HW116484   3.793   0.750   2.306 -0.2639 -0.0970  0.3658
 1616SOL    HW216485   3.723   0.638   2.253 -1.2431  0.9082  1.3724
 1617SOL     OW16486   4.679   3.564  13.738  0.2744 -0.5448 -0.1805
 1617SOL    HW116487   0.029   3.598  13.721  0.2422  0.3538  1.5160
 1617SOL    HW216488   4.660   3.621  13.812  0.8489 -0.5668 -0.0174
 1618SOL     OW16489   0.503   4.611   8.656  0.0452 -0.5038 -0.1969
 1618SOL    HW116490   0.444   4.559   8.711 -1.1081 -1.7440 -2.6426
 1618SOL    HW216491   0.507   4.563   8.574  2.1749  0.6392 -0.7554
 1619SOL     OW16492   3.114   1.444   2.240  0.2260  0.0097  0.4266
 1619SOL    HW116493   3.085   1.488   2.320  0.9189  1.1678  0.0378
 1619SOL    HW216494   3.209   1.452   2.247  0.5012 -1.1073 -1.9362
 1620SOL     OW16495   0.525   3.536   5.194  0.0732  0.1673  0.1570
 1620SOL    HW116496   0.450   3.485   5.223  0.2424  0.1393  0.5432
 1620SOL    HW216497   0.523   3.616   5.247  0.5719 -0.8953  1.7707
 1621SOL     OW16498   0.653   3.134   2.818  0.2314  0.1913 -0.4183
 1621SOL    HW116499   0.706   3.055   2.812  1.5884  1.1048 -0.3430
 1621SOL    HW216500   0.717   3.194   2.780 -2.2799  1.0611 -3.2799
 1622SOL     OW16501   2.193   4.380   4.498  0.3636 -0.2043  0.1504
 1622SOL    HW116502   2.156   4.453   4.547 -2.4617 -1.6982  0.2049
 1622SOL    HW216503   2.287   4.393   4.512  0.5208 -1.2378  0.0012
 1623SOL     OW16504   3.741   0.754   6.837 -0.2964 -0.4781  0.0183
 1623SOL    HW116505   3.711   0.844   6.849  0.0218 -0.7924  3.1230
 1623SOL    HW216506   3.823   0.770   6.790 -0.0302  1.9493  1.2823
 1624SOL     OW16507   0.727   4.537   7.956 -0.2455 -0.2162  0.0569
 1624SOL    HW116508   0.659   4.523   7.890 -1.6621 -0.6956  1.6209
 1624SOL    HW216509   0.689   4.615   7.996  0.8829 -0.1315  0.9686
 1625SOL     OW16510   2.236   0.419   3.616  0.3273 -0.5624  0.3219
 1625SOL    HW116511   2.273   0.442   3.701 -0.8445  1.2418  0.3425
 1625SOL    HW216512   2.202   0.330   3.628  2.4916 -1.0776  2.4497
 1626SOL     OW16513   2.235   4.141  13.354 -0.0373 -0.4010  0.4783
 1626SOL    HW116514   2.289   4.208  13.312  0.1260 -2.7339 -2.9944
 1626SOL    HW216515   2.249   4.169  13.445  0.1074  0.2655  0.2515
 1627SOL     OW16516   2.566   2.532   7.904 -0.6089 -0.0373 -0.0073
 1627SOL    HW116517   2.617   2.599   7.858 -1.9521  1.8953  1.3064
 1627SOL    HW216518   2.569   2.457   7.845 -2.1421 -0.6229  0.6572
 1628SOL     OW16519   1.364   3.148   0.497  0.4901 -0.4732 -0.0245
 1628SOL    HW116520   1.430   3.079   0.485  1.7357  0.5022  1.1552
 1628SOL    HW216521   1.404   3.226   0.460  2.6671 -0.5422  2.1498
 1629SOL     OW16522   3.763   2.594   1.990 -0.0230  0.1732  0.6547
 1629SOL    HW116523   3.753   2.658   2.061 -0.2610 -0.0347  0.8060
 1629SOL    HW216524   3.791   2.650   1.918  2.3968 -1.1701  0.5382
 1630SOL     OW16525   4.137   0.314   6.438 -0.2089  0.2014 -0.0512
 1630SOL    HW116526   4.085   0.369   6.379 -1.1549 -0.0205  0.5719
 1630SOL    HW216527   4.072   0.248   6.465  0.5424  0.5241  2.5578
 1631SOL     OW16528   0.039   4.080   3.423  0.3861  0.6813  0.4916
 1631SOL    HW116529   0.012   4.033   3.344 -0.7949 -0.3880  1.5089
 1631SOL    HW216530   4.714   4.056   3.492  0.7136 -0.5160  0.3690
 1632SOL     OW16531   2.648   3.184   8.722  0.1244 -0.7562 -0.3770
 1632SOL    HW116532   2.673   3.092   8.723  1.0226 -0.4809  1.7037
 1632SOL    HW216533   2.730   3.229   8.705  0.4303 -0.7943  1.0254
 1633SOL     OW16534   0.643   2.735  14.294 -0.6957 -0.2394 -0.0050
 1633SOL    HW116535   0.581   2.774  14.233 -1.1574  1.0537  1.2927
 1633SOL    HW216536   0.725   2.776  14.269 -0.2201 -1.2055 -0.0163
 1634SOL     OW16537   2.512   0.194   3.535  0.1595  0.0435 -0.1743
 1634SOL    HW116538   2.560   0.254   3.478  0.9247 -1.3876 -1.0089
 1634SOL    HW216539   2.446   0.168   3.471 -0.4744  1.4972 -0.1155
 1635SOL     OW16540   1.598   4.153   8.802  0.7443  0.3439 -0.1058
 1635SOL    HW116541   1.589   4.242   8.836 -0.3427 -0.1872  1.0012
 1635SOL    HW216542   1.692   4.141   8.790  0.5797 -3.1710  1.9835
 1636SOL     OW16543   0.358   2.502   7.809 -0.2462 -1.0675  0.2232
 1636SOL    HW116544   0.290   2.437   7.790  0.1906 -1.4899  0.1113
 1636SOL    HW216545   0.359   2.485   7.903  0.1425  2.0056  0.7619
 1637SOL     OW16546   0.701   0.850  16.080  0.1739  0.1322  0.5160
 1637SOL    HW116547   0.743   0.865  16.165 -0.1167  2.3844  0.2614
 1637SOL    HW216548   0.650   0.931  16.078  2.2826  1.3779 -1.6313
 1638SOL     OW16549   1.195   4.660   9.687 -0.1402 -0.0551 -0.0121
 1638SOL    HW116550   1.270   4.658   9.627 -0.0500  1.1594  0.0523
 1638SOL    HW216551   1.184   0.017   9.686 -0.9964 -0.1558 -0.6749
 1639SOL     OW16552   1.254   3.148   2.481  0.0825  0.3726 -0.5945
 1639SOL    HW116553   1.224   3.065   2.519  0.3563  0.4280 -0.2586
 1639SOL    HW216554   1.346   3.140   2.507 -0.0216 -1.2821 -0.7307
 1640SOL     OW16555   2.030   4.710   7.837 -0.4799 -0.9778  0.1268
 1640SOL    HW116556   2.104   4.719   7.897  1.0823  1.2390 -2.1303
 1640SOL    HW216557   2.068   4.716   7.749 -0.0857  1.4085  0.4814
 1641SOL     OW16558   0.967   1.114   7.827 -0.0905  0.2936 -0.3349
 1641SOL    HW116559   0.872   1.121   7.817 -0.1471 -1.2242 -0.7719
 1641SOL    HW216560   0.998   1.163   7.751  2.0270  2.1028  1.6648
 1642SOL     OW16561   1.450   1.933   2.235 -0.6529 -0.2537 -0.4554
 1642SOL    HW116562   1.521   1.888   2.189  1.1219 -0.6791  2.6993
 1642SOL    HW216563   1.384   1.864   2.225  0.1034 -1.3474  2.1185
 1643SOL     OW16564   2.668   0.020   9.380  0.2889 -0.4578 -0.0541
 1643SOL    HW116565   2.731   4.721   9.319 -0.7868 -1.2901 -0.6651
 1643SOL    HW216566   2.679   4.699   9.455 -1.0165 -1.1412 -0.4061
 1644SOL     OW16567   4.173   2.947   0.808  0.3270 -0.2245  0.5172
 1644SOL    HW116568   4.263   2.958   0.778  0.3960 -1.7087  0.1787
 1644SOL    HW216569   4.157   2.857   0.779 -0.4567  0.2373 -0.5056
 1645SOL     OW16570   1.890   0.736   6.595 -0.4798 -0.3121 -0.2165
 1645SOL    HW116571   1.872   0.808   6.536 -0.3781  0.7632  1.0618
 1645SOL    HW216572   1.981   0.714   6.576 -0.7918 -1.8603  0.0474
 1646SOL     OW16573   2.842   4.035   2.120  0.5213  0.8737 -0.1305
 1646SOL    HW116574   2.792   3.956   2.141  0.7212  0.7235 -0.2111
 1646SOL    HW216575   2.878   3.997   2.039 -0.0962  1.1105 -0.5145
 1647SOL     OW16576   2.334   1.494   0.567  0.0370  0.0833 -0.7700
 1647SOL    HW116577   2.253   1.524   0.524 -0.7714 -1.2028 -0.1489
 1647SOL    HW216578   2.359   1.418   0.515  0.0908 -1.4000  1.4213
 1648SOL     OW16579   0.320   3.495   5.834  0.1014  0.3327 -0.4297
 1648SOL    HW116580   0.343   3.464   5.746  4.8918 -0.7938  1.2016
 1648SOL    HW216581   0.306   3.588   5.821 -0.0639 -0.0192 -2.7744
 1649SOL     OW16582   2.473   1.760  15.423 -0.0847  0.4238 -0.0486
 1649SOL    HW116583   2.524   1.771  15.504  0.7972  2.8501 -0.9186
 1649SOL    HW216584   2.448   1.668  15.424  1.8800 -0.0997  0.4273
 1650SOL     OW16585   4.449   3.958   8.114  0.3100 -0.0138 -0.4745
 1650SOL    HW116586   4.425   3.980   8.204 -0.2353  1.0178 -0.8700
 1650SOL    HW216587   4.537   3.995   8.105  1.3170 -2.8492 -2.6064
 1651SOL     OW16588   1.352   2.814  15.395  0.2214 -0.2324  0.2510
 1651SOL    HW116589   1.313   2.892  15.354 -0.8188 -1.1312 -0.4868
 1651SOL    HW216590   1.283   2.773  15.447 -1.1828  2.5945  0.6394
 1652SOL     OW16591   3.200   3.388  10.665  0.0306 -0.7336  0.0579
 1652SOL    HW116592   3.167   3.389  10.575 -0.0179  0.2649  0.0911
 1652SOL    HW216593   3.123   3.358  10.714 -0.5694  0.3453 -0.2417
 1653SOL     OW16594   2.505   3.339  12.587 -0.0108  0.1305  0.0808
 1653SOL    HW116595   2.443   3.362  12.656  1.0945  1.1414  0.7419
 1653SOL    HW216596   2.458   3.292  12.519  1.9401 -1.6014 -0.0519
 1654SOL     OW16597   4.397   4.104  14.758 -0.6481  0.2211 -0.2131
 1654SOL    HW116598   4.454   4.180  14.773 -1.7579  1.5673 -2.7733
 1654SOL    HW216599   4.332   4.132  14.693 -1.7901 -0.6669  0.5459
 1655SOL     OW16600   3.730   2.412   8.381  0.5369  0.6160 -0.1468
 1655SOL    HW116601   3.675   2.468   8.326 -1.7362 -0.7656  0.7086
 1655SOL    HW216602   3.807   2.468   8.387 -0.2824  1.5865  1.4190
 1656SOL     OW16603   1.241   1.767   8.849  0.3018  0.0646 -0.1587
 1656SOL    HW116604   1.266   1.704   8.782 -1.0037 -2.3472  1.5737
 1656SOL    HW216605   1.265   1.723   8.931  0.4956 -1.7352 -1.1661
 1657SOL     OW16606   3.256   3.502   6.078  0.0880 -0.3401 -0.3022
 1657SOL    HW116607   3.246   3.473   5.988 -0.3319 -1.5790  0.1517
 1657SOL    HW216608   3.193   3.448   6.126 -0.2620  0.9136  0.6548
 1658SOL     OW16609   4.573   2.172   7.613  0.0729  0.6807 -0.2617
 1658SOL    HW116610   4.602   2.263   7.611 -0.7151  0.9538  0.8122
 1658SOL    HW216611   4.481   2.176   7.587 -0.6162 -2.6321  1.6223
 1659SOL     OW16612   1.507   0.048   8.621  0.6185  0.0719  0.0822
 1659SOL    HW116613   1.435   4.731   8.589  1.0557  0.6560 -1.9066
 1659SOL    HW216614   1.467   0.104   8.687  0.5675 -0.7963  0.7851
 1660SOL     OW16615   1.879   3.820   3.743 -0.0689  0.9526 -0.7314
 1660SOL    HW116616   1.915   3.786   3.825  1.2742  1.0118 -1.2897
 1660SOL    HW216617   1.906   3.912   3.742  2.3163  0.2652  0.2148
 1661SOL     OW16618   2.398   3.365   3.150  0.7859  0.6778  0.2714
 1661SOL    HW116619   2.338   3.352   3.223 -1.7536  0.2448 -1.9050
 1661SOL    HW216620   2.343   3.362   3.072  1.9358 -0.0929 -0.5221
 1662SOL     OW16621   2.655   1.796   2.936 -0.2915 -0.3943  0.7225
 1662SOL    HW116622   2.715   1.723   2.952  1.9830  1.8667  2.4349
 1662SOL    HW216623   2.708   1.866   2.898 -0.0446  0.2912  2.3625
 1663SOL     OW16624   3.653   0.274   4.208  0.5699  0.0612 -0.2032
 1663SOL    HW116625   3.574   0.219   4.211  1.9233 -1.9493 -1.9280
 1663SOL    HW216626   3.668   0.268   4.303 -1.6067  1.0653  0.2166
 1664SOL     OW16627   3.668   0.025   2.129 -0.1003  0.3022 -0.0417
 1664SOL    HW116628   3.605   0.096   2.117  0.2606  0.4028 -1.4443
 1664SOL    HW216629   3.706   0.060   2.209 -2.5224 -0.2951  1.3697
 1665SOL     OW16630   2.075   1.484   2.381 -0.6416  0.0137  0.6875
 1665SOL    HW116631   2.096   1.510   2.292  0.1187 -0.0886  0.8341
 1665SOL    HW216632   2.160   1.497   2.424 -0.1173  0.7266 -0.5833
 1666SOL     OW16633   1.651   1.457   0.222  0.2416 -0.5285 -0.1766
 1666SOL    HW116634   1.673   1.542   0.259 -0.1749 -0.2882 -0.4800
 1666SOL    HW216635   1.567   1.471   0.178 -0.2079  1.3813  1.2760
 1667SOL     OW16636   3.728   3.983  10.132 -0.3031  0.5584  0.0287
 1667SOL    HW116637   3.680   3.903  10.155 -2.1112  1.5440 -0.3327
 1667SOL    HW216638   3.664   4.054  10.128  0.2167  0.9542 -1.2861
 1668SOL     OW16639   4.435   0.534  16.617  0.3263  0.6244 -0.0871
 1668SOL    HW116640   4.474   0.617  16.647  1.4132  0.6592 -1.6310
 1668SOL    HW216641   4.516   0.484  16.610 -0.5309 -0.5292 -1.6018
 1669SOL     OW16642   3.582   4.115   3.898 -0.2405 -0.1333  0.4979
 1669SOL    HW116643   3.613   4.203   3.877  1.1468 -0.6575  0.3159
 1669SOL    HW216644   3.491   4.144   3.894 -0.2359 -0.0099  1.3394
 1670SOL     OW16645   2.255   3.513  10.709 -0.0968  0.0941  0.0647
 1670SOL    HW116646   2.159   3.516  10.707 -0.1848 -2.8034  0.0774
 1670SOL    HW216647   2.284   3.530  10.619 -1.0226  0.0390 -0.2496
 1671SOL     OW16648   4.417   2.501   9.899  0.0195  0.6926  0.2158
 1671SOL    HW116649   4.378   2.452   9.971  1.1092 -1.9115 -0.9630
 1671SOL    HW216650   4.410   2.594   9.920 -1.2506  0.3134  1.4394
 1672SOL     OW16651   1.569   2.919   4.952  0.4156 -0.1140  0.4208
 1672SOL    HW116652   1.515   2.871   4.890 -1.4352  1.1554  1.0483
 1672SOL    HW216653   1.545   3.007   4.923 -1.4923 -0.9251 -0.4713
 1673SOL     OW16654   3.657   3.440   9.737  0.1491 -0.2989 -0.4685
 1673SOL    HW116655   3.643   3.531   9.766 -0.6883 -1.3875  2.5245
 1673SOL    HW216656   3.568   3.407   9.732  0.1510 -0.2186 -1.0835
 1674SOL     OW16657   0.271   3.748   4.542 -0.7313 -0.0572  0.6749
 1674SOL    HW116658   0.223   3.666   4.554  0.1432 -0.6981 -0.2737
 1674SOL    HW216659   0.270   3.778   4.633 -1.1583  0.3384  0.5399
 1675SOL     OW16660   1.062   0.515   2.237 -0.8942  0.4885 -0.5085
 1675SOL    HW116661   1.145   0.467   2.239 -0.6549  0.9164 -0.2785
 1675SOL    HW216662   1.090   0.606   2.245 -1.7227  0.6051  0.8800
 1676SOL     OW16663   1.903   1.057   4.835  0.1420  0.0967 -0.0365
 1676SOL    HW116664   1.897   1.033   4.927  1.2156  1.5794  0.4311
 1676SOL    HW216665   1.812   1.044   4.809  0.6565 -1.3478 -1.0695
 1677SOL     OW16666   0.140   3.801   6.451 -0.2926  0.5099  0.4813
 1677SOL    HW116667   0.084   3.764   6.382  0.5256  1.6361 -0.8007
 1677SOL    HW216668   0.210   3.736   6.449 -1.3792 -0.6842  1.4397
 1678SOL     OW16669   0.638   1.445   1.665 -0.2888 -0.6419 -0.2068
 1678SOL    HW116670   0.632   1.525   1.613  0.5069 -1.2900 -1.3078
 1678SOL    HW216671   0.723   1.414   1.632 -0.4639 -0.7610 -0.5522
 1679SOL     OW16672   1.175   3.848   4.586 -0.1610 -0.2130  0.7559
 1679SOL    HW116673   1.149   3.835   4.495 -1.3440 -0.4929  1.1280
 1679SOL    HW216674   1.110   3.795   4.631  1.2927  0.6452  3.8615
 1680SOL     OW16675   0.723   1.216   2.337 -0.1834 -0.0236 -0.8329
 1680SOL    HW116676   0.705   1.128   2.304  1.7087 -1.6683  2.4423
 1680SOL    HW216677   0.815   1.211   2.362 -0.4340  0.8841  0.2865
 1681SOL     OW16678   3.376   1.781   0.477 -0.2038 -0.4504 -0.2160
 1681SOL    HW116679   3.293   1.822   0.500 -0.1168  0.9080 -2.3517
 1681SOL    HW216680   3.411   1.813   0.561 -0.0342  0.7795 -0.7542
 1682SOL     OW16681   3.430   1.718   8.744 -0.0552  0.4045  0.2041
 1682SOL    HW116682   3.376   1.794   8.768  2.5828  2.7944 -1.4599
 1682SOL    HW216683   3.456   1.730   8.652 -2.6756  0.1209 -0.5994
 1683SOL     OW16684   1.477   0.299  14.304 -0.0483  0.2447 -0.3952
 1683SOL    HW116685   1.422   0.232  14.263  1.4706 -0.8060 -0.7155
 1683SOL    HW216686   1.485   0.259  14.390  1.3708  1.1595 -0.0994
 1684SOL     OW16687   0.084   1.848   3.177  0.0562 -0.2724 -0.6766
 1684SOL    HW116688   0.094   1.855   3.082  3.7795 -0.4911 -0.2888
 1684SOL    HW216689   4.726   1.850   3.180  0.0470 -0.0932 -1.0286
 1685SOL     OW16690   3.672   1.497   3.148  0.5384 -0.1461 -0.3448
 1685SOL    HW116691   3.628   1.542   3.220  1.1942 -0.3119  0.1518
 1685SOL    HW216692   3.683   1.569   3.085 -1.6309  2.7711  2.6147
 1686SOL     OW16693   1.018   4.217   6.258  0.0558  0.1218 -0.5379
 1686SOL    HW116694   1.103   4.173   6.261  0.6417  1.3170  0.5325
 1686SOL    HW216695   1.033   4.310   6.240  0.4702  0.0389 -0.6096
 1687SOL     OW16696   2.129   3.668   1.521  0.4623 -0.1605  0.0851
 1687SOL    HW116697   2.191   3.607   1.562 -1.1389 -0.5776  1.8528
 1687SOL    HW216698   2.185   3.744   1.505  1.4259 -0.1779  3.4699
 1688SOL     OW16699   3.716   3.602   4.043  0.1563  0.2390  0.4045
 1688SOL    HW116700   3.677   3.638   3.964 -0.6113 -0.2748  0.5481
 1688SOL    HW216701   3.795   3.655   4.042  1.1974 -1.3310 -0.8118
 1689SOL     OW16702   1.975   0.094   3.422 -0.2905  0.3339 -0.2061
 1689SOL    HW116703   2.018   0.013   3.395  0.1890 -0.0785  1.8051
 1689SOL    HW216704   1.901   0.087   3.362 -0.9316 -1.3429  0.7725
 1690SOL     OW16705   2.856   3.778   6.789 -0.1684 -0.1732 -0.2334
 1690SOL    HW116706   2.950   3.797   6.786 -0.3858  0.8955 -0.1284
 1690SOL    HW216707   2.841   3.689   6.757 -0.0188 -0.7733  1.3757
 1691SOL     OW16708   1.156   1.085  16.807 -0.7064 -0.6194 -0.0276
 1691SOL    HW116709   1.114   1.164  16.841 -2.3736 -1.2017 -0.7131
 1691SOL    HW216710   1.248   1.099  16.828 -0.9645  0.0208  0.6603
 1692SOL     OW16711   4.594   4.632  14.669 -0.5833  0.2500  0.6424
 1692SOL    HW116712   4.542   4.639  14.749 -1.4703  1.5752 -0.0281
 1692SOL    HW216713   4.643   4.714  14.676  0.7133 -0.5400  0.7415
 1693SOL     OW16714   0.682   4.224   3.727  0.2185 -0.1346  0.1076
 1693SOL    HW116715   0.749   4.248   3.663  0.4874  2.3144  1.3210
 1693SOL    HW216716   0.739   4.177   3.788  1.0182  0.1719 -0.3984
 1694SOL     OW16717   3.216   3.553   0.736  0.2527  0.3440  0.0649
 1694SOL    HW116718   3.168   3.510   0.665  1.1260  1.1618 -1.0100
 1694SOL    HW216719   3.300   3.508   0.749 -0.3927 -0.9436 -0.1818
 1695SOL     OW16720   4.693   1.732   8.412  0.2559  0.5842 -1.3602
 1695SOL    HW116721   4.644   1.720   8.493  0.4922  0.3794 -1.2458
 1695SOL    HW216722   0.012   1.655   8.413 -0.7849 -0.1733 -0.6714
 1696SOL     OW16723   3.029   1.165   0.081  0.1089  0.4478 -0.0908
 1696SOL    HW116724   3.004   1.096   0.142  1.0320  0.0839 -0.1259
 1696SOL    HW216725   2.947   1.212   0.070 -0.7050 -1.0991 -0.7138
 1697SOL     OW16726   0.778   3.284   1.836  0.5767  0.3686 -0.0060
 1697SOL    HW116727   0.723   3.213   1.801  0.8384  0.4341 -0.5560
 1697SOL    HW216728   0.737   3.358   1.792 -1.5003  1.4913  3.8744
 1698SOL     OW16729   3.471   0.964  15.969  0.2671 -0.6344 -0.3642
 1698SOL    HW116730   3.492   0.918  16.050 -0.5331  0.3056  0.3649
 1698SOL    HW216731   3.407   1.030  15.996  0.4254 -0.4884 -0.3462
 1699SOL     OW16732   4.706   1.518   6.150  0.0270  0.3827  0.0302
 1699SOL    HW116733   4.711   1.426   6.177 -1.9646 -0.0904 -1.2087
 1699SOL    HW216734   0.015   1.513   6.067  0.5942  0.9090  0.3164
 1700SOL     OW16735   2.258   4.689   6.933  0.5751 -0.5620 -0.2859
 1700SOL    HW116736   2.193   4.702   6.864 -0.5276 -0.5998  0.7481
 1700SOL    HW216737   2.241   0.033   6.979 -1.7906 -1.7200  0.9496
 1701SOL     OW16738   4.260   0.004  17.519  0.7972 -0.3833  0.7958
 1701SOL    HW116739   4.214   0.071  17.469  1.0890 -0.6736  0.1380
 1701SOL    HW216740   4.206   4.733  17.597 -0.2410  2.8371  0.4672
 1702SOL     OW16741   3.964   0.738   4.713  0.3105  0.3131 -0.1155
 1702SOL    HW116742   4.016   0.739   4.794 -1.6533  1.9007  1.1002
 1702SOL    HW216743   3.891   0.794   4.738  1.0867  1.1206  0.3562
 1703SOL     OW16744   0.729   4.378   1.607 -0.6331  0.3550 -0.4815
 1703SOL    HW116745   0.810   4.331   1.588 -1.0934 -0.2957 -0.8321
 1703SOL    HW216746   0.741   4.393   1.701 -0.1301  1.6315 -0.7432
 1704SOL     OW16747   3.962   3.248   4.892 -0.0586  0.8097 -0.9655
 1704SOL    HW116748   3.892   3.217   4.834 -1.6171  1.7808  0.3853
 1704SOL    HW216749   4.013   3.167   4.883 -1.1348  0.3269 -2.8537
 1705SOL     OW16750   3.807   3.877   3.550  0.6108  0.9886 -0.0173
 1705SOL    HW116751   3.892   3.868   3.592  0.8827  0.4475 -0.6846
 1705SOL    HW216752   3.759   3.873   3.633 -0.6207 -4.4164 -0.9986
 1706SOL     OW16753   3.085   2.129   9.130 -0.4402 -0.2099  0.0103
 1706SOL    HW116754   3.108   2.211   9.173  3.7777 -1.3657 -0.0424
 1706SOL    HW216755   3.123   2.139   9.042  0.7358  0.1882  0.5645
 1707SOL     OW16756   0.617   2.379  11.498  0.3373  0.5383  0.3457
 1707SOL    HW116757   0.595   2.428  11.578  1.5181 -0.2555  1.1683
 1707SOL    HW216758   0.706   2.414  11.486  0.8859 -1.4999 -1.4720
 1708SOL     OW16759   2.750   3.051   6.111  0.2051 -0.1172  0.2123
 1708SOL    HW116760   2.677   3.076   6.055 -1.4805 -3.1936  1.0289
 1708SOL    HW216761   2.797   3.000   6.045 -1.2221 -0.3193 -0.6248
 1709SOL     OW16762   0.678   1.799   4.663  0.3599 -0.1482 -0.1702
 1709SOL    HW116763   0.740   1.739   4.622 -0.8554 -0.3312 -1.7003
 1709SOL    HW216764   0.679   1.772   4.755  0.4040  2.8784  0.7256
 1710SOL     OW16765   0.309   3.468   5.551  0.2541 -0.0167 -0.5416
 1710SOL    HW116766   0.233   3.515   5.517 -0.1147  0.0825  0.4210
 1710SOL    HW216767   0.363   3.543   5.574 -1.5616  0.4947  2.1577
 1711SOL     OW16768   1.577   4.685  14.485  0.1098 -0.4166 -0.0705
 1711SOL    HW116769   1.640   4.689  14.413 -0.1817 -1.6120 -0.3964
 1711SOL    HW216770   1.496   4.698  14.436 -0.8501  2.1611  2.2506
 1712SOL     OW16771   1.756   4.702   9.159 -0.0272 -0.0516  0.1360
 1712SOL    HW116772   1.721   0.000   9.241  0.7218  1.7497 -0.3534
 1712SOL    HW216773   1.849   4.690   9.176 -0.3089  0.1226  1.8603
 1713SOL     OW16774   3.314   2.005  12.316 -0.4214  0.0652  0.1503
 1713SOL    HW116775   3.240   1.959  12.276 -0.8358  0.8273  0.0312
 1713SOL    HW216776   3.358   1.937  12.365 -0.4817 -0.7061 -0.8608
 1714SOL     OW16777   2.120   0.534   4.745  0.4586 -0.4168  0.3716
 1714SOL    HW116778   2.099   0.495   4.660  2.0435 -0.8226  0.1590
 1714SOL    HW216779   2.213   0.511   4.745  0.9470  1.5997  0.2981
 1715SOL     OW16780   4.283   2.084   7.036 -0.0915 -0.2796 -0.6385
 1715SOL    HW116781   4.203   2.127   7.067  1.6101 -0.3276  3.7693
 1715SOL    HW216782   4.262   1.991   7.038 -1.0923 -0.1071 -3.1757
 1716SOL     OW16783   0.070   4.386  11.706 -0.2912  0.3238  0.6067
 1716SOL    HW116784   0.160   4.363  11.730  0.2870  0.4595 -1.4861
 1716SOL    HW216785   0.058   4.457  11.770  1.4888 -0.2268  1.5654
 1717SOL     OW16786   3.362   1.208  13.015  0.0532 -0.2653 -0.2927
 1717SOL    HW116787   3.428   1.174  13.076 -1.2213 -0.4867  0.9450
 1717SOL    HW216788   3.409   1.286  12.984  2.4415 -1.2944  0.7144
 1718SOL     OW16789   4.159   0.332   5.851  0.0244  0.2480 -0.0950
 1718SOL    HW116790   4.195   0.305   5.935  0.5721 -3.1779 -1.4410
 1718SOL    HW216791   4.233   0.308   5.794  0.3241  1.8823 -0.4062
 1719SOL     OW16792   3.637   3.342   3.120  0.0906  0.1123 -0.0913
 1719SOL    HW116793   3.547   3.320   3.143  1.2898 -4.2777  0.5259
 1719SOL    HW216794   3.627   3.343   3.025 -1.1919 -2.8777 -0.0000
 1720SOL     OW16795   3.730   1.965   7.864 -0.3421 -0.1670  0.7942
 1720SOL    HW116796   3.638   1.991   7.858 -0.5867 -1.2655 -0.1228
 1720SOL    HW216797   3.757   2.020   7.938  0.7248  0.1616  0.1656
 1721SOL     OW16798   0.606   0.733   5.473 -0.4036  0.2363  0.1982
 1721SOL    HW116799   0.623   0.751   5.566 -0.4290  2.1503 -0.1779
 1721SOL    HW216800   0.569   0.815   5.440  0.7981  1.2226  1.3403
 1722SOL     OW16801   4.603   4.315  12.667  0.0962  0.4743  0.3399
 1722SOL    HW116802   4.650   4.300  12.749  2.6969  0.8753 -1.0714
 1722SOL    HW216803   4.623   4.408  12.660  2.4936 -0.0137  0.6103
 1723SOL     OW16804   4.191   3.499   1.115  0.2939 -0.4469  0.0074
 1723SOL    HW116805   4.227   3.442   1.047  1.7020  0.0801  0.3137
 1723SOL    HW216806   4.267   3.548   1.145 -0.7296  1.4846 -0.5786
 1724SOL     OW16807   0.249   2.460   8.629 -0.0402  1.0184 -0.4168
 1724SOL    HW116808   0.319   2.398   8.606 -0.4012  0.8850 -1.1439
 1724SOL    HW216809   0.227   2.489   8.541 -0.0476  1.2434 -0.3421
 1725SOL     OW16810   2.053   4.538  15.733 -0.7124 -0.2038 -0.5217
 1725SOL    HW116811   1.991   4.536  15.661 -0.0140 -2.5967 -1.0518
 1725SOL    HW216812   2.029   4.456  15.777  0.0903  0.7017  1.6302
 1726SOL     OW16813   0.295   3.702   2.216 -0.3647  0.2426  0.7418
 1726SOL    HW116814   0.367   3.707   2.278  0.0242  2.1791  0.1228
 1726SOL    HW216815   0.309   3.619   2.172 -0.8292  0.3495  0.3880
 1727SOL     OW16816   3.760   2.760   6.885  0.0049 -0.2714  0.0555
 1727SOL    HW116817   3.713   2.697   6.831 -1.4595  0.5332  0.3731
 1727SOL    HW216818   3.728   2.746   6.974  0.4565  3.0750  0.7456
 1728SOL     OW16819   0.173   1.921   5.956 -0.4967  0.4569  0.0513
 1728SOL    HW116820   0.218   1.840   5.930 -0.0861 -0.2743  3.0347
 1728SOL    HW216821   0.144   1.960   5.873 -0.5879 -0.6022 -0.4221
 1729SOL     OW16822   3.246   0.203   3.891  0.0480 -0.2728  0.0878
 1729SOL    HW116823   3.339   0.224   3.888 -0.1333  0.7596  1.6874
 1729SOL    HW216824   3.212   0.286   3.923 -0.1874  0.0244 -0.9263
 1730SOL     OW16825   1.910   3.290   2.664  0.0392 -0.4928  0.2185
 1730SOL    HW116826   1.894   3.328   2.577 -0.1412 -2.0202 -0.4051
 1730SOL    HW216827   1.994   3.336   2.672  0.8916 -1.8921 -0.7318
 1731SOL     OW16828   2.624   0.571   6.752 -0.5568 -0.3860  0.4951
 1731SOL    HW116829   2.693   0.504   6.750 -0.2456 -0.0714  0.5604
 1731SOL    HW216830   2.606   0.572   6.658  0.6339  1.0912  0.2771
 1732SOL     OW16831   0.426   2.396   6.129  0.3963 -0.7647 -0.1572
 1732SOL    HW116832   0.418   2.441   6.213 -1.6124 -1.6727  0.1377
 1732SOL    HW216833   0.522   2.401   6.125  0.2814  0.3988 -1.5253
 1733SOL     OW16834   1.453   0.930   7.145  0.1644 -0.3651 -0.3553
 1733SOL    HW116835   1.430   0.995   7.079 -0.8145 -1.1873 -0.8264
 1733SOL    HW216836   1.365   0.905   7.174  0.2244  0.8487  0.8732
 1734SOL     OW16837   2.853   2.390  13.126  0.7563 -0.1549  0.3104
 1734SOL    HW116838   2.773   2.366  13.173  0.5978 -0.0421  0.0955
 1734SOL    HW216839   2.832   2.362  13.037  1.0939  0.6886 -0.0329
 1735SOL     OW16840   2.462   4.431   4.322  0.1015 -0.1258  0.2284
 1735SOL    HW116841   2.418   4.452   4.240  1.4179  3.0915  0.3672
 1735SOL    HW216842   2.484   4.340   4.300 -0.1920  0.0223 -0.6598
 1736SOL     OW16843   2.150   3.863   4.474  0.3969  0.1500 -0.0840
 1736SOL    HW116844   2.144   3.955   4.501  1.7495  0.5972 -1.3001
 1736SOL    HW216845   2.168   3.814   4.555  1.9123  1.5959  0.4553
 1737SOL     OW16846   2.032   1.520   9.591 -0.1438  0.6666 -0.1140
 1737SOL    HW116847   2.050   1.608   9.558  0.0790  0.2604 -1.0707
 1737SOL    HW216848   1.964   1.553   9.650 -2.1824 -3.0548 -0.4045
 1738SOL     OW16849   1.226   0.398   7.194  0.2995 -0.1123 -0.2480
 1738SOL    HW116850   1.163   0.349   7.248 -0.0676 -0.4215 -0.9511
 1738SOL    HW216851   1.225   0.487   7.229  1.1361  0.8401 -2.6373
 1739SOL     OW16852   0.303   2.612   1.263  0.7662 -0.1368  0.3571
 1739SOL    HW116853   0.314   2.552   1.189 -1.7676  0.2916 -0.3360
 1739SOL    HW216854   0.397   2.626   1.279  1.2850 -1.2577 -1.6199
 1740SOL     OW16855   4.314   4.386   6.745  0.3292  0.0505  0.2102
 1740SOL    HW116856   4.382   4.323   6.720 -0.4467 -0.2396 -1.2141
 1740SOL    HW216857   4.372   4.447   6.789  1.5922 -1.1587  0.2197
 1741SOL     OW16858   4.349   3.719   5.286 -0.4891  0.7180  0.4866
 1741SOL    HW116859   4.304   3.635   5.297  1.5880 -0.4816 -0.2404
 1741SOL    HW216860   4.275   3.777   5.267 -1.6242 -1.2002 -1.0052
 1742SOL     OW16861   4.379   3.291   7.595  0.0964  0.2180  0.0960
 1742SOL    HW116862   4.302   3.299   7.652  0.1118 -0.5999  0.2392
 1742SOL    HW216863   4.440   3.326   7.660 -2.1048  2.0329  1.1753
 1743SOL     OW16864   4.288   1.734   6.100  0.0496  0.7117  0.1266
 1743SOL    HW116865   4.338   1.655   6.077 -1.7268 -0.2501 -0.4300
 1743SOL    HW216866   4.329   1.771   6.178  1.0817  1.7161 -0.8952
 1744SOL     OW16867   3.693   3.477   4.866 -0.1015 -0.4362 -0.1146
 1744SOL    HW116868   3.759   3.509   4.927  0.4952 -0.5307 -0.7200
 1744SOL    HW216869   3.744   3.415   4.814  2.6564  0.1567  1.9187
 1745SOL     OW16870   4.185   3.520   6.643 -0.4178  0.0712  0.2264
 1745SOL    HW116871   4.242   3.539   6.568  1.8964  1.7283  2.3839
 1745SOL    HW216872   4.103   3.559   6.614 -0.8112 -1.0326 -0.1374
 1746SOL     OW16873   1.182   0.163   7.952  0.1663 -0.2135  0.5118
 1746SOL    HW116874   1.160   0.119   8.034 -2.5620 -1.0505 -0.6866
 1746SOL    HW216875   1.239   0.234   7.984  0.3585  0.8739 -2.2134
 1747SOL     OW16876   3.560   3.730   7.323 -0.0743 -0.4663 -0.7022
 1747SOL    HW116877   3.496   3.664   7.351  0.2240 -0.7568 -0.7074
 1747SOL    HW216878   3.639   3.677   7.314  3.1559  4.1718  0.6341
 1748SOL     OW16879   2.806   3.315   2.003 -0.6892 -0.3979  0.1265
 1748SOL    HW116880   2.762   3.234   2.028 -1.0963 -0.2759 -0.1849
 1748SOL    HW216881   2.888   3.303   2.051  0.0055  1.4426 -0.5705
 1749SOL     OW16882   1.148   1.558   7.615 -0.2189 -1.1721 -0.3877
 1749SOL    HW116883   1.072   1.519   7.571 -0.1415 -0.5107 -1.1103
 1749SOL    HW216884   1.199   1.480   7.637 -1.0128 -1.8894 -1.0784
 1750SOL     OW16885   4.204   0.460  11.885  0.0745 -0.0768  0.1874
 1750SOL    HW116886   4.266   0.388  11.900 -3.2963 -3.5656 -2.6034
 1750SOL    HW216887   4.239   0.503  11.807  1.0625  0.9993  1.2231
 1751SOL     OW16888   3.178   0.474   9.381 -0.4988  0.2931 -0.4279
 1751SOL    HW116889   3.116   0.479   9.309  0.9885 -3.0712 -1.9754
 1751SOL    HW216890   3.177   0.565   9.411  1.8865  0.3946 -0.6014
 1752SOL     OW16891   4.556   4.231   6.758 -0.1380  0.0207  0.2034
 1752SOL    HW116892   4.554   4.169   6.831 -0.1128 -3.1202 -2.5114
 1752SOL    HW216893   4.640   4.276   6.768  0.1131 -0.2775 -0.6578
 1753SOL     OW16894   0.771   0.002  14.733  0.4182  0.0571  0.1003
 1753SOL    HW116895   0.761   4.731  14.828  3.0837  0.1547  0.3984
 1753SOL    HW216896   0.828   4.667  14.708 -0.1043 -0.0836 -0.6800
 1754SOL     OW16897   4.703   1.336   5.815 -0.1960  0.2495 -0.0909
 1754SOL    HW116898   0.006   1.419   5.840  0.4587 -0.1002 -0.0202
 1754SOL    HW216899   4.637   1.370   5.754  0.7328 -0.9828 -1.7813
 1755SOL     OW16900   1.631   1.920   6.329 -0.1900 -0.3883  0.5834
 1755SOL    HW116901   1.681   1.838   6.329  1.5110  0.6239  1.6867
 1755SOL    HW216902   1.569   1.902   6.258  0.3170 -2.1939  0.5872
 1756SOL     OW16903   4.318   0.705   5.701  0.2886 -0.2462 -0.6103
 1756SOL    HW116904   4.271   0.725   5.782 -0.2928  1.8202 -1.4554
 1756SOL    HW216905   4.385   0.773   5.690  1.3570 -0.7440  2.9575
 1757SOL     OW16906   1.675   4.481   8.020  0.6803 -0.4027  0.0661
 1757SOL    HW116907   1.579   4.485   8.010  0.8462  0.7757 -1.1436
 1757SOL    HW216908   1.702   4.494   7.929 -0.8451  0.2746 -0.2909
 1758SOL     OW16909   2.430   1.741  12.011 -0.1620  0.0081 -0.1705
 1758SOL    HW116910   2.498   1.674  12.002 -0.2803 -0.2673  0.9377
 1758SOL    HW216911   2.357   1.680  12.023  3.0129 -3.5437  1.3129
 1759SOL     OW16912   2.535   4.608   4.909  0.1019  0.3738  0.1437
 1759SOL    HW116913   2.463   4.670   4.900 -1.5850 -1.8260 -1.3888
 1759SOL    HW216914   2.558   4.605   4.817 -0.8007 -0.0266 -0.0731
 1760SOL     OW16915   0.365   4.202   9.473 -0.5363 -0.0294 -0.0004
 1760SOL    HW116916   0.432   4.142   9.507  0.5032  1.6297  0.8564
 1760SOL    HW216917   0.423   4.271   9.442 -0.1181 -0.8363 -1.0216
 1761SOL     OW16918   0.778   3.561   2.644 -0.4834 -0.1708  0.2874
 1761SOL    HW116919   0.694   3.519   2.623 -2.4027  3.7481  0.2491
 1761SOL    HW216920   0.750   3.608   2.722  1.1752  0.2608  0.6138
 1762SOL     OW16921   2.761   4.113   7.572  0.3026  0.1242  0.1493
 1762SOL    HW116922   2.686   4.095   7.516  0.5200 -1.0198  0.2379
 1762SOL    HW216923   2.720   4.132   7.657 -1.5671  0.3524 -0.8101
 1763SOL     OW16924   2.951   0.105   7.572  0.1774 -0.4894 -0.0190
 1763SOL    HW116925   2.898   0.127   7.495 -0.7952 -1.2371  0.4301
 1763SOL    HW216926   2.911   0.162   7.638  0.0300  0.2183 -0.7235
 1764SOL     OW16927   3.018   0.586   7.493  0.2975 -0.0368 -0.0643
 1764SOL    HW116928   2.933   0.546   7.479  1.0301 -1.8626  0.6511
 1764SOL    HW216929   3.057   0.539   7.567 -0.2215  1.5830  1.2524
 1765SOL     OW16930   0.509   4.195   8.486 -0.2755  0.3091 -0.0414
 1765SOL    HW116931   0.584   4.167   8.434  0.9948  1.1500  1.3303
 1765SOL    HW216932   0.454   4.117   8.490 -0.0716  0.3259  3.2020
 1766SOL     OW16933   0.724   2.366   8.470  0.3110 -0.1162 -0.1153
 1766SOL    HW116934   0.751   2.431   8.535  0.7583  1.0560 -1.4750
 1766SOL    HW216935   0.762   2.285   8.504  1.7631  0.1096 -1.1667
 1767SOL     OW16936   2.422   0.496   7.980  0.5317 -0.2168  0.2194
 1767SOL    HW116937   2.451   0.441   7.907  1.2451  1.3164 -0.6468
 1767SOL    HW216938   2.491   0.480   8.044  0.7621  3.2961  0.8580
 1768SOL     OW16939   4.066   3.300   5.761 -0.4507  0.3550 -0.2722
 1768SOL    HW116940   4.034   3.372   5.816  3.0396  0.5149  1.5537
 1768SOL    HW216941   3.987   3.278   5.712  0.3315 -0.7219 -1.0637
 1769SOL     OW16942   3.699   3.569  12.839  0.5161 -0.3170  0.3725
 1769SOL    HW116943   3.751   3.541  12.915  0.7692 -3.5351 -0.9684
 1769SOL    HW216944   3.658   3.647  12.876  0.7765  0.7892 -1.6830
 1770SOL     OW16945   0.130   2.379  15.379  0.1860  0.4289  0.2704
 1770SOL    HW116946   0.151   2.296  15.423 -2.6507  0.3520  1.4735
 1770SOL    HW216947   0.192   2.383  15.306 -0.1057  1.2181  0.0684
 1771SOL     OW16948   1.069   4.632   9.411  0.3975  0.1415  0.2630
 1771SOL    HW116949   1.153   4.677   9.404  1.4238 -1.9394 -0.7727
 1771SOL    HW216950   1.081   4.573   9.486  2.6104  0.6691  0.3317
 1772SOL     OW16951   4.543   2.259   5.921  0.5706 -0.0608  0.2299
 1772SOL    HW116952   4.632   2.258   5.957  1.2458  2.6353 -1.3577
 1772SOL    HW216953   4.500   2.279   6.004  0.7740 -1.6667  0.7145
 1773SOL     OW16954   4.612   2.540   5.474 -0.0680 -0.6062 -0.0663
 1773SOL    HW116955   4.546   2.509   5.537 -0.3589  0.0383 -0.0464
 1773SOL    HW216956   4.653   2.613   5.521 -0.5781  1.3917 -2.7270
 1774SOL     OW16957   1.852   1.299   8.786  0.5270  0.2344  0.8177
 1774SOL    HW116958   1.948   1.296   8.779  0.4361 -0.3981 -0.1486
 1774SOL    HW216959   1.826   1.350   8.709  1.4195 -0.4410  0.0576
 1775SOL     OW16960   2.665   1.420  15.166  0.0514 -0.0513 -0.1752
 1775SOL    HW116961   2.712   1.503  15.168  0.4229 -0.2803  0.6696
 1775SOL    HW216962   2.723   1.363  15.217  1.6214  0.9347 -0.8715
 1776SOL     OW16963   1.224   1.698  15.391  0.0538  0.3103 -0.1698
 1776SOL    HW116964   1.276   1.618  15.395 -1.4818 -0.6205  1.1773
 1776SOL    HW216965   1.177   1.697  15.474  0.2733  0.8851 -0.0388
 1777SOL     OW16966   1.768   3.938   9.957 -0.0644 -0.7574 -0.1156
 1777SOL    HW116967   1.729   3.892  10.031 -2.9162  3.0146  0.7428
 1777SOL    HW216968   1.697   3.996   9.929 -0.4983 -2.2157 -2.0692
 1778SOL     OW16969   2.375   2.571   4.381  0.5081 -0.3555 -0.6108
 1778SOL    HW116970   2.419   2.519   4.449 -0.1674 -0.5326 -0.3106
 1778SOL    HW216971   2.427   2.552   4.302  1.1659 -0.5299 -0.1405
 1779SOL     OW16972   0.293   4.317   9.182  0.4352  0.0152 -0.3368
 1779SOL    HW116973   0.250   4.327   9.267 -0.9743 -0.5192 -0.9845
 1779SOL    HW216974   0.320   4.406   9.161 -4.6882  1.1240 -2.0819
 1780SOL     OW16975   0.422   3.709  16.822 -0.3696 -0.3950  0.3974
 1780SOL    HW116976   0.380   3.629  16.855 -0.2378 -0.8552 -0.5376
 1780SOL    HW216977   0.490   3.731  16.885 -0.7771 -1.6817  1.2771
 1781SOL     OW16978   4.258   2.646   8.924  0.3120 -0.3261  0.2001
 1781SOL    HW116979   4.206   2.684   8.853 -0.6118  1.1451  1.6460
 1781SOL    HW216980   4.226   2.693   9.001 -0.3892 -0.3687 -0.0684
 1782SOL     OW16981   3.147   2.586  13.079 -0.1989 -0.7189  0.0669
 1782SOL    HW116982   3.200   2.618  13.152  0.0654 -1.1578  0.0666
 1782SOL    HW216983   3.077   2.651  13.085  0.1869 -0.4894  2.0361
 1783SOL     OW16984   2.547   3.956   2.927 -0.0679 -0.7922  0.0030
 1783SOL    HW116985   2.509   3.868   2.918  0.5767 -1.0694  0.0084
 1783SOL    HW216986   2.539   3.960   3.022 -1.3995  1.7263 -0.2054
 1784SOL     OW16987   3.152   3.005  14.247 -0.0806  0.5229  0.5267
 1784SOL    HW116988   3.119   2.963  14.168  0.1839  1.5879 -0.1530
 1784SOL    HW216989   3.209   2.935  14.279  0.5802  0.2193 -1.3458
 1785SOL     OW16990   2.279   3.433   2.373  0.2978  0.0073 -0.0576
 1785SOL    HW116991   2.210   3.497   2.392  0.1256 -0.3020  0.3523
 1785SOL    HW216992   2.282   3.454   2.280 -0.3643 -1.2512 -0.3502
 1786SOL     OW16993   1.886   3.975   7.773 -0.2383  0.2590 -0.3691
 1786SOL    HW116994   1.913   4.008   7.858 -2.2455  0.1076  0.3173
 1786SOL    HW216995   1.823   4.045   7.752 -1.3454 -0.8964 -0.9111
 1787SOL     OW16996   2.433   2.988   4.540  0.1693 -0.7597  0.2482
 1787SOL    HW116997   2.528   2.979   4.551  0.0907  0.4250  1.8424
 1787SOL    HW216998   2.437   2.999   4.445  1.4240 -0.9832  0.2663
 1788SOL     OW16999   2.139   1.728   9.431 -0.3644  0.5696 -0.6078
 1788SOL    HW117000   2.074   1.768   9.373  2.7378 -0.2883 -4.6162
 1788SOL    HW217001   2.205   1.797   9.440 -0.3540  0.4863 -0.0541
 1789SOL     OW17002   3.286   2.131   3.800 -0.2149 -0.2298 -0.2969
 1789SOL    HW117003   3.358   2.162   3.855 -1.4873 -0.7809  1.6767
 1789SOL    HW217004   3.300   2.039   3.821  2.2565  0.4408  1.0871
 1790SOL     OW17005   4.249   0.051   7.722 -0.4276 -0.3950 -0.1582
 1790SOL    HW117006   4.342   0.042   7.700 -0.1816 -0.7406  1.0558
 1790SOL    HW217007   4.266   0.115   7.791 -2.8601  0.2617 -0.1561
 1791SOL     OW17008   4.311   0.542  12.145 -0.1165 -0.3431 -0.2527
 1791SOL    HW117009   4.277   0.564  12.058 -0.1201 -3.7956 -1.1199
 1791SOL    HW217010   4.403   0.521  12.135  0.0868 -0.2567  1.5415
 1792SOL     OW17011   2.804   1.528   2.447  0.0170  0.2725  0.1811
 1792SOL    HW117012   2.767   1.554   2.362  0.4414  0.1722 -0.0384
 1792SOL    HW217013   2.837   1.442   2.421  0.5057  0.8197 -1.0306
 1793SOL     OW17014   2.289   2.331  17.702  0.1538 -0.1538 -0.0310
 1793SOL    HW117015   2.378   2.333  17.736 -0.1235  0.4210  0.6713
 1793SOL    HW217016   2.242   2.356   0.032 -0.2491 -2.6228  0.5041
 1794SOL     OW17017   3.475   4.644   7.878 -0.0574  0.0701 -0.3912
 1794SOL    HW117018   3.425   4.695   7.813 -0.9480 -0.6470 -0.2601
 1794SOL    HW217019   3.405   4.616   7.937  1.0993  1.1808  1.5156
 1795SOL     OW17020   2.709   3.306   7.374 -0.5126  0.4433 -0.4179
 1795SOL    HW117021   2.678   3.389   7.411  3.3322  1.6067  0.2747
 1795SOL    HW217022   2.634   3.264   7.333  0.2574 -0.9758 -0.3638
 1796SOL     OW17023   0.729   3.291   5.967 -0.0107  0.2093 -0.0315
 1796SOL    HW117024   0.688   3.318   5.885 -4.1935 -2.4746  1.1935
 1796SOL    HW217025   0.725   3.370   6.021  1.0665  1.3192 -1.5516
 1797SOL     OW17026   2.648   1.356  16.895  0.1147  0.2515  0.6014
 1797SOL    HW117027   2.594   1.412  16.839  0.5506  0.8871  0.8259
 1797SOL    HW217028   2.646   1.401  16.979 -0.8852 -0.0013  0.7167
 1798SOL     OW17029   4.370   1.484   8.499  0.2289 -0.1991  0.0963
 1798SOL    HW117030   4.423   1.411   8.533 -0.8470 -1.1556 -0.2645
 1798SOL    HW217031   4.408   1.565   8.531  0.4939  0.3187 -1.5206
 1799SOL     OW17032   0.796   2.425   9.217 -0.3947  0.1197 -1.0175
 1799SOL    HW117033   0.767   2.346   9.262  2.0114 -0.8593 -1.2155
 1799SOL    HW217034   0.827   2.470   9.295 -1.7268 -2.6500  1.0942
 1800SOL     OW17035   4.124   1.097   6.228 -0.1148 -0.5433  0.0301
 1800SOL    HW117036   4.206   1.141   6.206  0.0028  0.0766  1.6440
 1800SOL    HW217037   4.075   1.161   6.281  1.9000  2.7586 -2.0830
 1801SOL     OW17038   0.538   3.284   6.308 -0.0301  0.2079 -0.2013
 1801SOL    HW117039   0.588   3.339   6.368 -1.4745  0.5351  0.7053
 1801SOL    HW217040   0.499   3.350   6.252 -2.4150 -2.8215 -2.1134
 1802SOL     OW17041   3.295   2.662  16.542  0.0674 -0.2956 -0.1287
 1802SOL    HW117042   3.284   2.753  16.513 -0.1880  0.4150  2.2368
 1802SOL    HW217043   3.227   2.623  16.488 -1.3125  1.4529  0.3438
 1803SOL     OW17044   0.207   0.780   2.986 -0.2586  0.4100 -0.4372
 1803SOL    HW117045   0.174   0.817   3.068 -0.3385 -0.3093 -0.1436
 1803SOL    HW217046   0.301   0.786   3.003 -0.1810  0.7998 -0.9904
 1804SOL     OW17047   0.426   1.159   7.745  0.2130  0.3487  0.1975
 1804SOL    HW117048   0.447   1.188   7.657 -2.1081  1.9302  0.1598
 1804SOL    HW217049   0.371   1.082   7.728 -0.5960  0.4089  2.4554
 1805SOL     OW17050   4.483   1.822   6.337  0.2130 -0.0344  0.1624
 1805SOL    HW117051   4.555   1.760   6.326 -0.5108 -0.6082 -1.4934
 1805SOL    HW217052   4.536   1.900   6.328 -0.2409  0.3329  0.6713
 1806SOL     OW17053   3.046   4.069   6.575 -0.7707  0.7321 -0.2674
 1806SOL    HW117054   2.977   4.003   6.585 -1.4939  2.0083  3.0955
 1806SOL    HW217055   3.088   4.038   6.495  0.2975  0.7021  0.3090
 1807SOL     OW17056   0.353   0.243   1.743  0.4693 -0.3222 -0.1859
 1807SOL    HW117057   0.309   0.217   1.824 -1.4325 -0.6145 -1.3063
 1807SOL    HW217058   0.379   0.331   1.770  3.4177 -0.6506 -1.9561
 1808SOL     OW17059   4.612   3.791  14.162 -0.6151  0.4315 -0.5701
 1808SOL    HW117060   4.516   3.785  14.167 -0.6120 -0.4199 -1.3977
 1808SOL    HW217061   4.646   3.757  14.244  1.9442 -1.2804 -2.3506
 1809SOL     OW17062   0.434   0.860  11.714 -0.4411  0.1520 -0.5127
 1809SOL    HW117063   0.458   0.938  11.765 -1.3255 -1.0691  1.7976
 1809SOL    HW217064   0.520   0.824  11.692  0.2643  1.0803  0.7185
 1810SOL     OW17065   2.449   3.985   1.321 -0.5988 -0.2145 -0.4394
 1810SOL    HW117066   2.414   3.927   1.253 -1.7872 -1.0959  0.9441
 1810SOL    HW217067   2.540   3.993   1.291 -0.0846 -0.6331  1.0125
 1811SOL     OW17068   2.453   4.313   5.269 -0.0345  0.4285  0.3226
 1811SOL    HW117069   2.479   4.325   5.177 -0.2444 -2.7199 -0.1548
 1811SOL    HW217070   2.361   4.290   5.257 -1.3890  6.2100 -0.3565
 1812SOL     OW17071   1.041   3.945   7.764  0.4208  0.2735 -0.1279
 1812SOL    HW117072   1.031   3.948   7.669 -1.0887 -2.3903 -0.0561
 1812SOL    HW217073   1.056   4.038   7.778  4.1862 -0.1585 -1.0383
 1813SOL     OW17074   3.859   1.500  10.222 -0.6924  0.5394 -0.2636
 1813SOL    HW117075   3.786   1.559  10.205 -0.9614  0.7465  1.6726
 1813SOL    HW217076   3.821   1.431  10.277  0.5588 -1.9851 -2.5340
 1814SOL     OW17077   3.502   0.419  12.016 -0.0228  0.0907 -0.3564
 1814SOL    HW117078   3.429   0.359  12.031 -0.1019  0.1574 -0.4759
 1814SOL    HW217079   3.564   0.390  12.083  0.9938 -0.2935 -1.4724
 1815SOL     OW17080   0.878   2.466   8.085 -0.5216  0.1045 -1.1979
 1815SOL    HW117081   0.921   2.519   8.153  4.3667 -1.4494 -3.0845
 1815SOL    HW217082   0.892   2.378   8.119 -0.4541  0.1493 -1.1068
 1816SOL     OW17083   0.250   4.426   2.890  0.1498  0.2041 -0.3341
 1816SOL    HW117084   0.242   4.390   2.802  2.8939 -0.3330 -0.3627
 1816SOL    HW217085   0.310   4.496   2.868  0.2962 -0.7678 -2.9632
 1817SOL     OW17086   4.701   1.749   7.642 -0.1796  0.0184  0.1578
 1817SOL    HW117087   4.670   1.673   7.691 -0.6595  0.5582  0.7037
 1817SOL    HW217088   4.674   1.827   7.691 -1.4205 -0.8332  0.7969
 1818SOL     OW17089   3.974   4.483   9.617  0.3074 -0.3865  0.0880
 1818SOL    HW117090   4.034   4.446   9.552  0.7261 -1.6322  1.1903
 1818SOL    HW217091   3.892   4.486   9.567  0.8195 -0.5122 -0.7674
 1819SOL     OW17092   0.530   4.545   5.295  0.5733  0.1895 -0.1965
 1819SOL    HW117093   0.524   4.566   5.202  1.7260 -0.9699 -0.5323
 1819SOL    HW217094   0.509   4.626   5.341  0.2386 -0.4401  0.7506
 1820SOL     OW17095   2.037   3.986  11.655 -0.7074  0.0095  0.4964
 1820SOL    HW117096   2.055   3.908  11.708 -1.0240 -0.9500 -0.7801
 1820SOL    HW217097   1.942   3.981  11.651 -0.6485 -0.6168 -0.1244
 1821SOL     OW17098   1.243   1.330   5.084  0.0406 -0.4273 -0.8333
 1821SOL    HW117099   1.294   1.291   5.155 -1.0584 -0.0014  0.1848
 1821SOL    HW217100   1.151   1.326   5.110 -0.0857 -1.9751 -1.5130
 1822SOL     OW17101   4.377   0.223   3.581 -0.3657 -0.4605  0.0870
 1822SOL    HW117102   4.320   0.148   3.567  0.7541 -1.6413  1.7819
 1822SOL    HW217103   4.412   0.239   3.493  3.0795 -0.1902  1.5035
 1823SOL     OW17104   2.227   4.647   0.399 -0.2190 -0.7186 -0.1061
 1823SOL    HW117105   2.152   4.665   0.341 -0.9782  0.5099  1.2477
 1823SOL    HW217106   2.280   4.577   0.362 -0.8417 -0.5820 -1.2715
 1824SOL     OW17107   2.898   0.098  14.367  0.5246  0.0026  0.4901
 1824SOL    HW117108   2.960   0.075  14.298 -2.6324 -0.8204 -2.0741
 1824SOL    HW217109   2.859   0.167  14.313 -0.5054 -1.1594 -0.2581
 1825SOL     OW17110   0.609   2.282   0.168 -0.0091  0.1399 -0.1710
 1825SOL    HW117111   0.685   2.251   0.119  1.7473  1.3505  1.7709
 1825SOL    HW217112   0.649   2.362   0.202 -0.5768  0.4044 -0.1137
 1826SOL     OW17113   3.442   1.945   7.019 -0.4307 -0.5525  0.4454
 1826SOL    HW117114   3.531   1.954   7.051 -0.3053  1.4482 -0.4596
 1826SOL    HW217115   3.447   1.869   6.960  1.6136  2.1468 -2.8697
 1827SOL     OW17116   3.240   0.906   5.135  0.2254 -0.4707 -0.1055
 1827SOL    HW117117   3.178   0.964   5.181  0.2516  1.6771 -2.8000
 1827SOL    HW217118   3.283   0.955   5.065 -1.0222  0.4126 -0.2550
 1828SOL     OW17119   3.486   1.018   2.187  0.0079 -0.1107 -0.0498
 1828SOL    HW117120   3.517   0.931   2.162 -2.9610 -1.4131  0.8413
 1828SOL    HW217121   3.397   0.993   2.213  0.0052  0.6551  0.6721
 1829SOL     OW17122   3.653   2.912   7.629 -0.2197  0.1671 -0.3708
 1829SOL    HW117123   3.716   2.849   7.661 -0.1598  0.0570 -0.7055
 1829SOL    HW217124   3.660   2.890   7.536  3.1428  1.2154 -0.3515
 1830SOL     OW17125   1.670   2.810   7.135  0.2190 -0.0297  0.5381
 1830SOL    HW117126   1.704   2.726   7.102 -0.6131  0.5016 -1.6501
 1830SOL    HW217127   1.728   2.874   7.094 -0.1290 -1.8587 -2.8161
 1831SOL     OW17128   0.828   0.495   7.089 -0.1306  0.1573 -0.3793
 1831SOL    HW117129   0.879   0.417   7.068 -1.5030 -0.9826  0.4957
 1831SOL    HW217130   0.872   0.514   7.171 -0.0158 -1.1102 -0.1425
 1832SOL     OW17131   2.310   3.008   5.050 -0.1135 -0.3635 -0.3092
 1832SOL    HW117132   2.287   3.095   5.085 -0.5478 -0.1381 -1.1660
 1832SOL    HW217133   2.228   2.977   5.013  0.3267 -1.2595 -0.5229
 1833SOL     OW17134   2.216   1.662   8.374 -0.2980 -0.0236  0.3239
 1833SOL    HW117135   2.150   1.731   8.374  0.1524  0.4043 -0.1686
 1833SOL    HW217136   2.298   1.711   8.380 -0.9722  0.9371  1.5834
 1834SOL     OW17137   1.690   4.325   4.697 -0.3593  0.6523 -0.8193
 1834SOL    HW117138   1.620   4.322   4.632 -1.5026 -2.1866  0.5188
 1834SOL    HW217139   1.640   4.315   4.778  1.0293  2.7062  0.3150
 1835SOL     OW17140   0.193   3.640  17.517  0.3834  0.1711 -0.3129
 1835SOL    HW117141   0.114   3.675  17.558  0.9705 -0.2802  1.1827
 1835SOL    HW217142   0.243   3.718  17.492 -0.4119  1.0674  0.8950
 1836SOL     OW17143   2.296   2.841   4.715 -0.3935  0.4030  0.4668
 1836SOL    HW117144   2.337   2.896   4.648 -0.2747  0.6264  0.7254
 1836SOL    HW217145   2.359   2.769   4.722 -0.6948  0.1643  0.7347
 1837SOL     OW17146   4.730   1.960  14.666 -0.2319  0.8974 -0.3476
 1837SOL    HW117147   4.696   1.873  14.646  0.8984  0.1990  0.8011
 1837SOL    HW217148   0.044   1.929  14.740 -1.2660 -1.8191 -0.7692
 1838SOL     OW17149   2.653   4.435   8.287  0.1699  0.5658 -0.2314
 1838SOL    HW117150   2.607   4.489   8.352  1.3984 -2.9766  3.6210
 1838SOL    HW217151   2.638   4.348   8.325 -1.8407  1.1617  0.3622
 1839SOL     OW17152   2.334   0.307  15.629 -0.3171 -0.3416 -0.3185
 1839SOL    HW117153   2.294   0.312  15.716  1.0119 -0.4807  0.3024
 1839SOL    HW217154   2.416   0.351  15.651 -0.6691  1.0361 -1.7754
 1840SOL     OW17155   3.985   3.390   9.761 -0.4374 -0.3446 -0.7751
 1840SOL    HW117156   4.063   3.436   9.728  0.6209 -1.9188 -0.4583
 1840SOL    HW217157   3.918   3.454   9.736 -3.5938 -3.2408  0.3337
 1841SOL     OW17158   1.011   1.501   3.142  0.1884  0.1178  0.8402
 1841SOL    HW117159   0.931   1.528   3.098  0.5426  2.1404  1.4316
 1841SOL    HW217160   0.980   1.457   3.221  0.6708 -2.5396 -0.4686
 1842SOL     OW17161   2.963   2.547   7.195 -0.7089 -0.2139 -0.0093
 1842SOL    HW117162   3.024   2.494   7.247  0.5523 -2.6878 -3.9698
 1842SOL    HW217163   2.879   2.517   7.228 -1.5353 -0.4191 -2.3420
 1843SOL     OW17164   3.527   1.626   4.461 -0.2957  0.5879  0.2063
 1843SOL    HW117165   3.547   1.616   4.554  1.0832  1.2067 -0.0227
 1843SOL    HW217166   3.440   1.586   4.463  0.2771 -0.7011 -0.4538
 1844SOL     OW17167   1.476   1.289  10.065  0.2529  0.5412  0.6554
 1844SOL    HW117168   1.508   1.200  10.055 -0.2286  0.5276 -0.7515
 1844SOL    HW217169   1.522   1.321  10.143  1.7333 -1.0011  0.4094
 1845SOL     OW17170   1.516   2.330   8.412  0.1228  0.5884  0.4378
 1845SOL    HW117171   1.489   2.415   8.447 -1.1006  1.1127 -1.7496
 1845SOL    HW217172   1.516   2.278   8.492 -0.1392  1.3846  0.9467
 1846SOL     OW17173   0.289   4.432   7.487  0.6809  0.2117 -0.3788
 1846SOL    HW117174   0.268   4.355   7.434  1.8681 -1.0979  1.0597
 1846SOL    HW217175   0.351   4.477   7.430  0.8784  0.4327  0.0150
 1847SOL     OW17176   3.037   3.747  16.342 -0.1038 -0.3092 -0.0429
 1847SOL    HW117177   2.972   3.752  16.272 -1.2307  0.1248  1.0175
 1847SOL    HW217178   2.988   3.806  16.400 -1.0760 -0.0216 -1.1709
 1848SOL     OW17179   3.420   0.826   8.535 -0.0807  0.1884  0.3051
 1848SOL    HW117180   3.388   0.916   8.544  0.0848  0.1983  0.7844
 1848SOL    HW217181   3.363   0.779   8.596 -0.2349 -0.9008 -0.6875
 1849SOL     OW17182   4.161   0.975   6.754 -0.3827  0.8208  0.1037
 1849SOL    HW117183   4.231   0.936   6.703  0.1766  1.4159  0.4230
 1849SOL    HW217184   4.164   0.926   6.836 -0.0740  0.6031 -0.0401
 1850SOL     OW17185   3.119   1.646   3.559  0.5238  0.4846  0.5777
 1850SOL    HW117186   3.114   1.672   3.651 -1.8626 -1.3120  0.9676
 1850SOL    HW217187   3.101   1.555   3.579 -0.6614 -0.2963 -3.8831
 1851SOL     OW17188   1.743   1.129   3.290 -0.1330  0.2320 -0.1159
 1851SOL    HW117189   1.808   1.190   3.326  2.2720 -2.7993  0.6558
 1851SOL    HW217190   1.795   1.050   3.302  0.2559  0.5218  0.1127
 1852SOL     OW17191   2.429   3.140   4.776 -0.1965 -0.5644  0.4019
 1852SOL    HW117192   2.387   3.068   4.823 -0.7240  0.4408  1.4586
 1852SOL    HW217193   2.400   3.114   4.689  0.1589 -2.0697  0.7256
 1853SOL     OW17194   2.097   1.778   4.374 -0.2557  0.4338  0.0832
 1853SOL    HW117195   2.043   1.856   4.390 -2.4277 -1.2134  0.8829
 1853SOL    HW217196   2.107   1.785   4.279  0.4054  0.4590  0.1562
 1854SOL     OW17197   4.528   4.031   6.937 -0.5971 -0.0620  0.0361
 1854SOL    HW117198   4.438   4.030   6.970 -0.5741  0.4386  0.1110
 1854SOL    HW217199   4.552   3.940   6.951  1.4533  0.7134  1.6738
 1855SOL     OW17200   4.282   4.288   2.712 -0.4875  0.0838 -0.1303
 1855SOL    HW117201   4.282   4.359   2.647  0.7844  1.4516  1.3592
 1855SOL    HW217202   4.359   4.320   2.759  0.0876 -2.9778  0.9977
 1856SOL     OW17203   2.424   1.126  11.443  0.0485 -0.0683 -0.4729
 1856SOL    HW117204   2.427   1.151  11.351  0.8470 -2.7251 -1.1803
 1856SOL    HW217205   2.480   1.197  11.474 -0.6835  1.0139 -1.6628
 1857SOL     OW17206   0.656   3.278   2.102  0.0725 -0.2105 -0.5050
 1857SOL    HW117207   0.677   3.204   2.159  2.3992  0.8457 -0.0052
 1857SOL    HW217208   0.671   3.236   2.017 -0.1622  1.8405 -1.5598
 1858SOL     OW17209   0.702   4.036   4.073 -0.6974  0.2322 -0.6682
 1858SOL    HW117210   0.621   3.993   4.044 -1.0410  1.0411 -0.9058
 1858SOL    HW217211   0.728   3.988   4.152 -3.3560  0.0588  0.1101
 1859SOL     OW17212   0.982   0.171   5.068  0.3318 -0.4098  0.0798
 1859SOL    HW117213   0.896   0.211   5.078  1.1113  0.6906  2.4064
 1859SOL    HW217214   1.045   0.243   5.066 -1.8159  1.4249 -0.0703
 1860SOL     OW17215   4.637   2.432   7.860 -0.0548 -0.7112  0.2525
 1860SOL    HW117216   4.673   2.422   7.771 -0.3465 -1.4573  0.2161
 1860SOL    HW217217   4.543   2.414   7.857 -0.6417  2.1347  2.2383
 1861SOL     OW17218   1.243   0.758   5.823 -0.3899  0.6654 -0.2086
 1861SOL    HW117219   1.212   0.709   5.747  1.5423 -0.7040 -0.1171
 1861SOL    HW217220   1.219   0.695   5.891  2.4288  0.5849  0.7106
 1862SOL     OW17221   0.676   3.865  13.874  0.3664  0.2474 -0.1038
 1862SOL    HW117222   0.651   3.957  13.867 -0.1982  0.1556  0.6595
 1862SOL    HW217223   0.646   3.838  13.961  0.1065  3.2424  0.7490
 1863SOL     OW17224   1.785   1.916   2.310  0.4954 -0.0282  0.7008
 1863SOL    HW117225   1.755   1.825   2.300 -2.1304  0.9841 -0.7351
 1863SOL    HW217226   1.714   1.956   2.360  0.3471  0.3660  0.1748
 1864SOL     OW17227   0.112   4.078   5.302 -0.6920 -0.1400 -0.3360
 1864SOL    HW117228   0.142   4.152   5.354  0.1809  0.5336 -1.7608
 1864SOL    HW217229   0.018   4.091   5.292 -0.7462 -1.4273 -1.5240
 1865SOL     OW17230   2.024   2.446   5.715  0.3380 -0.5360 -0.4468
 1865SOL    HW117231   1.936   2.424   5.746  0.6658 -1.3141 -0.0526
 1865SOL    HW217232   2.064   2.464   5.800  0.6383  2.2011 -1.1749
 1866SOL     OW17233   0.147   3.748  12.379 -0.5882 -0.0825 -0.7216
 1866SOL    HW117234   0.197   3.702  12.312 -0.3325  0.0163 -0.5975
 1866SOL    HW217235   0.190   3.714  12.457 -2.9749 -0.7027  0.3051
 1867SOL     OW17236   3.275   3.924   2.081  0.7209 -0.4774 -0.1386
 1867SOL    HW117237   3.336   3.858   2.050  0.0440 -0.5489 -1.3169
 1867SOL    HW217238   3.327   3.982   2.138 -0.9994  0.8265  0.1184
 1868SOL     OW17239   1.221   0.053   6.075  0.4202  0.3425 -0.5225
 1868SOL    HW117240   1.305   0.094   6.059 -0.3436  2.1933  0.2384
 1868SOL    HW217241   1.235   0.002   6.155  1.2226  2.4587  0.6718
 1869SOL     OW17242   0.215   3.220   9.639  0.1355  0.1427 -0.2195
 1869SOL    HW117243   0.290   3.278   9.651 -0.4637  1.0041 -0.6518
 1869SOL    HW217244   0.266   3.148   9.601 -0.1434  0.0068 -0.3360
 1870SOL     OW17245   1.071   4.618   4.084  0.0118 -0.1129 -0.9772
 1870SOL    HW117246   1.068   4.565   4.164  2.8425  0.5006 -0.4581
 1870SOL    HW217247   0.977   4.632   4.079 -0.5022 -3.3070 -0.2278
 1871SOL     OW17248   1.280   2.920  11.577 -0.1132 -0.1527  0.1832
 1871SOL    HW117249   1.226   2.966  11.642  3.2357  2.5296  1.0858
 1871SOL    HW217250   1.367   2.916  11.616 -0.0228 -0.8266 -0.0773
 1872SOL     OW17251   0.510   1.009   8.245 -0.2573  0.3907  0.1148
 1872SOL    HW117252   0.549   1.097   8.240 -1.7879  1.0271 -0.6174
 1872SOL    HW217253   0.447   1.023   8.316  0.1629  1.6302  0.2433
 1873SOL     OW17254   3.343   4.504  13.049 -0.3027 -0.3802 -0.2189
 1873SOL    HW117255   3.318   4.569  13.114  0.3747 -1.3353  0.9937
 1873SOL    HW217256   3.259   4.462  13.030  0.3901 -0.7013 -2.5746
 1874SOL     OW17257   0.015   4.700   6.939  0.0056  0.0015  0.0775
 1874SOL    HW117258   0.091   4.717   6.884 -0.4521 -0.7773 -0.7899
 1874SOL    HW217259   4.717   0.041   6.980 -0.3519 -0.0498 -0.1368
 1875SOL     OW17260   1.854   3.328   6.445 -0.8751  0.3295  0.1453
 1875SOL    HW117261   1.842   3.251   6.501 -3.0784 -0.3796 -1.3219
 1875SOL    HW217262   1.816   3.289   6.367  1.5491 -0.5754 -0.5844
 1876SOL     OW17263   4.156   0.852   1.791  0.3034 -0.1008 -0.3159
 1876SOL    HW117264   4.172   0.937   1.832 -0.9089 -0.9334  1.8761
 1876SOL    HW217265   4.080   0.824   1.842 -0.5591  1.5634 -0.6471
 1877SOL     OW17266   3.217   1.296   2.590 -0.4515 -0.0331 -0.1071
 1877SOL    HW117267   3.190   1.384   2.563 -1.6887 -0.0527  1.0792
 1877SOL    HW217268   3.312   1.307   2.577 -0.6322 -0.3290 -1.6482
 1878SOL     OW17269   1.509   4.410   8.732 -0.2730 -0.1865 -0.5632
 1878SOL    HW117270   1.493   4.337   8.672 -0.5286 -0.9601  0.4656
 1878SOL    HW217271   1.417   4.434   8.742 -0.0881  0.6755 -0.9516
 1879SOL     OW17272   1.230   2.179   7.126  0.0763  0.1566  0.2519
 1879SOL    HW117273   1.238   2.237   7.051 -0.6485  0.4420  0.4055
 1879SOL    HW217274   1.213   2.244   7.194  0.9229  1.9984 -1.2922
 1880SOL     OW17275   1.412   4.614   2.627  0.0650 -0.2402 -0.5583
 1880SOL    HW117276   1.422   4.519   2.634  0.7872  0.1428  3.8070
 1880SOL    HW217277   1.365   4.621   2.544  0.9175  2.3943 -0.8309
 1881SOL     OW17278   1.398   2.281   3.252 -0.0793 -0.2507  0.0740
 1881SOL    HW117279   1.411   2.354   3.191  2.1614 -1.7230 -1.1913
 1881SOL    HW217280   1.310   2.276   3.290 -0.0366 -0.7691  0.1006
 1882SOL     OW17281   0.371   1.233   5.697  0.4445  0.0732 -0.5127
 1882SOL    HW117282   0.362   1.224   5.602  1.1605  0.5787 -0.6308
 1882SOL    HW217283   0.313   1.169   5.737 -0.8042  1.1205 -0.6279
 1883SOL     OW17284   2.535   2.769  13.485  0.0143  0.2317  0.4724
 1883SOL    HW117285   2.558   2.849  13.532 -0.2397  0.1074  0.8106
 1883SOL    HW217286   2.515   2.714  13.561  1.9730 -0.6123  0.3791
 1884SOL     OW17287   3.286   1.510   4.422  0.1734 -0.0434 -0.2829
 1884SOL    HW117288   3.289   1.426   4.467 -0.5718 -0.6740 -1.3971
 1884SOL    HW217289   3.195   1.530   4.446  0.5799 -0.3974  1.5931
 1885SOL     OW17290   1.694   0.796   2.345  0.0533 -0.3050 -0.3112
 1885SOL    HW117291   1.731   0.882   2.325 -1.0142  0.4664  1.0293
 1885SOL    HW217292   1.680   0.772   2.253 -0.1585  0.2481 -0.4215
 1886SOL     OW17293   0.862   4.106   6.752  0.4843 -0.8578 -0.0651
 1886SOL    HW117294   0.808   4.184   6.745 -1.0354 -1.4733  4.8831
 1886SOL    HW217295   0.790   4.043   6.749  0.2864 -0.4875 -3.0416
 1887SOL     OW17296   3.693   4.175   9.015 -0.4083  0.1009 -0.0025
 1887SOL    HW117297   3.746   4.197   9.091  0.3458  0.6912 -0.7049
 1887SOL    HW217298   3.736   4.231   8.951  2.2585 -1.1914  0.6796
 1888SOL     OW17299   4.027   3.237   2.556 -0.1614 -0.1651  0.3021
 1888SOL    HW117300   4.108   3.281   2.584 -0.4820  0.7315 -0.1677
 1888SOL    HW217301   4.059   3.181   2.485  0.7291 -1.7645  1.9824
 1889SOL     OW17302   1.873   4.383   8.774  0.2458  0.3107  0.3145
 1889SOL    HW117303   1.815   4.456   8.798 -1.7446 -0.2132 -2.9324
 1889SOL    HW217304   1.832   4.349   8.695  0.2580  1.2507 -0.0942
 1890SOL     OW17305   2.979   3.215   6.797 -0.0838 -0.7308 -0.0375
 1890SOL    HW117306   3.055   3.222   6.854 -1.4977  1.2587  1.6220
 1890SOL    HW217307   2.998   3.301   6.759 -0.7203  0.0894  1.5095
 1891SOL     OW17308   3.170   1.378   4.977  0.3534  0.1774 -0.2655
 1891SOL    HW117309   3.161   1.469   4.948  1.6407 -0.0280 -1.2835
 1891SOL    HW217310   3.166   1.327   4.896 -1.0133 -0.7797  0.4036
 1892SOL     OW17311   4.493   4.491   7.825 -0.2974  0.0810 -0.2116
 1892SOL    HW117312   4.579   4.496   7.866 -1.8947  0.5490  3.0146
 1892SOL    HW217313   4.507   4.541   7.744 -2.7942 -1.6332 -1.7284
 1893SOL     OW17314   4.077   1.060   4.493 -0.1378 -0.4657 -0.2139
 1893SOL    HW117315   4.069   1.067   4.398  1.5352  1.8098 -0.1998
 1893SOL    HW217316   3.988   1.043   4.523 -0.4034  2.0781  0.5022
 1894SOL     OW17317   0.382   2.355   3.008  0.4982 -0.6014 -0.4150
 1894SOL    HW117318   0.300   2.311   2.987 -0.5304  0.4292  1.4363
 1894SOL    HW217319   0.421   2.362   2.921  1.9479 -0.8615  0.2158
 1895SOL     OW17320   4.662   3.298   3.809  0.0157 -0.0705 -0.3484
 1895SOL    HW117321   4.732   3.352   3.773  0.9048 -0.6094  0.5557
 1895SOL    HW217322   4.705   3.255   3.883  1.5210  0.8066 -0.7224
 1896SOL     OW17323   4.375   3.324   6.142  0.0745  0.3892  0.2489
 1896SOL    HW117324   4.387   3.243   6.192  1.7334  1.4180  1.5310
 1896SOL    HW217325   4.287   3.307   6.109  0.1218  0.4909  0.0711
 1897SOL     OW17326   0.514   2.902  14.116 -0.3570  0.0694 -0.4401
 1897SOL    HW117327   0.480   2.987  14.144  0.7803  0.5244 -0.4107
 1897SOL    HW217328   0.493   2.903  14.022 -0.0787  1.2188 -0.4965
 1898SOL     OW17329   3.845   1.549   8.404 -0.5056 -0.4689 -0.6964
 1898SOL    HW117330   3.879   1.601   8.477 -1.4804  0.8728 -1.2135
 1898SOL    HW217331   3.926   1.531   8.355  0.7438  2.3237  0.3569
 1899SOL     OW17332   3.598   4.329  10.645 -0.8460 -0.3097 -0.2158
 1899SOL    HW117333   3.548   4.345  10.565 -1.6009 -0.3507  0.2505
 1899SOL    HW217334   3.599   4.234  10.653  1.7635 -0.3905 -1.4422
 1900SOL     OW17335   3.742   0.877   4.288  0.2855  0.7554  0.1043
 1900SOL    HW117336   3.775   0.966   4.277 -1.8072  1.4736 -0.4370
 1900SOL    HW217337   3.821   0.826   4.302  0.5273  1.7056  2.1188
 1901SOL     OW17338   3.991   1.080  15.425 -0.2034  0.2347 -0.6008
 1901SOL    HW117339   3.899   1.052  15.426  0.6002 -2.4820 -1.0856
 1901SOL    HW217340   4.032   1.002  15.386 -4.2531 -1.2280 -1.8996
 1902SOL     OW17341   0.679   1.130  17.143 -0.0631  0.3920  0.1181
 1902SOL    HW117342   0.603   1.135  17.200 -1.1271 -2.7913 -1.0082
 1902SOL    HW217343   0.754   1.146  17.200 -0.1196  0.8845  0.0467
 1903SOL     OW17344   4.157   2.137   4.823 -0.0218  0.3698 -0.0705
 1903SOL    HW117345   4.111   2.058   4.852  3.1111 -1.4504 -0.1141
 1903SOL    HW217346   4.238   2.095   4.794 -0.5367 -1.5120  1.2134
 1904SOL     OW17347   4.549   0.615  11.036 -0.3641 -0.2906  0.3963
 1904SOL    HW117348   4.548   0.710  11.022  0.3305 -0.1261  1.4841
 1904SOL    HW217349   4.618   0.594  10.973  0.1967 -1.3039  1.3417
 1905SOL     OW17350   4.288   1.981   8.970 -0.1428 -0.0400  0.7926
 1905SOL    HW117351   4.266   1.888   8.967  0.5251 -0.1754 -0.0058
 1905SOL    HW217352   4.326   1.993   8.883 -0.2918  3.0185  1.1743
 1906SOL     OW17353   0.937   0.597   3.205  0.9191  0.0239 -0.2122
 1906SOL    HW117354   0.996   0.587   3.279  0.5244 -2.1169 -0.1909
 1906SOL    HW217355   0.963   0.528   3.144  1.4551 -0.4952  0.6157
 1907SOL     OW17356   2.691   0.441   2.845  0.0867  0.2365 -0.4611
 1907SOL    HW117357   2.715   0.533   2.834 -1.2288  0.4884 -1.1571
 1907SOL    HW217358   2.605   0.456   2.883 -0.1107  1.0751 -1.2311
 1908SOL     OW17359   4.429   2.635   5.979 -0.4452 -0.1502 -0.5377
 1908SOL    HW117360   4.367   2.706   5.995 -2.2695 -2.1026  0.9185
 1908SOL    HW217361   4.502   2.684   5.940  0.0065 -0.8211 -0.5370
 1909SOL     OW17362   0.373   3.141  17.430 -0.5383 -0.1408  0.0648
 1909SOL    HW117363   0.357   3.226  17.470 -1.9486  0.2625 -1.3377
 1909SOL    HW217364   0.439   3.167  17.366  0.3634 -0.4138  0.8953
 1910SOL     OW17365   2.258   3.613   8.087 -0.5479  1.1533  0.1118
 1910SOL    HW117366   2.278   3.535   8.138  0.7270 -0.0919 -2.3310
 1910SOL    HW217367   2.170   3.586   8.059  0.0415 -0.4053 -0.2249
 1911SOL     OW17368   2.155   0.783   2.318  0.2729 -0.0286  0.2214
 1911SOL    HW117369   2.234   0.733   2.340  0.0719 -0.4934 -0.1144
 1911SOL    HW217370   2.181   0.867   2.357  1.5412  1.3855 -3.6763
 1912SOL     OW17371   1.768   2.345   7.099 -0.1417 -0.3498  0.2539
 1912SOL    HW117372   1.843   2.404   7.106 -2.0761  1.9652  1.4837
 1912SOL    HW217373   1.756   2.316   7.190 -0.5457  1.6470  0.8436
 1913SOL     OW17374   1.080   1.215   3.937  0.3242  0.0784 -0.1871
 1913SOL    HW117375   0.991   1.203   3.904  0.3428  1.1924 -0.6140
 1913SOL    HW217376   1.064   1.307   3.955 -0.9304  0.2839 -2.2927
 1914SOL     OW17377   1.174   3.807   6.423  0.2177 -0.0755 -0.5562
 1914SOL    HW117378   1.205   3.898   6.416  2.4637 -0.9172 -1.8433
 1914SOL    HW217379   1.249   3.765   6.464  0.9499 -0.8529 -2.6583
 1915SOL     OW17380   0.554   3.537  15.003 -0.5804  0.5682 -0.2859
 1915SOL    HW117381   0.465   3.558  15.030 -0.0889  1.2300  0.8319
 1915SOL    HW217382   0.555   3.441  15.009  0.7830  0.4304 -2.7854
 1916SOL     OW17383   1.842   3.077   4.775 -0.0205  0.1965 -0.1462
 1916SOL    HW117384   1.885   2.992   4.762  0.5516  0.2195  1.6775
 1916SOL    HW217385   1.769   3.069   4.713  0.7817 -0.7575 -0.9607
 1917SOL     OW17386   2.633   2.569   1.764  0.3533 -0.3196 -0.6158
 1917SOL    HW117387   2.580   2.575   1.844  0.6534 -1.3878 -0.3452
 1917SOL    HW217388   2.710   2.617   1.795  0.7237 -2.0092  1.0829
 1918SOL     OW17389   3.705   3.228   7.009 -0.1683 -0.0463  0.2948
 1918SOL    HW117390   3.789   3.183   7.011 -1.5683 -2.6572  1.0272
 1918SOL    HW217391   3.735   3.319   7.015  5.4000 -1.7309 -2.1376
 1919SOL     OW17392   1.267   3.796   1.891 -0.3272  0.4499 -0.0652
 1919SOL    HW117393   1.191   3.759   1.846  0.7336  0.2219 -1.6719
 1919SOL    HW217394   1.322   3.826   1.819  2.9372  0.4865  2.4102
 1920SOL     OW17395   1.907   4.587  17.674 -0.2887  0.1042 -0.4518
 1920SOL    HW117396   1.965   4.634  17.733 -0.7544 -0.2790  0.3038
 1920SOL    HW217397   1.911   4.656  17.608 -2.4053  1.8666  1.2636
 1921SOL     OW17398   0.274   3.317   7.075  0.0968 -0.3771 -0.3526
 1921SOL    HW117399   0.248   3.255   7.142 -0.8339  0.2440 -0.1288
 1921SOL    HW217400   0.283   3.263   6.996 -1.6100 -1.0462 -0.0896
 1922SOL     OW17401   2.970   1.757   7.489 -0.3182  0.3931 -0.1363
 1922SOL    HW117402   2.993   1.842   7.452  1.6747  0.1350  0.4708
 1922SOL    HW217403   2.878   1.751   7.463 -0.3822  2.0032 -0.2766
 1923SOL     OW17404   4.509   1.876   8.245  0.6664  0.4937  0.4280
 1923SOL    HW117405   4.586   1.831   8.278  0.6367  0.4943  0.4982
 1923SOL    HW217406   4.442   1.849   8.308  1.6873  1.1404  1.7705
 1924SOL     OW17407   4.598   2.526   3.123  0.1687  0.4436 -0.2875
 1924SOL    HW117408   4.614   2.486   3.208 -4.5120 -0.5673  0.1202
 1924SOL    HW217409   4.593   2.449   3.067  0.9363 -0.2719  0.6297
 1925SOL     OW17410   1.449   3.827   2.130  0.1160 -0.4324 -0.3244
 1925SOL    HW117411   1.383   3.820   2.062 -0.6414  0.0729  0.3598
 1925SOL    HW217412   1.524   3.791   2.082  0.0720 -1.0516  0.0717
 1926SOL     OW17413   0.283   2.777  17.218 -0.4702 -0.1039  0.0010
 1926SOL    HW117414   0.250   2.797  17.306  0.6365 -2.1577  0.8885
 1926SOL    HW217415   0.218   2.811  17.156  1.2033  2.1801 -0.4757
 1927SOL     OW17416   1.953   2.203   5.030  0.2251  0.0749  0.9047
 1927SOL    HW117417   1.965   2.297   5.018 -0.0021 -0.0847 -0.5537
 1927SOL    HW217418   1.935   2.177   4.940  2.3800 -2.1010  1.1046
 1928SOL     OW17419   0.578   4.078   7.257  0.5675 -0.3058  0.4463
 1928SOL    HW117420   0.553   3.987   7.278  3.1290 -1.2676 -0.6583
 1928SOL    HW217421   0.543   4.133   7.327  0.7096  1.5444 -0.9511
 1929SOL     OW17422   1.799   0.354   2.341  0.0899 -0.1117 -0.0121
 1929SOL    HW117423   1.761   0.350   2.254 -0.9036 -0.7832  0.4537
 1929SOL    HW217424   1.873   0.412   2.325 -0.1464  0.5538  1.3348
 1930SOL     OW17425   2.761   0.580  11.199  0.1787 -0.0119 -0.1863
 1930SOL    HW117426   2.681   0.564  11.148  0.8058  0.3566 -1.2939
 1930SOL    HW217427   2.815   0.633  11.140 -0.3474  2.7799  1.8553
 1931SOL     OW17428   2.600   2.392   7.241 -0.0842  0.4170 -0.1635
 1931SOL    HW117429   2.619   2.430   7.327  2.0959 -0.0132 -0.4594
 1931SOL    HW217430   2.548   2.466   7.209 -0.5562  0.6137  1.0641
 1932SOL     OW17431   2.622   4.076   4.207  0.1239  0.2061 -0.1956
 1932SOL    HW117432   2.595   4.038   4.290  1.4124  1.4447  0.7955
 1932SOL    HW217433   2.541   4.086   4.157 -0.1944  0.0187  0.2805
 1933SOL     OW17434   2.472   3.693   4.745 -0.5390  0.0057  0.2221
 1933SOL    HW117435   2.491   3.608   4.783  0.0047 -1.0499 -2.3636
 1933SOL    HW217436   2.471   3.675   4.651 -0.6116  1.6369 -0.0922
 1934SOL     OW17437   4.449   3.679   4.509 -0.0349 -0.0712 -0.6777
 1934SOL    HW117438   4.450   3.589   4.542  1.0822  0.5635  1.0160
 1934SOL    HW217439   4.370   3.663   4.458  1.0452 -1.4821 -1.8963
 1935SOL     OW17440   3.114   2.856  14.021  0.5198 -0.1231 -0.5171
 1935SOL    HW117441   3.091   2.791  14.088  2.4260  1.0897  1.3100
 1935SOL    HW217442   3.043   2.837  13.960 -0.1126 -0.5873  0.3688
 1936SOL     OW17443   3.828   3.159   4.424  0.2944  0.3763  0.2813
 1936SOL    HW117444   3.756   3.219   4.443  0.1889  0.8372 -1.5536
 1936SOL    HW217445   3.870   3.197   4.347 -0.8591 -0.7139 -0.8903
 1937SOL     OW17446   0.448   0.285   3.573 -0.0976 -0.3347 -0.0965
 1937SOL    HW117447   0.511   0.216   3.595  1.5229  1.5418  1.1197
 1937SOL    HW217448   0.390   0.293   3.648 -1.4259 -1.5576 -0.9861
 1938SOL     OW17449   2.611   0.647   3.031  0.3036 -0.3582  0.5120
 1938SOL    HW117450   2.661   0.707   2.976 -1.3507  0.8005  0.2682
 1938SOL    HW217451   2.531   0.636   2.979 -0.1251 -2.0582  1.5025
 1939SOL     OW17452   1.604   2.461   4.011 -0.4286  0.4320  0.0707
 1939SOL    HW117453   1.513   2.475   4.036 -1.6944 -0.9060 -3.7734
 1939SOL    HW217454   1.580   2.370   3.994 -0.5134  0.2249  1.2634
 1940SOL     OW17455   3.916   4.661  13.129  0.0972  0.0947 -0.0226
 1940SOL    HW117456   3.999   4.705  13.149  0.2597  0.2401 -1.0321
 1940SOL    HW217457   3.844   4.722  13.143  0.5884  0.3486  1.4050
 1941SOL     OW17458   3.659   2.104   4.458 -0.9056 -0.2515  0.5046
 1941SOL    HW117459   3.668   2.118   4.364  0.2810 -1.7792  0.3826
 1941SOL    HW217460   3.713   2.179   4.485  0.0038  0.1380 -2.3194
 1942SOL     OW17461   0.035   4.661   7.819  0.5833  0.6874  0.3603
 1942SOL    HW117462   0.032   4.649   7.724 -1.6530 -0.8191  0.6315
 1942SOL    HW217463   4.731   0.008   7.830 -1.1911 -0.2225  0.5615
 1943SOL     OW17464   3.401   3.325   6.465  0.5171 -0.4670 -0.2697
 1943SOL    HW117465   3.357   3.240   6.458 -1.6825  0.5906  0.7238
 1943SOL    HW217466   3.365   3.344   6.552  0.7034 -2.5803  0.2836
 1944SOL     OW17467   4.144   0.568   8.020 -0.0925 -0.0091  0.0251
 1944SOL    HW117468   4.107   0.490   8.061 -2.9276 -0.8810 -4.1169
 1944SOL    HW217469   4.111   0.626   8.088 -1.6087 -0.2184 -0.5386
 1945SOL     OW17470   1.984   1.340   5.395 -0.1168  0.2188 -0.2482
 1945SOL    HW117471   2.016   1.306   5.311 -1.7668 -1.7814 -0.0625
 1945SOL    HW217472   2.038   1.418   5.410  0.5644 -0.5981  1.4881
 1946SOL     OW17473   1.180   0.282   7.697  0.7185  0.5839  0.1882
 1946SOL    HW117474   1.091   0.313   7.710  1.1475  1.8228  0.1028
 1946SOL    HW217475   1.193   0.270   7.791  2.2324  0.0472 -0.0828
 1947SOL     OW17476   3.067   3.264   5.090 -0.6271  0.1265  0.1263
 1947SOL    HW117477   3.067   3.241   5.183 -0.7681  1.8344  0.5440
 1947SOL    HW217478   2.978   3.296   5.075 -0.2293  1.0468 -0.2321
 1948SOL     OW17479   3.077   3.799  15.234  0.2830  1.0093  0.4121
 1948SOL    HW117480   3.156   3.824  15.282 -1.2240  2.2400  2.2560
 1948SOL    HW217481   3.127   3.782  15.154 -0.5898  0.3103  0.0227
 1949SOL     OW17482   4.228   1.441   6.475 -0.1692 -0.3693  0.7384
 1949SOL    HW117483   4.167   1.482   6.414  2.2614  0.6681 -0.9790
 1949SOL    HW217484   4.307   1.432   6.422 -0.9881  1.4951 -0.8123
 1950SOL     OW17485   0.697   0.031   4.730 -0.1292  1.1531  0.2161
 1950SOL    HW117486   0.735   4.713   4.798 -1.1676 -1.2851 -1.1972
 1950SOL    HW217487   0.743   0.006   4.650 -0.7548 -2.2589  0.9143
 1951SOL     OW17488   2.885   0.700   6.550 -0.1304 -0.5040 -0.2465
 1951SOL    HW117489   2.820   0.638   6.516 -0.3751 -0.5208  0.2472
 1951SOL    HW217490   2.913   0.747   6.471 -0.9919  0.0682 -0.2147
 1952SOL     OW17491   2.381   3.105  11.953 -0.0208  0.2977 -0.6945
 1952SOL    HW117492   2.413   3.170  11.891 -1.2428 -0.0379 -1.6760
 1952SOL    HW217493   2.329   3.165  12.007  0.3259  0.2336 -0.2875
 1953SOL     OW17494   1.965   1.323  16.879 -0.0137 -0.3222  0.3800
 1953SOL    HW117495   1.916   1.248  16.912  1.2363 -0.6320  1.5109
 1953SOL    HW217496   2.058   1.303  16.892  0.4116  1.7003  0.4900
 1954SOL     OW17497   1.869   3.693  13.323  0.5726  0.0895  0.3185
 1954SOL    HW117498   1.955   3.655  13.308  1.8068  3.0096 -0.1214
 1954SOL    HW217499   1.837   3.707  13.234  0.9101 -0.4979  0.1079
 1955SOL     OW17500   3.724   0.180   7.779  0.3882 -0.3354 -0.1038
 1955SOL    HW117501   3.817   0.174   7.755  0.3921 -0.5756 -0.0297
 1955SOL    HW217502   3.708   0.106   7.837  0.0518  0.6030  1.0037
 1956SOL     OW17503   1.382   4.267   6.545  0.0488  0.1751 -0.6728
 1956SOL    HW117504   1.473   4.284   6.520 -0.1636  1.2377 -0.7472
 1956SOL    HW217505   1.402   4.216   6.623  0.9979  2.4193  0.5552
 1957SOL     OW17506   0.322   0.233   6.357 -0.2963  0.2663 -0.0159
 1957SOL    HW117507   0.273   0.155   6.331  0.2467 -0.7540  1.9857
 1957SOL    HW217508   0.367   0.254   6.276 -0.4445  0.6629  0.0068
 1958SOL     OW17509   0.807   3.234   2.411  0.2649  0.2504  0.0209
 1958SOL    HW117510   0.731   3.184   2.380  0.5881 -1.2449  1.6390
 1958SOL    HW217511   0.802   3.214   2.505  1.4039  0.2462  0.0776
 1959SOL     OW17512   3.793   2.215   7.537  0.1162  0.1759 -0.7109
 1959SOL    HW117513   3.751   2.227   7.622 -0.7512  1.3668 -1.3124
 1959SOL    HW217514   3.807   2.304   7.505 -1.8327  0.7175 -0.0329
 1960SOL     OW17515   1.763   3.600   6.084 -0.0200  0.1086 -0.9712
 1960SOL    HW117516   1.717   3.579   6.165  0.7733  2.2587  0.0298
 1960SOL    HW217517   1.774   3.513   6.044  3.0315  0.4453 -0.8672
 1961SOL     OW17518   1.653   1.143   5.107 -0.4757  0.1377 -0.1208
 1961SOL    HW117519   1.585   1.155   5.041  0.9297 -0.0063 -1.6007
 1961SOL    HW217520   1.686   1.233   5.105  0.2045 -0.0557  2.4604
 1962SOL     OW17521   3.663   2.451  10.518 -0.0507 -0.4033 -0.4314
 1962SOL    HW117522   3.689   2.494  10.437  0.4283  0.7531  0.3340
 1962SOL    HW217523   3.725   2.379  10.527 -2.0081 -1.7497  2.4144
 1963SOL     OW17524   4.289   3.164   1.484 -0.1970  0.8280  0.9026
 1963SOL    HW117525   4.372   3.157   1.533  0.8882  1.3367 -0.8675
 1963SOL    HW217526   4.287   3.260   1.478  0.8282  0.5498 -3.5373
 1964SOL     OW17527   2.472   3.703   3.027 -0.1422  0.4761 -0.5577
 1964SOL    HW117528   2.385   3.662   3.024  0.1088 -0.1523  0.7250
 1964SOL    HW217529   2.519   3.648   3.090 -2.0328 -0.2073  0.2614
 1965SOL     OW17530   3.880   2.064   5.943  0.3991 -0.1130 -0.1045
 1965SOL    HW117531   3.942   2.022   6.002 -0.3395 -1.4285 -0.2707
 1965SOL    HW217532   3.829   2.106   6.013  0.2443 -1.8336  0.8219
 1966SOL     OW17533   3.337   0.998  12.017  0.0243 -0.0020 -0.1018
 1966SOL    HW117534   3.331   0.962  11.928 -0.3904 -0.4136  0.0904
 1966SOL    HW217535   3.373   0.916  12.052  1.2126 -0.2185 -1.8416
 1967SOL     OW17536   4.079   0.465   8.268  0.3671  0.0873  0.2203
 1967SOL    HW117537   4.042   0.390   8.314  0.7847  0.3759  1.0201
 1967SOL    HW217538   4.080   0.538   8.329 -3.7801 -0.0316  0.4544
 1968SOL     OW17539   4.540   2.122  11.344 -0.5268  0.2762  0.3356
 1968SOL    HW117540   4.518   2.037  11.382 -1.4256 -0.3353 -1.5227
 1968SOL    HW217541   4.635   2.118  11.348 -0.6931 -2.6430  1.5496
 1969SOL     OW17542   3.897   3.536  13.081  0.0099  0.0807 -0.1944
 1969SOL    HW117543   3.960   3.536  13.153  0.6412  2.8333 -0.7518
 1969SOL    HW217544   3.888   3.631  13.072  0.1605  0.1004 -0.1447
 1970SOL     OW17545   3.124   1.418   8.952 -0.1458 -0.5224 -0.4969
 1970SOL    HW117546   3.208   1.460   8.932  1.2883 -2.7338  0.9135
 1970SOL    HW217547   3.061   1.484   8.920 -0.9848 -2.4183 -2.7246
 1971SOL     OW17548   1.634   3.479   2.830  0.5137  0.0723 -0.0031
 1971SOL    HW117549   1.720   3.510   2.858 -0.0847  1.5421  0.1990
 1971SOL    HW217550   1.583   3.543   2.880  2.3392  0.9322  0.7487
 1972SOL     OW17551   2.100   2.915   1.450 -0.2507  0.3580 -0.1928
 1972SOL    HW117552   2.188   2.930   1.486 -0.4923 -1.0998  0.9805
 1972SOL    HW217553   2.080   3.001   1.413  1.1110 -0.0219 -1.8238
 1973SOL     OW17554   1.888   0.555  16.162  0.7986 -0.1429  0.2127
 1973SOL    HW117555   1.816   0.573  16.102  1.6326  0.2909 -0.6602
 1973SOL    HW217556   1.940   0.636  16.154 -2.9277  2.2571  0.6057
 1974SOL     OW17557   1.760   0.089   8.626 -0.0875  0.7847  0.0939
 1974SOL    HW117558   1.778   0.015   8.684  1.4049  0.6435 -0.5517
 1974SOL    HW217559   1.667   0.069   8.615 -0.0923  1.0181 -0.2973
 1975SOL     OW17560   3.350   2.545   6.681  0.2674 -0.5214 -0.3780
 1975SOL    HW117561   3.264   2.556   6.642 -0.5366  1.0565  1.7839
 1975SOL    HW217562   3.312   2.555   6.769 -2.0364 -1.3435 -1.2944
 1976SOL     OW17563   4.067   0.085  12.464  0.3510  0.3168  0.0749
 1976SOL    HW117564   4.048   0.057  12.553 -0.7876  0.4419 -0.1353
 1976SOL    HW217565   3.976   0.092  12.437 -0.1691 -0.6649  1.6100
 1977SOL     OW17566   1.994   2.411   5.297 -0.0774  0.0919  0.6874
 1977SOL    HW117567   1.910   2.456   5.300 -0.2585 -0.0873 -1.6951
 1977SOL    HW217568   2.009   2.430   5.204  0.3785  1.0336  0.9538
 1978SOL     OW17569   2.255   0.240   8.521  0.2626 -0.2781  0.9866
 1978SOL    HW117570   2.183   0.247   8.583  0.4893 -0.1599  1.2383
 1978SOL    HW217571   2.283   0.331   8.506  1.7117 -1.0471 -0.9621
 1979SOL     OW17572   3.310   1.804   1.752  0.6019  0.1786  0.2146
 1979SOL    HW117573   3.263   1.787   1.670  1.7886 -0.4384 -0.3528
 1979SOL    HW217574   3.304   1.718   1.794  0.4736  0.5549  0.9658
 1980SOL     OW17575   0.962   3.516  11.959  0.4323  1.0176  0.1564
 1980SOL    HW117576   0.960   3.431  11.916 -1.9669  2.3516 -2.3374
 1980SOL    HW217577   0.957   3.503  12.054 -0.0004  1.7875  0.2395
 1981SOL     OW17578   2.446   1.547  12.870 -0.2924  0.0315  0.2423
 1981SOL    HW117579   2.470   1.493  12.945  0.4311  1.4507  1.0384
 1981SOL    HW217580   2.480   1.496  12.796 -1.7392  0.3583 -0.6453
 1982SOL     OW17581   2.609   1.461   7.284  0.6745 -0.2090  0.1440
 1982SOL    HW117582   2.568   1.375   7.276  2.3199 -0.9257 -0.4907
 1982SOL    HW217583   2.680   1.443   7.344 -0.4357  1.4314  1.9420
 1983SOL     OW17584   1.280   3.024   5.515 -0.1168  0.2852 -0.0686
 1983SOL    HW117585   1.254   3.083   5.444 -0.1833 -0.8059 -0.9577
 1983SOL    HW217586   1.308   2.946   5.466 -1.3506 -0.5074  0.5159
 1984SOL     OW17587   2.940   2.552   6.895  0.3937 -0.1255 -0.0281
 1984SOL    HW117588   2.996   2.486   6.853 -1.5510 -1.5228 -0.4461
 1984SOL    HW217589   2.940   2.530   6.988 -1.2840  2.0716  0.4773
 1985SOL     OW17590   2.312   1.647   7.148  0.0350 -0.1724 -0.4974
 1985SOL    HW117591   2.301   1.559   7.183 -2.5004  0.7590  1.0281
 1985SOL    HW217592   2.273   1.645   7.060 -1.6286  2.7286  0.1385
 1986SOL     OW17593   2.741   1.482   4.321 -0.1240 -0.5310 -0.0338
 1986SOL    HW117594   2.814   1.538   4.293 -2.0936  2.5633  0.9957
 1986SOL    HW217595   2.748   1.495   4.416 -2.8596  0.9618 -0.0530
 1987SOL     OW17596   3.498   0.150  15.330 -0.0263 -0.3234  0.1029
 1987SOL    HW117597   3.452   0.169  15.411 -0.4474 -1.9100  0.2407
 1987SOL    HW217598   3.430   0.137  15.264  1.3578  1.5045 -1.6873
 1988SOL     OW17599   3.772   3.605   7.212 -0.1544  0.0588  0.2358
 1988SOL    HW117600   3.741   3.598   7.122 -0.4403  1.2732  0.2372
 1988SOL    HW217601   3.853   3.656   7.208 -0.0189 -0.2781 -1.2314
 1989SOL     OW17602   1.267   3.666   5.915  0.2897 -0.5496  0.1072
 1989SOL    HW117603   1.283   3.749   5.870 -1.5404 -0.3991 -0.2342
 1989SOL    HW217604   1.349   3.620   5.898  0.9011  1.3404 -2.0687
 1990SOL     OW17605   3.023   2.440   7.944  0.4192 -0.0772 -0.1172
 1990SOL    HW117606   2.969   2.363   7.961  0.5298  0.3566  2.1522
 1990SOL    HW217607   3.093   2.425   8.008  1.1692 -1.8320 -1.3345
 1991SOL     OW17608   3.069   0.660   2.046 -0.0235  0.2016  0.3327
 1991SOL    HW117609   3.131   0.648   2.118 -1.5475 -0.8003  1.4677
 1991SOL    HW217610   3.003   0.592   2.060  0.9164 -1.2347 -2.1337
 1992SOL     OW17611   1.513   0.652  11.760  0.4977 -0.4013  0.1531
 1992SOL    HW117612   1.566   0.572  11.750  3.5030  1.5576  0.2972
 1992SOL    HW217613   1.524   0.679  11.669  0.4731  0.7893  0.5094
 1993SOL     OW17614   2.324   0.481  14.456  0.1976 -0.5580 -0.6075
 1993SOL    HW117615   2.319   0.473  14.552  1.4052  1.6718 -0.3735
 1993SOL    HW217616   2.244   0.530  14.434  0.9648  0.3578 -1.3519
 1994SOL     OW17617   1.484   3.168  13.616 -0.1038  0.3252  0.7158
 1994SOL    HW117618   1.493   3.238  13.550 -2.3546  0.4519  0.5169
 1994SOL    HW217619   1.575   3.151  13.637 -0.2786  1.0514  2.0285
 1995SOL     OW17620   1.073   2.030   5.338  1.1072 -0.2261  0.7323
 1995SOL    HW117621   1.023   1.966   5.389 -1.4537  0.3087 -1.1098
 1995SOL    HW217622   1.148   2.055   5.393  1.2682  0.9315 -0.0323
 1996SOL     OW17623   2.450   0.612   7.276 -0.2546  0.0712 -0.3509
 1996SOL    HW117624   2.357   0.634   7.271  0.3426  2.7804  0.8612
 1996SOL    HW217625   2.449   0.516   7.282  0.8761  0.0344 -0.7130
 1997SOL     OW17626   3.652   0.643   7.311  0.3831  0.2971 -0.5326
 1997SOL    HW117627   3.741   0.615   7.289 -0.8615 -2.4796 -1.9684
 1997SOL    HW217628   3.608   0.563   7.285 -0.8544 -0.0161  2.5759
 1998SOL     OW17629   0.373   3.940   8.277 -0.0857 -0.3771  0.1666
 1998SOL    HW117630   0.419   3.857   8.290  0.5500  0.4528  3.2236
 1998SOL    HW217631   0.335   3.961   8.362 -1.9409  0.8603 -0.9771
 1999SOL     OW17632   2.244   4.043   9.556 -0.3644  0.0406 -0.3177
 1999SOL    HW117633   2.209   3.989   9.485 -0.1101 -0.7346  0.1497
 1999SOL    HW217634   2.177   4.028   9.622 -0.9108 -2.7375 -1.5042
 2000SOL     OW17635   3.985   3.262   7.429  0.5255 -0.6259  0.3253
 2000SOL    HW117636   3.911   3.285   7.372  0.8195 -0.1138  0.1557
 2000SOL    HW217637   3.943   3.266   7.516 -1.8387 -1.6378 -0.7542
 2001SOL     OW17638   0.445   3.146   3.021  0.4430 -0.2421  0.0278
 2001SOL    HW117639   0.398   3.088   2.961 -0.0707  1.5651 -1.2959
 2001SOL    HW217640   0.527   3.150   2.972 -0.1497  0.3487 -0.9006
 2002SOL     OW17641   1.326   4.584  13.369  0.1190  0.0461 -0.2518
 2002SOL    HW117642   1.416   4.604  13.345 -0.1063  1.9898  0.5699
 2002SOL    HW217643   1.343   4.495  13.401  2.7124  0.8507  0.6335
 2003SOL     OW17644   3.652   3.500   4.304 -0.2515  0.3176 -0.1975
 2003SOL    HW117645   3.673   3.486   4.212 -0.1233  2.1859 -0.4614
 2003SOL    HW217646   3.598   3.577   4.285 -0.8829  0.2453  1.3113
 2004SOL     OW17647   1.199   1.674   3.025  0.1583 -0.5875  0.4646
 2004SOL    HW117648   1.186   1.762   3.062  1.2065 -0.6381  0.9548
 2004SOL    HW217649   1.158   1.618   3.091  1.3811 -1.9132  0.0975
 2005SOL     OW17650   2.041   4.619   8.843  0.1460 -0.7530  0.0803
 2005SOL    HW117651   1.981   4.693   8.846  0.3691 -0.6257  1.3341
 2005SOL    HW217652   1.989   4.541   8.860  0.9225 -1.4359 -0.6861
 2006SOL     OW17653   2.476   1.055   2.634 -0.5790 -0.3788  0.1809
 2006SOL    HW117654   2.550   1.060   2.696 -0.4098  0.3609 -0.0773
 2006SOL    HW217655   2.481   1.145   2.603  0.9202  0.2405  2.1878
 2007SOL     OW17656   4.494   3.686   8.083  0.7683 -0.4755 -0.3211
 2007SOL    HW117657   4.540   3.733   8.013  0.3573  0.1610 -0.1677
 2007SOL    HW217658   4.455   3.762   8.126 -1.2757 -1.1914 -0.8988
 2008SOL     OW17659   2.599   3.689   3.799 -0.2098  0.4858 -0.2190
 2008SOL    HW117660   2.666   3.634   3.759 -1.2027 -0.7832 -0.1814
 2008SOL    HW217661   2.523   3.630   3.806  0.1602 -0.1397 -1.4324
 2009SOL     OW17662   1.267   2.810   2.281 -0.6173  0.8005 -0.0167
 2009SOL    HW117663   1.340   2.864   2.250  0.3827  0.8835  2.4275
 2009SOL    HW217664   1.200   2.836   2.218  0.3803 -1.5347 -2.0499
 2010SOL     OW17665   0.079   4.048  14.882  0.1777 -0.0892  0.2139
 2010SOL    HW117666   0.014   4.037  14.951 -1.2880 -1.2365 -1.3719
 2010SOL    HW217667   0.074   4.142  14.868  0.0332  0.0236  1.0089
 2011SOL     OW17668   1.758   0.001   5.541  0.4093  0.3011  0.0632
 2011SOL    HW117669   1.786   0.016   5.631  0.4623 -1.0144  0.2667
 2011SOL    HW217670   1.788   4.648   5.538  1.4567  0.6702 -1.0349
 2012SOL     OW17671   3.039   2.744  17.181 -0.0666  0.2068 -0.1199
 2012SOL    HW117672   3.109   2.797  17.143  0.8249 -1.5009 -0.8917
 2012SOL    HW217673   2.965   2.780  17.132 -0.5987 -0.0229  0.5203
 2013SOL     OW17674   4.728   0.227   2.776  0.0551 -0.1203 -0.0999
 2013SOL    HW117675   0.033   0.301   2.818  2.1902 -0.7274 -1.2404
 2013SOL    HW217676   0.066   0.200   2.726  0.0277 -0.9790  0.3196
 2014SOL     OW17677   2.275   3.357   3.381 -0.1987  0.1236  0.4449
 2014SOL    HW117678   2.208   3.397   3.437  0.0924  3.1800 -1.3950
 2014SOL    HW217679   2.342   3.341   3.448 -0.1414  0.0753  0.3750
 2015SOL     OW17680   3.694   2.782   5.415 -0.5866 -0.1660  0.3152
 2015SOL    HW117681   3.608   2.825   5.406 -1.1171 -1.7757 -2.2236
 2015SOL    HW217682   3.761   2.850   5.424  1.0892 -1.6826 -0.7753
 2016SOL     OW17683   4.050   2.169   7.100  0.2711  0.1438 -0.1337
 2016SOL    HW117684   3.996   2.124   7.034 -0.1235 -1.6659  1.4115
 2016SOL    HW217685   4.022   2.260   7.099 -2.1438 -0.5671  1.8802
 2017SOL     OW17686   2.701   3.838   7.886 -0.4875  0.1887 -0.5417
 2017SOL    HW117687   2.653   3.918   7.862  0.2054  1.1132  1.1235
 2017SOL    HW217688   2.626   3.785   7.910  0.4258 -1.2132 -0.8151
 2018SOL     OW17689   4.652   3.594   4.005  0.2560 -0.3115  0.0592
 2018SOL    HW117690   4.576   3.623   4.055  2.8537  2.8152  2.2093
 2018SOL    HW217691   4.678   3.670   3.952  0.8048 -0.7282 -0.2664
 2019SOL     OW17692   2.837   0.128   2.507 -0.0545  0.5495  0.2479
 2019SOL    HW117693   2.865   0.215   2.536 -1.2091  1.3735 -1.0887
 2019SOL    HW217694   2.878   0.074   2.574  0.1916  1.5343  0.9069
 2020SOL     OW17695   3.590   4.172   8.281 -0.0826 -0.9436  0.3322
 2020SOL    HW117696   3.540   4.091   8.281 -0.2900 -0.8139 -2.6377
 2020SOL    HW217697   3.624   4.173   8.191 -0.5915  2.6531  0.1927
 2021SOL     OW17698   1.952   0.420   6.476 -0.8299  0.1761 -0.1125
 2021SOL    HW117699   1.872   0.473   6.487  0.1229  1.6469 -0.1978
 2021SOL    HW217700   2.021   0.485   6.486 -0.0262 -0.1667 -3.3605
 2022SOL     OW17701   0.824   1.861   5.023 -0.0786 -0.4330 -0.8213
 2022SOL    HW117702   0.807   1.955   5.022 -0.2474 -0.4758 -2.0284
 2022SOL    HW217703   0.737   1.830   4.996  0.1051 -1.5325 -0.1595
 2023SOL     OW17704   4.703   2.706   7.239  0.4988  0.1785 -0.3793
 2023SOL    HW117705   4.715   2.784   7.185  2.5544  2.1465  2.9011
 2023SOL    HW217706   0.023   2.644   7.194  0.9146 -0.2780  0.7767
 2024SOL     OW17707   1.641   4.415   1.863 -0.3155 -0.5199 -0.3716
 2024SOL    HW117708   1.684   4.360   1.797  0.5792 -0.7389  0.4071
 2024SOL    HW217709   1.621   4.493   1.811  1.7284  0.0116 -0.3548
 2025SOL     OW17710   2.562   1.821   4.488 -0.4685 -0.0654  0.2967
 2025SOL    HW117711   2.485   1.848   4.438 -0.0955 -0.5310 -0.5213
 2025SOL    HW217712   2.520   1.753   4.541 -2.1925  2.3631  2.0634
 2026SOL     OW17713   2.711   2.232   3.769 -0.2491  0.0345 -0.2653
 2026SOL    HW117714   2.748   2.315   3.739 -3.1597  1.5164  0.2086
 2026SOL    HW217715   2.693   2.186   3.687  1.0373 -0.9991  0.0382
 2027SOL     OW17716   1.401   1.263   5.291  0.5295  0.1643  0.3096
 2027SOL    HW117717   1.353   1.246   5.372 -0.5280  0.4251 -0.2592
 2027SOL    HW217718   1.485   1.300   5.315  0.4371 -1.3743  2.9312
 2028SOL     OW17719   3.360   1.154   2.871  0.1198 -0.2025  0.6794
 2028SOL    HW117720   3.360   1.079   2.812 -2.5648 -0.2191  0.7122
 2028SOL    HW217721   3.418   1.217   2.827 -2.0716  1.2006 -0.1893
 2029SOL     OW17722   2.387   0.026  14.604  0.6801 -0.7159 -0.5822
 2029SOL    HW117723   2.407   4.733  14.516  0.6256 -2.6741  0.0845
 2029SOL    HW217724   2.371   4.685  14.656 -1.2179  0.8212  1.1506
 2030SOL     OW17725   2.179   1.913   8.568 -0.7243  0.3272 -0.6586
 2030SOL    HW117726   2.144   1.832   8.530  1.3107 -0.7735 -0.1936
 2030SOL    HW217727   2.273   1.898   8.576 -1.1462 -1.8984  0.2850
 2031SOL     OW17728   4.315   2.229   3.773  0.4864  0.3572  0.4206
 2031SOL    HW117729   4.379   2.194   3.712 -2.0055  0.4257 -2.2271
 2031SOL    HW217730   4.298   2.315   3.733  1.5058  0.8431  1.0499
 2032SOL     OW17731   4.669   1.123  11.985  0.1164 -0.2805 -0.4959
 2032SOL    HW117732   4.696   1.042  12.028 -0.6589 -0.2294  0.0943
 2032SOL    HW217733   4.711   1.128  11.899  1.4130  1.4323  0.2265
 2033SOL     OW17734   3.294   4.675   9.498  0.2075 -0.0200 -0.4551
 2033SOL    HW117735   3.315   0.008   9.438 -1.3042 -0.8871 -2.0272
 2033SOL    HW217736   3.263   4.724   9.574  1.8762 -0.3093  0.4169
 2034SOL     OW17737   1.562   0.897   1.643  0.0435  0.2126  0.4897
 2034SOL    HW117738   1.602   0.902   1.730  0.5141 -0.2794  0.3024
 2034SOL    HW217739   1.523   0.811   1.655  0.1634  0.3464  1.7908
 2035SOL     OW17740   4.436   2.312   1.467 -0.2149  0.3002 -0.6011
 2035SOL    HW117741   4.480   2.396   1.454  0.8009  0.0581  1.2208
 2035SOL    HW217742   4.349   2.329   1.432 -1.2166  0.6705  2.0249
 2036SOL     OW17743   4.065   3.970  11.907  0.2713  1.0638  0.3892
 2036SOL    HW117744   3.978   3.929  11.907  1.4558 -1.4251 -0.4964
 2036SOL    HW217745   4.120   3.931  11.975 -0.8658  0.7125  1.1193
 2037SOL     OW17746   1.083   2.289  15.405  0.4936  0.1461  0.2162
 2037SOL    HW117747   1.077   2.204  15.448  0.6404 -2.3367 -4.6977
 2037SOL    HW217748   0.989   2.306  15.392 -0.2693 -1.5423  3.2918
 2038SOL     OW17749   0.348   3.963   6.880  0.0845  0.0330 -0.4398
 2038SOL    HW117750   0.361   4.024   6.807 -1.3156  1.1319  0.2345
 2038SOL    HW217751   0.256   3.986   6.887 -0.3555 -1.3577 -1.6456
 2039SOL     OW17752   1.075   1.483   4.577  0.5009 -0.0721  0.0356
 2039SOL    HW117753   1.008   1.414   4.584  0.2238  0.2119  0.1917
 2039SOL    HW217754   1.146   1.448   4.523  0.4528  0.7580 -0.5578
 2040SOL     OW17755   0.458   1.052   4.187 -0.2759  0.2870  0.5047
 2040SOL    HW117756   0.390   1.116   4.164 -0.2299  0.2257  0.1946
 2040SOL    HW217757   0.513   1.039   4.109 -0.1649 -0.4510  0.7034
 2041SOL     OW17758   1.245   3.853   6.738 -0.0020  0.0648 -0.4470
 2041SOL    HW117759   1.318   3.871   6.678  2.0837 -1.5506  1.5827
 2041SOL    HW217760   1.223   3.764   6.711  0.8829 -0.8244  1.7766
 2042SOL     OW17761   2.328   1.790   5.386  0.6154  0.6047  0.1858
 2042SOL    HW117762   2.356   1.841   5.310  1.7489 -1.1729 -0.5999
 2042SOL    HW217763   2.334   1.857   5.453  1.3520 -2.2009  2.9208
 2043SOL     OW17764   1.548   0.312   5.030 -0.6630 -0.2279  0.1206
 2043SOL    HW117765   1.583   0.291   5.117 -0.1502  0.6578  0.1298
 2043SOL    HW217766   1.595   0.389   4.998 -2.8144  1.2234  0.5055
 2044SOL     OW17767   0.206   1.703   3.748  0.3574  0.2278 -0.2552
 2044SOL    HW117768   0.267   1.669   3.813  1.3263  0.5195 -1.0071
 2044SOL    HW217769   0.265   1.758   3.695  1.5201 -0.1985  0.6096
 2045SOL     OW17770   4.525   3.322   3.119 -0.2363  0.5255 -0.2804
 2045SOL    HW117771   4.566   3.299   3.035 -0.5055  1.2319 -0.6147
 2045SOL    HW217772   4.543   3.243   3.168  1.0417  1.3358  0.5579
 2046SOL     OW17773   3.540   1.430   1.884  0.3361  0.1105  0.1320
 2046SOL    HW117774   3.489   1.361   1.926  0.5721 -0.8182 -1.1134
 2046SOL    HW217775   3.591   1.381   1.819 -0.7891  1.1305 -1.4875
 2047SOL     OW17776   4.277   4.317   4.767  0.2757 -0.0271  0.4128
 2047SOL    HW117777   4.317   4.257   4.829 -1.8401 -0.6943  1.1242
 2047SOL    HW217778   4.244   4.256   4.701  1.9918  0.7259 -1.1482
 2048SOL     OW17779   2.751   4.261   7.942  0.0287  0.1141  0.1549
 2048SOL    HW117780   2.763   4.314   8.021 -3.0021 -1.6536  1.7983
 2048SOL    HW217781   2.804   4.316   7.884  1.2415 -1.6151 -0.3915
 2049SOL     OW17782   2.737   0.842   5.282 -0.4149  0.0357 -0.1057
 2049SOL    HW117783   2.821   0.850   5.235  0.4950 -2.8956  1.0553
 2049SOL    HW217784   2.746   0.844   5.377 -1.0701  0.7262 -0.0573
 2050SOL     OW17785   1.369   2.375   9.984 -0.4378  0.7049 -0.4302
 2050SOL    HW117786   1.317   2.342   9.911 -1.6346 -1.2906  1.3058
 2050SOL    HW217787   1.407   2.449   9.937  0.0745  0.1565 -0.8763
 2051SOL     OW17788   0.656   3.141   1.282  0.2531  1.0398 -0.1260
 2051SOL    HW117789   0.708   3.129   1.203  1.1653  2.2979  0.2914
 2051SOL    HW217790   0.586   3.201   1.256  1.0682  1.8038 -0.5277
 2052SOL     OW17791   1.471   0.637   1.698 -0.1191 -0.5571 -0.0780
 2052SOL    HW117792   1.522   0.587   1.634  0.2084  1.4761 -1.4530
 2052SOL    HW217793   1.384   0.604   1.679  0.7126 -2.9322  0.3201
 2053SOL     OW17794   4.057   1.895   4.921  0.0924 -0.3932  0.7967
 2053SOL    HW117795   4.065   1.881   5.015  2.8164 -1.5510  0.3965
 2053SOL    HW217796   4.010   1.816   4.893 -0.9350 -0.0555  1.5481
 2054SOL     OW17797   2.972   1.180   4.093  0.4007 -0.0695  0.4241
 2054SOL    HW117798   2.882   1.161   4.121 -0.1275  0.9065 -0.6224
 2054SOL    HW217799   2.999   1.256   4.144  1.1982  0.7432 -1.2133
 2055SOL     OW17800   1.869   0.308   4.670  0.7582  0.6536  0.1561
 2055SOL    HW117801   1.963   0.293   4.659  0.4699 -0.4929 -0.6988
 2055SOL    HW217802   1.860   0.395   4.632 -0.4342  0.3358 -0.3064
 2056SOL     OW17803   4.086   3.567  12.519  0.1829 -0.3767 -0.0273
 2056SOL    HW117804   4.130   3.482  12.516 -1.6070 -1.3209  0.2536
 2056SOL    HW217805   4.004   3.544  12.562 -0.7656 -1.3980 -2.3451
 2057SOL     OW17806   2.809   2.973   3.686  0.1537 -0.0369 -0.7170
 2057SOL    HW117807   2.811   2.909   3.757  0.1676  0.5517 -0.1839
 2057SOL    HW217808   2.769   2.929   3.611  1.5483  1.6055 -2.4417
 2058SOL     OW17809   0.274   1.954   4.910  0.1899  0.0910  0.1938
 2058SOL    HW117810   0.272   1.879   4.971  0.5228  0.3379  0.5044
 2058SOL    HW217811   0.243   1.912   4.830 -1.0938 -0.2225  0.8490
 2059SOL     OW17812   0.130   3.887   2.059 -0.1917  0.0666  0.0286
 2059SOL    HW117813   0.189   3.831   2.109 -0.0853  1.7720  1.7947
 2059SOL    HW217814   0.190   3.910   1.989  0.0204  0.8571  0.4815
 2060SOL     OW17815   0.035   3.895   3.915 -0.2069  0.4378  0.3397
 2060SOL    HW117816   0.124   3.864   3.897  0.0389  1.6408 -0.5014
 2060SOL    HW217817   4.728   3.882   3.832  0.3271 -0.1123  0.1318
 2061SOL     OW17818   2.837   2.861  11.928  0.0819 -0.2557 -0.7541
 2061SOL    HW117819   2.923   2.842  11.890  1.6929  0.4973  2.4849
 2061SOL    HW217820   2.807   2.942  11.887  1.7559 -0.7028 -2.8311
 2062SOL     OW17821   0.413   3.464  15.886 -0.0771  0.1640  0.2906
 2062SOL    HW117822   0.461   3.438  15.965 -0.7035  1.7246  1.1935
 2062SOL    HW217823   0.339   3.403  15.889  0.3886 -0.4251 -0.3757
 2063SOL     OW17824   4.062   0.616   3.680 -0.5519  0.1387  0.3100
 2063SOL    HW117825   4.087   0.610   3.587  2.5869 -0.2204  1.1702
 2063SOL    HW217826   4.132   0.573   3.730  1.1523  1.0910 -1.2471
 2064SOL     OW17827   3.487   1.101   8.886  0.4270  0.1423  0.4125
 2064SOL    HW117828   3.559   1.042   8.906  0.8202  0.8584  1.0900
 2064SOL    HW217829   3.420   1.068   8.946 -0.8008  1.3487 -0.2678
 2065SOL     OW17830   2.584   2.023   6.754  0.5053  0.0458  1.1583
 2065SOL    HW117831   2.570   1.958   6.684 -0.6543  0.9392  0.5663
 2065SOL    HW217832   2.493   2.019   6.782  0.1204  0.1188 -0.0927
 2066SOL     OW17833   1.830   1.314   7.487 -0.2841 -0.0139  0.3734
 2066SOL    HW117834   1.775   1.276   7.555 -1.5149 -0.6418 -0.9686
 2066SOL    HW217835   1.831   1.405   7.517 -0.7015  0.7415 -1.9047
 2067SOL     OW17836   0.873   2.540   0.956 -0.7750  0.2544 -0.6064
 2067SOL    HW117837   0.946   2.532   0.894  0.0038  0.0612  0.3334
 2067SOL    HW217838   0.815   2.467   0.940  1.7567 -1.2049 -3.1556
 2068SOL     OW17839   3.776   0.399   7.969 -0.1597  0.5141 -0.0117
 2068SOL    HW117840   3.747   0.334   7.904  1.1957 -0.0960 -0.0144
 2068SOL    HW217841   3.854   0.426   7.921  0.0548 -0.5344 -0.2483
 2069SOL     OW17842   3.423   1.609  16.282  0.0019 -0.8690  0.0430
 2069SOL    HW117843   3.496   1.592  16.222 -0.7676  1.2065 -1.4757
 2069SOL    HW217844   3.355   1.647  16.227  0.5560  0.5255  0.3036
 2070SOL     OW17845   2.698   1.664  12.092 -0.5196  0.2327 -0.0024
 2070SOL    HW117846   2.718   1.722  12.018  2.4879  0.6266  1.1308
 2070SOL    HW217847   2.783   1.671  12.136 -0.2102  0.4860 -0.6403
 2071SOL     OW17848   2.404   4.248  14.546  0.3465 -0.1247 -0.3219
 2071SOL    HW117849   2.339   4.206  14.490 -0.2185  0.4153 -0.0689
 2071SOL    HW217850   2.344   4.286  14.610  1.1053 -1.2217  1.0521
 2072SOL     OW17851   4.158   2.483  11.015  0.6470  0.0298  0.4857
 2072SOL    HW117852   4.127   2.567  11.047 -0.4165  0.0289 -0.5259
 2072SOL    HW217853   4.130   2.475  10.923  0.9752  2.7406  0.1467
 2073SOL     OW17854   1.848   3.328   9.801  0.1826 -0.1062  0.0729
 2073SOL    HW117855   1.834   3.293   9.889  0.2006  0.3654  0.2639
 2073SOL    HW217856   1.846   3.423   9.815  0.5102  0.0488 -0.9113
 2074SOL     OW17857   4.225   3.566   7.267  0.1435 -0.0717 -0.1233
 2074SOL    HW117858   4.172   3.564   7.347  2.7220  0.2691  1.5897
 2074SOL    HW217859   4.310   3.542   7.304 -0.4289  0.0026  1.2626
 2075SOL     OW17860   0.658   1.221   6.292 -0.2373  0.4561  0.1563
 2075SOL    HW117861   0.622   1.243   6.378  0.0398  1.4808  0.0100
 2075SOL    HW217862   0.752   1.234   6.299 -0.4873  2.2652  0.2198
 2076SOL     OW17863   4.133   2.161   9.091  0.1612  0.1843 -0.1948
 2076SOL    HW117864   4.185   2.234   9.057 -0.3675  0.0370 -1.3046
 2076SOL    HW217865   4.173   2.088   9.044 -2.1221 -0.8496 -0.5585
 2077SOL     OW17866   3.008   0.862   7.521  0.8601 -0.5825  0.3525
 2077SOL    HW117867   3.097   0.866   7.555  0.3979  1.2049  1.3275
 2077SOL    HW217868   2.994   0.767   7.519 -1.9082 -0.1720 -0.4425
 2078SOL     OW17869   4.349   0.089   3.871 -0.1600 -0.7013 -0.1680
 2078SOL    HW117870   4.384   0.154   3.933 -0.5570 -0.7317  0.0924
 2078SOL    HW217871   4.409   0.101   3.798  0.4072  0.7505  0.5315
 2079SOL     OW17872   1.967   4.232   7.589 -0.4747 -0.0720 -0.3875
 2079SOL    HW117873   1.886   4.228   7.640  0.8410 -0.0740  1.6764
 2079SOL    HW217874   2.018   4.297   7.636 -0.8382  1.2967 -1.8973
 2080SOL     OW17875   1.670   0.303  13.135 -0.0948 -0.1019 -0.3096
 2080SOL    HW117876   1.674   0.316  13.040  0.2769 -0.0503 -0.2864
 2080SOL    HW217877   1.577   0.292  13.153 -0.2886  1.6372 -0.2401
 2081SOL     OW17878   3.645   4.051   7.800  0.0490 -0.1342 -0.1600
 2081SOL    HW117879   3.571   3.991   7.811  0.0710 -0.8492 -3.8356
 2081SOL    HW217880   3.670   4.024   7.712 -1.9738  1.2374 -1.1457
 2082SOL     OW17881   0.948   0.429   1.299 -0.6761  0.2048 -0.1140
 2082SOL    HW117882   0.933   0.340   1.269  0.5950 -0.3415  0.8805
 2082SOL    HW217883   0.878   0.482   1.260 -2.0511 -2.2579 -0.9969
 2083SOL     OW17884   4.481   3.679   9.282  0.1765  0.6285 -0.0318
 2083SOL    HW117885   4.489   3.734   9.359 -0.2525 -0.5361  0.8378
 2083SOL    HW217886   4.389   3.695   9.263 -0.1017 -2.6621 -1.5750
 2084SOL     OW17887   1.557   0.597   0.028  0.1051  0.5129  0.0890
 2084SOL    HW117888   1.529   0.532  17.714 -3.3200 -2.2472  4.3470
 2084SOL    HW217889   1.563   0.535   0.101 -1.6698 -0.5265 -0.6487
 2085SOL     OW17890   1.798   1.098  10.756 -0.4414  0.3993  0.0866
 2085SOL    HW117891   1.830   1.009  10.748 -3.2716 -0.7249  1.4402
 2085SOL    HW217892   1.844   1.133  10.832  0.7628  1.1098 -0.9708
 2086SOL     OW17893   4.405   0.537  15.767 -0.2533  0.2649 -0.4022
 2086SOL    HW117894   4.381   0.630  15.760 -1.3981  0.1432  1.9944
 2086SOL    HW217895   4.321   0.492  15.763  1.0156 -2.2111  1.2159
 2087SOL     OW17896   1.273   0.017   2.845  0.3365  0.2103  0.4107
 2087SOL    HW117897   1.339   4.727   2.782  1.1898  2.7974  0.1369
 2087SOL    HW217898   1.264   4.674   2.895  2.3214 -0.0836  0.2714
 2088SOL     OW17899   0.424   0.408   8.983  0.7350 -0.3368  0.2177
 2088SOL    HW117900   0.518   0.416   9.003  0.1164  1.4741  2.3754
 2088SOL    HW217901   0.413   0.425   8.889  2.0983  2.3177  0.5317
 2089SOL     OW17902   3.465   1.824  17.136 -0.4026  0.6395  0.2052
 2089SOL    HW117903   3.439   1.899  17.189 -1.5574 -0.4795  1.2272
 2089SOL    HW217904   3.469   1.851  17.044 -0.9788 -1.0073 -0.2939
 2090SOL     OW17905   2.514   4.301  15.073  0.1281  0.1065  0.0155
 2090SOL    HW117906   2.598   4.262  15.096  1.4992  1.8697 -1.9467
 2090SOL    HW217907   2.509   4.267  14.984 -1.4258  0.4093 -0.0045
 2091SOL     OW17908   2.537   0.214   8.686 -0.0641  0.2894  0.1906
 2091SOL    HW117909   2.478   0.256   8.623 -0.0066  1.6412  1.0379
 2091SOL    HW217910   2.564   0.137   8.636  0.4117  0.1008  0.7374
 2092SOL     OW17911   4.470   0.153  10.321 -0.3268  0.3080  0.6913
 2092SOL    HW117912   4.382   0.124  10.348 -0.7056 -0.5751 -1.5206
 2092SOL    HW217913   4.517   0.070  10.324  1.2332  1.2835  3.3139
 2093SOL     OW17914   1.556   3.040  12.865  0.3488  0.3965 -0.0360
 2093SOL    HW117915   1.569   2.951  12.832  1.5540  0.4991  0.1471
 2093SOL    HW217916   1.481   3.031  12.923 -1.2181  0.2174 -2.0986
 2094SOL     OW17917   2.135   0.898   6.928  0.0784  0.7094 -0.2953
 2094SOL    HW117918   2.172   0.960   6.865 -1.0164  1.3963 -0.2810
 2094SOL    HW217919   2.137   0.950   7.009  0.1904 -0.3795  0.3923
 2095SOL     OW17920   4.467   3.209   0.400  0.2653 -0.2419  0.4898
 2095SOL    HW117921   4.418   3.127   0.394 -2.2277  1.4175 -1.4768
 2095SOL    HW217922   4.409   3.261   0.456  0.1357  0.2753 -0.1264
 2096SOL     OW17923   4.396   2.142  16.939 -0.2274  0.4579  0.1108
 2096SOL    HW117924   4.328   2.139  16.872  1.4319  1.2885 -1.6152
 2096SOL    HW217925   4.375   2.227  16.975  0.1027  0.8024 -0.4983
 2097SOL     OW17926   2.976   2.545   7.684  0.0132 -0.1847  0.3956
 2097SOL    HW117927   2.991   2.497   7.765 -0.2321  1.2143  1.2646
 2097SOL    HW217928   3.049   2.607   7.683  0.0899 -0.3156 -1.9130
 2098SOL     OW17929   1.844   1.798   6.631  0.0614  0.1716  0.4171
 2098SOL    HW117930   1.831   1.892   6.641  3.0022  0.6669 -0.4904
 2098SOL    HW217931   1.883   1.776   6.716  2.6558 -0.1083 -0.8672
 2099SOL     OW17932   4.049   1.473   7.572  0.5838  0.3857 -0.0912
 2099SOL    HW117933   4.087   1.492   7.486  0.2859  0.3081 -0.2393
 2099SOL    HW217934   4.043   1.562   7.606 -0.4202 -0.5102  2.1214
 2100SOL     OW17935   3.889   2.039   1.763 -0.8028  0.0902 -0.4802
 2100SOL    HW117936   3.834   1.968   1.731 -1.8967  1.0419 -0.7426
 2100SOL    HW217937   3.815   2.093   1.792  0.0756  0.1733  1.6233
 2101SOL     OW17938   4.420   0.938   5.440  0.8435 -0.0744 -0.0920
 2101SOL    HW117939   4.326   0.952   5.453  1.0008  0.2460  0.6596
 2101SOL    HW217940   4.443   0.945   5.532  1.5933  1.7259 -0.4033
 2102SOL     OW17941   0.443   2.786   9.044 -0.1453  0.3483  0.4748
 2102SOL    HW117942   0.493   2.708   9.066  1.5331  0.8835 -1.4210
 2102SOL    HW217943   0.354   2.754   9.028 -0.3815  0.2612  1.9861
 2103SOL     OW17944   3.897   4.442   2.538 -0.0778 -0.1867  0.7344
 2103SOL    HW117945   3.910   4.361   2.586 -0.8739 -0.3870  0.6078
 2103SOL    HW217946   3.977   4.443   2.486 -0.1632 -0.7540  0.6013
 2104SOL     OW17947   1.129   3.038   1.435  0.2035  0.1144  0.2032
 2104SOL    HW117948   1.146   3.077   1.349  1.4239  1.2282  0.9481
 2104SOL    HW217949   1.070   3.102   1.473 -0.8462 -1.2402  0.8600
 2105SOL     OW17950   3.489   4.678   2.768  0.5271 -0.3154 -0.1167
 2105SOL    HW117951   3.541   0.001   2.716  1.9757 -0.3504  1.2865
 2105SOL    HW217952   3.546   4.664   2.843 -0.5156 -1.4950  0.4649
 2106SOL     OW17953   0.718   1.998   4.192 -0.3736  0.6653  0.1613
 2106SOL    HW117954   0.628   2.028   4.180 -0.4162  0.2801 -0.4767
 2106SOL    HW217955   0.769   2.079   4.199  1.2807 -0.4610  1.1762
 2107SOL     OW17956   0.863   2.627  16.843 -0.4605 -0.5516  0.0708
 2107SOL    HW117957   0.943   2.662  16.881 -0.0309 -0.5105 -0.8660
 2107SOL    HW217958   0.859   2.541  16.885  2.7076  1.6149  4.6726
 2108SOL     OW17959   3.302   1.661   5.642  0.6804 -0.1081 -0.2663
 2108SOL    HW117960   3.338   1.729   5.698  0.0613 -0.4220  0.5165
 2108SOL    HW217961   3.226   1.633   5.693  0.4776  1.5371  0.3260
 2109SOL     OW17962   0.632   2.952   5.430 -0.4021 -0.4411  0.6622
 2109SOL    HW117963   0.626   2.858   5.415 -0.6434 -0.1365 -1.1313
 2109SOL    HW217964   0.595   2.995   5.354  0.0639 -2.0341 -0.4589
 2110SOL     OW17965   2.169   0.061  15.790  0.0025 -0.2365  0.2492
 2110SOL    HW117966   2.241   0.056  15.853 -0.1891 -1.1514  0.3865
 2110SOL    HW217967   2.142   4.708  15.790  0.6803 -0.4378 -0.5925
 2111SOL     OW17968   2.893   2.921  14.666  0.4411 -0.0132  0.1879
 2111SOL    HW117969   2.961   2.860  14.636  1.0890  0.7529  0.1094
 2111SOL    HW217970   2.814   2.869  14.681 -0.0417  1.0851  1.4040
 2112SOL     OW17971   3.200   2.577  12.513  0.4689  0.1517 -0.0015
 2112SOL    HW117972   3.252   2.505  12.549 -2.4636 -2.7780 -1.6335
 2112SOL    HW217973   3.254   2.603  12.438  2.2507  1.0805  1.6046
 2113SOL     OW17974   2.467   3.419   4.826  0.3430 -0.1889  0.3997
 2113SOL    HW117975   2.457   3.325   4.814  1.5774 -0.0466 -1.7235
 2113SOL    HW217976   2.400   3.429   4.893  2.7466 -2.7551  3.1945
 2114SOL     OW17977   0.826   0.366   6.445  0.0665  0.4662 -0.3946
 2114SOL    HW117978   0.810   0.294   6.506  2.2689  0.3015 -0.0201
 2114SOL    HW217979   0.828   0.323   6.360 -0.9371  0.6399 -0.5042
 2115SOL     OW17980   4.394   4.320   3.707 -0.5136  0.0708 -0.2813
 2115SOL    HW117981   4.341   4.399   3.697 -1.0517 -0.2737 -0.1806
 2115SOL    HW217982   4.329   4.268   3.754 -1.3817 -0.2064 -1.7727
 2116SOL     OW17983   4.163   1.025   2.586  0.5163 -0.2378  0.0268
 2116SOL    HW117984   4.187   1.027   2.679  0.4041  1.8262  0.0162
 2116SOL    HW217985   4.160   0.932   2.565  1.2344 -0.3793  0.5568
 2117SOL     OW17986   1.676   1.631  10.438  0.3021  0.7629 -0.4083
 2117SOL    HW117987   1.722   1.709  10.408 -1.3084  0.8913 -2.5170
 2117SOL    HW217988   1.677   1.574  10.361  0.2906 -0.6390  0.6126
 2118SOL     OW17989   0.136   0.706   7.800  0.5066 -0.8957 -0.3642
 2118SOL    HW117990   0.069   0.660   7.751  0.0226 -0.9301  0.3292
 2118SOL    HW217991   0.198   0.634   7.809 -0.1210 -1.3012  0.6815
 2119SOL     OW17992   0.060   3.675  16.977  0.4145 -0.5212 -0.2093
 2119SOL    HW117993   0.082   3.587  16.945  1.3607 -0.6424  0.7579
 2119SOL    HW217994   0.127   3.695  17.042  2.6460 -0.9973 -2.3545
 2120SOL     OW17995   2.295   1.190   7.850  0.2045  0.3371  0.2443
 2120SOL    HW117996   2.201   1.207   7.848  0.6985  3.3524  2.4212
 2120SOL    HW217997   2.290   1.100   7.883  0.8000  0.0191 -0.5327
 2121SOL     OW17998   4.599   1.348   1.865 -0.7950  0.0311  0.0841
 2121SOL    HW117999   4.563   1.345   1.776  1.3709  0.6586 -0.8078
 2121SOL    HW218000   4.673   1.407   1.852 -0.1583 -0.5988  0.8834
 2122SOL     OW18001   3.902   0.382  16.898  0.0260  0.3180  0.3457
 2122SOL    HW118002   3.846   0.416  16.828 -1.0251 -1.6980  0.2286
 2122SOL    HW218003   3.986   0.393  16.854 -0.5105  1.1473 -0.4579
 2123SOL     OW18004   4.095   2.088   5.429  0.0564 -0.1961 -0.5463
 2123SOL    HW118005   4.174   2.116   5.382 -0.9196 -0.2052 -2.1626
 2123SOL    HW218006   4.074   2.165   5.481  1.0178  0.8990 -1.7789
 2124SOL     OW18007   0.453   1.042   0.251  0.1614 -0.0426  0.0355
 2124SOL    HW118008   0.459   1.131   0.286  0.3488  0.8488 -2.2314
 2124SOL    HW218009   0.364   1.040   0.215 -0.8411  0.8078  2.4722
 2125SOL     OW18010   2.226   3.530   1.878 -0.3461  0.5360 -0.5156
 2125SOL    HW118011   2.301   3.500   1.931  0.0090  0.5093 -1.0288
 2125SOL    HW218012   2.217   3.452   1.823  0.4776  0.8685 -1.1206
 2126SOL     OW18013   3.813   1.506   4.437  0.3209 -0.8669  0.3397
 2126SOL    HW118014   3.797   1.514   4.343  0.3666 -0.3408  0.3797
 2126SOL    HW218015   3.799   1.597   4.461 -0.3376 -0.7262 -0.5461
 2127SOL     OW18016   4.018   0.403   7.820 -0.2004  0.3402 -0.1049
 2127SOL    HW118017   4.064   0.484   7.842  3.7327 -1.2302 -2.5187
 2127SOL    HW218018   4.053   0.380   7.734  0.3225  0.4554  0.0763
 2128SOL     OW18019   3.468   0.570  12.282 -0.8336 -0.2031  0.6282
 2128SOL    HW118020   3.525   0.493  12.276 -0.1038  0.3771  0.1088
 2128SOL    HW218021   3.403   0.538  12.220  0.1762  0.3583 -0.7225
 2129SOL     OW18022   2.149   0.419  13.519 -0.2076 -0.0760  0.1561
 2129SOL    HW118023   2.235   0.455  13.498 -0.7665  2.3335  1.9790
 2129SOL    HW218024   2.102   0.491  13.478 -1.0110 -0.0317  1.1628
 2130SOL     OW18025   1.528   1.049   2.045 -0.6841 -0.2878  0.0846
 2130SOL    HW118026   1.467   1.093   2.105 -0.9337 -1.8018  0.9497
 2130SOL    HW218027   1.488   0.967   2.016  1.0501 -0.1868 -2.5272
 2131SOL     OW18028   1.012   3.419  13.501 -0.0628 -0.2765 -0.3259
 2131SOL    HW118029   0.943   3.473  13.463  0.1220  0.6108  0.5877
 2131SOL    HW218030   0.967   3.362  13.563  0.7663  0.1689  0.7032
 2132SOL     OW18031   0.655   1.144   5.293 -0.0038 -0.3242 -0.1463
 2132SOL    HW118032   0.687   1.097   5.370 -1.4663  0.4712  0.9503
 2132SOL    HW218033   0.711   1.115   5.221  1.2844 -2.3017  1.6412
 2133SOL     OW18034   2.244   0.876   4.015  0.5638  0.0490  0.8322
 2133SOL    HW118035   2.207   0.803   3.966  1.0616  0.1320  0.3363
 2133SOL    HW218036   2.172   0.937   4.001  0.3665 -0.1852  0.8285
 2134SOL     OW18037   1.872   0.934   2.591  0.1295 -1.1330  0.1027
 2134SOL    HW118038   1.803   0.989   2.628  0.0605 -1.1698  0.0277
 2134SOL    HW218039   1.817   0.873   2.542  0.1335 -1.2403  0.2319
 2135SOL     OW18040   2.626   4.592  16.679  0.0539  0.4655 -0.0141
 2135SOL    HW118041   2.622   4.506  16.721 -2.2906  2.1318  3.2711
 2135SOL    HW218042   2.531   4.606  16.688 -0.8079 -2.9485 -3.7220
 2136SOL     OW18043   0.155   3.508   4.053 -0.4648 -0.3763 -0.6708
 2136SOL    HW118044   0.071   3.541   4.020 -0.6504  2.0254  2.2592
 2136SOL    HW218045   0.134   3.541   4.140 -0.1991  0.2259 -0.8333
 2137SOL     OW18046   3.400   0.242   1.912 -0.2827  0.0388 -0.2533
 2137SOL    HW118047   3.417   0.251   2.006 -2.0997  1.9686 -0.1180
 2137SOL    HW218048   3.305   0.240   1.919 -0.0898 -1.0465  1.9021
 2138SOL     OW18049   0.654   3.643   5.524  0.2433  0.0305  0.0013
 2138SOL    HW118050   0.603   3.695   5.462 -0.1178 -1.6850 -1.1492
 2138SOL    HW218051   0.657   3.706   5.596 -0.5287 -0.5314  0.5236
 2139SOL     OW18052   3.851   3.330  15.672 -0.7918  0.1751  0.0205
 2139SOL    HW118053   3.892   3.413  15.648 -0.8141 -0.7305 -3.0901
 2139SOL    HW218054   3.894   3.309  15.755  2.1606 -0.1749 -1.6178
 2140SOL     OW18055   1.194   0.437  16.950  0.1517 -0.1618  0.3220
 2140SOL    HW118056   1.252   0.365  16.975 -1.2618 -0.8946  1.4945
 2140SOL    HW218057   1.245   0.512  16.983 -0.9132  0.3147  0.8827
 2141SOL     OW18058   1.329   3.140  10.020 -0.3218 -0.4822 -0.1595
 2141SOL    HW118059   1.281   3.220  10.043  1.1445 -0.6385  3.4474
 2141SOL    HW218060   1.268   3.080   9.978 -1.4652  1.9210 -1.9230
 2142SOL     OW18061   1.391   1.913   4.516  0.0759 -0.2664 -0.7708
 2142SOL    HW118062   1.386   1.833   4.464  1.3999 -0.4262 -0.6695
 2142SOL    HW218063   1.342   1.887   4.593  0.7107 -2.0373 -0.9542
 2143SOL     OW18064   0.188   0.532   8.979  0.0678 -1.3171 -1.1085
 2143SOL    HW118065   0.268   0.487   9.003  1.1665  0.8306 -0.7457
 2143SOL    HW218066   0.154   0.560   9.064  1.0480 -2.4884 -0.3358
 2144SOL     OW18067   2.966   4.689   4.129  0.6030 -0.1958 -0.3393
 2144SOL    HW118068   2.958   4.594   4.138  1.6481 -0.3676 -1.1758
 2144SOL    HW218069   2.898   4.714   4.067  1.3747 -1.6451 -1.7605
 2145SOL     OW18070   1.313   2.833   6.805  0.0467 -0.2845  0.5516
 2145SOL    HW118071   1.230   2.812   6.763  1.0931 -0.5804 -1.3453
 2145SOL    HW218072   1.292   2.847   6.897  2.2260  4.5399  0.3150
 2146SOL     OW18073   3.579   3.711  16.613  0.0385 -0.4060  0.2428
 2146SOL    HW118074   3.592   3.803  16.593 -0.7240 -0.8209 -2.1451
 2146SOL    HW218075   3.485   3.711  16.593 -0.1380 -1.2073  1.0730
 2147SOL     OW18076   2.339   2.796   7.057 -0.4980  0.4832 -0.2768
 2147SOL    HW118077   2.408   2.863   7.052 -0.1059  0.1075  0.0886
 2147SOL    HW218078   2.260   2.848   7.068 -1.1210 -1.2407  3.2918
 2148SOL     OW18079   1.133   2.042   1.734 -0.2838 -0.0106  0.0114
 2148SOL    HW118080   1.219   2.079   1.715 -0.0153 -1.2631 -1.2654
 2148SOL    HW218081   1.079   2.121   1.736 -0.0670  0.0789  2.1402
 2149SOL     OW18082   2.969   3.062   1.003 -0.7331 -0.3475 -0.3248
 2149SOL    HW118083   3.003   3.098   0.921 -2.0626 -0.4889 -0.9293
 2149SOL    HW218084   3.047   3.019   1.038 -0.1470  0.7725 -0.2584
 2150SOL     OW18085   1.424   3.999   7.576  0.1864  0.3154 -0.2336
 2150SOL    HW118086   1.370   4.007   7.654  1.8836  2.4326  0.7341
 2150SOL    HW218087   1.499   3.946   7.602  0.2823  0.8413  0.5724
 2151SOL     OW18088   4.278   4.698   5.194 -0.2985 -0.1738 -0.0779
 2151SOL    HW118089   4.271   4.615   5.241  1.8817  0.5600  1.5441
 2151SOL    HW218090   4.361   4.686   5.148  0.8983  0.8708  1.7850
 2152SOL     OW18091   0.171   3.399   6.210  0.4257 -0.3453  0.0540
 2152SOL    HW118092   0.136   3.387   6.122 -1.7460 -2.5773  1.2343
 2152SOL    HW218093   0.261   3.393   6.178  0.6081  4.5438 -0.4387
 2153SOL     OW18094   0.271   0.224   9.293 -0.0795 -0.1841 -0.0232
 2153SOL    HW118095   0.347   0.166   9.292 -0.5395 -0.7632 -1.8564
 2153SOL    HW218096   0.298   0.304   9.339 -0.5353 -0.1123  0.1263
 2154SOL     OW18097   2.102   4.664  13.239 -0.1396 -0.0652  0.3432
 2154SOL    HW118098   2.169   4.604  13.271  0.8351  0.2807 -1.0144
 2154SOL    HW218099   2.120   0.006  13.289  0.2609  0.8623 -1.2635
 2155SOL     OW18100   2.546   4.135  12.916 -0.3339  0.0575  0.1334
 2155SOL    HW118101   2.498   4.128  12.999 -0.7719  0.3282 -0.0975
 2155SOL    HW218102   2.571   4.044  12.902  2.2179  0.9149 -0.8224
 2156SOL     OW18103   4.323   0.015   0.062 -0.4917  0.2559  0.3331
 2156SOL    HW118104   4.383   4.679   0.066  0.1583  0.7206 -0.7721
 2156SOL    HW218105   4.265   4.737   0.137  0.1456  0.0354  0.7820
 2157SOL     OW18106   2.014   3.626   5.809 -0.8284  0.0921 -0.2129
 2157SOL    HW118107   2.078   3.695   5.793 -1.0239  0.0779 -1.0509
 2157SOL    HW218108   1.941   3.661   5.757  1.1883  0.8039 -2.5545
 2158SOL     OW18109   1.681   0.232   3.649  0.1638  0.3587  0.2063
 2158SOL    HW118110   1.739   0.237   3.574  0.2626  2.9356  0.4385
 2158SOL    HW218111   1.672   0.137   3.652  0.6392  0.3132  0.2007
 2159SOL     OW18112   3.563   1.200   4.398  0.7205 -1.1360 -0.2898
 2159SOL    HW118113   3.655   1.187   4.373  0.4562 -0.6062 -1.5219
 2159SOL    HW218114   3.524   1.124   4.355  0.7497 -1.8632  0.9834
 2160SOL     OW18115   3.657   4.038   6.068 -0.1079 -0.4335  0.5180
 2160SOL    HW118116   3.573   4.077   6.093  0.3829  0.7000  0.4016
 2160SOL    HW218117   3.715   4.111   6.090 -0.5963 -0.3712  1.5908
 2161SOL     OW18118   1.048   2.791   2.960  1.0195  0.2282  0.2502
 2161SOL    HW118119   1.028   2.756   2.873  0.3766  0.7129  0.2114
 2161SOL    HW218120   1.034   2.883   2.940 -1.3507 -0.4252 -1.0471
 2162SOL     OW18121   2.912   3.199   8.648  0.1203  0.2423  0.2433
 2162SOL    HW118122   2.977   3.268   8.657  0.1788  0.1972  0.1660
 2162SOL    HW218123   2.964   3.130   8.606 -1.0845 -1.2341  1.1576
 2163SOL     OW18124   2.629   0.668   7.692  0.0351 -0.2560 -0.3664
 2163SOL    HW118125   2.604   0.755   7.722 -1.0557 -0.4646 -0.6401
 2163SOL    HW218126   2.628   0.680   7.597  2.0885 -0.2774 -0.3924
 2164SOL     OW18127   2.106   3.208   4.773  0.1452 -0.3385 -0.2559
 2164SOL    HW118128   2.098   3.123   4.817 -0.7979 -1.3965 -2.4909
 2164SOL    HW218129   2.035   3.209   4.709 -0.7314 -0.1048  0.7272
 2165SOL     OW18130   3.443   0.485   6.948  0.3708 -0.7982 -0.1567
 2165SOL    HW118131   3.409   0.454   6.864 -0.2760  1.1325 -0.6157
 2165SOL    HW218132   3.537   0.481   6.929 -0.0431 -3.2243 -1.7237
 2166SOL     OW18133   1.656   4.234   7.472  0.1700 -0.0909  0.1673
 2166SOL    HW118134   1.565   4.219   7.446 -0.1355  0.1797  1.0908
 2166SOL    HW218135   1.701   4.167   7.422  1.3149 -0.4955  1.7401
 2167SOL     OW18136   3.878   3.208   9.921 -0.2927 -0.3081  0.3041
 2167SOL    HW118137   3.910   3.233  10.008  0.8386 -0.3124 -0.1077
 2167SOL    HW218138   3.895   3.281   9.861  2.0311 -0.1296  1.1823
 2168SOL     OW18139   0.012   0.664   5.797  0.3200 -0.3720 -0.5090
 2168SOL    HW118140   4.685   0.594   5.793  0.0136 -0.2669  2.6802
 2168SOL    HW218141   4.701   0.723   5.855  1.6790  0.4637 -0.1898
 2169SOL     OW18142   0.029   3.279   1.324  0.2257 -0.0191  0.0858
 2169SOL    HW118143   4.716   3.359   1.334 -1.0288 -0.7041 -0.7986
 2169SOL    HW218144   0.100   3.306   1.265 -0.7413  0.7071 -0.7613
 2170SOL     OW18145   4.109   1.853   5.179 -0.3904 -0.0071  0.1409
 2170SOL    HW118146   4.054   1.796   5.233  0.3710  0.0807  0.9926
 2170SOL    HW218147   4.119   1.934   5.229 -2.0555  0.2366  0.0692
 2171SOL     OW18148   1.305   3.531  15.855  0.0897 -0.3139 -0.2342
 2171SOL    HW118149   1.364   3.483  15.914 -0.2069  1.6698  1.6820
 2171SOL    HW218150   1.224   3.480  15.861  0.0043 -0.2304 -0.6611
 2172SOL     OW18151   3.982   3.645   2.909  0.4018  0.2163  0.1103
 2172SOL    HW118152   3.924   3.720   2.925  0.0727 -0.5080  2.2934
 2172SOL    HW218153   4.043   3.658   2.981  0.5964  1.8680 -0.3524
 2173SOL     OW18154   1.521   4.472   5.935 -0.4286  0.0979 -0.1943
 2173SOL    HW118155   1.517   4.492   6.028 -2.8126  2.1633 -0.7067
 2173SOL    HW218156   1.615   4.478   5.919 -0.5271  1.6153 -0.1838
 2174SOL     OW18157   2.099   1.139  15.771 -0.0535 -0.6094 -0.3048
 2174SOL    HW118158   2.147   1.154  15.689  1.8113 -1.0218  0.7313
 2174SOL    HW218159   2.025   1.199  15.759  1.3322  1.6665  2.6484
 2175SOL     OW18160   3.844   4.126   2.920  0.2482 -0.5084  0.1236
 2175SOL    HW118161   3.776   4.173   2.968 -0.2153 -0.4520 -0.5836
 2175SOL    HW218162   3.895   4.105   2.998  1.8516  4.0592  0.3332
 2176SOL     OW18163   2.201   0.225   8.046  0.2336  0.3913  0.3542
 2176SOL    HW118164   2.296   0.224   8.061 -0.1038 -0.3550  2.4433
 2176SOL    HW218165   2.180   0.287   7.977 -1.2342 -1.4226 -0.8332
 2177SOL     OW18166   2.682   4.160   6.514  0.0145 -0.0997 -0.1340
 2177SOL    HW118167   2.699   4.077   6.558  2.6816  1.5612  1.9977
 2177SOL    HW218168   2.609   4.130   6.460 -0.8498  4.4421 -1.4624
 2178SOL     OW18169   4.273   4.714   3.008  0.4069 -0.2874  0.2031
 2178SOL    HW118170   4.319   4.676   3.083 -0.8642  0.5461  1.3897
 2178SOL    HW218171   4.332   0.049   2.990 -0.1522 -0.6122 -2.9910
 2179SOL     OW18172   1.210   0.559   9.315 -0.0622 -0.0280 -0.1391
 2179SOL    HW118173   1.137   0.528   9.261 -0.6370 -0.6656  0.9958
 2179SOL    HW218174   1.160   0.618   9.372 -1.2343 -1.4920  0.3395
 2180SOL     OW18175   0.554   2.761   2.727  0.1265  0.2396  0.1128
 2180SOL    HW118176   0.580   2.670   2.741 -0.7375 -0.2506 -1.4354
 2180SOL    HW218177   0.638   2.806   2.737  0.1233 -0.0491  1.3944
 2181SOL     OW18178   3.495   2.010   8.314  0.2811  0.4283 -0.0030
 2181SOL    HW118179   3.505   2.100   8.343  0.2130 -0.1240  1.7075
 2181SOL    HW218180   3.541   2.015   8.230 -1.6940  2.0094 -1.0026
 2182SOL     OW18181   0.373   0.695   6.850 -0.3156 -0.5613  0.2342
 2182SOL    HW118182   0.398   0.656   6.934  0.3105 -1.8452 -0.5457
 2182SOL    HW218183   0.283   0.663   6.846 -0.6606  0.9321 -3.6296
 2183SOL     OW18184   1.222   3.745   8.141 -0.7016  0.1628  0.2875
 2183SOL    HW118185   1.189   3.760   8.052 -1.3963  2.4554  0.9139
 2183SOL    HW218186   1.287   3.676   8.128 -2.0001 -1.2095  1.1116
 2184SOL     OW18187   0.971   3.980   3.570  0.2077  0.2216  0.0421
 2184SOL    HW118188   0.999   3.975   3.662 -0.7070 -1.0613  0.2498
 2184SOL    HW218189   1.048   4.021   3.532  0.2250  2.3536  2.3323
 2185SOL     OW18190   3.584   4.409  13.991  0.1305  0.2166  0.0757
 2185SOL    HW118191   3.544   4.348  13.929 -0.6914  0.2797  0.5495
 2185SOL    HW218192   3.550   4.368  14.071  1.0552  0.0990  0.4138
 2186SOL     OW18193   2.238   3.444   4.093  0.2752  0.0387  0.8013
 2186SOL    HW118194   2.184   3.496   4.153  0.7304  1.6153 -0.1739
 2186SOL    HW218195   2.324   3.478   4.115  0.5992  0.1679 -0.6840
 2187SOL     OW18196   0.207   1.618   4.403 -0.0117  0.2755 -0.3772
 2187SOL    HW118197   0.264   1.541   4.403  1.0249  1.0476  1.3263
 2187SOL    HW218198   0.139   1.588   4.342 -0.2918  0.8578 -0.3567
 2188SOL     OW18199   2.050   3.730   2.666  0.3793  0.1239 -0.1024
 2188SOL    HW118200   1.963   3.745   2.630 -0.0792  1.1390  1.4591
 2188SOL    HW218201   2.074   3.822   2.676 -0.3826  0.4853 -1.6831
 2189SOL     OW18202   0.423   3.289   5.251  0.0735 -0.0741  0.0368
 2189SOL    HW118203   0.336   3.251   5.266 -0.2241  0.3848 -0.5236
 2189SOL    HW218204   0.482   3.217   5.274  1.3764  0.8253 -0.4539
 2190SOL     OW18205   2.159   2.098  13.756 -0.0274 -0.1300 -0.0861
 2190SOL    HW118206   2.088   2.163  13.754  0.9853  1.0970  2.7234
 2190SOL    HW218207   2.227   2.144  13.805  0.7197 -1.4528  0.1037
 2191SOL     OW18208   2.956   0.700   4.281 -0.2878  0.6924 -0.9132
 2191SOL    HW118209   2.938   0.702   4.375 -1.2137  0.0301 -1.0807
 2191SOL    HW218210   2.914   0.619   4.252  1.0381  0.7725 -3.0561
 2192SOL     OW18211   0.303   0.735   7.253 -0.4073 -0.3011 -0.2118
 2192SOL    HW118212   0.347   0.799   7.197  2.0933 -1.6509  0.1830
 2192SOL    HW218213   0.231   0.782   7.295  1.3630  2.0490  0.2133
 2193SOL     OW18214   3.811   1.196   4.283 -0.3714  0.0118 -0.0217
 2193SOL    HW118215   3.810   1.196   4.187 -1.5274  1.3405 -0.0174
 2193SOL    HW218216   3.893   1.241   4.301  0.6391 -1.6664 -0.4561
 2194SOL     OW18217   3.232   3.155   5.593  0.2126  0.2346 -0.0120
 2194SOL    HW118218   3.178   3.111   5.528  0.7558 -4.1313  2.4501
 2194SOL    HW218219   3.226   3.097   5.670 -2.3365 -0.1415 -0.4921
 2195SOL     OW18220   1.681   1.343  10.273 -0.2187 -0.0696  0.1191
 2195SOL    HW118221   1.656   1.334  10.365 -3.2432  0.1827 -0.6777
 2195SOL    HW218222   1.777   1.341  10.279 -0.1819 -0.0492 -0.5043
 2196SOL     OW18223   1.899   3.539  14.553  0.1580  0.1826 -0.1818
 2196SOL    HW118224   1.980   3.488  14.540 -0.8264 -1.3946 -0.1208
 2196SOL    HW218225   1.897   3.580  14.467 -1.5913 -1.5679 -0.9681
 2197SOL     OW18226   2.895   1.334   3.038  0.4628 -0.1949  0.3029
 2197SOL    HW118227   2.875   1.245   3.010 -1.9319  0.4729 -0.0628
 2197SOL    HW218228   2.922   1.317   3.129  0.0008 -0.4017  0.4022
 2198SOL     OW18229   4.042   4.616   5.557  0.0182  0.3089 -0.0347
 2198SOL    HW118230   3.959   4.606   5.510 -1.2329  0.3879  2.1999
 2198SOL    HW218231   4.004   4.642   5.640  1.3485  0.0695  0.6460
 2199SOL     OW18232   1.373   0.228   4.196  0.3866  0.6021  0.1199
 2199SOL    HW118233   1.415   0.297   4.145 -0.2464  0.3907 -0.6912
 2199SOL    HW218234   1.428   0.234   4.275  0.6480  0.6515 -0.0649
 2200SOL     OW18235   3.170   1.603   7.601 -0.3917 -0.4457  0.0986
 2200SOL    HW118236   3.095   1.658   7.580 -0.0390  0.4267  1.1196
 2200SOL    HW218237   3.121   1.521   7.605 -2.8601  1.0429  0.4803
 2201SOL     OW18238   0.195   4.610  14.824  0.3288  0.2887  0.8935
 2201SOL    HW118239   0.139   4.682  14.793  2.9287  1.6360 -0.7066
 2201SOL    HW218240   0.269   4.645  14.874 -0.8424  2.8770  0.8077
 2202SOL     OW18241   1.619   3.539  17.709  0.0407  0.3279 -0.4267
 2202SOL    HW118242   1.687   3.570   0.019 -0.5901  1.2029 -0.1661
 2202SOL    HW218243   1.572   3.622  17.701 -0.6767 -0.1064 -0.6677
 2203SOL     OW18244   0.523   1.813   4.432 -0.0070 -0.2365  0.4301
 2203SOL    HW118245   0.468   1.890   4.417  2.0162  0.8380 -1.4623
 2203SOL    HW218246   0.572   1.838   4.510  0.6138  0.0089 -0.0392
 2204SOL     OW18247   4.633   0.664  15.972  0.3126 -0.5297 -0.6518
 2204SOL    HW118248   4.593   0.581  15.946 -1.4893 -0.5597  2.2568
 2204SOL    HW218249   4.718   0.629  16.000 -0.6089 -2.5580 -0.3621
 2205SOL     OW18250   1.325   4.295   6.177  0.1960 -0.0074  0.7620
 2205SOL    HW118251   1.381   4.364   6.212  1.2933  0.5337 -2.0845
 2205SOL    HW218252   1.245   4.346   6.167  0.2985 -0.3281 -1.6701
 2206SOL     OW18253   4.213   4.618   4.438  0.6980 -0.0393 -0.0507
 2206SOL    HW118254   4.291   4.649   4.485 -0.2893 -3.4202  3.8531
 2206SOL    HW218255   4.158   4.601   4.515  1.1162  0.3392  0.3357
 2207SOL     OW18256   3.420   2.053   5.950 -0.6476  0.5778  0.3419
 2207SOL    HW118257   3.373   2.098   6.020 -0.6988 -0.8989  1.2610
 2207SOL    HW218258   3.514   2.069   5.964 -0.6074 -0.9348  1.8469
 2208SOL     OW18259   2.951   4.652  11.582  0.1479  0.6337  0.6345
 2208SOL    HW118260   2.952   4.612  11.669  0.2031 -0.2300  0.2336
 2208SOL    HW218261   3.001   4.729  11.608  0.6089  0.6039 -0.1660
 2209SOL     OW18262   1.140   0.715  10.805  0.6615 -0.7370  0.0828
 2209SOL    HW118263   1.132   0.621  10.818  1.2854 -0.8105 -0.0508
 2209SOL    HW218264   1.180   0.716  10.718 -0.6587 -0.1376 -0.5180
 2210SOL     OW18265   3.582   3.745   8.751  0.9215 -0.2311 -0.0995
 2210SOL    HW118266   3.632   3.767   8.830 -0.0455  1.6619 -0.0300
 2210SOL    HW218267   3.649   3.695   8.704  1.2132  0.8001 -0.7847
 2211SOL     OW18268   3.596   3.738   4.849  0.5425  0.5653  0.1663
 2211SOL    HW118269   3.639   3.652   4.848 -1.7603 -0.5858 -4.3442
 2211SOL    HW218270   3.571   3.750   4.940  0.3434 -1.4581  0.3848
 2212SOL     OW18271   2.272   4.609   5.679 -0.1083  0.4943  0.5114
 2212SOL    HW118272   2.309   4.612   5.767 -0.6534 -0.7553  0.7926
 2212SOL    HW218273   2.351   4.616   5.625  0.0540 -3.3252  0.2558
 2213SOL     OW18274   2.412   1.186   8.750 -0.1464  0.7628 -0.2235
 2213SOL    HW118275   2.449   1.136   8.823 -0.8104 -2.2573 -1.9721
 2213SOL    HW218276   2.321   1.199   8.777 -0.8899 -1.6044 -1.6340
 2214SOL     OW18277   0.765   2.676   0.047  0.1226 -0.4024  0.7038
 2214SOL    HW118278   0.708   2.701  17.724  2.1568  0.4564 -0.5758
 2214SOL    HW218279   0.819   2.615  17.749 -3.4563 -0.1884 -3.5981
 2215SOL     OW18280   0.603   4.655   1.560 -0.2738  0.3814  0.6649
 2215SOL    HW118281   0.534   4.671   1.495 -0.1976  0.9734  0.7332
 2215SOL    HW218282   0.685   4.684   1.521 -0.9149 -1.2475 -1.9143
 2216SOL     OW18283   0.570   2.116   8.050  0.1230 -0.0104  0.2365
 2216SOL    HW118284   0.476   2.130   8.044  0.1804  0.4493  0.3866
 2216SOL    HW218285   0.599   2.197   8.008  0.8030  0.4236  1.5524
 2217SOL     OW18286   1.709   0.049   3.383 -0.1120 -0.3454 -0.1199
 2217SOL    HW118287   1.663   0.111   3.327 -1.5048  0.4276  1.8551
 2217SOL    HW218288   1.643   4.722   3.409  1.0743 -1.4238  0.1807
 2218SOL     OW18289   1.166   1.798   6.970  0.8490 -0.5234 -0.0646
 2218SOL    HW118290   1.125   1.843   7.045  1.2810 -1.9717  1.0448
 2218SOL    HW218291   1.097   1.747   6.928  0.7625 -0.4163 -0.0543
 2219SOL     OW18292   3.081   3.389   3.678 -0.5296 -0.4706  0.4668
 2219SOL    HW118293   3.103   3.302   3.644  0.1454  0.1097 -0.5678
 2219SOL    HW218294   3.168   3.426   3.664 -0.4034 -0.6806  0.6871
 2220SOL     OW18295   3.209   2.084   6.224  0.4373  0.0396 -0.0938
 2220SOL    HW118296   3.293   2.047   6.251  1.3983  0.2298 -2.8851
 2220SOL    HW218297   3.185   2.125   6.307 -0.9217 -1.0843  0.0814
 2221SOL     OW18298   1.323   0.008   0.635 -0.0741 -0.2765 -0.3237
 2221SOL    HW118299   1.350   0.023   0.726 -0.9584 -0.0705 -0.0973
 2221SOL    HW218300   1.322   4.652   0.620  1.4286 -0.4484  0.6252
 2222SOL     OW18301   2.320   1.567   3.224  0.8594 -0.7920 -0.0459
 2222SOL    HW118302   2.267   1.488   3.231 -0.6494  0.2662  0.4419
 2222SOL    HW218303   2.265   1.623   3.168  1.6950  0.4617  0.3680
 2223SOL     OW18304   0.792   0.116   1.497  0.3063  0.2560  0.2248
 2223SOL    HW118305   0.878   0.142   1.529 -0.4345  3.1118 -0.1218
 2223SOL    HW218306   0.734   0.151   1.565 -1.2761  0.9383 -1.4829
 2224SOL     OW18307   2.060   2.958   3.990  0.3598 -0.2173 -0.2341
 2224SOL    HW118308   2.117   3.010   4.047 -1.2875  1.8293 -0.4551
 2224SOL    HW218309   1.983   2.950   4.045  0.3034 -1.1140 -0.4460
 2225SOL     OW18310   4.578   2.031   8.039 -0.5504  0.3060 -0.2022
 2225SOL    HW118311   4.557   1.985   8.120 -0.8660 -0.8899 -0.9560
 2225SOL    HW218312   4.672   2.011   8.029 -0.8709 -2.1800  1.6673
 2226SOL     OW18313   4.679   4.102   9.681 -0.2342 -0.7046  0.2445
 2226SOL    HW118314   4.614   4.150   9.630 -1.3417  0.4926  2.7866
 2226SOL    HW218315   4.619   4.053   9.738  0.2834 -1.3215  0.2631
 2227SOL     OW18316   0.591   1.204   3.684  0.4138 -0.0900  0.1443
 2227SOL    HW118317   0.576   1.287   3.730  0.3585  0.3714 -0.7102
 2227SOL    HW218318   0.593   1.228   3.591  0.3575 -0.1475  0.1282
 2228SOL     OW18319   2.671   0.328   3.336  0.2591  0.1769 -0.2751
 2228SOL    HW118320   2.754   0.298   3.373  1.0276  0.3237 -1.8764
 2228SOL    HW218321   2.692   0.420   3.321  0.4614  0.0938 -0.4983
 2229SOL     OW18322   3.082   1.306   1.386 -0.2392 -0.3799 -0.0897
 2229SOL    HW118323   3.102   1.295   1.479  0.8498 -0.5909 -0.3431
 2229SOL    HW218324   3.037   1.221   1.384 -0.2045 -0.4472  1.9458
 2230SOL     OW18325   3.220   1.215  16.371  0.9112  0.1584  0.2275
 2230SOL    HW118326   3.245   1.307  16.382 -2.3221  1.2188 -1.4299
 2230SOL    HW218327   3.262   1.182  16.450  0.2607  0.7253  0.8076
 2231SOL     OW18328   4.345   1.743   4.689 -0.2966 -0.0129 -0.7566
 2231SOL    HW118329   4.325   1.705   4.775  2.0686  1.5584  0.4634
 2231SOL    HW218330   4.314   1.833   4.703 -1.7538 -0.5966 -0.2137
 2232SOL     OW18331   2.864   2.443   0.564  0.2768 -0.2706  0.0644
 2232SOL    HW118332   2.941   2.498   0.548 -0.4257 -0.0582 -2.5784
 2232SOL    HW218333   2.815   2.450   0.482  0.1999  0.2364  0.1548
 2233SOL     OW18334   2.289   4.515  11.810 -0.2548 -0.2132 -0.5531
 2233SOL    HW118335   2.239   4.535  11.889  2.5669  1.7302  0.7662
 2233SOL    HW218336   2.229   4.456  11.765  2.5375 -2.2005 -1.6952
 2234SOL     OW18337   2.462   0.278   1.610 -0.6053 -0.2348  0.1477
 2234SOL    HW118338   2.483   0.371   1.623  0.7369 -0.4003 -0.8270
 2234SOL    HW218339   2.546   0.245   1.578 -1.2741 -1.4007 -0.4006
 2235SOL     OW18340   3.043   2.401  13.879 -0.2922  0.0946 -0.2622
 2235SOL    HW118341   3.114   2.463  13.892  1.4947 -1.9755 -0.1863
 2235SOL    HW218342   3.020   2.422  13.788  1.7893 -1.4065 -1.1237
 2236SOL     OW18343   1.900   3.534   1.520 -0.7431 -0.1061  0.1422
 2236SOL    HW118344   1.986   3.576   1.513 -0.5354  0.1156  4.0064
 2236SOL    HW218345   1.895   3.484   1.438 -3.9461  1.2006 -0.4630
 2237SOL     OW18346   4.563   3.289   1.105 -0.0674 -0.9457  0.3089
 2237SOL    HW118347   4.618   3.220   1.068  0.1862 -0.8603  0.5201
 2237SOL    HW218348   4.600   3.289   1.193 -1.7604  2.1543  1.0178
 2238SOL     OW18349   3.495   0.401   7.219 -0.3647  0.9192 -0.3079
 2238SOL    HW118350   3.472   0.381   7.129  0.0654 -3.9678  0.6900
 2238SOL    HW218351   3.429   0.355   7.271  0.7974  0.4971  0.7757
 2239SOL     OW18352   1.966   2.767   8.202  0.5678 -0.2656 -0.4847
 2239SOL    HW118353   1.918   2.701   8.252  1.8611 -0.2085  0.8296
 2239SOL    HW218354   2.056   2.737   8.213 -0.1907 -1.3255  3.0036
 2240SOL     OW18355   3.528   1.560  17.028 -0.5167  0.3749  0.6796
 2240SOL    HW118356   3.534   1.650  17.060  0.2653  0.4142  0.4364
 2240SOL    HW218357   3.529   1.578  16.934  0.4619 -0.9412  0.4331
 2241SOL     OW18358   2.074   1.301   3.876 -0.3528 -0.3300  0.0587
 2241SOL    HW118359   2.040   1.358   3.807 -0.6062 -0.1886  0.3013
 2241SOL    HW218360   2.026   1.220   3.858 -0.5865  0.4020 -2.4758
 2242SOL     OW18361   2.653   3.386   8.989  0.4687 -0.3767 -0.1117
 2242SOL    HW118362   2.682   3.307   8.943  1.4083  0.2786 -0.6328
 2242SOL    HW218363   2.578   3.412   8.935  0.5498 -0.2637 -0.1714
 2243SOL     OW18364   0.835   3.930   1.936  0.2521  0.6390  0.0414
 2243SOL    HW118365   0.760   3.912   1.993  2.8965 -3.4444  2.2460
 2243SOL    HW218366   0.830   4.025   1.934  0.5218  0.6206 -1.6577
 2244SOL     OW18367   1.305   4.643   8.484 -0.7748 -0.2062  0.0532
 2244SOL    HW118368   1.338   4.663   8.397  0.3618 -0.7033  0.3764
 2244SOL    HW218369   1.242   4.575   8.460  1.5056 -2.7195  1.2846
 2245SOL     OW18370   2.146   1.460   7.779  1.3027 -0.5316 -0.2099
 2245SOL    HW118371   2.168   1.529   7.842 -0.5071  0.2794 -0.4681
 2245SOL    HW218372   2.058   1.494   7.764  1.5267  0.2630  0.2681
 2246SOL     OW18373   0.215   1.284  12.823  0.2872  0.1801  0.6791
 2246SOL    HW118374   0.125   1.255  12.832  0.6535 -1.3246 -0.6556
 2246SOL    HW218375   0.258   1.275  12.909 -0.6051 -1.4435  0.9530
 2247SOL     OW18376   1.299   4.131  14.838  0.5542 -0.0549 -0.7735
 2247SOL    HW118377   1.302   4.123  14.933  1.4175 -0.6636 -0.8423
 2247SOL    HW218378   1.285   4.225  14.827 -0.2316 -0.2813 -1.7264
 2248SOL     OW18379   4.684   1.311   6.530 -0.1300  0.2270  0.4167
 2248SOL    HW118380   4.635   1.391   6.511  1.4607  1.0804 -0.1387
 2248SOL    HW218381   0.002   1.306   6.453  1.0586 -0.9325  1.3521
 2249SOL     OW18382   4.018   1.448   5.072 -0.4588 -0.2053 -0.2409
 2249SOL    HW118383   4.106   1.430   5.104 -1.0522 -1.6950  0.5610
 2249SOL    HW218384   3.976   1.368   5.104  1.2982 -0.6990  0.8662
 2250SOL     OW18385   0.101   3.440   1.682 -0.3692 -0.7473 -0.3570
 2250SOL    HW118386   0.006   3.433   1.679 -0.4843  1.6968 -2.2047
 2250SOL    HW218387   0.119   3.504   1.613 -0.8476 -0.2006  0.0324
 2251SOL     OW18388   0.645   2.512   5.794 -0.4886 -0.0153  0.1105
 2251SOL    HW118389   0.643   2.597   5.837  1.0567 -0.0913  0.3090
 2251SOL    HW218390   0.707   2.471   5.854 -0.2219 -0.3649 -0.4052
 2252SOL     OW18391   3.691   2.345   3.306  0.2141 -0.3468 -0.4059
 2252SOL    HW118392   3.669   2.424   3.256 -2.0526  0.1097  1.2904
 2252SOL    HW218393   3.634   2.276   3.273 -0.9529 -0.1726  1.2237
 2253SOL     OW18394   4.123   0.245   6.861  0.1824 -0.2314 -0.5128
 2253SOL    HW118395   4.037   0.262   6.899  0.2529  2.8484 -1.7802
 2253SOL    HW218396   4.091   0.170   6.811  1.8294 -0.4339 -1.2598
 2254SOL     OW18397   3.640   3.851   4.184 -0.2539 -0.2659  0.4561
 2254SOL    HW118398   3.589   3.913   4.235  0.7086  0.9527 -0.0767
 2254SOL    HW218399   3.587   3.772   4.198  1.9795 -1.3221  2.9852
 2255SOL     OW18400   0.281   1.568   6.875 -0.0808 -0.1584  0.0505
 2255SOL    HW118401   0.333   1.493   6.844  2.2589  0.9955  1.2441
 2255SOL    HW218402   0.326   1.582   6.958  0.3093 -0.4801 -0.1014
 2256SOL     OW18403   2.422   4.018  13.162  0.0213 -0.1925  0.2187
 2256SOL    HW118404   2.386   4.005  13.250 -1.8630 -1.8689 -0.7811
 2256SOL    HW218405   2.354   4.064  13.112  0.1964 -1.1574 -0.9056
 2257SOL     OW18406   1.679   2.127   6.493  0.1993  0.1513  0.0071
 2257SOL    HW118407   1.659   2.060   6.428  1.0552 -0.1778  0.0819
 2257SOL    HW218408   1.704   2.077   6.570 -2.7154 -2.0056 -0.4586
 2258SOL     OW18409   2.398   3.824  16.251  0.3302 -0.3743  0.0280
 2258SOL    HW118410   2.392   3.806  16.157 -1.4243 -1.2880  0.3203
 2258SOL    HW218411   2.324   3.768  16.276 -0.6666  1.6385  1.5184
 2259SOL     OW18412   1.083   0.771  14.438  0.0453 -0.2432 -0.4674
 2259SOL    HW118413   1.067   0.677  14.447  0.4935 -0.3144 -0.4237
 2259SOL    HW218414   1.086   0.791  14.344 -1.3565  0.3897 -0.3872
 2260SOL     OW18415   4.525   0.038   1.562 -0.1426 -0.2634  0.1469
 2260SOL    HW118416   4.528   4.728   1.645  0.1584  0.9094  0.8056
 2260SOL    HW218417   4.610   0.080   1.564 -0.4537  0.3925 -0.5300
 2261SOL     OW18418   2.786   2.565   4.104  0.3675 -0.0537 -0.3144
 2261SOL    HW118419   2.826   2.627   4.165  1.1052  0.7542 -1.6198
 2261SOL    HW218420   2.855   2.499   4.100  0.2537 -0.1869 -0.0390
 2262SOL     OW18421   3.974   2.557   7.326 -0.0327  0.0470  0.6349
 2262SOL    HW118422   4.065   2.587   7.320 -0.0703  0.1178  0.4210
 2262SOL    HW218423   3.969   2.543   7.420 -1.8192 -1.9769  0.2482
 2263SOL     OW18424   0.547   4.094   0.657  0.0966  0.0562  0.1428
 2263SOL    HW118425   0.633   4.137   0.650  0.4418 -0.5501  0.6006
 2263SOL    HW218426   0.508   4.125   0.576 -1.1054 -1.1848  0.2720
 2264SOL     OW18427   1.758   3.841   5.971  0.0760  0.2967  0.5333
 2264SOL    HW118428   1.745   3.754   6.010 -0.4482 -1.0669 -2.6932
 2264SOL    HW218429   1.700   3.896   6.024  0.5660  0.9383  0.3956
 2265SOL     OW18430   1.971   2.117   0.481 -0.3283 -0.0485 -0.3846
 2265SOL    HW118431   2.044   2.163   0.520 -1.8658  0.1624  2.2467
 2265SOL    HW218432   2.002   2.098   0.392  0.4229 -1.9446  0.2851
 2266SOL     OW18433   3.622   0.192   4.731  0.1511  0.4919 -0.3127
 2266SOL    HW118434   3.626   0.208   4.637  0.0913  1.4245 -0.1492
 2266SOL    HW218435   3.549   0.247   4.759  0.9486  1.5563 -0.3247
 2267SOL     OW18436   0.204   2.087  13.625 -0.5405 -0.4399 -0.3819
 2267SOL    HW118437   0.146   2.083  13.549  0.7939 -0.8069 -1.3838
 2267SOL    HW218438   0.136   2.066  13.689 -0.0866  0.7630  0.5110
 2268SOL     OW18439   0.075   4.669   2.922 -0.3903 -0.1134  0.3619
 2268SOL    HW118440   0.103   4.705   2.838 -0.6275 -2.1288 -0.5661
 2268SOL    HW218441   0.102   4.578   2.919  0.4183  0.1594 -0.5923
 2269SOL     OW18442   3.295   3.680   0.371 -0.1483 -0.3623 -0.1376
 2269SOL    HW118443   3.386   3.662   0.394  1.0221 -0.5336 -4.9615
 2269SOL    HW218444   3.262   3.607   0.423 -0.8349 -0.0733 -0.1598
 2270SOL     OW18445   0.529   1.436   3.780  0.2182 -0.3135  0.4082
 2270SOL    HW118446   0.539   1.523   3.742  1.7428 -1.6891 -2.3773
 2270SOL    HW218447   0.481   1.462   3.859 -0.2276  0.4882 -0.1234
 2271SOL     OW18448   1.800   1.181  12.102  0.0916 -0.0145  0.3597
 2271SOL    HW118449   1.875   1.173  12.161 -0.2554  0.2430  0.8307
 2271SOL    HW218450   1.824   1.125  12.028  2.7261 -0.4845  1.5536
 2272SOL     OW18451   1.108   1.701   9.197 -0.3921 -0.0244  0.0953
 2272SOL    HW118452   1.187   1.683   9.146 -0.4224 -1.2972  0.5120
 2272SOL    HW218453   1.108   1.636   9.267 -0.5497 -0.8822 -0.7033
 2273SOL     OW18454   2.357   3.811   5.180  0.4485  0.4512 -0.0432
 2273SOL    HW118455   2.342   3.889   5.234 -1.4451 -0.6622  1.0226
 2273SOL    HW218456   2.360   3.850   5.093 -1.2742 -1.6207 -1.0300
 2274SOL     OW18457   3.249   0.075   2.665 -0.1925  0.5084 -0.7152
 2274SOL    HW118458   3.174   0.022   2.692 -0.9983  2.0434  0.0824
 2274SOL    HW218459   3.327   0.029   2.696  0.3671  3.1274  1.7474
 2275SOL     OW18460   4.531   1.441   5.639 -0.1344 -0.3158 -0.3567
 2275SOL    HW118461   4.471   1.367   5.626  0.0576 -0.5311 -0.0014
 2275SOL    HW218462   4.507   1.485   5.558  0.3307  1.7523  0.6432
 2276SOL     OW18463   1.943   1.316  11.593  0.5165 -0.1386 -0.2464
 2276SOL    HW118464   1.865   1.263  11.611  0.9517 -0.4953  0.5636
 2276SOL    HW218465   1.929   1.374  11.668  3.1490  0.5470 -0.3039
 2277SOL     OW18466   1.929   2.921  17.555 -0.3188 -0.1466  0.3838
 2277SOL    HW118467   1.895   2.833  17.540  1.2619 -0.4112 -1.6983
 2277SOL    HW218468   1.996   2.894  17.618 -0.7931  1.3426  1.5274
 2278SOL     OW18469   4.595   1.750   4.111  0.0449  0.0455 -0.1553
 2278SOL    HW118470   4.646   1.804   4.051  0.7861  0.2596  0.6636
 2278SOL    HW218471   4.520   1.804   4.134  1.1783  0.9597  1.3853
 2279SOL     OW18472   1.996   1.132   8.536  0.3640  0.1605 -0.1031
 2279SOL    HW118473   2.060   1.109   8.603 -1.7626  0.4543  2.0319
 2279SOL    HW218474   2.039   1.085   8.464 -0.0416 -0.1448 -0.1412
 2280SOL     OW18475   2.133   0.379   5.190  0.3420  0.2931  0.4439
 2280SOL    HW118476   2.138   0.467   5.228 -1.6542  0.5815  0.0515
 2280SOL    HW218477   2.098   0.318   5.256 -1.3541 -2.4009 -2.9551
 2281SOL     OW18478   3.948   3.602  15.639 -0.0825 -0.3656 -0.2767
 2281SOL    HW118479   3.870   3.654  15.617  1.5233  2.0435 -0.2540
 2281SOL    HW218480   4.009   3.662  15.681 -1.2980 -0.3248  1.4488
 2282SOL     OW18481   3.220   1.006   2.224  0.4207 -0.4979  0.6536
 2282SOL    HW118482   3.187   1.074   2.165 -2.0057  0.3115  2.9253
 2282SOL    HW218483   3.192   1.032   2.312  0.8431  1.4692  0.2132
 2283SOL     OW18484   1.939   3.617   4.776  0.0592 -0.2070  0.3040
 2283SOL    HW118485   1.936   3.712   4.780  0.4140 -0.2025  0.5230
 2283SOL    HW218486   1.870   3.587   4.836  0.8963 -1.1445  0.8186
 2284SOL     OW18487   4.008   1.358   3.175  0.4208 -0.0014 -0.5352
 2284SOL    HW118488   3.971   1.270   3.183 -0.6499  0.6012  1.0667
 2284SOL    HW218489   3.944   1.401   3.231  1.5100  0.1526  0.5904
 2285SOL     OW18490   2.503   2.636   3.924  0.6652 -0.4978 -0.4846
 2285SOL    HW118491   2.505   2.592   4.009  2.5013 -0.8650 -0.7188
 2285SOL    HW218492   2.436   2.703   3.935  1.2855  0.1657 -0.7753
 2286SOL     OW18493   4.556   1.641   8.711  0.3795  0.0542 -0.1837
 2286SOL    HW118494   4.624   1.575   8.723  3.3583  2.7166 -2.3187
 2286SOL    HW218495   4.509   1.633   8.794 -1.4255  0.5620 -1.1552
 2287SOL     OW18496   1.953   4.615   1.665 -0.2322 -0.5035  0.2533
 2287SOL    HW118497   1.893   4.687   1.645 -0.6658 -0.7438  0.7107
 2287SOL    HW218498   2.022   4.640   1.603  1.0098  0.5283  2.0535
 2288SOL     OW18499   3.207   2.642   9.532  0.2286 -0.2921  0.8234
 2288SOL    HW118500   3.292   2.648   9.577 -0.5034 -0.1564  2.1747
 2288SOL    HW218501   3.186   2.550   9.520 -2.9804  0.2741  2.1725
 2289SOL     OW18502   0.919   0.100   4.310 -0.1068  0.3857 -0.0433
 2289SOL    HW118503   0.984   0.155   4.268  0.5897  1.3855  2.3251
 2289SOL    HW218504   0.848   0.117   4.248 -2.2914 -2.3653  1.6699
 2290SOL     OW18505   4.372   3.223   7.132 -0.4724  0.1833  0.1211
 2290SOL    HW118506   4.319   3.192   7.206  2.0931 -0.2837  1.7313
 2290SOL    HW218507   4.352   3.152   7.070  0.8868 -0.3406  0.2850
 2291SOL     OW18508   4.171   1.874  10.789  0.1874  0.5024 -0.1417
 2291SOL    HW118509   4.175   1.828  10.705  2.2531  2.5146 -1.1436
 2291SOL    HW218510   4.187   1.804  10.852  1.4050  0.8487 -0.0557
 2292SOL     OW18511   4.170   0.811   6.990 -0.0096  0.0992 -0.1195
 2292SOL    HW118512   4.260   0.797   6.961 -0.0413 -1.0170  0.3169
 2292SOL    HW218513   4.143   0.719   6.985  1.8692 -0.4677  0.3287
 2293SOL     OW18514   2.383   4.370  13.262  0.1662 -0.7483  0.4614
 2293SOL    HW118515   2.357   4.461  13.276 -1.1071 -0.7971 -1.5344
 2293SOL    HW218516   2.475   4.389  13.278 -0.9849  4.3825  0.9216
 2294SOL     OW18517   0.818   2.435  17.650 -0.8876  0.5304  0.1617
 2294SOL    HW118518   0.846   2.350  17.683 -0.4071  0.5492 -0.1940
 2294SOL    HW218519   0.730   2.413  17.619 -1.0688  1.4335  0.0402
 2295SOL     OW18520   3.550   2.194   6.769  0.4791  0.5946  0.5249
 2295SOL    HW118521   3.457   2.181   6.748  0.2574  3.2831 -0.1069
 2295SOL    HW218522   3.549   2.280   6.812 -1.1024  0.9095 -0.1513
 2296SOL     OW18523   2.459   1.268   0.449 -0.2234  0.2494  0.0477
 2296SOL    HW118524   2.438   1.274   0.356  1.2540 -0.0763 -0.3124
 2296SOL    HW218525   2.385   1.214   0.478  0.5025 -1.8746 -1.9813
 2297SOL     OW18526   2.510   2.539   8.879 -0.0255  0.1250 -0.7626
 2297SOL    HW118527   2.502   2.635   8.874  0.3182  0.0339 -2.8755
 2297SOL    HW218528   2.417   2.523   8.862 -0.5026  1.6765  0.3345
 2298SOL     OW18529   1.084   3.946  14.779  0.5109 -0.2592  0.1778
 2298SOL    HW118530   1.037   3.987  14.706  1.3633  1.0091  0.3483
 2298SOL    HW218531   1.157   4.002  14.805 -0.0525 -0.1495  1.4958
 2299SOL     OW18532   2.648   3.071   9.764 -0.5254  0.2633  0.0452
 2299SOL    HW118533   2.718   3.134   9.782  0.4626 -1.1774  1.3438
 2299SOL    HW218534   2.573   3.112   9.805 -0.7665 -1.7697  1.6394
 2300SOL     OW18535   2.977   2.889   2.876  0.6800 -0.3191  0.0885
 2300SOL    HW118536   2.925   2.841   2.812 -1.1616 -1.3300  2.3636
 2300SOL    HW218537   3.059   2.906   2.830  1.2129 -0.3358  1.0177
 2301SOL     OW18538   3.758   2.334   1.501  0.3447  0.1325  0.5136
 2301SOL    HW118539   3.747   2.353   1.594  0.8886 -1.6612  0.9365
 2301SOL    HW218540   3.760   2.240   1.486 -2.8067  0.1062  0.2366
 2302SOL     OW18541   2.586   0.378   4.552 -0.4033  0.4535  0.0096
 2302SOL    HW118542   2.538   0.421   4.481 -0.5559  1.1652  0.5489
 2302SOL    HW218543   2.628   0.314   4.494  1.6062  1.5274  0.2897
 2303SOL     OW18544   0.348   3.394   3.346 -0.3292 -0.4911  0.1291
 2303SOL    HW118545   0.286   3.388   3.273  0.0424  2.0961 -0.3984
 2303SOL    HW218546   0.324   3.484   3.368 -1.0534 -0.5637 -0.3712
 2304SOL     OW18547   2.496   1.387   4.514 -0.7287  0.2645  0.5097
 2304SOL    HW118548   2.588   1.362   4.523 -1.6906 -2.4559  2.6595
 2304SOL    HW218549   2.457   1.300   4.523 -0.7569  0.3702  1.3958
 2305SOL     OW18550   2.875   1.556   9.143 -0.0390 -0.3046 -0.2165
 2305SOL    HW118551   2.855   1.488   9.078  0.0646  0.5629 -1.1643
 2305SOL    HW218552   2.839   1.631   9.095 -0.5331 -0.0092  0.6237
 2306SOL     OW18553   0.049   2.245   6.857 -0.4190 -0.5812  0.1580
 2306SOL    HW118554   4.711   2.188   6.870 -0.8209  0.1995  1.2123
 2306SOL    HW218555   0.047   2.251   6.761  0.8760 -1.1959  0.0958
 2307SOL     OW18556   0.215   2.909   6.497  0.0510  0.4298  1.1858
 2307SOL    HW118557   0.249   2.995   6.523 -0.4884 -0.0092  3.3261
 2307SOL    HW218558   0.266   2.874   6.570 -2.0580  1.4556  3.1388
 2308SOL     OW18559   2.031   0.501   4.075 -0.2600 -0.2546 -0.0278
 2308SOL    HW118560   2.019   0.447   3.997 -1.3379 -0.2389  0.1329
 2308SOL    HW218561   1.958   0.473   4.130  0.4851 -2.3537 -0.0956
 2309SOL     OW18562   0.650   1.053   7.135 -0.4931  0.1918  0.0147
 2309SOL    HW118563   0.725   1.103   7.102  0.6132 -1.0555  0.6331
 2309SOL    HW218564   0.669   1.075   7.226 -0.5950 -1.5049  0.4470
 2310SOL     OW18565   4.144   0.434  16.761 -0.3372 -0.1831  0.6360
 2310SOL    HW118566   4.178   0.418  16.673 -1.0826  0.6042  0.2053
 2310SOL    HW218567   4.229   0.448  16.804 -0.3678  0.8351  0.3560
 2311SOL     OW18568   3.273   1.914   8.735  0.6045  0.3281  0.0389
 2311SOL    HW118569   3.204   1.934   8.799 -1.3839  0.5555 -2.1810
 2311SOL    HW218570   3.281   1.987   8.674 -1.7120  2.0753  1.8532
 2312SOL     OW18571   0.033   1.370   3.314  0.9383 -0.2068 -0.2265
 2312SOL    HW118572   4.689   1.322   3.324  1.2653 -0.6123  0.5494
 2312SOL    HW218573   0.104   1.306   3.307 -0.2037 -1.6360  1.2897
 2313SOL     OW18574   2.775   1.935  17.091  0.0075 -0.6277 -0.5669
 2313SOL    HW118575   2.750   1.936  16.999 -1.8207 -0.1534 -0.0708
 2313SOL    HW218576   2.864   1.970  17.094 -0.3673  0.1325  2.4008
 2314SOL     OW18577   3.583   4.022  10.904 -0.3698 -0.3310  0.4640
 2314SOL    HW118578   3.520   4.052  10.969 -0.6636  1.4043 -0.6508
 2314SOL    HW218579   3.544   3.937  10.884 -0.1375  0.0074 -1.4593
 2315SOL     OW18580   0.844   4.126   7.213  0.2931 -0.1543 -0.0990
 2315SOL    HW118581   0.883   4.154   7.296  0.8944 -0.4325 -0.2939
 2315SOL    HW218582   0.750   4.109   7.225  0.4813 -1.6050 -0.8093
 2316SOL     OW18583   2.173   4.182   2.923  0.0892 -0.5642 -0.5357
 2316SOL    HW118584   2.102   4.129   2.886 -0.2601  0.0263 -0.7150
 2316SOL    HW218585   2.130   4.232   2.992 -0.5327 -3.8380  1.4323
 2317SOL     OW18586   3.099   1.479   1.855 -0.2872 -0.5763  0.1215
 2317SOL    HW118587   3.185   1.516   1.875  1.3437 -3.1795 -1.9632
 2317SOL    HW218588   3.123   1.392   1.822  0.7418 -0.5452  0.7848
 2318SOL     OW18589   0.655   0.138   6.814 -0.4335 -0.1867  0.0893
 2318SOL    HW118590   0.580   0.079   6.823  0.5749 -1.8585 -2.4487
 2318SOL    HW218591   0.730   0.079   6.823 -0.7743 -0.6546 -0.1560
 2319SOL     OW18592   0.378   2.430  16.484 -0.0271  0.0241 -0.2844
 2319SOL    HW118593   0.333   2.463  16.562 -0.7771  1.4469 -1.3141
 2319SOL    HW218594   0.401   2.344  16.519 -0.1653  0.4166  0.7966
 2320SOL     OW18595   0.380   0.403   5.702 -0.0616 -0.1354 -0.1586
 2320SOL    HW118596   0.461   0.419   5.653  0.1866  1.3981  0.7697
 2320SOL    HW218597   0.321   0.442   5.636  0.0258  0.7719  0.3026
 2321SOL     OW18598   4.522   4.245   9.530  0.3896 -0.0954  0.6003
 2321SOL    HW118599   4.491   4.332   9.556  0.3426  0.1071 -0.1458
 2321SOL    HW218600   4.480   4.226   9.447 -0.2991  3.2584  0.2042
 2322SOL     OW18601   4.279   1.422  14.496 -0.2791  0.0357 -0.4347
 2322SOL    HW118602   4.369   1.389  14.487  0.0416  0.9423 -0.5738
 2322SOL    HW218603   4.268   1.411  14.590 -2.5840 -2.1708 -0.9653
 2323SOL     OW18604   2.561   0.423   8.223  0.0768  0.4826 -0.4184
 2323SOL    HW118605   2.656   0.412   8.220  0.4151  3.8680 -1.8713
 2323SOL    HW218606   2.551   0.442   8.317 -0.4305 -1.7720 -0.0065
 2324SOL     OW18607   0.536   3.973   4.660 -0.0267  0.1649 -0.1463
 2324SOL    HW118608   0.461   3.968   4.719  1.1365  0.1064  1.3598
 2324SOL    HW218609   0.610   3.982   4.721 -0.8261 -0.0479  0.8557
 2325SOL     OW18610   4.248   1.604  10.941  0.3757 -0.0004 -0.1702
 2325SOL    HW118611   4.303   1.527  10.933 -0.3049 -0.5974  0.8892
 2325SOL    HW218612   4.173   1.587  10.999 -0.8051 -3.2291 -2.6447
 2326SOL     OW18613   0.664   1.978   2.092  0.0175  0.1193  0.1761
 2326SOL    HW118614   0.686   1.890   2.123  1.8248  0.6529  0.4094
 2326SOL    HW218615   0.630   1.962   2.004 -0.3284  0.0059  0.3309
 2327SOL     OW18616   2.323   2.059   1.036  0.7830 -0.4360  0.2549
 2327SOL    HW118617   2.319   2.135   1.094  2.1368 -0.4155  0.3097
 2327SOL    HW218618   2.261   1.997   1.075  3.1693 -2.2417  1.1360
 2328SOL     OW18619   1.735   2.538  13.261 -0.0242 -0.2536 -0.2963
 2328SOL    HW118620   1.812   2.590  13.239 -1.1092  1.0745 -0.9250
 2328SOL    HW218621   1.730   2.459  13.208  3.7304  1.0396 -2.6513
 2329SOL     OW18622   2.130   2.791   7.730  0.5017  0.4791 -0.2908
 2329SOL    HW118623   2.083   2.717   7.768  0.5385  0.6452  0.0759
 2329SOL    HW218624   2.051   2.844   7.723  0.2350  0.1370  0.1501
 2330SOL     OW18625   2.385   1.682  16.868  0.2969 -0.3133  0.4937
 2330SOL    HW118626   2.333   1.613  16.911 -2.2382  1.3803  0.1363
 2330SOL    HW218627   2.452   1.626  16.830 -1.0765 -1.0083 -0.9164
 2331SOL     OW18628   0.347   1.767   4.169  0.4118  0.6905  0.2414
 2331SOL    HW118629   0.402   1.822   4.225 -0.7718 -0.9921  3.0011
 2331SOL    HW218630   0.301   1.712   4.231 -2.9465  0.0502 -2.8380
 2332SOL     OW18631   0.197   2.703   8.988 -0.3544  0.5157 -0.0704
 2332SOL    HW118632   0.139   2.661   8.924  0.4113  1.2602 -1.2465
 2332SOL    HW218633   0.207   2.628   9.047  0.4530 -0.9156 -2.0313
 2333SOL     OW18634   2.371   3.644  12.551  0.3961  0.5343 -0.4500
 2333SOL    HW118635   2.398   3.575  12.613 -1.9363 -1.1582 -1.3206
 2333SOL    HW218636   2.302   3.688  12.601  1.1316 -1.3010  2.2097
 2334SOL     OW18637   4.311   4.035   6.654  0.8183  0.2726  0.2175
 2334SOL    HW118638   4.279   4.033   6.744  1.0249  0.2332  0.2914
 2334SOL    HW218639   4.405   4.048   6.665  1.1414 -1.6193 -0.3415
 2335SOL     OW18640   2.197   2.732  13.746 -0.0102 -0.3795 -0.0906
 2335SOL    HW118641   2.146   2.770  13.675 -0.9873  2.1119  1.9781
 2335SOL    HW218642   2.132   2.702  13.809 -1.8166 -1.4118 -2.4357
 2336SOL     OW18643   4.186   0.128  10.356 -0.2108  0.0931  0.4972
 2336SOL    HW118644   4.111   0.110  10.413  0.6030  0.7056  1.7331
 2336SOL    HW218645   4.182   0.221  10.337 -1.3504 -0.1885 -0.6934
 2337SOL     OW18646   2.242   3.972   4.937  0.0900  0.1028  0.7784
 2337SOL    HW118647   2.157   4.015   4.941 -0.1592 -0.2584 -0.6833
 2337SOL    HW218648   2.215   3.882   4.919 -1.2473  0.6501  0.0922
 2338SOL     OW18649   0.126   0.728   2.392  0.0614  0.3040  0.0190
 2338SOL    HW118650   0.041   0.684   2.386 -0.4332  1.0172  1.7755
 2338SOL    HW218651   0.130   0.800   2.330  5.5382  1.2089  1.4471
 2339SOL     OW18652   2.563   3.030   4.142  0.4157  0.0152 -0.1238
 2339SOL    HW118653   2.627   3.092   4.108  0.6960 -0.6002 -0.7044
 2339SOL    HW218654   2.630   2.966   4.165  0.0279  0.5926  2.5680
 2340SOL     OW18655   2.044   0.026   2.210  0.2584  0.2602 -0.0010
 2340SOL    HW118656   2.044   4.669   2.206  1.6316  0.1766  1.9387
 2340SOL    HW218657   1.970   0.047   2.153  0.5989 -0.6503 -0.7661
 2341SOL     OW18658   2.555   2.994   7.064 -0.1495 -0.1380 -0.5081
 2341SOL    HW118659   2.566   3.028   7.153  1.7076 -0.8493 -0.4533
 2341SOL    HW218660   2.629   3.034   7.019 -0.4934 -1.4008 -2.2280
 2342SOL     OW18661   0.409   4.034   5.517  0.2123 -0.8152 -0.2044
 2342SOL    HW118662   0.475   4.095   5.549  0.5259 -0.7692 -0.9535
 2342SOL    HW218663   0.433   4.050   5.426  0.7066 -0.0925  0.0480
 2343SOL     OW18664   0.658   2.682   3.708 -0.4083  0.6565 -0.0344
 2343SOL    HW118665   0.733   2.693   3.650  0.0087  1.4726  0.6674
 2343SOL    HW218666   0.587   2.719   3.657 -0.3113  0.6463 -0.1763
 2344SOL     OW18667   1.829   2.791   1.647  0.4043  0.1523 -0.1643
 2344SOL    HW118668   1.843   2.880   1.614 -1.7413  0.1056 -1.2409
 2344SOL    HW218669   1.809   2.809   1.739  1.9084  0.8994  0.0118
 2345SOL     OW18670   1.920   0.261  12.570  0.4359 -0.1327 -0.0418
 2345SOL    HW118671   1.926   0.324  12.498  0.1204  1.4439  1.3118
 2345SOL    HW218672   1.837   0.220  12.546 -0.1667  1.0081  0.0467
 2346SOL     OW18673   0.884   4.309   3.565 -0.3056 -0.9278  0.4927
 2346SOL    HW118674   0.978   4.290   3.571  0.2979  2.2950  1.3642
 2346SOL    HW218675   0.879   4.343   3.475 -1.8901 -2.0276  0.1785
 2347SOL     OW18676   2.080   1.085  12.140  0.7884  0.1249 -0.0238
 2347SOL    HW118677   2.014   1.032  12.095  0.7377 -0.2836  0.5380
 2347SOL    HW218678   2.149   1.086  12.074  0.2589  1.7972 -0.5510
 2348SOL     OW18679   3.830   2.287   8.628  0.0400  0.5440  0.3766
 2348SOL    HW118680   3.775   2.366   8.631 -1.7919 -0.6633 -0.9864
 2348SOL    HW218681   3.912   2.315   8.668  0.3356  2.1627 -1.3562
 2349SOL     OW18682   1.809   2.933  10.660 -0.0892  0.5455  0.2947
 2349SOL    HW118683   1.818   2.878  10.583  1.8447 -1.2197  1.7810
 2349SOL    HW218684   1.720   2.910  10.689  0.4550 -2.1457 -0.1852
 2350SOL     OW18685   1.609   1.508  17.520  0.4534  0.9441  0.0473
 2350SOL    HW118686   1.685   1.553  17.486  0.5757 -0.5688 -1.6748
 2350SOL    HW218687   1.552   1.515  17.444  1.0502  2.6940 -0.2223
 2351SOL     OW18688   4.193   0.171   1.216  0.3661 -0.3328 -0.2749
 2351SOL    HW118689   4.148   0.112   1.278 -1.6849  0.7281 -0.7521
 2351SOL    HW218690   4.231   0.100   1.164 -0.1048 -1.9807  1.5784
 2352SOL     OW18691   0.700   1.795   2.977  0.7044 -0.0055 -0.1567
 2352SOL    HW118692   0.641   1.825   3.045  0.2918 -2.8301  0.7272
 2352SOL    HW218693   0.783   1.805   3.024 -0.9099  1.1616  2.4384
 2353SOL     OW18694   3.660   2.526   4.893 -0.0419  0.2658 -0.0496
 2353SOL    HW118695   3.598   2.543   4.964 -0.7775 -4.0409  0.3195
 2353SOL    HW218696   3.647   2.605   4.840  2.0990  0.8536  0.2815
 2354SOL     OW18697   0.958   2.665   3.210 -0.2430  0.4923 -0.0421
 2354SOL    HW118698   1.031   2.686   3.268  0.3705  0.4137 -0.7859
 2354SOL    HW218699   0.987   2.710   3.131 -0.0295 -0.2804 -0.4026
 2355SOL     OW18700   1.735   1.796   2.658 -0.3532 -0.0664  0.1217
 2355SOL    HW118701   1.678   1.731   2.616 -0.1648  1.1058 -1.9244
 2355SOL    HW218702   1.678   1.873   2.651 -0.3780 -0.2046 -1.1185
 2356SOL     OW18703   1.767   2.493   3.104  0.2447 -0.2443  0.3875
 2356SOL    HW118704   1.854   2.454   3.095 -0.4015 -0.9134 -3.0565
 2356SOL    HW218705   1.724   2.426   3.158 -0.0739 -0.9747 -0.7757
 2357SOL     OW18706   3.802   0.016  16.329 -0.1652  0.2603 -0.1317
 2357SOL    HW118707   3.862   4.681  16.343  0.6017  0.9536  0.2196
 2357SOL    HW218708   3.780   0.032  16.421  1.7847 -0.0892  0.3862
 2358SOL     OW18709   2.264   3.126  16.429 -0.3516  0.1373  0.1987
 2358SOL    HW118710   2.243   3.052  16.485  0.5558  0.2186  0.6482
 2358SOL    HW218711   2.293   3.092  16.344  1.9468 -0.0844  1.0552
 2359SOL     OW18712   4.699   0.907   4.537  0.1596 -0.2544  0.4065
 2359SOL    HW118713   4.620   0.951   4.567  0.5624 -0.4107  1.6961
 2359SOL    HW218714   4.718   0.964   4.463  0.9560 -0.9678  0.0586
 2360SOL     OW18715   0.096   0.246   1.850  0.2827  0.5196  0.1203
 2360SOL    HW118716   0.141   0.330   1.849 -1.1645  1.2993  0.5205
 2360SOL    HW218717   0.127   0.214   1.935 -1.0256 -1.3887 -0.1038
 2361SOL     OW18718   4.617   0.328   9.315 -0.4426 -0.1599 -0.1369
 2361SOL    HW118719   4.590   0.384   9.388 -0.0988  2.0486 -1.7067
 2361SOL    HW218720   4.542   0.326   9.257 -1.8460 -0.4792  1.6974
 2362SOL     OW18721   4.712   0.480   3.403 -0.1445 -0.3917  0.2777
 2362SOL    HW118722   0.052   0.510   3.451 -0.7955  1.2851  0.2846
 2362SOL    HW218723   0.016   0.486   3.317 -1.2843 -0.6701 -0.2939
 2363SOL     OW18724   4.635   0.129   0.949 -0.1179  0.3862 -0.0987
 2363SOL    HW118725   4.583   0.061   0.906  0.3003 -0.3347  0.5319
 2363SOL    HW218726   4.572   0.164   1.011  1.6644  4.2170 -0.4265
 2364SOL     OW18727   3.222   1.009   6.964  0.1080 -0.5121 -0.6320
 2364SOL    HW118728   3.305   1.056   6.956  0.2599 -0.7395 -0.4084
 2364SOL    HW218729   3.207   1.000   7.059 -1.4249 -1.3165 -0.9515
 2365SOL     OW18730   0.941   2.446  12.759  0.6348 -0.0396 -0.3922
 2365SOL    HW118731   0.875   2.412  12.820  0.5649 -2.9531 -2.0554
 2365SOL    HW218732   0.939   2.538  12.785 -0.1826 -0.8292  2.3461
 2366SOL     OW18733   1.974   2.904  13.608 -0.4911  0.4928  0.0061
 2366SOL    HW118734   1.926   2.987  13.610 -0.0830  0.7028  0.9506
 2366SOL    HW218735   1.941   2.841  13.672 -0.1248  2.0751  1.7480
 2367SOL     OW18736   4.328   4.284   8.482 -0.2722  0.0777  0.1826
 2367SOL    HW118737   4.363   4.296   8.571  0.2728  0.6787 -0.1052
 2367SOL    HW218738   4.413   4.268   8.439 -0.2270 -0.0800  0.3317
 2368SOL     OW18739   0.115   3.524   7.545  0.3642 -0.4445  0.0460
 2368SOL    HW118740   0.053   3.576   7.595 -0.6054 -1.1289 -0.4512
 2368SOL    HW218741   0.181   3.518   7.614  0.6287 -1.0831 -0.2580
 2369SOL     OW18742   0.123   3.948   5.583  0.3638 -0.1331  0.0153
 2369SOL    HW118743   0.131   3.974   5.491 -0.5397 -0.9503 -0.2887
 2369SOL    HW218744   0.173   3.866   5.581 -1.1209 -1.0837  1.4777
 2370SOL     OW18745   2.194   3.899  12.169  0.0513  0.4217  0.0186
 2370SOL    HW118746   2.140   3.857  12.236  1.4887 -0.5889  0.5257
 2370SOL    HW218747   2.135   3.950  12.113 -0.6650 -2.1389 -1.5495
 2371SOL     OW18748   4.686   4.575   3.143  0.0117 -0.1622  0.0437
 2371SOL    HW118749   0.007   4.504   3.120  0.3526  0.1737 -0.1091
 2371SOL    HW218750   4.715   4.634   3.074 -1.8785  0.6192 -0.0943
 2372SOL     OW18751   2.558   0.025   7.255 -0.3923 -0.3971 -0.3371
 2372SOL    HW118752   2.469   0.058   7.264  0.0364  1.0174 -1.3904
 2372SOL    HW218753   2.548   4.725   7.168  3.1649 -0.9050 -0.4941
 2373SOL     OW18754   3.627   3.552   0.720 -0.2478  0.3647  0.0504
 2373SOL    HW118755   3.564   3.487   0.753 -0.8834  0.1027 -1.6977
 2373SOL    HW218756   3.701   3.531   0.777 -1.2045  0.4518  1.3460
 2374SOL     OW18757   4.280   3.976   7.888  0.2816 -0.3210  0.2941
 2374SOL    HW118758   4.360   3.992   7.838  0.7803 -1.0438  0.8662
 2374SOL    HW218759   4.320   3.991   7.973 -0.4098 -1.6865  0.8652
 2375SOL     OW18760   1.202   4.282   1.307  0.0586 -0.1674 -0.4179
 2375SOL    HW118761   1.205   4.194   1.269 -1.2696  0.8093 -2.7753
 2375SOL    HW218762   1.288   4.281   1.349  0.2353  1.3416 -0.7284
 2376SOL     OW18763   2.705   3.978   1.219  0.3737  0.2861 -0.1345
 2376SOL    HW118764   2.731   3.965   1.128 -0.6644 -1.5000 -0.1857
 2376SOL    HW218765   2.759   3.912   1.262  1.2533  2.1122  1.5518
 2377SOL     OW18766   3.898   3.045   1.777 -0.0395 -0.1746  0.1701
 2377SOL    HW118767   3.872   3.105   1.847 -2.3496 -1.3301  0.3189
 2377SOL    HW218768   3.925   3.110   1.713 -0.7232  0.0188  0.0718
 2378SOL     OW18769   2.802   0.759   1.999  0.2578  0.3902  0.1656
 2378SOL    HW118770   2.890   0.728   2.022  0.1154  0.1486  0.3862
 2378SOL    HW218771   2.755   0.745   2.082 -1.4203  1.1090 -0.6661
 2379SOL     OW18772   3.934   0.747   1.931  0.2154  0.7813  0.2506
 2379SOL    HW118773   3.878   0.818   1.963 -0.8330  0.3461 -0.6285
 2379SOL    HW218774   3.864   0.692   1.897  1.4075 -1.2025  1.0150
 2380SOL     OW18775   3.753   3.726   5.607 -0.4493  0.0872 -0.2543
 2380SOL    HW118776   3.823   3.753   5.667 -1.2053 -0.3095  0.8056
 2380SOL    HW218777   3.708   3.669   5.668  1.0208 -1.7970 -0.9190
 2381SOL     OW18778   1.936   1.826   4.878 -0.3421  0.3286  0.1305
 2381SOL    HW118779   2.016   1.830   4.931  0.0680  0.2640 -0.4829
 2381SOL    HW218780   1.873   1.790   4.940  0.4523 -1.2443  0.0173
 2382SOL     OW18781   2.920   1.008   3.848 -0.4797  0.0625 -0.0594
 2382SOL    HW118782   3.005   0.967   3.861  0.6089  1.8348 -1.6303
 2382SOL    HW218783   2.872   0.965   3.919 -1.9582  0.4825 -0.7868
 2383SOL     OW18784   2.236   1.729  13.589  0.1077  0.1404 -0.7138
 2383SOL    HW118785   2.200   1.771  13.666  1.9141 -2.5591  1.6306
 2383SOL    HW218786   2.259   1.808  13.541 -0.4785  0.5994 -0.2288
 2384SOL     OW18787   2.331   3.567   6.072  0.1391 -0.2488 -0.2997
 2384SOL    HW118788   2.281   3.560   5.991  0.8058  2.4132 -0.9430
 2384SOL    HW218789   2.355   3.477   6.094  1.4544 -0.2181 -1.6116
 2385SOL     OW18790   4.154   1.526   8.327 -0.2737  0.3226 -0.3084
 2385SOL    HW118791   4.230   1.543   8.384 -0.8743 -0.3626  0.6930
 2385SOL    HW218792   4.151   1.432   8.343  0.2624  0.6597  1.8529
 2386SOL     OW18793   3.881   4.541   4.895 -0.0616 -0.0296  0.2691
 2386SOL    HW118794   3.819   4.603   4.856  0.5745 -1.0307 -2.3209
 2386SOL    HW218795   3.936   4.602   4.945  0.2663  0.6139 -0.8731
 2387SOL     OW18796   3.206   0.950   6.468 -1.0214 -0.0002 -0.2503
 2387SOL    HW118797   3.130   0.956   6.410 -1.3066  0.9284  0.2209
 2387SOL    HW218798   3.260   1.024   6.442 -1.3969  0.8592  1.4105
 2388SOL     OW18799   1.764   0.797   3.722  0.6321  0.1118 -0.6564
 2388SOL    HW118800   1.771   0.848   3.802 -2.2924  0.1515 -0.4333
 2388SOL    HW218801   1.700   0.850   3.674  0.0649  2.2619  2.4679
 2389SOL     OW18802   0.611   3.459   9.506 -0.0321 -0.0321 -0.1448
 2389SOL    HW118803   0.528   3.501   9.484 -0.5439 -1.3601 -0.7221
 2389SOL    HW218804   0.581   3.417   9.586  3.9858  0.0793  1.4263
 2390SOL     OW18805   2.939   3.803   7.313  0.2731  0.4058  0.4571
 2390SOL    HW118806   2.863   3.859   7.328  1.2968  1.4628  1.6496
 2390SOL    HW218807   3.007   3.846   7.365 -0.2231  0.6035  0.9415
 2391SOL     OW18808   4.666   3.159   6.022  0.3616 -0.6903 -0.2576
 2391SOL    HW118809   4.709   3.244   6.014  3.1977 -2.1814 -0.8913
 2391SOL    HW218810   4.588   3.175   5.968  0.0955 -0.5586  0.1660
 2392SOL     OW18811   1.137   1.720  12.260 -0.1896 -0.1724  0.1591
 2392SOL    HW118812   1.062   1.760  12.215 -0.0481  0.3797  0.4128
 2392SOL    HW218813   1.208   1.775  12.228 -0.6738 -0.0270 -0.6793
 2393SOL     OW18814   1.717   3.009   6.304  0.0171  0.1174  0.2916
 2393SOL    HW118815   1.624   2.989   6.305 -0.3459  1.8065  1.1874
 2393SOL    HW218816   1.743   3.010   6.397 -1.2164 -0.4575  0.6342
 2394SOL     OW18817   2.129   1.303   8.847 -0.6595 -0.4412  0.2906
 2394SOL    HW118818   2.138   1.386   8.801 -0.9746 -0.0446  0.9520
 2394SOL    HW218819   2.157   1.336   8.932 -1.3815  1.1354 -0.0907
 2395SOL     OW18820   0.936   4.021   8.991 -0.9933 -0.6262 -0.1932
 2395SOL    HW118821   1.000   4.053   8.927 -0.3332 -0.3179  0.6202
 2395SOL    HW218822   0.856   4.009   8.941 -2.0391 -0.2454  1.4018
 2396SOL     OW18823   3.589   3.187   7.493 -0.7260 -0.1843 -1.1251
 2396SOL    HW118824   3.631   3.255   7.546 -1.2965  0.2088 -1.1692
 2396SOL    HW218825   3.559   3.141   7.572  0.6948  0.0344 -0.4567
 2397SOL     OW18826   0.797   1.351  14.228 -0.2231  0.2057 -0.2500
 2397SOL    HW118827   0.710   1.369  14.263 -0.4407  0.5315 -0.9525
 2397SOL    HW218828   0.772   1.328  14.138 -0.4416  3.5205 -1.0578
 2398SOL     OW18829   1.325   4.736  14.368 -0.0642 -0.2372 -0.2470
 2398SOL    HW118830   1.295   0.050  14.293  1.1740 -0.0205 -0.5908
 2398SOL    HW218831   1.254   0.021  14.429  2.1140 -0.7576  2.4813
 2399SOL     OW18832   4.541   1.034   0.457 -0.2020 -0.2454  0.8359
 2399SOL    HW118833   4.488   1.089   0.514  0.4475  1.1232  0.1386
 2399SOL    HW218834   4.500   1.045   0.371 -0.3552  1.3666  1.1133
 2400SOL     OW18835   3.916   2.875   3.512 -0.4304 -0.2847  0.7530
 2400SOL    HW118836   3.883   2.964   3.528  2.6237  0.8255  0.9692
 2400SOL    HW218837   3.956   2.882   3.426 -2.0040  1.5634  0.1601
 2401SOL     OW18838   4.680   4.607   4.496  0.1900  0.0410 -0.0278
 2401SOL    HW118839   4.729   4.617   4.578  0.4935  0.1692 -0.2267
 2401SOL    HW218840   4.624   4.534   4.521 -1.4366  1.2049 -0.2687
 2402SOL     OW18841   4.479   4.662   2.801  0.0991  0.6438  0.0684
 2402SOL    HW118842   4.464   0.016   2.823 -0.8610  0.8644 -1.5395
 2402SOL    HW218843   4.553   4.671   2.740  0.4131 -1.8938  0.0920
 2403SOL     OW18844   0.500   0.667   3.601  0.6513 -0.3805 -0.4585
 2403SOL    HW118845   0.594   0.650   3.594  0.6060  0.5015 -3.2634
 2403SOL    HW218846   0.488   0.692   3.509  1.9872 -0.8785 -0.7660
 2404SOL     OW18847   4.690   2.533   6.740 -0.3445 -0.0102 -0.5860
 2404SOL    HW118848   4.667   2.591   6.667  1.1847  0.7164 -0.4950
 2404SOL    HW218849   4.734   2.460   6.697  1.9340  1.4282 -0.7377
 2405SOL     OW18850   2.828   3.785   2.999  0.1566  0.3525 -0.0125
 2405SOL    HW118851   2.805   3.724   3.069 -0.4926  0.6114  0.0022
 2405SOL    HW218852   2.772   3.738   2.937  0.1790  0.2078  0.0766
 2406SOL     OW18853   2.752   1.515   6.114  0.4632  0.0615 -0.1358
 2406SOL    HW118854   2.800   1.594   6.089 -0.3207  0.1920 -1.2328
 2406SOL    HW218855   2.669   1.552   6.146  1.5473  0.8956  1.7377
 2407SOL     OW18856   4.489   3.931   9.786 -0.8044 -0.1461  0.2764
 2407SOL    HW118857   4.420   3.993   9.763  2.8715  3.2138 -1.5992
 2407SOL    HW218858   4.438   3.873   9.843 -1.6217  0.1846 -0.1291
 2408SOL     OW18859   3.695   0.340  13.037  0.2178  0.4129 -0.0139
 2408SOL    HW118860   3.718   0.272  12.974  0.5459 -1.0300  1.6574
 2408SOL    HW218861   3.781   0.379  13.053 -0.0714  1.0172  0.0699
 2409SOL     OW18862   4.305   1.606   7.116  0.4070  0.1226 -0.3938
 2409SOL    HW118863   4.328   1.537   7.054  0.6522 -0.3081  0.1768
 2409SOL    HW218864   4.282   1.680   7.059  1.8849  0.7509 -0.1749
 2410SOL     OW18865   1.635   0.937   8.160  0.7686  0.8901 -0.1432
 2410SOL    HW118866   1.716   0.987   8.172  1.7004 -0.5199 -0.5839
 2410SOL    HW218867   1.638   0.868   8.226  0.2910  0.4240 -0.6085
 2411SOL     OW18868   2.171   2.502   5.968 -0.7455 -0.1493 -0.7526
 2411SOL    HW118869   2.168   2.450   6.049 -0.5897  1.2601  0.1564
 2411SOL    HW218870   2.179   2.594   5.992 -0.8179 -0.2328 -0.4027
 2412SOL     OW18871   3.471   3.873   7.860  0.5330 -0.1926  0.5644
 2412SOL    HW118872   3.394   3.928   7.873  0.0695 -0.7867  0.3020
 2412SOL    HW218873   3.448   3.807   7.926  1.2297 -1.3652 -0.3727
 2413SOL     OW18874   4.614   3.501   1.399 -0.0970 -0.0672 -0.4910
 2413SOL    HW118875   4.560   3.549   1.336  2.6226  2.4051 -0.9512
 2413SOL    HW218876   4.647   3.573   1.454 -0.0041 -0.5135  0.0320
 2414SOL     OW18877   1.650   1.833   1.978  0.0308  0.4423 -0.4075
 2414SOL    HW118878   1.710   1.901   2.009 -2.2370  1.9964  0.5736
 2414SOL    HW218879   1.700   1.796   1.906  0.0074 -2.0008  0.8299
 2415SOL     OW18880   2.029   0.150   2.458 -0.0341 -0.2885  0.5506
 2415SOL    HW118881   2.075   0.231   2.435  0.5779 -0.9991 -0.6994
 2415SOL    HW218882   2.011   0.120   2.369 -1.1958 -0.7605  0.9412
 2416SOL     OW18883   0.810   0.585   6.218 -0.0555  0.0534  0.0226
 2416SOL    HW118884   0.757   0.539   6.283  1.7322 -1.5196  0.3469
 2416SOL    HW218885   0.899   0.579   6.252 -0.8156  0.9882  2.1515
 2417SOL     OW18886   3.942   4.511   5.988 -0.9734 -0.8717  0.4703
 2417SOL    HW118887   3.959   4.521   6.081 -0.2631 -0.3867  0.2880
 2417SOL    HW218888   3.921   4.418   5.978 -1.0312 -0.5708 -2.3081
 2418SOL     OW18889   0.169   3.484   4.581  0.1651  0.3018  0.0744
 2418SOL    HW118890   0.256   3.455   4.609  0.3010  1.9750  1.3712
 2418SOL    HW218891   0.124   3.400   4.594  0.1352  0.0175 -1.8510
 2419SOL     OW18892   1.176   1.328   6.204  0.2364 -0.2364 -0.1957
 2419SOL    HW118893   1.223   1.349   6.123  0.1051  0.8321 -0.0062
 2419SOL    HW218894   1.098   1.286   6.168  1.0910 -0.4849 -1.7842
 2420SOL     OW18895   3.286   3.050   2.995 -0.1143  0.1359 -0.0482
 2420SOL    HW118896   3.262   3.020   2.907  0.7107  1.3129 -0.6878
 2420SOL    HW218897   3.252   3.139   2.986 -1.3507 -0.3080  0.2428
 2421SOL     OW18898   4.406   4.275   9.280  0.3490  0.1389  0.4430
 2421SOL    HW118899   4.413   4.366   9.251 -1.3294 -0.1461 -0.8973
 2421SOL    HW218900   4.404   4.236   9.192 -0.1385  1.8171 -0.3050
 2422SOL     OW18901   2.990   0.215   5.081  0.1791  0.1275 -0.4277
 2422SOL    HW118902   3.009   0.259   5.164 -0.2165  1.5322 -1.0864
 2422SOL    HW218903   2.913   0.166   5.112 -0.8424  1.3357 -1.0548
 2423SOL     OW18904   1.940   0.591   7.825  0.2791 -0.3463  0.2922
 2423SOL    HW118905   1.953   0.652   7.752 -2.1556  2.1120  1.8776
 2423SOL    HW218906   1.863   0.632   7.866  1.0620  1.7577 -0.3326
 2424SOL     OW18907   2.341   1.546   2.425 -0.1580 -0.0486 -0.1333
 2424SOL    HW118908   2.353   1.619   2.364 -0.2092 -0.3089 -0.4532
 2424SOL    HW218909   2.394   1.570   2.501  0.5950  0.2772 -0.7625
 2425SOL     OW18910   2.432   3.964   3.224 -0.0787 -0.1133 -0.1230
 2425SOL    HW118911   2.450   3.902   3.295  0.1024  0.9799  0.7950
 2425SOL    HW218912   2.337   3.971   3.234 -0.4580 -1.4568 -2.7881
 2426SOL     OW18913   3.536   3.057  12.536  1.1096 -0.9047 -0.5432
 2426SOL    HW118914   3.442   3.073  12.528  0.8113 -1.2829  2.2497
 2426SOL    HW218915   3.571   3.127  12.592 -0.4031 -0.3149 -0.3524
 2427SOL     OW18916   1.204   0.461   1.773 -0.0255  0.2281 -0.0059
 2427SOL    HW118917   1.154   0.447   1.692 -1.0450 -3.4233  1.2366
 2427SOL    HW218918   1.164   0.403   1.837 -0.9060 -1.5311 -2.1462
 2428SOL     OW18919   3.331   2.713  12.900 -0.6768  0.0341 -0.0923
 2428SOL    HW118920   3.255   2.672  12.941  0.3316 -1.3147  0.4225
 2428SOL    HW218921   3.392   2.640  12.888 -0.5227  0.1940 -0.2831
 2429SOL     OW18922   3.032   2.477  13.327  0.1336  0.0614  0.1270
 2429SOL    HW118923   2.996   2.444  13.245  1.7311  0.0615 -0.5759
 2429SOL    HW218924   3.070   2.555  13.286 -1.1593  1.3895  1.4335
 2430SOL     OW18925   1.304   3.634  14.864 -0.3732 -0.4577  0.6125
 2430SOL    HW118926   1.343   3.574  14.800 -0.6234  0.6149 -0.5410
 2430SOL    HW218927   1.377   3.686  14.897 -1.6467  1.3403  0.6107
 2431SOL     OW18928   2.858   3.446   0.911  0.0907 -0.5060  0.4658
 2431SOL    HW118929   2.943   3.489   0.907  0.2420 -0.8017  0.5136
 2431SOL    HW218930   2.874   3.395   0.991  2.6146  1.4123  1.1643
 2432SOL     OW18931   4.727   0.130  14.670  0.5815 -0.5568  0.2271
 2432SOL    HW118932   4.674   0.182  14.731 -1.4311  0.2724 -2.2403
 2432SOL    HW218933   0.032   0.191  14.610  1.0046 -0.9019  0.1800
 2433SOL     OW18934   2.181   0.315   2.016  0.6009 -0.5334  0.5101
 2433SOL    HW118935   2.209   0.406   2.024  0.2672 -0.4014  0.1496
 2433SOL    HW218936   2.087   0.318   2.002  0.9467 -0.9173 -1.9416
 2434SOL     OW18937   2.557   1.266   2.492 -0.3664  0.1297 -0.3098
 2434SOL    HW118938   2.580   1.264   2.399  0.5912  1.1641 -0.0993
 2434SOL    HW218939   2.641   1.294   2.528 -0.6546  0.7039 -0.0786
 2435SOL     OW18940   2.265   4.079   2.291  0.1924  0.2526 -0.6961
 2435SOL    HW118941   2.194   4.035   2.339 -0.8410  3.7039  0.9648
 2435SOL    HW218942   2.274   4.160   2.341 -2.8883 -0.1093  0.4286
 2436SOL     OW18943   2.197   0.021  13.596  0.6274 -0.6737  0.1367
 2436SOL    HW118944   2.267   0.083  13.619  1.3182 -1.2066 -0.5053
 2436SOL    HW218945   2.146   0.079  13.539  1.2580 -0.4078 -0.1608
 2437SOL     OW18946   2.112   2.689   1.673 -0.2275  0.0601 -0.8580
 2437SOL    HW118947   2.096   2.656   1.762  2.5679 -1.5407 -0.9533
 2437SOL    HW218948   2.054   2.765   1.678  0.2862  0.4276 -0.4996
 2438SOL     OW18949   1.242   3.280   6.140  0.5723 -0.4479  0.0341
 2438SOL    HW118950   1.153   3.298   6.171 -0.0934 -2.0409 -0.9383
 2438SOL    HW218951   1.286   3.265   6.224  0.1290 -1.1387  0.1435
 2439SOL     OW18952   3.710   0.176  15.495 -0.2516  0.0232  0.1603
 2439SOL    HW118953   3.782   0.126  15.457 -0.2009 -1.0620  1.6933
 2439SOL    HW218954   3.639   0.179  15.430 -1.0627 -1.0035  0.9903
 2440SOL     OW18955   0.936   2.543  11.228 -0.5543 -0.7942 -0.3973
 2440SOL    HW118956   0.906   2.527  11.317  3.4897  1.7981  1.4478
 2440SOL    HW218957   0.859   2.591  11.200 -1.1449 -1.3282  0.3338
 2441SOL     OW18958   3.042   2.025   8.798 -0.1162  0.1476  0.5072
 2441SOL    HW118959   3.011   2.035   8.708  1.7707  0.9664 -0.0536
 2441SOL    HW218960   3.074   2.112   8.820  0.0390  0.0126  0.8259
 2442SOL     OW18961   3.423   2.242  12.327 -0.1484 -0.0653  0.5196
 2442SOL    HW118962   3.403   2.149  12.325  0.5578 -0.1898 -0.6086
 2442SOL    HW218963   3.516   2.240  12.305 -0.0760  0.1467  0.7973
 2443SOL     OW18964   0.179   3.067   3.351 -0.3198  0.3896 -0.4342
 2443SOL    HW118965   0.172   3.158   3.320  0.9617  0.3170 -0.9587
 2443SOL    HW218966   0.090   3.035   3.343 -0.3288  0.8330 -2.1703
 2444SOL     OW18967   3.953   0.153   6.041  0.4850  0.0955  0.1340
 2444SOL    HW118968   4.038   0.176   6.077  0.0140 -0.5153  1.6401
 2444SOL    HW218969   3.934   0.225   5.981  2.0733 -0.3867 -0.9510
 2445SOL     OW18970   2.823   4.275   6.244  0.2078 -0.2847  0.2353
 2445SOL    HW118971   2.751   4.268   6.181  1.9724 -3.0513 -1.4806
 2445SOL    HW218972   2.791   4.238   6.326  0.9167  1.3739  1.2526
 2446SOL     OW18973   3.078   1.908   5.789 -0.4995  0.1421 -0.3532
 2446SOL    HW118974   3.029   1.828   5.770 -1.4472  0.3078  1.4102
 2446SOL    HW218975   3.075   1.908   5.885  1.4531 -1.1717 -0.2965
 2447SOL     OW18976   3.670   2.356   9.958 -0.2965 -0.2602  0.1136
 2447SOL    HW118977   3.734   2.353   9.887  0.9000  0.1147  1.1858
 2447SOL    HW218978   3.609   2.416   9.914 -0.4624 -1.2068 -0.9520
 2448SOL     OW18979   1.391   2.160  14.702 -0.4561  0.4475  0.5742
 2448SOL    HW118980   1.456   2.221  14.736 -3.2883  0.8825  5.1941
 2448SOL    HW218981   1.430   2.139  14.617 -0.0913  2.2325  0.3042
 2449SOL     OW18982   4.415   2.168  15.496 -0.1029 -0.0311  0.1487
 2449SOL    HW118983   4.457   2.098  15.446 -1.2325 -1.3768  1.1050
 2449SOL    HW218984   4.491   2.214  15.531  0.0017  0.7567 -1.1350
 2450SOL     OW18985   4.233   2.143  11.405 -0.4699 -0.2450 -0.7808
 2450SOL    HW118986   4.180   2.212  11.365  0.1291  0.7464  0.1526
 2450SOL    HW218987   4.324   2.145  11.375 -0.1894  0.8895  0.1563
 2451SOL     OW18988   1.949   3.871  13.646 -0.3385 -0.1372 -0.7974
 2451SOL    HW118989   1.952   3.950  13.591  0.2337 -0.6330 -1.4898
 2451SOL    HW218990   1.919   3.905  13.730  1.3632 -0.1078 -0.1929
 2452SOL     OW18991   0.960   0.208   9.092 -0.1037 -0.5199  0.0336
 2452SOL    HW118992   0.953   0.214   8.997  1.1224  0.1912 -0.0188
 2452SOL    HW218993   0.993   0.119   9.101  1.8937  0.2076 -0.1447
 2453SOL     OW18994   2.497   1.016   8.037 -0.6729  0.1103 -0.0554
 2453SOL    HW118995   2.442   1.082   8.080  1.5020  0.4114  2.2842
 2453SOL    HW218996   2.528   0.960   8.108  0.2155  1.1872  0.3964
 2454SOL     OW18997   3.959   3.249   4.199  0.3715 -0.5915 -0.1614
 2454SOL    HW118998   3.957   3.300   4.119  0.4362  1.3686  1.1033
 2454SOL    HW218999   3.982   3.159   4.176  1.5890 -0.8362  1.9464
 2455SOL     OW19000   2.141   2.229   8.886 -0.0239  0.4937 -0.3070
 2455SOL    HW119001   2.047   2.232   8.869  0.0566  0.9425 -0.6894
 2455SOL    HW219002   2.171   2.154   8.835  2.6696  1.4381 -0.0837
 2456SOL     OW19003   2.302   4.401  14.756 -0.2707  0.1960 -0.2801
 2456SOL    HW119004   2.377   4.451  14.786  1.3333 -1.3379 -1.7267
 2456SOL    HW219005   2.224   4.450  14.784 -0.8452 -1.2979  0.7692
 2457SOL     OW19006   3.962   2.953   4.562 -0.3562  0.4443 -0.1593
 2457SOL    HW119007   3.921   3.030   4.520 -2.7316  0.5728  2.3844
 2457SOL    HW219008   3.964   2.967   4.657 -1.5567 -1.4102  0.1384
 2458SOL     OW19009   3.679   1.458  13.570  0.0129 -0.8675 -0.4824
 2458SOL    HW119010   3.622   1.431  13.498 -3.1645  2.1326  0.8796
 2458SOL    HW219011   3.740   1.518  13.526 -2.3542  2.0634  0.2189
 2459SOL     OW19012   1.386   0.843   1.962  0.5129  0.0310 -0.2785
 2459SOL    HW119013   1.299   0.846   2.002  1.1185 -1.2846  1.1460
 2459SOL    HW219014   1.385   0.749   1.944  0.0249  0.0136 -0.1607
 2460SOL     OW19015   3.085   3.484   8.803  0.7223 -0.3304  0.1622
 2460SOL    HW119016   3.058   3.505   8.714 -0.7376 -0.6691  0.5341
 2460SOL    HW219017   3.006   3.502   8.853  0.2780 -1.6894 -0.0457
 2461SOL     OW19018   2.841   1.187   3.680  0.5345 -0.1244 -0.0657
 2461SOL    HW119019   2.864   1.135   3.757  0.8172 -1.2269 -0.9068
 2461SOL    HW219020   2.745   1.187   3.678  0.5341  1.8227 -0.0669
 2462SOL     OW19021   3.580   1.243   3.855 -0.6576  0.0238  0.1364
 2462SOL    HW119022   3.657   1.195   3.886 -0.2736 -1.3020 -2.8014
 2462SOL    HW219023   3.511   1.177   3.857 -1.0755  0.4869  0.9142
 2463SOL     OW19024   0.738   3.281   4.843 -0.1492 -0.8216  0.2846
 2463SOL    HW119025   0.766   3.263   4.933  2.4635 -0.8697 -0.5091
 2463SOL    HW219026   0.661   3.336   4.854  0.7798  0.7393 -1.0337
 2464SOL     OW19027   2.623   4.014   1.718 -0.4245  0.0071 -0.2701
 2464SOL    HW119028   2.616   4.040   1.810 -2.1041  0.7199 -0.6097
 2464SOL    HW219029   2.537   3.973   1.716 -0.3678 -0.0558 -1.3414
 2465SOL     OW19030   4.456   0.254   9.540 -0.0814 -0.2911 -0.0455
 2465SOL    HW119031   4.537   0.236   9.588 -1.2201 -1.3690  1.4509
 2465SOL    HW219032   4.445   0.165   9.507 -0.6481  0.2742 -1.3889
 2466SOL     OW19033   3.401   4.513   5.567  0.3634 -0.3378  0.3302
 2466SOL    HW119034   3.494   4.493   5.566  0.6766  1.1836 -2.4397
 2466SOL    HW219035   3.397   4.603   5.600 -1.5473  0.0693 -0.9375
 2467SOL     OW19036   1.416   1.737   3.887  0.3767 -0.2404  0.1324
 2467SOL    HW119037   1.479   1.675   3.850 -1.1387 -0.4144 -2.2280
 2467SOL    HW219038   1.372   1.682   3.951 -0.0427  0.7145  0.6611
 2468SOL     OW19039   3.701   0.110  15.765 -0.2784 -0.1878  0.8442
 2468SOL    HW119040   3.676   0.123  15.673  0.5359 -2.0884  0.3562
 2468SOL    HW219041   3.629   0.053  15.792  1.4752 -3.0237 -0.4334
 2469SOL     OW19042   3.561   0.069  12.140  0.1781  0.6341  0.4218
 2469SOL    HW119043   3.568   0.082  12.046 -0.9168  0.7441  0.3515
 2469SOL    HW219044   3.607   4.725  12.158  1.1186  1.0114 -0.2962
 2470SOL     OW19045   2.412   0.949   7.226  0.7031  0.0558 -0.0953
 2470SOL    HW119046   2.354   0.874   7.242  0.0375  0.2239 -1.7927
 2470SOL    HW219047   2.357   0.994   7.162  1.5452 -1.7294 -2.0344
 2471SOL     OW19048   4.573   2.539   1.455  0.0080 -0.9625 -0.4006
 2471SOL    HW119049   4.666   2.561   1.443 -0.2273 -0.1231 -0.7210
 2471SOL    HW219050   4.525   2.608   1.409 -0.4036 -1.2514 -0.3939
 2472SOL     OW19051   4.305   3.453   3.540  0.7499  0.3833 -0.1410
 2472SOL    HW119052   4.332   3.513   3.610  1.5734 -0.5170  0.3008
 2472SOL    HW219053   4.259   3.523   3.492  0.8402 -0.8087 -1.9892
 2473SOL     OW19054   0.216   0.065  11.804  0.2089 -0.0178 -0.0538
 2473SOL    HW119055   0.146   0.130  11.799 -0.1953 -0.4617 -0.1309
 2473SOL    HW219056   0.204   0.015  11.723 -1.1224 -0.5999  0.5150
 2474SOL     OW19057   2.649   3.913   5.999 -0.0211  0.5664  0.1369
 2474SOL    HW119058   2.598   3.874   5.928  0.1838  2.6450 -1.1354
 2474SOL    HW219059   2.628   3.851   6.069 -2.3800  0.7069 -0.4497
 2475SOL     OW19060   3.931   0.843   5.842 -0.0780 -0.1590  0.1272
 2475SOL    HW119061   3.901   0.810   5.927 -0.0504 -1.4327 -0.3610
 2475SOL    HW219062   3.975   0.917   5.884  0.2224 -0.0472 -0.3941
 2476SOL     OW19063   3.479   3.426   6.965 -0.4734  0.6531  0.4889
 2476SOL    HW119064   3.423   3.397   7.037 -0.9566  1.7919  0.5823
 2476SOL    HW219065   3.550   3.363   6.975 -0.7128 -0.1421 -2.6766
 2477SOL     OW19066   1.355   3.892   7.160  0.4013 -0.4636  0.4518
 2477SOL    HW119067   1.326   3.970   7.209 -0.0745  0.6754 -1.6311
 2477SOL    HW219068   1.291   3.823   7.178  2.6634 -2.2606  1.5748
 2478SOL     OW19069   0.485   4.164   1.820 -0.7519 -1.0117  0.1550
 2478SOL    HW119070   0.408   4.136   1.869 -1.0906  2.0748  1.3650
 2478SOL    HW219071   0.485   4.083   1.769 -0.0770 -1.2352  0.5077
 2479SOL     OW19072   3.200   3.229   6.938  0.1320  0.2051  0.7024
 2479SOL    HW119073   3.278   3.186   6.904  1.0045  2.1851  0.2107
 2479SOL    HW219074   3.226   3.234   7.030  0.7833 -0.1406  0.5339
 2480SOL     OW19075   0.716   0.863  11.848 -0.1648  0.3092 -0.5088
 2480SOL    HW119076   0.716   0.848  11.942 -0.8348 -0.0526 -0.5672
 2480SOL    HW219077   0.775   0.795  11.816  2.9428  2.2113  1.2246
 2481SOL     OW19078   1.292   4.230  11.562 -0.3394 -0.4044  0.5549
 2481SOL    HW119079   1.365   4.290  11.551 -0.3880 -0.6904 -1.3537
 2481SOL    HW219080   1.263   4.260  11.648  0.2646 -0.3810  0.7445
 2482SOL     OW19081   1.932   0.522   1.307  0.0541 -0.2472 -0.4486
 2482SOL    HW119082   1.923   0.428   1.294  0.2883 -0.6603  2.4353
 2482SOL    HW219083   1.922   0.557   1.218  1.8158 -0.7145 -0.8425
 2483SOL     OW19084   1.893   2.076   4.769 -0.2535 -0.2792  0.2670
 2483SOL    HW119085   1.915   1.993   4.811  0.6045  0.0229  0.4022
 2483SOL    HW219086   1.824   2.058   4.705  0.7037 -2.7512 -0.0696
 2484SOL     OW19087   3.444   0.936  16.405 -0.1903  0.4971  0.2379
 2484SOL    HW119088   3.363   0.985  16.394  0.3605  1.9566  2.6647
 2484SOL    HW219089   3.470   0.955  16.495  1.0629  0.9800 -0.2139
 2485SOL     OW19090   3.159   1.139   4.739 -0.0181  0.3367  0.0190
 2485SOL    HW119091   3.087   1.076   4.736 -2.3344  3.0233 -1.9719
 2485SOL    HW219092   3.212   1.097   4.806 -1.0140 -2.0293 -0.6912
 2486SOL     OW19093   4.626   4.482   4.824  0.1452 -0.5817 -0.3109
 2486SOL    HW119094   4.596   4.431   4.749 -0.8383  0.1706 -0.4207
 2486SOL    HW219095   4.707   4.525   4.797 -1.6703  3.2758  0.3997
 2487SOL     OW19096   0.243   2.959  10.842 -0.2762 -0.1035  0.4308
 2487SOL    HW119097   0.203   3.017  10.907  0.2074  1.6043 -0.8089
 2487SOL    HW219098   0.180   2.965  10.771  1.6139  0.9900 -1.1649
 2488SOL     OW19099   4.202   0.178   2.763 -0.0694 -0.9149 -0.3060
 2488SOL    HW119100   4.197   0.083   2.756  1.6745 -1.0385  0.1898
 2488SOL    HW219101   4.289   0.202   2.796 -0.2557  0.7917 -1.0178
 2489SOL     OW19102   1.530   4.280  10.723 -0.1183 -0.0349 -0.4746
 2489SOL    HW119103   1.566   4.276  10.635 -1.9198 -2.5653 -1.1212
 2489SOL    HW219104   1.608   4.275  10.778 -0.1234  1.2561 -0.3529
 2490SOL     OW19105   1.489   2.547  15.471 -0.0038 -0.4004 -0.1231
 2490SOL    HW119106   1.529   2.623  15.513  1.5482 -0.8451 -0.7727
 2490SOL    HW219107   1.546   2.537  15.395  0.1599 -1.0734  0.0869
 2491SOL     OW19108   3.409   2.499  16.282  0.3721  0.4196 -0.0402
 2491SOL    HW119109   3.392   2.425  16.340 -1.6175  0.9604  0.0454
 2491SOL    HW219110   3.322   2.539  16.287  0.4843  0.8090 -1.1718
 2492SOL     OW19111   0.657   4.216   9.385 -0.6145 -0.1060  0.1277
 2492SOL    HW119112   0.695   4.301   9.406  0.2939 -0.5994  0.4751
 2492SOL    HW219113   0.660   4.216   9.289 -1.5021 -1.3614  0.0978
 2493SOL     OW19114   3.177   2.182   8.342 -0.5426 -0.5382  0.3048
 2493SOL    HW119115   3.185   2.103   8.289 -0.1395 -0.5581  0.3946
 2493SOL    HW219116   3.196   2.155   8.432  0.9774 -0.8956 -0.1238
 2494SOL     OW19117   0.271   4.097   5.799 -0.1985  0.0225 -0.3571
 2494SOL    HW119118   0.248   4.189   5.784  0.5993  0.5124  1.4394
 2494SOL    HW219119   0.258   4.061   5.711 -1.6168 -0.0618 -0.1161
 2495SOL     OW19120   2.595   2.145  17.138 -0.1310 -0.0442  0.0263
 2495SOL    HW119121   2.652   2.074  17.108 -0.0370 -0.0162  0.1400
 2495SOL    HW219122   2.517   2.095  17.158  0.2599 -0.3700  0.7122
 2496SOL     OW19123   3.459   2.011   9.566 -0.3436  0.3303  0.0729
 2496SOL    HW119124   3.434   2.100   9.543 -0.0308  0.5803  0.7219
 2496SOL    HW219125   3.405   2.012   9.645  0.8491  1.3198  0.8585
 2497SOL     OW19126   3.461   0.959   1.715 -0.0166 -0.3507  0.0802
 2497SOL    HW119127   3.420   0.993   1.635 -1.8162 -0.8488  0.7918
 2497SOL    HW219128   3.547   0.931   1.683 -0.9993 -0.0387 -2.8893
 2498SOL     OW19129   3.685   2.312   0.754 -0.0806 -0.1275 -0.4709
 2498SOL    HW119130   3.594   2.306   0.727  0.2154  0.3866 -1.5749
 2498SOL    HW219131   3.718   2.229   0.718  0.0138 -0.2795 -0.0424
 2499SOL     OW19132   3.364   1.548   7.398 -0.0978 -0.4764 -0.6053
 2499SOL    HW119133   3.393   1.635   7.372 -2.9494  0.5402 -0.3326
 2499SOL    HW219134   3.334   1.577   7.483  2.0916  1.2978 -0.4446
 2500SOL     OW19135   1.476   2.862   1.733  0.2184 -0.1471 -0.1860
 2500SOL    HW119136   1.422   2.890   1.659 -2.1635 -4.5487 -0.0593
 2500SOL    HW219137   1.434   2.781   1.760  0.1191  0.0375  0.2176
 2501SOL     OW19138   3.538   2.127   3.161 -0.0754 -0.5994 -0.3747
 2501SOL    HW119139   3.472   2.068   3.125 -1.6688  0.3665  0.9474
 2501SOL    HW219140   3.547   2.196   3.096 -1.2533  0.9812  1.1658
 2502SOL     OW19141   2.963   0.989   0.292 -0.4342  0.5198  0.0000
 2502SOL    HW119142   3.002   0.941   0.364  0.6876 -0.7516 -1.4547
 2502SOL    HW219143   2.895   1.036   0.341 -0.2106  0.1474  0.6598
 2503SOL     OW19144   2.942   1.111   8.771  0.0845 -0.6869 -0.1317
 2503SOL    HW119145   2.967   1.062   8.693 -0.3522 -1.4570  0.2238
 2503SOL    HW219146   2.850   1.086   8.776 -0.4008  0.6669 -2.0358
 2504SOL     OW19147   3.018   1.788   4.050  0.2905  0.3611  0.7194
 2504SOL    HW119148   3.050   1.869   4.089 -1.1309  0.8660  0.8335
 2504SOL    HW219149   3.093   1.729   4.059 -0.2295 -0.5578 -0.9350
 2505SOL     OW19150   2.694   2.146   1.598  0.0592  0.3489 -0.0891
 2505SOL    HW119151   2.628   2.087   1.562 -2.2457  2.3233  0.8733
 2505SOL    HW219152   2.695   2.216   1.533  1.2461  0.6232  0.2211
 2506SOL     OW19153   2.626   2.014   4.176 -0.3492  0.7498 -0.4488
 2506SOL    HW119154   2.690   1.982   4.240  1.2860 -2.0433 -3.4455
 2506SOL    HW219155   2.625   1.951   4.103 -1.6375  1.0645 -0.6927
 2507SOL     OW19156   0.764   4.125   6.177 -0.1415  0.4570 -0.6298
 2507SOL    HW119157   0.838   4.163   6.224  0.2749  0.3386 -1.1950
 2507SOL    HW219158   0.813   4.088   6.104 -1.0674 -1.2033 -0.4093
 2508SOL     OW19159   3.443   4.189   5.497 -0.4408  0.7222 -0.4954
 2508SOL    HW119160   3.510   4.207   5.564 -1.4695 -0.6246  0.8949
 2508SOL    HW219161   3.380   4.150   5.557  0.7920  1.1117  1.0482
 2509SOL     OW19162   4.022   0.968   3.950 -0.2031  0.1524  0.1928
 2509SOL    HW119163   4.088   1.026   3.912  1.1681 -0.4039  1.6984
 2509SOL    HW219164   3.995   0.920   3.873 -1.3715 -0.7473  1.1674
 2510SOL     OW19165   0.533   2.168   6.489  0.2298  0.5646  0.7941
 2510SOL    HW119166   0.618   2.132   6.513  0.6673  2.5323  2.1573
 2510SOL    HW219167   0.494   2.162   6.576  0.3300  1.5771  0.9038
 2511SOL     OW19168   0.565   0.952   0.040 -0.2736  0.5829 -0.3475
 2511SOL    HW119169   0.550   0.857   0.033  1.7998  0.2907 -1.0323
 2511SOL    HW219170   0.544   0.977   0.130  0.9793  1.0451 -0.1885
 2512SOL     OW19171   1.353   0.611  17.064 -0.4027  0.1794  0.4245
 2512SOL    HW119172   1.334   0.704  17.078 -2.1580 -0.0960 -0.1240
 2512SOL    HW219173   1.419   0.605  16.995  1.8328 -0.0336  2.5882
 2513SOL     OW19174   3.614   4.699   3.769 -0.0042  0.2308  0.9416
 2513SOL    HW119175   3.526   4.665   3.751  0.2699 -0.2258  0.4317
 2513SOL    HW219176   3.657   4.697   3.683 -0.9573  1.8992  0.4257
 2514SOL     OW19177   0.735   3.476   8.122 -0.1880 -0.7415  0.4571
 2514SOL    HW119178   0.777   3.401   8.079 -2.0112 -0.0467 -2.5255
 2514SOL    HW219179   0.656   3.429   8.148 -0.6575  0.2378  0.7680
 2515SOL     OW19180   3.715   2.783   1.204 -0.1361  0.1554  0.5103
 2515SOL    HW119181   3.693   2.862   1.254 -1.1026  1.6746 -2.2957
 2515SOL    HW219182   3.736   2.710   1.261  0.5234 -0.7603 -0.9110
 2516SOL     OW19183   4.625   1.072   8.464 -0.1762  0.4331  0.6549
 2516SOL    HW119184   4.711   1.059   8.504 -0.0224  0.8654  0.4652
 2516SOL    HW219185   4.587   0.986   8.476 -1.7314  1.0906  0.4258
 2517SOL     OW19186   0.838   1.537   7.535 -0.1468  0.3304 -0.0817
 2517SOL    HW119187   0.798   1.623   7.547 -1.0598 -0.8026  5.0708
 2517SOL    HW219188   0.805   1.514   7.448 -1.9340  0.7372  0.4928
 2518SOL     OW19189   1.941   2.123   2.684 -0.3788 -0.4967  0.5678
 2518SOL    HW119190   1.928   2.216   2.663  0.0383 -0.3211  1.0922
 2518SOL    HW219191   1.852   2.089   2.678 -0.6782  0.4348 -0.2890
 2519SOL     OW19192   1.859   3.688  14.325 -0.6572 -0.0484  0.2137
 2519SOL    HW119193   1.865   3.707  14.231 -0.1116  0.6841  0.3936
 2519SOL    HW219194   1.895   3.770  14.359 -3.0450  1.3837 -0.6727
 2520SOL     OW19195   0.451   0.172   2.946  0.0470 -0.1937 -0.3059
 2520SOL    HW119196   0.416   0.179   3.035 -2.1252  1.0182 -1.2592
 2520SOL    HW219197   0.467   0.264   2.923  2.5204 -1.0590 -2.1030
 2521SOL     OW19198   3.653   3.715   7.632 -0.3986  0.0436  0.2446
 2521SOL    HW119199   3.652   3.809   7.615  0.2292  0.3061  1.6189
 2521SOL    HW219200   3.734   3.696   7.584 -0.9566 -2.9789  0.4788
 2522SOL     OW19201   2.665   1.847  13.278  0.1838 -0.6607  0.2279
 2522SOL    HW119202   2.627   1.900  13.348 -0.0258 -1.5435  0.7807
 2522SOL    HW219203   2.752   1.872  13.306 -0.3845 -0.2889  1.6538
 2523SOL     OW19204   2.336   0.530   3.269 -0.6310  0.1021 -0.2775
 2523SOL    HW119205   2.246   0.525   3.302 -0.7986 -1.9799 -1.0741
 2523SOL    HW219206   2.356   0.448   3.225 -0.3654 -0.1781  0.3709
 2524SOL     OW19207   4.676   0.198   8.561  0.1884 -0.4428 -0.1052
 2524SOL    HW119208   0.017   0.251   8.555  0.6596 -1.0267  1.1927
 2524SOL    HW219209   4.711   0.123   8.609 -2.6256 -0.4876  1.8553
 2525SOL     OW19210   2.394   2.171  13.507  0.7467  0.4150 -0.3213
 2525SOL    HW119211   2.368   2.218  13.427  0.2761 -0.3635 -0.6247
 2525SOL    HW219212   2.330   2.101  13.512 -0.9439  1.7344 -3.1516
 2526SOL     OW19213   4.728   4.372   2.156  0.0467  0.2282 -0.5193
 2526SOL    HW119214   0.005   4.399   2.066 -1.1452 -1.4355 -1.2171
 2526SOL    HW219215   0.038   4.290   2.168 -0.3000  0.1833  0.5763
 2527SOL     OW19216   0.461   4.193   7.031 -0.5361 -0.1450  0.2354
 2527SOL    HW119217   0.484   4.161   7.118 -2.8655 -3.0590 -0.2380
 2527SOL    HW219218   0.405   4.120   7.005  0.1358  0.1039 -1.8711
 2528SOL     OW19219   1.377   2.147  12.168  0.4552 -0.0057  0.2435
 2528SOL    HW119220   1.289   2.146  12.130  0.6543  0.2680 -0.2286
 2528SOL    HW219221   1.364   2.125  12.260  0.6810 -1.8499 -0.1593
 2529SOL     OW19222   2.777   2.869   8.554 -0.0382  0.1663  0.4703
 2529SOL    HW119223   2.757   2.841   8.465  0.4080  0.7455  0.1954
 2529SOL    HW219224   2.690   2.879   8.593  0.1594 -0.4381  1.0632
 2530SOL     OW19225   3.185   3.953   3.482 -0.1327  0.6023  0.2387
 2530SOL    HW119226   3.159   3.982   3.394  0.8381  1.2150  0.1539
 2530SOL    HW219227   3.253   3.889   3.461 -0.1162  1.2861 -1.8362
 2531SOL     OW19228   2.816   0.257   8.559 -0.6109  0.1515 -0.2734
 2531SOL    HW119229   2.864   0.296   8.632  1.1276 -0.0069 -1.3361
 2531SOL    HW219230   2.767   0.186   8.599  1.3239  0.4486  2.6303
 2532SOL     OW19231   1.226   4.057   2.969 -0.1568 -0.0064 -0.5984
 2532SOL    HW119232   1.274   3.986   3.012 -0.0617  2.3144  3.1384
 2532SOL    HW219233   1.156   4.004   2.931  1.3781 -1.2338 -1.7590
 2533SOL     OW19234   1.176   3.760   3.219 -0.3508  0.5662  0.6403
 2533SOL    HW119235   1.242   3.825   3.243  0.6399  0.6296 -2.3488
 2533SOL    HW219236   1.228   3.703   3.163 -0.7572  0.7048  0.1242
 2534SOL     OW19237   4.229   1.371  10.292 -0.2143  0.7624  0.6559
 2534SOL    HW119238   4.325   1.380  10.290 -0.3421  2.1221  0.9617
 2534SOL    HW219239   4.201   1.457  10.263 -0.7792  0.7476  1.1523
 2535SOL     OW19240   2.395   4.120  10.547 -0.4587  0.0791  0.1790
 2535SOL    HW119241   2.361   4.036  10.577 -1.1327 -0.3421 -1.7339
 2535SOL    HW219242   2.365   4.188  10.606  1.4818 -1.3337  2.8062
 2536SOL     OW19243   2.673   3.077   5.766  0.0870  0.4936  0.4304
 2536SOL    HW119244   2.642   2.987   5.761  0.3074  0.4421 -0.0547
 2536SOL    HW219245   2.767   3.065   5.778  0.2069  0.0029 -1.0512
 2537SOL     OW19246   1.329   3.297   6.402 -0.3032  0.2773 -0.0871
 2537SOL    HW119247   1.274   3.357   6.452 -0.0885  0.0397  0.4347
 2537SOL    HW219248   1.388   3.272   6.473 -0.6688 -1.4676 -0.3945
 2538SOL     OW19249   2.750   4.668   3.965  0.6382 -0.0860  0.0045
 2538SOL    HW119250   2.661   4.673   3.999  0.1003 -0.6053 -1.3144
 2538SOL    HW219251   2.738   4.664   3.870 -2.4419 -0.7073  0.4252
 2539SOL     OW19252   0.752   3.472  12.562 -0.0449  0.8233  0.1055
 2539SOL    HW119253   0.697   3.394  12.560  0.7123  0.2338  2.2881
 2539SOL    HW219254   0.836   3.435  12.590 -0.2323  0.0605 -0.3477
 2540SOL     OW19255   2.444   0.932  12.717  0.0095 -0.2626  0.4586
 2540SOL    HW119256   2.391   0.878  12.775 -0.1232  0.4416  0.9968
 2540SOL    HW219257   2.467   1.001  12.780 -0.5845  0.2459  0.1128
 2541SOL     OW19258   3.173   3.963   6.354  0.6378  0.1059 -0.1384
 2541SOL    HW119259   3.165   3.876   6.316  0.4216  0.0248  0.0922
 2541SOL    HW219260   3.156   4.022   6.280  1.2592 -0.5423 -0.7897
 2542SOL     OW19261   2.396   1.888   8.313  0.2099  0.7095 -0.0036
 2542SOL    HW119262   2.418   1.952   8.245 -0.3203  0.2024 -0.6513
 2542SOL    HW219263   2.487   1.858   8.320 -0.0300  0.2784  1.1780
 2543SOL     OW19264   1.460   4.718  14.041  0.3538  0.4242  0.8939
 2543SOL    HW119265   1.407   0.048  14.083  0.6472 -0.4660  2.7067
 2543SOL    HW219266   1.424   4.646  14.094  1.8487 -0.5603  0.5807
 2544SOL     OW19267   2.062   1.655   3.524 -0.1303 -0.1070 -0.0811
 2544SOL    HW119268   2.150   1.623   3.507  1.0369  2.7913  0.5934
 2544SOL    HW219269   2.060   1.746   3.493 -0.7999 -0.2027 -0.3153
 2545SOL     OW19270   3.960   4.485   3.458  0.2060 -0.1143  0.4404
 2545SOL    HW119271   3.902   4.504   3.532 -0.7474 -2.1545  0.2042
 2545SOL    HW219272   3.908   4.490   3.378 -1.0494 -4.6119  1.0183
 2546SOL     OW19273   2.755   0.508  15.975  0.0548  0.5447 -0.0379
 2546SOL    HW119274   2.752   0.537  15.884 -2.3593  1.0793  0.1984
 2546SOL    HW219275   2.686   0.444  15.988  0.0494  0.4665 -0.4624
 2547SOL     OW19276   4.588   4.237   8.393 -0.0449 -0.2325 -0.3888
 2547SOL    HW119277   4.643   4.289   8.335 -0.0550  1.8413  1.4507
 2547SOL    HW219278   4.611   4.146   8.375  0.1730 -0.7355  2.4088
 2548SOL     OW19279   1.571   1.969   7.496  0.0427  0.4981 -0.2218
 2548SOL    HW119280   1.488   1.993   7.455 -0.4390  2.7340  2.0963
 2548SOL    HW219281   1.542   1.913   7.568  0.3861 -0.8559 -1.1404
 2549SOL     OW19282   1.141   0.158   5.355  0.5935 -0.2056 -0.8699
 2549SOL    HW119283   1.108   0.226   5.414  1.7365  2.1492 -2.9451
 2549SOL    HW219284   1.064   0.128   5.307  0.9534 -1.8244 -0.4462
 2550SOL     OW19285   3.087   3.627  17.362 -0.1304  0.1580  0.3051
 2550SOL    HW119286   3.032   3.671  17.428 -1.1207 -1.8719  0.8526
 2550SOL    HW219287   3.140   3.701  17.334 -0.3142 -0.3745 -1.4148
 2551SOL     OW19288   0.978   3.351   8.948  0.3460 -0.3836 -0.1567
 2551SOL    HW119289   0.890   3.382   8.970  1.1643  1.3862  0.6973
 2551SOL    HW219290   0.953   3.273   8.899 -0.1659  0.4908 -1.2814
 2552SOL     OW19291   1.169   3.952   3.776  0.1765  0.5141 -0.4958
 2552SOL    HW119292   1.141   4.014   3.844  0.8685  0.6764 -0.3565
 2552SOL    HW219293   1.265   3.955   3.775  0.1185  2.5819 -0.8924
 2553SOL     OW19294   3.121   1.090  14.696 -0.0453 -0.5193  0.2052
 2553SOL    HW119295   3.192   1.065  14.756  1.2426 -4.2262 -2.8721
 2553SOL    HW219296   3.121   1.185  14.713 -1.6547 -0.6799  1.0938
 2554SOL     OW19297   4.410   3.028   6.134  0.0744  0.1425 -0.3535
 2554SOL    HW119298   4.465   3.072   6.070  1.2587 -3.1496 -1.6272
 2554SOL    HW219299   4.366   2.963   6.079  1.4488 -1.2862  0.2338
 2555SOL     OW19300   0.114   1.065   5.965 -0.4602  0.2014  0.2249
 2555SOL    HW119301   0.150   1.144   6.003  1.8299  0.1176 -1.7874
 2555SOL    HW219302   0.057   1.035   6.036  1.0621  0.3686  1.4957
 2556SOL     OW19303   3.700   1.730   6.318  0.1987 -0.5370 -0.3667
 2556SOL    HW119304   3.720   1.702   6.407  0.6097 -0.2387 -0.3658
 2556SOL    HW219305   3.717   1.822   6.336 -0.7399 -0.4983  0.3250
 2557SOL     OW19306   0.654   4.561   9.576  0.6076  0.6079 -0.3368
 2557SOL    HW119307   0.564   4.544   9.548  0.6299  0.7529 -0.4970
 2557SOL    HW219308   0.706   4.523   9.505 -0.1157 -1.3893  0.2059
 2558SOL     OW19309   4.084   3.921   6.576  1.2105 -0.2305 -1.0576
 2558SOL    HW119310   4.091   3.912   6.481  2.6815 -0.3826 -0.9377
 2558SOL    HW219311   4.169   3.959   6.596 -0.5004  2.7891  0.3592
 2559SOL     OW19312   3.836   2.042  17.397 -0.0069 -0.0895  0.1612
 2559SOL    HW119313   3.825   2.136  17.382  1.6024 -0.0415 -0.7921
 2559SOL    HW219314   3.886   2.046  17.479 -0.9909  1.3114  0.6882
 2560SOL     OW19315   3.211   2.954  14.643  0.0134 -0.4590  0.3535
 2560SOL    HW119316   3.157   2.938  14.566  0.7785  1.8037 -0.6445
 2560SOL    HW219317   3.262   2.873  14.637 -0.8017 -0.9491  0.0894
 2561SOL     OW19318   3.509   2.515  16.583  0.3707  0.5000  0.0484
 2561SOL    HW119319   3.439   2.579  16.571 -0.0041  0.1246  0.2376
 2561SOL    HW219320   3.480   2.439  16.533  0.1714  1.3327 -1.1028
 2562SOL     OW19321   1.668   0.078  12.536 -0.0876 -0.3768 -0.2193
 2562SOL    HW119322   1.668   4.733  12.488  1.1100  1.2760 -3.1225
 2562SOL    HW219323   1.638   0.133  12.463  2.6090  0.4177 -0.7292
 2563SOL     OW19324   3.487   4.690  12.593  0.3942  0.1196  0.3028
 2563SOL    HW119325   3.543   4.734  12.657 -1.3053  0.4086  1.5812
 2563SOL    HW219326   3.498   4.599  12.618  0.3029  0.4488  1.5255
 2564SOL     OW19327   1.401   3.015   2.174 -0.1924 -0.0201 -0.1908
 2564SOL    HW119328   1.478   3.055   2.213  0.5818 -0.1568 -1.5942
 2564SOL    HW219329   1.344   3.092   2.182  0.9049  0.7892 -0.2861
 2565SOL     OW19330   0.227   0.101   3.703 -0.4786 -0.4250 -0.0839
 2565SOL    HW119331   0.226   0.175   3.763 -1.3444  0.3591 -1.0503
 2565SOL    HW219332   0.245   0.024   3.757 -1.0271 -0.3563  0.1977
 2566SOL     OW19333   4.513   2.224   3.569  0.3697  0.1515 -0.4405
 2566SOL    HW119334   4.570   2.294   3.600 -1.4691  1.6701 -0.4301
 2566SOL    HW219335   4.455   2.271   3.508  0.9241  0.9085 -0.3887
 2567SOL     OW19336   2.617   3.263   6.336 -0.6731  0.5523 -0.1824
 2567SOL    HW119337   2.569   3.286   6.415 -1.1429 -1.1461  0.0305
 2567SOL    HW219338   2.549   3.260   6.269 -0.4180  2.3387 -0.5199
 2568SOL     OW19339   2.760   0.355  15.448 -0.1027  0.1776 -0.2572
 2568SOL    HW119340   2.708   0.419  15.400 -0.9612 -0.6334 -0.4134
 2568SOL    HW219341   2.768   0.395  15.535  0.2452 -0.4196 -0.0150
 2569SOL     OW19342   0.011   2.758   2.506 -0.0319 -0.5451  0.1323
 2569SOL    HW119343   4.670   2.756   2.559  0.7811  1.0085  1.4048
 2569SOL    HW219344   4.721   2.760   2.415 -0.2704 -0.0852  0.2207
 2570SOL     OW19345   4.684   3.662   2.479  0.6886  0.1947  0.3226
 2570SOL    HW119346   0.024   3.712   2.456  0.9840  0.2139  1.3402
 2570SOL    HW219347   4.719   3.579   2.447  0.1765 -0.2764  0.9813
 2571SOL     OW19348   3.024   2.391  12.378 -0.2506 -0.3204 -0.0356
 2571SOL    HW119349   2.964   2.432  12.316 -2.0628 -1.1253  1.1801
 2571SOL    HW219350   3.074   2.467  12.409  1.0908 -2.0163  1.9587
 2572SOL     OW19351   2.478   1.070   3.986 -0.6316  0.5323  0.1356
 2572SOL    HW119352   2.417   1.001   4.012 -2.0509  1.6428 -0.2406
 2572SOL    HW219353   2.420   1.147   3.989  0.6313  1.6046 -2.8543
 2573SOL     OW19354   3.816   3.479   6.953 -0.5516  0.2885  0.6651
 2573SOL    HW119355   3.905   3.444   6.953 -0.8266 -0.3959 -1.2353
 2573SOL    HW219356   3.806   3.518   6.866 -1.0081  0.1351  0.6468
 2574SOL     OW19357   0.497   4.132   2.693  0.0668 -0.1449 -0.2300
 2574SOL    HW119358   0.520   4.041   2.678  0.4441 -0.1356  0.2596
 2574SOL    HW219359   0.571   4.150   2.752  1.1338 -1.4511 -1.1841
 2575SOL     OW19360   2.560   0.299   3.770  0.1193  0.8953  0.2670
 2575SOL    HW119361   2.510   0.380   3.763 -0.8935  0.2298 -0.2368
 2575SOL    HW219362   2.506   0.256   3.704  0.5543  0.2454  0.3347
 2576SOL     OW19363   0.600   3.870   6.453 -0.5585 -0.1399 -0.9023
 2576SOL    HW119364   0.633   3.784   6.482 -0.2970  0.4190  0.4582
 2576SOL    HW219365   0.511   3.875   6.488 -0.3071 -0.7979 -0.1622
 2577SOL     OW19366   2.958   3.373   7.674  0.0034  0.1512 -0.2917
 2577SOL    HW119367   2.920   3.459   7.692  2.9442  1.6922 -1.4387
 2577SOL    HW219368   2.969   3.346   7.766 -1.2718 -0.3545 -0.2797
 2578SOL     OW19369   3.061   1.955   6.056  0.7125 -0.0428  0.3527
 2578SOL    HW119370   3.117   1.989   6.126 -0.8753  0.2138  1.5019
 2578SOL    HW219371   3.009   2.033   6.036  0.9985 -0.0457 -0.4275
 2579SOL     OW19372   4.016   4.314  13.541 -0.6844  0.2780 -0.3651
 2579SOL    HW119373   3.963   4.355  13.609  0.7381  0.5671  0.5678
 2579SOL    HW219374   4.001   4.368  13.464 -1.8737  1.9123  1.0103
 2580SOL     OW19375   3.090   3.018   7.514  0.4991  0.4995 -0.5872
 2580SOL    HW119376   3.002   3.049   7.534  0.8731  2.2479 -1.6964
 2580SOL    HW219377   3.127   3.083   7.455 -0.3465  0.6354 -0.9568
 2581SOL     OW19378   0.351   0.736  15.369 -0.0065 -0.4156  0.1765
 2581SOL    HW119379   0.314   0.797  15.305  1.1028 -1.9172 -1.8888
 2581SOL    HW219380   0.349   0.798  15.442  0.6559  0.4236 -0.5196
 2582SOL     OW19381   0.454   1.334   2.498 -0.0327  0.1450 -0.5698
 2582SOL    HW119382   0.511   1.407   2.521  0.6063 -1.1594  2.0219
 2582SOL    HW219383   0.501   1.283   2.432 -0.3179 -1.5895  0.5699
 2583SOL     OW19384   0.546   2.773   4.995  0.2078 -0.2065  0.2462
 2583SOL    HW119385   0.587   2.859   5.006  2.2845 -0.9834 -1.6566
 2583SOL    HW219386   0.621   2.718   4.973 -0.5989 -0.9225 -0.7038
 2584SOL     OW19387   0.147   3.323   6.724  0.0819 -0.0092  0.2768
 2584SOL    HW119388   0.060   3.334   6.685 -0.2792  0.0940  1.1185
 2584SOL    HW219389   0.128   3.253   6.787 -3.2967 -0.0355 -0.7678
 2585SOL     OW19390   0.415   1.344  16.336 -0.4008  0.2422 -0.1837
 2585SOL    HW119391   0.466   1.269  16.367  0.8412  1.8323  1.5553
 2585SOL    HW219392   0.349   1.281  16.307  0.0241 -0.1052 -0.4024
 2586SOL     OW19393   1.395   4.516   7.967 -0.2115  0.2903 -0.3964
 2586SOL    HW119394   1.328   4.450   7.951 -0.2373 -0.2873  2.0798
 2586SOL    HW219395   1.378   4.572   7.891  0.8022  2.9494  1.3082
 2587SOL     OW19396   2.001   2.883   0.501  0.1448  0.3043 -0.6399
 2587SOL    HW119397   2.096   2.885   0.500  0.1797 -0.2107  1.9147
 2587SOL    HW219398   1.993   2.788   0.499 -1.9403  0.5049 -3.3450
 2588SOL     OW19399   2.987   1.409   8.631 -0.6434 -0.2010 -0.3064
 2588SOL    HW119400   2.972   1.326   8.587 -1.4820  0.6069 -1.5463
 2588SOL    HW219401   3.006   1.386   8.722  2.0016 -0.4138 -0.9188
 2589SOL     OW19402   3.322   1.680   7.851  0.2125 -0.3603  0.4522
 2589SOL    HW119403   3.281   1.669   7.766 -1.5787  0.4824  1.2081
 2589SOL    HW219404   3.414   1.657   7.836  0.6950  1.7015  0.3013
 2590SOL     OW19405   1.878   4.535  16.990  0.6322  0.0949 -0.5543
 2590SOL    HW119406   1.951   4.495  17.037 -0.6995 -2.3882 -0.5930
 2590SOL    HW219407   1.799   4.486  17.013  1.3494 -1.4262 -1.2567
 2591SOL     OW19408   3.605   0.359  11.736 -0.2608 -0.4276 -0.1008
 2591SOL    HW119409   3.590   0.289  11.800 -0.7043  0.5565  0.8725
 2591SOL    HW219410   3.600   0.305  11.657 -0.9872 -0.4254 -0.0554
 2592SOL     OW19411   3.175   2.576   4.957  0.4643 -0.6045  0.1694
 2592SOL    HW119412   3.264   2.579   4.992  0.5975 -2.6638  0.0111
 2592SOL    HW219413   3.198   2.535   4.874  0.2838  0.8721 -0.6037
 2593SOL     OW19414   1.314   1.748   0.263 -0.2188 -0.1949  0.4575
 2593SOL    HW119415   1.288   1.656   0.274 -2.5620  0.3542 -0.6563
 2593SOL    HW219416   1.351   1.775   0.347  1.2146  0.1632 -0.2842
 2594SOL     OW19417   3.555   1.497  16.052 -0.1692  0.0186 -0.2906
 2594SOL    HW119418   3.631   1.551  16.028 -0.4684 -0.4511 -2.2641
 2594SOL    HW219419   3.578   1.406  16.037  0.1695 -0.0586  0.6546
 2595SOL     OW19420   0.066   2.317  14.366  0.3619  0.5426  0.5626
 2595SOL    HW119421   0.102   2.272  14.443 -1.6711 -1.0394  0.5974
 2595SOL    HW219422   4.728   2.267  14.337  1.3771  0.3951 -1.8226
 2596SOL     OW19423   4.202   1.023   4.747 -0.0386 -0.1021 -0.0070
 2596SOL    HW119424   4.176   1.038   4.656  0.6531  2.0038  0.1626
 2596SOL    HW219425   4.173   0.933   4.764  0.8516 -0.8879 -2.5174
 2597SOL     OW19426   0.302   2.181   5.015 -0.5930 -0.4818  0.0975
 2597SOL    HW119427   0.267   2.097   4.986  0.7500 -0.2933 -2.0665
 2597SOL    HW219428   0.286   2.236   4.939  0.5870  0.6246  0.6537
 2598SOL     OW19429   2.759   4.357  11.880  0.2616 -0.0964 -0.3285
 2598SOL    HW119430   2.798   4.310  11.954  0.9058  0.0652 -0.5597
 2598SOL    HW219431   2.834   4.415  11.869  0.7173 -1.0065 -1.9949
 2599SOL     OW19432   2.423   0.517   2.889  0.3602  0.2556  0.1447
 2599SOL    HW119433   2.358   0.554   2.829  1.5882  1.9037 -0.1988
 2599SOL    HW219434   2.392   0.427   2.887  1.2183 -0.0973  3.6617
 2600SOL     OW19435   3.955   1.061   8.475  0.1408  0.1473  0.3114
 2600SOL    HW119436   3.875   1.081   8.524 -0.5806  0.3218 -0.9540
 2600SOL    HW219437   3.937   0.969   8.458 -1.7025  0.8487 -1.4171
 2601SOL     OW19438   0.753   3.255   8.334  0.0557 -0.0166 -0.1381
 2601SOL    HW119439   0.713   3.259   8.421  2.1025 -0.6007  0.8341
 2601SOL    HW219440   0.674   3.230   8.286  0.6153  0.5282 -1.3535
 2602SOL     OW19441   0.427   3.211   8.507  0.1361  0.6751 -0.5140
 2602SOL    HW119442   0.411   3.148   8.437  2.0813 -0.5959  0.1760
 2602SOL    HW219443   0.490   3.159   8.558  1.3272  1.7376 -0.9128
 2603SOL     OW19444   2.259   0.601   9.682  0.3465 -0.2680  0.0022
 2603SOL    HW119445   2.209   0.531   9.639 -0.8482  1.3494 -1.2808
 2603SOL    HW219446   2.230   0.603   9.773  0.4665  0.4780  0.0203
 2604SOL     OW19447   3.762   1.771   9.265 -0.3774  0.1494  0.1712
 2604SOL    HW119448   3.766   1.689   9.315  1.0970  0.7618  1.0877
 2604SOL    HW219449   3.678   1.808   9.292  0.2833  0.9980  1.0605
 2605SOL     OW19450   4.514   1.291   8.624  0.2270  0.6864  0.2831
 2605SOL    HW119451   4.560   1.326   8.701  0.1971  1.2481  0.0522
 2605SOL    HW219452   4.575   1.223   8.596  1.4543  2.7661 -2.1902
 2606SOL     OW19453   3.799   0.536  16.400 -0.1542 -0.0780  0.3422
 2606SOL    HW119454   3.797   0.451  16.356  0.2124  0.4897 -0.7725
 2606SOL    HW219455   3.890   0.565  16.400  0.0857 -0.8358  1.4305
 2607SOL     OW19456   4.028   1.521   6.291  0.0514  0.4119 -0.3255
 2607SOL    HW119457   3.982   1.447   6.331 -3.0798  1.8193 -1.2638
 2607SOL    HW219458   4.022   1.499   6.198  4.6143 -1.7244 -0.1016
 2608SOL     OW19459   3.694   1.336   4.601 -0.3455  0.2025 -0.1597
 2608SOL    HW119460   3.743   1.397   4.546 -1.1828  1.1002  0.0994
 2608SOL    HW219461   3.652   1.279   4.536  0.5145 -1.7259  0.9978
 2609SOL     OW19462   3.931   0.854   3.699  0.1439 -0.2037 -1.1183
 2609SOL    HW119463   3.841   0.847   3.669 -0.7808 -0.3517  1.6467
 2609SOL    HW219464   3.967   0.767   3.684  0.7767 -0.1147 -0.1563
 2610SOL     OW19465   4.003   4.040  11.610  0.7003 -0.0925  0.1614
 2610SOL    HW119466   4.047   3.956  11.620 -0.5142 -0.5222  1.9196
 2610SOL    HW219467   3.976   4.049  11.701  0.4728 -0.2115  0.1038
 2611SOL     OW19468   2.671   3.015  16.805 -0.0634  0.4595 -0.0381
 2611SOL    HW119469   2.662   3.089  16.745  0.6089  0.1664 -0.5007
 2611SOL    HW219470   2.766   3.003  16.811  0.0394  0.7108 -1.1325
 2612SOL     OW19471   0.152   0.682   2.055 -0.1904 -0.2656 -0.4347
 2612SOL    HW119472   0.223   0.746   2.049 -0.0584 -0.3731  0.0074
 2612SOL    HW219473   0.192   0.598   2.033 -0.5869 -0.9416  1.4069
 2613SOL     OW19474   4.690   4.469   8.588 -0.8029 -0.2069 -0.3858
 2613SOL    HW119475   4.712   4.518   8.509  1.6971 -0.1620  0.3272
 2613SOL    HW219476   4.597   4.487   8.601 -1.3825 -2.0355 -2.1423
 2614SOL     OW19477   1.454   3.093  13.925 -0.6405 -0.0569  0.2496
 2614SOL    HW119478   1.475   3.186  13.913 -2.8295  0.3858 -0.1842
 2614SOL    HW219479   1.425   3.072  13.836  4.2871 -0.8004 -1.1748
 2615SOL     OW19480   3.665   4.271  13.189  0.5187  0.0391 -0.1119
 2615SOL    HW119481   3.666   4.352  13.241  1.3584 -0.9987  1.4905
 2615SOL    HW219482   3.634   4.305  13.106  2.6360  0.1765 -0.8361
 2616SOL     OW19483   3.116   1.415  15.623 -0.1178 -0.0964 -0.3312
 2616SOL    HW119484   3.157   1.331  15.606 -2.3631 -1.7027  2.1721
 2616SOL    HW219485   3.027   1.390  15.598 -0.3235  1.0184 -0.7390
 2617SOL     OW19486   4.512   4.736  11.333 -0.0774 -0.3749 -0.0154
 2617SOL    HW119487   4.447   4.710  11.268  0.6004 -1.6561 -0.1764
 2617SOL    HW219488   4.518   0.091  11.312  4.9716 -1.0342 -1.3462
 2618SOL     OW19489   0.784   0.489  15.442  1.0558  0.2307  0.2560
 2618SOL    HW119490   0.692   0.503  15.462  0.7274 -0.7056 -0.6628
 2618SOL    HW219491   0.813   0.556  15.505  0.1461  1.3424 -0.5065
 2619SOL     OW19492   3.720   4.503   6.441  0.3381  0.2020  0.2016
 2619SOL    HW119493   3.652   4.560   6.477 -1.0707 -1.4957  0.2349
 2619SOL    HW219494   3.684   4.486   6.355 -0.3711 -0.8975  0.7150
 2620SOL     OW19495   0.856   2.082  15.607  0.0430 -0.4532 -0.2300
 2620SOL    HW119496   0.852   1.995  15.646  0.7601 -0.3510  0.0756
 2620SOL    HW219497   0.947   2.074  15.578 -0.2960  2.5135 -2.0973
 2621SOL     OW19498   0.937   2.033   9.684 -0.0583  0.0264  0.0912
 2621SOL    HW119499   0.910   2.068   9.599  2.5849 -0.1168 -0.7994
 2621SOL    HW219500   1.003   1.971   9.653  0.1020  1.7402 -3.0092
 2622SOL     OW19501   0.592   4.332  14.567  0.0517  0.2868 -0.4659
 2622SOL    HW119502   0.547   4.406  14.607 -2.2848 -0.8902 -0.9338
 2622SOL    HW219503   0.537   4.317  14.490  1.1513 -0.0128 -1.1905
 2623SOL     OW19504   3.250   1.650   5.381 -0.0542  0.9831  0.1840
 2623SOL    HW119505   3.158   1.631   5.362  0.4398 -0.7845 -0.5033
 2623SOL    HW219506   3.265   1.649   5.475 -0.6289 -3.8510  0.2469
 2624SOL     OW19507   0.445   0.731   5.104 -0.0094 -0.5511 -0.2536
 2624SOL    HW119508   0.370   0.783   5.132  0.2653 -1.8355  2.8777
 2624SOL    HW219509   0.426   0.731   5.010  0.5867 -0.4739 -0.3758
 2625SOL     OW19510   3.023   1.883   1.648 -0.1048 -0.5797 -0.0600
 2625SOL    HW119511   3.036   1.789   1.635 -2.2352 -0.8286 -0.4553
 2625SOL    HW219512   2.932   1.874   1.678 -0.2236 -0.7499 -0.4691
 2626SOL     OW19513   0.444   4.501  14.949  0.2170  0.1741  0.1348
 2626SOL    HW119514   0.388   4.424  14.937  0.3800  0.2372 -1.0693
 2626SOL    HW219515   0.476   4.513  14.860 -1.1707  0.2451 -0.3567
 2627SOL     OW19516   3.727   0.509   5.283 -0.3353  0.2388  0.1095
 2627SOL    HW119517   3.780   0.484   5.207 -1.2763  1.3461 -0.9144
 2627SOL    HW219518   3.638   0.505   5.249  0.2324  1.0115 -1.4950
 2628SOL     OW19519   1.279   4.068   1.623  0.5519 -0.1758 -0.3580
 2628SOL    HW119520   1.200   4.070   1.678 -0.2683 -0.4201 -1.5174
 2628SOL    HW219521   1.270   3.981   1.583  0.7963 -0.6389  0.5860
 2629SOL     OW19522   4.571   1.728   5.853  0.6775 -0.5529 -0.1273
 2629SOL    HW119523   4.626   1.775   5.790  1.4669 -0.6346  0.4996
 2629SOL    HW219524   4.486   1.768   5.833  2.0546  1.6077 -1.6477
 2630SOL     OW19525   3.993   0.292  13.792  0.3195  0.1965  0.0194
 2630SOL    HW119526   4.070   0.348  13.806 -0.7801  1.4353  1.0864
 2630SOL    HW219527   3.921   0.354  13.781  1.4723  1.4103 -0.6439
 2631SOL     OW19528   0.747   1.953  10.674 -0.3183 -0.0772 -0.3625
 2631SOL    HW119529   0.826   1.968  10.622 -2.8281  1.2578 -3.7835
 2631SOL    HW219530   0.793   1.946  10.758 -0.6511 -0.6859 -0.2289
 2632SOL     OW19531   2.632   2.052   8.271  0.1985 -0.1457  0.2043
 2632SOL    HW119532   2.673   1.966   8.263  0.7084  0.1145 -0.0024
 2632SOL    HW219533   2.702   2.106   8.308 -0.3222 -0.0386  1.0266
 2633SOL     OW19534   1.062   0.177   2.317 -0.0856 -0.6237 -0.3228
 2633SOL    HW119535   1.108   0.168   2.401  1.3086  1.4044 -0.8757
 2633SOL    HW219536   1.136   0.229   2.286 -0.5031  0.0024 -0.2666
 2634SOL     OW19537   0.653   1.221   0.790 -0.1518  0.6096  0.0834
 2634SOL    HW119538   0.580   1.236   0.730 -0.9887 -0.7895  0.7360
 2634SOL    HW219539   0.725   1.267   0.747  0.9696  1.3697  2.7735
 2635SOL     OW19540   0.899   3.180  16.105 -0.3213  0.1973 -0.3000
 2635SOL    HW119541   0.824   3.121  16.092  0.3774 -0.0051 -3.2219
 2635SOL    HW219542   0.949   3.131  16.171 -0.9198 -0.8984 -0.6504
 2636SOL     OW19543   0.062   4.525   1.896  0.1279  0.2390  0.6281
 2636SOL    HW119544   0.110   4.596   1.939 -1.1801  3.0046 -2.4840
 2636SOL    HW219545   4.717   4.562   1.868  1.3767  0.2207 -3.1345
 2637SOL     OW19546   4.121   3.460  14.696 -0.6927  0.1102  0.0614
 2637SOL    HW119547   4.081   3.377  14.721  0.4756  0.5664  3.4419
 2637SOL    HW219548   4.147   3.485  14.785  0.5853  2.1736 -0.8798
 2638SOL     OW19549   0.485   4.150   6.132 -0.5749  0.0665  0.4418
 2638SOL    HW119550   0.573   4.160   6.168  0.4953 -0.8826 -1.9155
 2638SOL    HW219551   0.491   4.087   6.060  2.4187  1.0454 -0.1286
 2639SOL     OW19552   3.576   0.462  13.240  0.2864 -1.3115  0.3728
 2639SOL    HW119553   3.615   0.417  13.164 -1.9569 -0.1515 -1.4639
 2639SOL    HW219554   3.636   0.535  13.256 -0.1861 -0.4832 -1.5569
 2640SOL     OW19555   1.318   4.436   5.565  0.3672 -0.2928 -0.0484
 2640SOL    HW119556   1.402   4.435   5.520  0.9323  0.5786  0.9882
 2640SOL    HW219557   1.272   4.504   5.517 -0.1636 -0.2186  0.5692
 2641SOL     OW19558   2.979   3.922   7.989  0.1032  0.2422  0.5379
 2641SOL    HW119559   2.996   3.926   7.895  1.0951  1.0101  0.7510
 2641SOL    HW219560   2.887   3.897   7.993  0.0451  0.4973  0.7577
 2642SOL     OW19561   4.074   2.733   1.348 -0.4590 -0.0343 -0.7326
 2642SOL    HW119562   3.978   2.722   1.346 -0.8114  2.9140 -0.2801
 2642SOL    HW219563   4.089   2.828   1.343  0.7023 -0.2418 -1.0845
 2643SOL     OW19564   2.839   0.544  12.453 -1.1321  0.3819 -0.1284
 2643SOL    HW119565   2.896   0.504  12.386 -0.2770  1.9956 -0.3590
 2643SOL    HW219566   2.758   0.556  12.404 -1.0217  0.5609 -0.2686
 2644SOL     OW19567   4.470   2.726   2.915  0.3097  0.0738 -0.3349
 2644SOL    HW119568   4.430   2.702   2.999 -0.8786 -0.2651 -0.9932
 2644SOL    HW219569   4.554   2.757   2.948  0.3923 -1.1486  0.6149
 2645SOL     OW19570   2.772   2.209   6.776  0.8225  0.7528 -0.5812
 2645SOL    HW119571   2.819   2.192   6.858  1.4253 -0.0382 -1.0959
 2645SOL    HW219572   2.702   2.145   6.766  1.7058 -0.4356  0.8665
 2646SOL     OW19573   3.084   3.741   2.841  0.7895  0.0551 -0.1431
 2646SOL    HW119574   3.011   3.768   2.897 -1.0427 -1.7690 -1.6664
 2646SOL    HW219575   3.122   3.826   2.817 -1.7039  0.7235 -1.7708
 2647SOL     OW19576   2.867   4.474   6.433 -0.2734  0.3962  0.6109
 2647SOL    HW119577   2.890   4.422   6.510 -4.4984 -1.8374  0.3776
 2647SOL    HW219578   2.893   4.410   6.367 -1.5484 -0.7426  1.2257
 2648SOL     OW19579   1.525   3.502   4.248  0.2877  0.0392  0.1405
 2648SOL    HW119580   1.589   3.570   4.270 -2.2483  2.2598  0.6734
 2648SOL    HW219581   1.439   3.540   4.230  0.6858  1.7469  1.8306
 2649SOL     OW19582   1.957   1.452   3.692 -0.0834  0.0062 -0.0208
 2649SOL    HW119583   2.000   1.528   3.654  1.5519 -0.6935  0.4013
 2649SOL    HW219584   1.872   1.479   3.658 -1.9053 -3.7916  1.4283
 2650SOL     OW19585   1.276   1.332   8.963  0.0738 -0.2566  0.3278
 2650SOL    HW119586   1.245   1.290   9.044 -1.4551 -2.0959 -1.2030
 2650SOL    HW219587   1.363   1.294   8.952  1.0423  2.1931 -0.3508
 2651SOL     OW19588   2.330   4.099   0.089  0.0324 -0.4777  0.6970
 2651SOL    HW119589   2.389   4.159   0.044 -0.7935 -0.2846 -0.1263
 2651SOL    HW219590   2.329   4.023   0.030 -1.9072 -0.5860  0.8793
 2652SOL     OW19591   2.717   3.950   9.895 -1.2593 -0.2792 -0.5291
 2652SOL    HW119592   2.636   3.996   9.872 -1.0658  0.1042 -0.4549
 2652SOL    HW219593   2.741   3.998   9.975  0.1095 -1.1255 -0.4459
 2653SOL     OW19594   3.839   2.735   5.892  0.1452  0.2456  0.1597
 2653SOL    HW119595   3.869   2.714   5.804 -0.2399 -0.2615  0.1439
 2653SOL    HW219596   3.767   2.798   5.881 -0.9996 -1.3425 -1.4570
 2654SOL     OW19597   2.280   0.148   2.205 -0.1557  0.1018 -0.0424
 2654SOL    HW119598   2.233   0.203   2.142 -0.0510 -0.1446 -0.3307
 2654SOL    HW219599   2.208   0.089   2.227 -0.8962  0.8993 -0.3102
 2655SOL     OW19600   2.850   4.465   5.813  0.0403  0.0271 -0.3413
 2655SOL    HW119601   2.917   4.505   5.868  0.4681  0.3680 -1.1135
 2655SOL    HW219602   2.825   4.544   5.765 -1.6028 -0.9581 -1.1316
 2656SOL     OW19603   2.851   2.844   6.913 -0.5374 -0.1733 -0.0593
 2656SOL    HW119604   2.917   2.877   6.974 -2.5130  1.5579  1.1524
 2656SOL    HW219605   2.880   2.754   6.921  0.3359  0.0590 -0.6613
 2657SOL     OW19606   3.410   0.642   1.742  0.6472  0.3514  0.5871
 2657SOL    HW119607   3.354   0.576   1.702 -0.2596  0.4164  1.7768
 2657SOL    HW219608   3.358   0.721   1.729  1.5365  0.4688 -2.2988
 2658SOL     OW19609   1.543   3.948   0.153  0.0808  0.9277  0.3698
 2658SOL    HW119610   1.584   3.882   0.208  2.7248  0.6108 -1.9539
 2658SOL    HW219611   1.617   4.007   0.138 -0.0090  0.4408 -1.9396
 2659SOL     OW19612   3.989   0.270   5.353 -0.0661  0.0431 -0.1514
 2659SOL    HW119613   4.080   0.250   5.376 -0.6416 -3.0635 -0.7059
 2659SOL    HW219614   4.004   0.350   5.302 -1.7036 -0.3806 -1.2768
 2660SOL     OW19615   3.825   0.239   3.905 -0.1461 -0.5093 -0.0923
 2660SOL    HW119616   3.862   0.314   3.857 -0.0719  0.1037  0.9114
 2660SOL    HW219617   3.871   0.167   3.861  0.6651 -0.0643  0.0275
 2661SOL     OW19618   3.826   2.962   2.890 -0.3486 -0.0456 -0.1848
 2661SOL    HW119619   3.884   3.036   2.870 -0.7799  0.8584  1.8783
 2661SOL    HW219620   3.794   2.941   2.802  0.3150  2.1820 -0.9565
 2662SOL     OW19621   3.347   3.136   2.309  0.4820 -0.0277 -0.1766
 2662SOL    HW119622   3.359   3.224   2.273  0.5278  0.3247  0.7070
 2662SOL    HW219623   3.253   3.123   2.295  0.5821 -1.0705  0.1166
 2663SOL     OW19624   0.280   3.900  17.025  0.5233  0.5686 -0.4327
 2663SOL    HW119625   0.361   3.918  17.074  0.1907  1.4641 -0.2202
 2663SOL    HW219626   0.312   3.932  16.941  1.3551 -0.4773 -0.5245
 2664SOL     OW19627   1.094   4.549  12.610 -0.6840  0.3139 -0.1071
 2664SOL    HW119628   1.127   4.464  12.641  1.6767  1.6527  0.9900
 2664SOL    HW219629   1.179   4.588  12.592 -0.4793 -0.2881 -0.4311
 2665SOL     OW19630   1.970   4.027   6.256  0.0813  0.0077  0.4156
 2665SOL    HW119631   1.927   3.964   6.314  1.1809 -0.7405  0.4103
 2665SOL    HW219632   2.039   4.063   6.312  0.1115 -2.9358  2.2940
 2666SOL     OW19633   0.339   0.358   4.647 -0.1524  0.0572 -0.0016
 2666SOL    HW119634   0.397   0.346   4.572 -0.4554 -2.4348  0.1611
 2666SOL    HW219635   0.379   0.297   4.709  0.9567  0.6311 -0.1585
 2667SOL     OW19636   3.671   4.098  12.718  0.1813  0.1679 -0.2707
 2667SOL    HW119637   3.725   4.166  12.760  0.1159  0.3493 -0.4803
 2667SOL    HW219638   3.617   4.074  12.793  1.6475  0.6682  0.9543
 2668SOL     OW19639   3.899   3.439   0.613 -0.4055  0.9559 -0.5955
 2668SOL    HW119640   3.951   3.477   0.542  1.0730 -1.0803 -0.5917
 2668SOL    HW219641   3.969   3.429   0.678  0.7326  1.9495 -1.6710
 2669SOL     OW19642   2.803   3.661  12.918  0.1841  0.1371 -0.2250
 2669SOL    HW119643   2.882   3.671  12.865  0.4485  1.5744  0.4294
 2669SOL    HW219644   2.769   3.572  12.911  2.1301 -0.6320  0.2606
 2670SOL     OW19645   0.972   1.596   1.112  0.2854 -0.6932  0.3413
 2670SOL    HW119646   0.883   1.600   1.076  0.2711 -0.7098  0.3744
 2670SOL    HW219647   0.992   1.503   1.106 -0.0138 -0.9441  3.0786
 2671SOL     OW19648   2.369   4.656  13.297  0.4285 -0.2626  0.0105
 2671SOL    HW119649   2.426   4.682  13.225 -1.0691  2.1053 -0.3073
 2671SOL    HW219650   2.383   4.732  13.353 -3.9937  0.9790 -0.6081
 2672SOL     OW19651   4.286   1.484  12.748 -0.0832 -0.4369  0.2070
 2672SOL    HW119652   4.305   1.394  12.723  1.6749  0.5983 -2.2127
 2672SOL    HW219653   4.357   1.518  12.693  1.4749 -2.2033  1.1132
 2673SOL     OW19654   2.503   0.169   6.351  0.1512 -0.4520  0.0074
 2673SOL    HW119655   2.493   0.178   6.446  1.2985 -1.2411  0.1890
 2673SOL    HW219656   2.490   0.075   6.338  1.1535 -0.4321 -1.1136
 2674SOL     OW19657   3.636   0.946   8.321  0.1402  0.2363 -0.4739
 2674SOL    HW119658   3.691   0.870   8.340 -0.0890 -0.1889 -1.4936
 2674SOL    HW219659   3.578   0.910   8.254 -1.3274 -0.3066  1.0841
 2675SOL     OW19660   1.378   4.452  14.389 -0.3396 -0.0464 -0.0248
 2675SOL    HW119661   1.471   4.464  14.371 -0.4333 -0.0711 -0.5477
 2675SOL    HW219662   1.330   4.525  14.349  1.9197  0.6326 -1.5066
 2676SOL     OW19663   3.164   3.180  10.170 -0.5563 -0.1721  0.0590
 2676SOL    HW119664   3.085   3.188  10.117 -0.3501  0.1784 -0.1944
 2676SOL    HW219665   3.221   3.170  10.094  1.3149  0.7094  1.3294
 2677SOL     OW19666   3.360   2.666   4.334 -0.1296 -0.0943 -0.0065
 2677SOL    HW119667   3.382   2.588   4.284 -1.8748  1.4477 -3.1857
 2677SOL    HW219668   3.361   2.745   4.279  1.8668  0.8846  1.4529
 2678SOL     OW19669   1.522   3.160  16.148  0.0786  0.2782  0.2137
 2678SOL    HW119670   1.468   3.225  16.103 -1.0019 -1.6198 -1.2521
 2678SOL    HW219671   1.492   3.078  16.108 -0.9484  0.1387  1.2865
 2679SOL     OW19672   3.588   1.132   9.345 -0.0619 -0.1704 -0.0948
 2679SOL    HW119673   3.511   1.076   9.355 -1.5473  2.1102  1.4347
 2679SOL    HW219674   3.541   1.214   9.325  2.0850  1.2554  0.7446
 2680SOL     OW19675   3.975   1.963  14.383  0.3246  0.3384 -0.6371
 2680SOL    HW119676   4.016   1.934  14.301 -0.6615  1.6211 -1.5939
 2680SOL    HW219677   4.048   1.975  14.443 -1.7394  1.0473  1.7396
 2681SOL     OW19678   2.333   1.399   4.249  0.0631 -0.2480  0.5158
 2681SOL    HW119679   2.374   1.442   4.175  1.4766 -0.7848  0.9753
 2681SOL    HW219680   2.382   1.445   4.316  0.9823  0.8664 -0.9363
 2682SOL     OW19681   3.090   1.095   2.453  0.1631  0.1507  0.0468
 2682SOL    HW119682   3.020   1.068   2.512 -1.1679  0.5566 -1.3417
 2682SOL    HW219683   3.129   1.166   2.504 -0.3841  1.2261 -1.0538
 2683SOL     OW19684   4.728   3.994  10.978 -0.1317  0.2043  0.6016
 2683SOL    HW119685   4.669   3.928  10.941 -0.7123  1.1459 -0.1464
 2683SOL    HW219686   0.007   4.053  10.904 -1.5828 -0.8934 -0.6117
 2684SOL     OW19687   3.592   0.641   4.380 -0.1466  0.3910 -0.0214
 2684SOL    HW119688   3.513   0.616   4.332  0.6588  0.9282 -1.6295
 2684SOL    HW219689   3.628   0.724   4.347 -0.7677  0.8079  0.3531
 2685SOL     OW19690   2.769   3.106   6.954  0.1313 -0.0195 -0.0470
 2685SOL    HW119691   2.787   3.017   6.924 -2.1473 -0.5796  0.2070
 2685SOL    HW219692   2.814   3.159   6.888  0.4646 -2.5402 -1.8539
 2686SOL     OW19693   3.725   2.465   2.495 -0.1219 -0.4166 -0.1139
 2686SOL    HW119694   3.690   2.487   2.408  0.9691 -0.0826 -0.4713
 2686SOL    HW219695   3.802   2.419   2.463 -0.0832  0.1857 -0.9003
 2687SOL     OW19696   2.245   3.420   1.542 -0.3424 -0.3573 -0.1075
 2687SOL    HW119697   2.314   3.374   1.494 -1.9506 -0.7811 -1.9778
 2687SOL    HW219698   2.185   3.419   1.467 -3.7411  0.0992  2.6110
 2688SOL     OW19699   4.035   1.997   6.514 -0.5419  0.4224  0.2873
 2688SOL    HW119700   4.023   1.902   6.518 -1.7396  0.6497  2.2735
 2688SOL    HW219701   4.121   1.998   6.472 -1.3502 -0.2851 -1.3786
 2689SOL     OW19702   0.755   1.841   8.510  0.4665 -0.2214 -0.0922
 2689SOL    HW119703   0.753   1.771   8.575 -0.2292 -2.2494 -2.2917
 2689SOL    HW219704   0.766   1.788   8.432  1.0477 -1.7735  1.0460
 2690SOL     OW19705   0.268   1.711   6.255 -0.3210  0.3170 -0.2593
 2690SOL    HW119706   0.272   1.787   6.312  2.5518  0.7397 -1.0262
 2690SOL    HW219707   0.349   1.724   6.205 -0.6746 -1.1535 -1.2313
 2691SOL     OW19708   3.830   1.454  14.267 -0.5690  0.2107  0.4711
 2691SOL    HW119709   3.767   1.526  14.273 -0.9125 -0.1765  1.5892
 2691SOL    HW219710   3.877   1.480  14.346 -0.0873  1.6466 -0.2976
 2692SOL     OW19711   0.414   0.534   4.132 -0.2877  0.3037  0.3062
 2692SOL    HW119712   0.356   0.488   4.192  1.2621 -0.8929  0.8984
 2692SOL    HW219713   0.496   0.515   4.177 -0.4577 -2.4524 -0.5576
 2693SOL     OW19714   1.621   2.395   2.659 -0.1905 -0.6191 -0.3844
 2693SOL    HW119715   1.705   2.361   2.688 -1.1770 -1.9672  0.8751
 2693SOL    HW219716   1.653   2.468   2.605 -0.5944  1.4739  2.1932
 2694SOL     OW19717   0.468   1.873   6.130  0.7229  0.0713  0.2620
 2694SOL    HW119718   0.526   1.884   6.055  0.8659 -0.1877  0.3342
 2694SOL    HW219719   0.469   1.960   6.172 -1.3056 -0.9584  2.4866
 2695SOL     OW19720   2.969   1.345  12.962  0.1732  0.1340  0.6042
 2695SOL    HW119721   2.962   1.414  12.896 -1.7619 -1.0911 -0.5067
 2695SOL    HW219722   3.030   1.281  12.923  1.6976  1.1123  1.4004
 2696SOL     OW19723   2.688   2.142   7.156  0.2207 -0.1581  0.0672
 2696SOL    HW119724   2.624   2.211   7.169 -0.5654 -0.6338 -1.2711
 2696SOL    HW219725   2.751   2.154   7.227 -0.8755 -0.5522  1.1092
 2697SOL     OW19726   1.285   3.580   9.311 -0.3975  0.5320  0.2127
 2697SOL    HW119727   1.210   3.524   9.292 -0.9165  1.2793  0.0998
 2697SOL    HW219728   1.352   3.513   9.327 -0.6139 -0.2586 -2.1808
 2698SOL     OW19729   1.933   1.508   6.856  0.9072  0.0855  0.2726
 2698SOL    HW119730   1.861   1.557   6.895  1.7538 -1.6236  3.9808
 2698SOL    HW219731   2.010   1.555   6.889  1.2599  0.1488 -0.6469
 2699SOL     OW19732   3.905   2.254   7.856  0.4194 -0.0841 -0.0308
 2699SOL    HW119733   3.895   2.252   7.951 -1.8959  1.9536 -0.2047
 2699SOL    HW219734   3.962   2.179   7.838 -0.9181 -0.6310 -2.0071
 2700SOL     OW19735   3.014   1.747   8.869 -0.2883  0.3996  0.2391
 2700SOL    HW119736   2.939   1.779   8.920  0.0912 -0.4254  1.3116
 2700SOL    HW219737   3.048   1.834   8.849  3.6150 -1.1572  0.0811
 2701SOL     OW19738   3.846   2.394   1.793 -0.3280 -0.1259 -0.0105
 2701SOL    HW119739   3.896   2.313   1.785 -1.8795 -1.0584 -0.1779
 2701SOL    HW219740   3.914   2.461   1.803  0.7897 -1.2609 -0.0089
 2702SOL     OW19741   0.791   4.591  16.143  0.0883 -0.0327 -0.4578
 2702SOL    HW119742   0.860   4.611  16.079  0.3177 -0.5355 -0.3687
 2702SOL    HW219743   0.737   4.671  16.143  0.1139 -0.0263  0.9976
 2703SOL     OW19744   1.838   3.953   1.874  0.1920  0.2571  0.7663
 2703SOL    HW119745   1.843   3.922   1.783  0.1995 -1.1819  1.2615
 2703SOL    HW219746   1.833   4.045   1.849  2.5616  0.2417  0.2284
 2704SOL     OW19747   1.364   0.831   7.471 -0.2594 -0.1696 -0.2602
 2704SOL    HW119748   1.430   0.776   7.514  0.3291 -0.4247 -1.4805
 2704SOL    HW219749   1.318   0.781   7.405 -2.5956  0.8396  0.5996
 2705SOL     OW19750   1.118   0.857   2.919 -0.4841 -0.7283 -0.1675
 2705SOL    HW119751   1.155   0.944   2.900  1.5361 -1.8748 -1.5804
 2705SOL    HW219752   1.023   0.866   2.921 -0.5494 -1.2735 -0.7239
 2706SOL     OW19753   3.864   3.411   5.404 -0.3173 -0.7144  0.8753
 2706SOL    HW119754   3.769   3.408   5.394 -0.2757 -0.6179  0.4789
 2706SOL    HW219755   3.880   3.336   5.462  0.1224  0.0875  1.7932
 2707SOL     OW19756   2.788   4.386   7.129  0.1076 -0.3846 -0.4720
 2707SOL    HW119757   2.823   4.475   7.120 -0.0526 -0.3008 -0.2477
 2707SOL    HW219758   2.857   4.344   7.181  0.2194 -0.5102 -0.7195
 2708SOL     OW19759   0.471   4.452   8.405  0.0506  0.1203 -0.1826
 2708SOL    HW119760   0.520   4.460   8.323 -1.1200 -0.4198 -0.9320
 2708SOL    HW219761   0.486   4.367   8.444 -1.0271 -0.6768 -1.4866
 2709SOL     OW19762   2.919   3.080   3.362  0.2953 -0.2313 -0.0579
 2709SOL    HW119763   2.939   3.011   3.299 -2.4207 -1.3582  0.3424
 2709SOL    HW219764   2.827   3.099   3.348  0.1514 -2.0043 -1.5525
 2710SOL     OW19765   1.541   3.501   7.057 -0.9309  0.4215 -0.9516
 2710SOL    HW119766   1.493   3.569   7.010  1.0201  1.9824 -0.6503
 2710SOL    HW219767   1.501   3.513   7.143 -1.3747 -0.5450 -1.0234
 2711SOL     OW19768   1.678   4.565   2.718  0.3056 -0.0058 -0.3146
 2711SOL    HW119769   1.644   4.511   2.789 -1.4056  0.4754 -0.7650
 2711SOL    HW219770   1.603   4.576   2.660 -0.0697 -2.0834 -0.2268
 2712SOL     OW19771   4.305   3.332   2.921  0.7964 -0.9045  0.0353
 2712SOL    HW119772   4.310   3.368   3.009  0.1349  4.1212 -1.9414
 2712SOL    HW219773   4.267   3.408   2.876  1.5680 -1.4110 -1.4760
 2713SOL     OW19774   4.228   3.129   4.061  0.3120  0.1950  0.2767
 2713SOL    HW119775   4.157   3.066   4.043 -0.7601  1.6071 -0.4760
 2713SOL    HW219776   4.198   3.213   4.026  0.4229  0.1327  0.0329
 2714SOL     OW19777   2.292   3.208  12.913  0.1203 -0.1380 -0.0043
 2714SOL    HW119778   2.244   3.207  12.996 -0.3702 -0.3150 -0.2863
 2714SOL    HW219779   2.235   3.145  12.867 -1.1709  0.9316  0.1464
 2715SOL     OW19780   4.497   1.860  11.492 -0.6968  0.3324 -0.2532
 2715SOL    HW119781   4.438   1.889  11.562 -0.5156  0.0624  0.0102
 2715SOL    HW219782   4.513   1.773  11.530  0.2817  0.2551 -0.8646
 2716SOL     OW19783   1.024   0.859  16.661 -0.6643 -0.1151 -0.1962
 2716SOL    HW119784   1.022   0.805  16.740 -1.7426 -1.2694 -1.0258
 2716SOL    HW219785   1.058   0.939  16.702  0.0531 -1.0536  1.0210
 2717SOL     OW19786   2.368   2.349  17.195 -0.5181 -0.1813 -0.5118
 2717SOL    HW119787   2.283   2.368  17.155 -0.0499 -1.9383 -2.3544
 2717SOL    HW219788   2.371   2.254  17.202 -0.4122 -0.1800 -0.5412
 2718SOL     OW19789   2.630   0.113   5.868  0.2038 -0.4361  0.5629
 2718SOL    HW119790   2.572   0.116   5.793 -0.8105 -2.2919  1.2831
 2718SOL    HW219791   2.658   0.204   5.881  0.5922 -0.4346 -0.3049
 2719SOL     OW19792   1.743   3.236   3.140  0.5159 -0.3308 -0.2634
 2719SOL    HW119793   1.814   3.212   3.199 -0.1885 -4.4421 -1.1036
 2719SOL    HW219794   1.673   3.187   3.184 -1.8962  0.9471 -2.6829
 2720SOL     OW19795   4.368   4.487   2.005 -0.1274  0.3751 -0.3583
 2720SOL    HW119796   4.274   4.479   2.016 -0.0002 -1.7585 -0.8980
 2720SOL    HW219797   4.399   4.523   2.088 -1.5285 -0.1802  0.3968
 2721SOL     OW19798   2.167   0.186   7.059 -0.8416  0.4037 -0.0172
 2721SOL    HW119799   2.163   0.238   6.979  0.6542  0.5442 -0.0116
 2721SOL    HW219800   2.074   0.167   7.069 -0.4808 -2.5546 -2.2901
 2722SOL     OW19801   1.702   1.399   0.638  0.0789  0.2217 -0.1084
 2722SOL    HW119802   1.675   1.486   0.610 -0.5394 -0.2817 -1.0800
 2722SOL    HW219803   1.669   1.402   0.728 -0.9166 -0.9785 -0.4241
 2723SOL     OW19804   2.371   4.136   5.737 -0.2672 -0.5994  0.3950
 2723SOL    HW119805   2.360   4.186   5.818 -2.3622  0.7633 -0.7243
 2723SOL    HW219806   2.403   4.209   5.685  1.1475  0.3566  2.6233
 2724SOL     OW19807   1.552   4.034   9.836  0.4038 -0.2449  0.6400
 2724SOL    HW119808   1.606   4.092   9.782 -1.1412 -0.6770 -1.3569
 2724SOL    HW219809   1.464   4.058   9.808  0.8339 -1.2391 -1.6076
 2725SOL     OW19810   1.597   2.566  12.137 -0.2687 -0.1812  0.2683
 2725SOL    HW119811   1.671   2.554  12.077 -0.5467 -0.6968  0.0265
 2725SOL    HW219812   1.547   2.618  12.075 -1.9913 -0.2997  1.5703
 2726SOL     OW19813   0.126   2.155  12.279 -0.5017  0.2885  0.5874
 2726SOL    HW119814   0.218   2.180  12.289  0.0629 -1.4765 -0.3715
 2726SOL    HW219815   0.131   2.095  12.353 -2.3584 -0.0574  0.4328
 2727SOL     OW19816   2.235   3.302   2.957 -0.1081  0.3222  0.3125
 2727SOL    HW119817   2.160   3.361   2.946  1.2734  2.1736  0.8375
 2727SOL    HW219818   2.188   3.222   2.934 -0.4502  0.8793 -0.9530
 2728SOL     OW19819   2.987   3.832   3.632  0.0842  0.1683  0.5486
 2728SOL    HW119820   2.968   3.772   3.559  0.4438 -1.9420  2.1808
 2728SOL    HW219821   3.041   3.893   3.581 -1.0686  1.8989  1.4061
 2729SOL     OW19822   1.193   4.499   2.942 -0.3431  0.1255  0.8874
 2729SOL    HW119823   1.125   4.432   2.950  0.8447 -0.9824  1.8223
 2729SOL    HW219824   1.253   4.459   3.005 -0.0189 -3.3263 -1.6238
 2730SOL     OW19825   3.616   0.589   3.607 -0.0581 -0.1667 -0.4957
 2730SOL    HW119826   3.673   0.526   3.649  0.6303  1.9796  1.7856
 2730SOL    HW219827   3.590   0.542   3.528 -0.9608  1.8436 -1.3999
 2731SOL     OW19828   3.257   3.440  17.447  0.3698  0.1404 -0.8718
 2731SOL    HW119829   3.230   3.387  17.522 -0.7947 -0.2540 -1.5660
 2731SOL    HW219830   3.187   3.506  17.444 -1.2920 -1.5545  0.6417
 2732SOL     OW19831   2.305   4.128  15.122 -0.0068 -0.5668 -0.3087
 2732SOL    HW119832   2.294   4.129  15.217 -0.6516  0.3872 -0.4028
 2732SOL    HW219833   2.382   4.183  15.112 -1.3065  1.1073 -1.0784
 2733SOL     OW19834   4.648   2.357  12.025  0.7886 -0.0824  0.3924
 2733SOL    HW119835   4.586   2.427  12.047  1.1772  0.1419  0.7679
 2733SOL    HW219836   4.731   2.392  12.057  0.7920  0.1608  0.1198
 2734SOL     OW19837   4.264   1.641   3.459 -0.4647  0.4475  0.3418
 2734SOL    HW119838   4.225   1.554   3.463  1.6461 -0.4981  0.3386
 2734SOL    HW219839   4.188   1.691   3.491 -0.0522  0.6952  0.9435
 2735SOL     OW19840   3.286   3.432   7.154  0.6738  0.2955  0.2678
 2735SOL    HW119841   3.206   3.385   7.178 -0.1063  1.7783  0.5533
 2735SOL    HW219842   3.251   3.504   7.100  2.2572  0.4606 -0.5387
 2736SOL     OW19843   4.601   3.414   8.511 -0.0034  0.2420  0.3914
 2736SOL    HW119844   4.518   3.377   8.481  0.3949 -0.7286  0.4982
 2736SOL    HW219845   4.570   3.504   8.519  0.2878  0.2838  1.0800
 2737SOL     OW19846   3.559   1.110   7.410 -0.2990  0.2773 -0.0240
 2737SOL    HW119847   3.478   1.064   7.386  0.7412 -1.8116  0.4327
 2737SOL    HW219848   3.538   1.192   7.366  0.6350 -0.8451 -2.5842
 2738SOL     OW19849   1.744   0.787   7.561  0.4108  0.1162  0.2868
 2738SOL    HW119850   1.799   0.715   7.528  1.5920  0.7321  0.9088
 2738SOL    HW219851   1.690   0.795   7.482  0.1045 -1.9564  0.2782
 2739SOL     OW19852   1.409   0.829   0.105 -0.0829  0.1460  0.1709
 2739SOL    HW119853   1.461   0.754   0.078 -0.6404 -0.4211  0.6759
 2739SOL    HW219854   1.321   0.793   0.116 -0.0375  0.0871  0.3505
 2740SOL     OW19855   1.517   1.813   6.699 -0.2739  0.2764 -0.6440
 2740SOL    HW119856   1.529   1.800   6.793 -0.9940  0.8181 -0.4725
 2740SOL    HW219857   1.489   1.903   6.686 -3.1651 -0.5123  0.0281
 2741SOL     OW19858   4.715   0.727  13.480 -0.2788 -0.1965 -0.2576
 2741SOL    HW119859   4.621   0.729  13.461  0.0290 -0.5695 -1.7634
 2741SOL    HW219860   4.711   0.688  13.567 -1.2430 -1.8884 -1.0543
 2742SOL     OW19861   2.686   3.959   8.931  0.7559 -0.2828  0.0799
 2742SOL    HW119862   2.685   4.035   8.990  1.4962 -0.3042  0.1182
 2742SOL    HW219863   2.652   3.896   8.995  4.4918 -1.0000  1.3903
 2743SOL     OW19864   0.177   1.063   8.023  0.0756  0.3087  0.0200
 2743SOL    HW119865   0.189   1.063   8.118 -2.5677 -0.8045  0.3329
 2743SOL    HW219866   0.187   1.157   8.008  1.6502 -0.3209 -2.9885
 2744SOL     OW19867   2.836   3.830   5.580  0.1686  0.1467  0.5731
 2744SOL    HW119868   2.814   3.829   5.674 -2.5231 -3.5997 -0.0574
 2744SOL    HW219869   2.840   3.923   5.558 -2.4996  0.3642  0.9210
 2745SOL     OW19870   1.227   0.269   9.152  0.2306 -0.3549 -0.3313
 2745SOL    HW119871   1.247   0.211   9.079  2.3575 -0.3797  0.2819
 2745SOL    HW219872   1.133   0.250   9.150 -0.3531  2.1865  2.6408
 2746SOL     OW19873   3.420   1.029   3.847 -0.0909 -0.4757 -1.0569
 2746SOL    HW119874   3.335   1.048   3.887 -0.1055  0.0365 -1.3352
 2746SOL    HW219875   3.401   0.987   3.763 -1.5915  0.0047 -0.9520
 2747SOL     OW19876   1.891   3.792   4.475 -0.3344 -0.8841  0.5445
 2747SOL    HW119877   1.986   3.800   4.462 -0.5470 -0.4338 -0.7467
 2747SOL    HW219878   1.872   3.853   4.547  1.4666  0.4989 -0.1332
 2748SOL     OW19879   4.711   4.065   4.128 -0.1305  0.5929  0.3116
 2748SOL    HW119880   4.674   4.141   4.084  0.7653 -0.2917 -1.9341
 2748SOL    HW219881   4.735   4.010   4.053  1.0524  0.6617  0.6331
 2749SOL     OW19882   0.582   3.344  16.072  0.6345 -0.2232  0.6018
 2749SOL    HW119883   0.622   3.396  16.141  2.1078  0.5476 -0.8291
 2749SOL    HW219884   0.610   3.253  16.081  2.0832  0.0789 -0.7007
 2750SOL     OW19885   0.972   1.471   3.694 -0.0714  0.4420  0.1947
 2750SOL    HW119886   0.939   1.399   3.748  0.1256  0.5252  0.4285
 2750SOL    HW219887   1.045   1.433   3.646 -0.1500  1.2623 -0.5833
 2751SOL     OW19888   0.129   1.376   0.279  0.4568 -0.4309 -0.0693
 2751SOL    HW119889   0.096   1.288   0.299 -0.4933 -0.2059 -0.6756
 2751SOL    HW219890   0.070   1.414   0.344  1.1725  2.0415 -0.8641
 2752SOL     OW19891   4.650   4.012   2.131  0.0034  0.0379 -0.3630
 2752SOL    HW119892   4.639   4.075   2.060 -0.9461  0.2072 -0.0686
 2752SOL    HW219893   4.727   3.966   2.099 -0.6129 -0.6102 -0.9301
 2753SOL     OW19894   3.007   2.268   2.998  0.4116  0.3315  0.3916
 2753SOL    HW119895   2.995   2.174   3.014  1.0717  0.2581  0.4472
 2753SOL    HW219896   2.990   2.295   3.089  1.8928 -1.5669  1.2203
 2754SOL     OW19897   3.478   3.178  10.404  0.1187 -0.2471  0.4532
 2754SOL    HW119898   3.399   3.129  10.429 -0.6839  1.0291  0.4469
 2754SOL    HW219899   3.509   3.219  10.485 -0.1374 -0.6359  0.7518
 2755SOL     OW19900   4.053   4.483   9.886  0.0171  0.0188  0.1109
 2755SOL    HW119901   4.007   4.532   9.954 -0.1293 -1.1046  0.8138
 2755SOL    HW219902   4.017   4.531   9.811  0.8291  0.3100 -0.0846
 2756SOL     OW19903   2.199   4.336  10.724 -0.0818 -0.2032  0.3384
 2756SOL    HW119904   2.221   4.424  10.755 -0.0272 -0.1999  0.2922
 2756SOL    HW219905   2.198   4.285  10.804  1.5032 -0.2272  0.3590
 2757SOL     OW19906   4.069   4.590   2.859  0.3166  0.2903  0.5549
 2757SOL    HW119907   4.129   4.642   2.912 -2.0548  0.7063  2.8337
 2757SOL    HW219908   4.137   4.545   2.808  0.6306  2.4783 -0.9301
 2758SOL     OW19909   3.734   4.635  13.876  0.4108 -0.1755 -0.1324
 2758SOL    HW119910   3.699   4.563  13.929 -0.0593 -1.0645 -1.6396
 2758SOL    HW219911   3.778   4.692  13.938 -1.8781  2.0587 -0.5679
 2759SOL     OW19912   3.792   2.325  17.396  0.4896 -0.1652  0.0887
 2759SOL    HW119913   3.853   2.344  17.468 -0.3420  2.4758  0.0713
 2759SOL    HW219914   3.782   2.417  17.372 -1.6770 -0.9625 -2.1249
 2760SOL     OW19915   0.954   1.360   5.524  0.6143  0.8553  0.5088
 2760SOL    HW119916   0.989   1.297   5.462  0.9080  0.9714  0.5588
 2760SOL    HW219917   0.873   1.401   5.491  1.1289  0.3453 -1.3867
 2761SOL     OW19918   0.817   2.189   2.209 -0.2537  0.3465 -0.6789
 2761SOL    HW119919   0.878   2.118   2.187 -0.5698 -0.9156  2.4966
 2761SOL    HW219920   0.754   2.156   2.145  1.1775 -2.5564 -0.5854
 2762SOL     OW19921   0.671   2.649   6.336 -0.1350  1.1045  0.2135
 2762SOL    HW119922   0.724   2.714   6.290  0.1982 -0.4347 -1.5903
 2762SOL    HW219923   0.589   2.699   6.333 -1.1513 -0.8409 -4.3813
 2763SOL     OW19924   3.372   0.371  10.146 -0.4190 -0.3713  0.2446
 2763SOL    HW119925   3.405   0.286  10.115  0.8048  0.6981 -1.4429
 2763SOL    HW219926   3.336   0.401  10.062 -1.1198 -0.3782  0.5438
 2764SOL     OW19927   1.795   3.445  14.186 -0.1561  0.0202  0.1835
 2764SOL    HW119928   1.806   3.522  14.241 -0.5831 -1.4613  2.3587
 2764SOL    HW219929   1.800   3.484  14.099  2.4074  1.1128  0.8250
 2765SOL     OW19930   3.810   0.429   8.871 -0.2496  0.1927 -0.2427
 2765SOL    HW119931   3.822   0.524   8.869  1.6349 -0.0358  0.4048
 2765SOL    HW219932   3.832   0.407   8.780  2.1868  0.1280  0.3751
 2766SOL     OW19933   2.365   1.426  17.345 -0.1799  0.2665 -0.1752
 2766SOL    HW119934   2.433   1.435  17.412 -0.1809 -0.4785 -0.0772
 2766SOL    HW219935   2.398   1.341  17.315  0.4463 -0.1778  1.7603
 2767SOL     OW19936   0.035   2.076  10.199  0.1505  0.2684  0.2983
 2767SOL    HW119937   4.707   2.013  10.171  0.2587 -0.2252  1.1484
 2767SOL    HW219938   0.015   2.152  10.145 -1.5640 -0.9638 -0.7813
 2768SOL     OW19939   1.947   1.888  13.531 -0.1923 -0.2680  0.4392
 2768SOL    HW119940   1.853   1.894  13.513  0.0203 -1.1346 -0.9847
 2768SOL    HW219941   1.958   1.855  13.620 -2.8144 -0.0654  0.8496
 2769SOL     OW19942   2.648   3.995  14.276  0.1258  0.1618 -0.6494
 2769SOL    HW119943   2.689   4.078  14.252  0.9278 -0.5979 -1.8742
 2769SOL    HW219944   2.595   3.986  14.196 -2.4381 -0.3854  1.1315
 2770SOL     OW19945   0.885   4.079   3.864  0.2217  0.5886 -0.4678
 2770SOL    HW119946   0.976   4.110   3.861  0.0879  1.1267  1.0437
 2770SOL    HW219947   0.868   4.078   3.958  0.7373 -0.0212 -0.3881
 2771SOL     OW19948   3.707   1.248   1.760  0.2644  0.2657  1.0819
 2771SOL    HW119949   3.746   1.193   1.828  1.4732  0.6883  0.7192
 2771SOL    HW219950   3.713   1.186   1.687 -1.1040  1.6789 -0.2350
 2772SOL     OW19951   0.668   3.475  16.287 -0.4441  0.2189 -0.9650
 2772SOL    HW119952   0.760   3.472  16.262 -0.5554  0.9184 -1.4560
 2772SOL    HW219953   0.642   3.557  16.243 -1.6964 -0.6840 -1.9153
 2773SOL     OW19954   1.907   4.098   3.685 -0.1062  0.3780  0.1490
 2773SOL    HW119955   1.980   4.160   3.693 -0.0038  0.1731  0.8606
 2773SOL    HW219956   1.874   4.101   3.775  0.0317  0.3349  0.2016
 2774SOL     OW19957   3.907   2.758   7.683 -0.0146  0.3779  0.4695
 2774SOL    HW119958   4.000   2.736   7.685 -0.9368 -3.3324  1.3981
 2774SOL    HW219959   3.910   2.823   7.613 -0.2881  1.3882  1.3862
 2775SOL     OW19960   4.356   2.905   9.258 -0.0207  0.4096 -0.0410
 2775SOL    HW119961   4.363   3.001   9.259  0.3367  0.3797  0.4591
 2775SOL    HW219962   4.323   2.893   9.348 -0.7906  0.0467 -0.3726
 2776SOL     OW19963   0.798   0.568  15.172  0.3219 -0.1622 -0.6854
 2776SOL    HW119964   0.810   0.535  15.261  1.3952  1.3907 -0.2387
 2776SOL    HW219965   0.712   0.608  15.183  0.8362  0.5273  0.8392
 2777SOL     OW19966   2.353   0.262   7.763 -0.2628 -0.4803 -0.7090
 2777SOL    HW119967   2.284   0.327   7.780  1.2456  1.4404 -1.9775
 2777SOL    HW219968   2.312   0.203   7.699 -0.8925  0.4309 -1.1404
 2778SOL     OW19969   4.069   2.332   8.732  0.5203 -0.2542 -0.4990
 2778SOL    HW119970   4.125   2.350   8.808  1.3897 -0.0057 -1.1989
 2778SOL    HW219971   4.132   2.298   8.669 -2.0178 -1.1747 -2.5085
 2779SOL     OW19972   2.189   1.969   8.852 -0.1197  0.3841 -0.0799
 2779SOL    HW119973   2.141   1.895   8.889  0.0458 -0.0081 -0.6451
 2779SOL    HW219974   2.176   1.957   8.757  3.0927 -0.0979 -0.4398
 2780SOL     OW19975   3.009   2.107   4.881 -0.6468 -0.5389  0.6860
 2780SOL    HW119976   2.978   2.050   4.812 -2.5618  1.7884 -0.3566
 2780SOL    HW219977   3.102   2.087   4.869  0.4347  4.1910  1.0974
 2781SOL     OW19978   1.219   3.597   2.974  0.5131 -0.3515  0.3095
 2781SOL    HW119979   1.226   3.502   2.984  1.8033 -0.0554  2.2300
 2781SOL    HW219980   1.176   3.613   2.890  0.5480 -1.0383  0.1661
 2782SOL     OW19981   0.764   3.731  15.005  0.5106 -0.1285 -0.4493
 2782SOL    HW119982   0.822   3.694  14.939  0.2517  1.3056 -1.4855
 2782SOL    HW219983   0.695   3.667  14.991  0.3501 -0.3878  1.5501
 2783SOL     OW19984   1.316   0.286   8.385 -0.2943  0.0224  0.5227
 2783SOL    HW119985   1.390   0.300   8.443  0.3165  1.7358 -0.6940
 2783SOL    HW219986   1.283   0.374   8.370  1.7197  0.3252 -2.0790
 2784SOL     OW19987   0.538   1.629  15.994 -0.6069 -0.2915 -0.8685
 2784SOL    HW119988   0.537   1.680  15.913 -0.1888  1.3627  0.1721
 2784SOL    HW219989   0.473   1.673  16.050 -0.6985 -1.3314 -0.1558
 2785SOL     OW19990   0.040   0.010   8.722  0.0486  0.1386  0.3450
 2785SOL    HW119991   0.094   4.700   8.660  0.3255  1.6141 -0.5373
 2785SOL    HW219992   0.106   0.031   8.788  1.4347 -0.3335 -0.9075
 2786SOL     OW19993   0.128   2.953   7.403 -0.2664 -0.0643 -0.0557
 2786SOL    HW119994   0.055   2.953   7.342  0.4299  0.0113 -0.8883
 2786SOL    HW219995   0.162   2.863   7.402 -0.8328 -0.2572 -1.8434
 2787SOL     OW19996   2.869   3.735  16.126 -0.3037  0.9169 -0.2145
 2787SOL    HW119997   2.783   3.770  16.102 -1.5527 -0.9841  1.5022
 2787SOL    HW219998   2.914   3.749  16.043  0.7271 -0.9441  0.0483
 2788SOL     OW19999   3.179   3.715  15.814 -0.2354 -0.4210  0.1853
 2788SOL    HW120000   3.248   3.778  15.831 -0.8142  0.2336  0.1229
 2788SOL    HW220001   3.205   3.690  15.725  0.2142 -1.8442  0.7186
 2789SOL     OW20002   4.047   1.718   6.488  0.7081  1.1396 -0.7543
 2789SOL    HW120003   4.028   1.650   6.424 -0.0343 -0.9985  1.7627
 2789SOL    HW220004   4.143   1.726   6.485  1.0133 -1.3919  3.1695
 2790SOL     OW20005   0.942   3.194   6.321  0.4634 -0.1110 -0.4876
 2790SOL    HW120006   0.930   3.156   6.234  1.8686 -0.9580 -0.3174
 2790SOL    HW220007   0.915   3.285   6.307 -0.4660 -0.1693  0.9841
 2791SOL     OW20008   3.358   4.109   6.776 -0.0904 -0.0535  0.1688
 2791SOL    HW120009   3.356   4.203   6.795  1.2567  0.2496 -1.1566
 2791SOL    HW220010   3.370   4.115   6.681  0.7939 -1.4469  0.2012
 2792SOL     OW20011   2.593   4.190   9.099  0.8905 -0.2304  0.0282
 2792SOL    HW120012   2.671   4.245   9.088  0.1083  0.9382  0.3040
 2792SOL    HW220013   2.537   4.254   9.143 -2.8695 -1.7126 -2.6126
 2793SOL     OW20014   1.913   1.089   5.545  0.2225 -0.1499 -0.1648
 2793SOL    HW120015   1.935   1.169   5.497  1.1044 -0.7043 -0.6920
 2793SOL    HW220016   1.982   1.093   5.611  1.1391 -0.7187 -1.0829
 2794SOL     OW20017   1.154   3.685   2.419  0.1540 -0.0403 -0.2730
 2794SOL    HW120018   1.164   3.593   2.442 -0.9506  0.5845  2.8075
 2794SOL    HW220019   1.237   3.732   2.433  0.6459 -1.5449  1.8300
 2795SOL     OW20020   2.450   0.347   7.296  0.9355 -0.3712  0.0482
 2795SOL    HW120021   2.394   0.275   7.266  0.9550 -0.2762 -0.2104
 2795SOL    HW220022   2.485   0.322   7.382 -1.0556  0.0713  0.9781
 2796SOL     OW20023   3.868   2.747  15.324  0.3997  0.2804 -0.0235
 2796SOL    HW120024   3.813   2.702  15.387 -0.6063  1.6188  0.0630
 2796SOL    HW220025   3.817   2.821  15.291  1.5296  0.8274 -0.5753
 2797SOL     OW20026   3.738   4.375   7.099  0.3906 -0.2241 -0.2468
 2797SOL    HW120027   3.789   4.297   7.122 -0.4464  0.3299  3.4840
 2797SOL    HW220028   3.648   4.344   7.089 -0.5010  1.6310  2.2706
 2798SOL     OW20029   3.794   3.148   2.653 -0.6196  0.0393  0.2438
 2798SOL    HW120030   3.888   3.167   2.652 -0.3890 -1.0902 -1.2966
 2798SOL    HW220031   3.778   3.122   2.562 -0.7121 -0.7317  0.4813
 2799SOL     OW20032   0.170   3.374   1.116  0.2473 -0.2162 -0.6496
 2799SOL    HW120033   0.168   3.355   1.022 -1.9997  3.6624 -1.3545
 2799SOL    HW220034   0.147   3.466   1.124  0.6461 -0.3325  1.9621
 2800SOL     OW20035   0.145   0.140  11.044  0.3552 -0.2887 -0.2016
 2800SOL    HW120036   0.113   0.184  10.966 -0.7542  0.0539  0.4512
 2800SOL    HW220037   0.227   0.184  11.068 -0.2652  0.2848  0.8976
 2801SOL     OW20038   4.277   0.283  11.376 -0.3696  0.1135 -0.1350
 2801SOL    HW120039   4.210   0.328  11.427  0.4532 -0.5850  1.5641
 2801SOL    HW220040   4.279   0.348  11.306 -1.3493 -1.5295 -1.6762
 2802SOL     OW20041   3.335   1.370  14.887 -0.8354 -0.0922 -0.1074
 2802SOL    HW120042   3.267   1.415  14.938 -0.2524 -2.4522  2.7421
 2802SOL    HW220043   3.339   1.434  14.816  0.0427 -0.4254 -0.3505
 2803SOL     OW20044   1.583   2.788  15.254 -0.1833  0.0093 -0.1531
 2803SOL    HW120045   1.498   2.785  15.297  0.5072 -1.0791  1.1468
 2803SOL    HW220046   1.557   2.797  15.162 -1.0848  1.4969  0.2503
 2804SOL     OW20047   1.302   3.013   5.139 -0.1445 -0.9582 -0.5823
 2804SOL    HW120048   1.349   3.095   5.144 -0.0220 -1.2442  2.9315
 2804SOL    HW220049   1.350   2.960   5.203  1.0484  1.0944  0.2107
 2805SOL     OW20050   2.625   3.604   9.331 -0.2208  0.2480 -0.2574
 2805SOL    HW120051   2.544   3.584   9.379 -0.3067  1.2550  0.0222
 2805SOL    HW220052   2.688   3.607   9.402 -0.6215 -0.4952  0.1306
 2806SOL     OW20053   4.342   3.040   4.496 -0.1307 -0.2604 -0.2371
 2806SOL    HW120054   4.287   3.115   4.472  0.2317  0.6910  1.9314
 2806SOL    HW220055   4.412   3.080   4.547 -0.3484 -0.0888 -0.0748
 2807SOL     OW20056   0.928   1.063   0.813 -0.4089 -0.1257  0.0944
 2807SOL    HW120057   0.847   1.035   0.771 -0.1854  1.0334 -1.1002
 2807SOL    HW220058   0.956   0.983   0.857  0.7685  0.5538  0.5760
 2808SOL     OW20059   3.382   0.667   2.735  0.0285  0.2026  0.0438
 2808SOL    HW120060   3.469   0.631   2.752 -0.3216  0.3788  2.2379
 2808SOL    HW220061   3.338   0.597   2.687 -0.2773 -0.3612  1.1590
 2809SOL     OW20062   0.296   2.096   5.303 -0.0573 -0.5878 -0.0353
 2809SOL    HW120063   0.241   2.019   5.295 -0.7609  0.0740 -1.6794
 2809SOL    HW220064   0.276   2.142   5.221 -0.6132 -0.9953 -0.1305
 2810SOL     OW20065   2.756   4.154   8.359 -0.2829 -0.0830 -0.1024
 2810SOL    HW120066   2.836   4.167   8.307 -0.0604  0.4422  0.3726
 2810SOL    HW220067   2.793   4.141   8.446 -0.9177 -2.8307 -0.2375
 2811SOL     OW20068   4.000   3.737   7.172 -0.5673 -0.4334  0.3817
 2811SOL    HW120069   4.077   3.680   7.178  0.5685  1.2973  1.8258
 2811SOL    HW220070   4.007   3.776   7.085 -3.3201 -0.9059 -0.0279
 2812SOL     OW20071   2.157   4.269  13.862 -0.0248  0.3479 -0.2906
 2812SOL    HW120072   2.078   4.323  13.872 -0.1545 -0.0553  0.8393
 2812SOL    HW220073   2.119   4.186  13.833  0.8259 -1.3891  3.6221
 2813SOL     OW20074   3.527   0.447   9.476  0.4235 -0.1179 -0.0261
 2813SOL    HW120075   3.477   0.387   9.421  1.3044 -1.9966  1.1994
 2813SOL    HW220076   3.581   0.372   9.504 -0.3276 -0.3235  0.8687
 2814SOL     OW20077   2.694   2.334   1.406 -0.4695 -0.4706  0.3296
 2814SOL    HW120078   2.650   2.413   1.373  0.4274 -0.4754 -0.8956
 2814SOL    HW220079   2.690   2.273   1.332  1.7354  1.5064 -1.4397
 2815SOL     OW20080   0.658   2.606   7.181 -0.0923  0.4677  0.2501
 2815SOL    HW120081   0.736   2.661   7.170 -1.9322  2.7919 -1.1688
 2815SOL    HW220082   0.622   2.628   7.267  1.0314  3.0176  0.0625
 2816SOL     OW20083   4.360   3.671  16.330  0.1257  0.2906  0.4032
 2816SOL    HW120084   4.300   3.730  16.284 -0.7755  1.2034  2.7121
 2816SOL    HW220085   4.331   3.681  16.421  0.7514 -1.5559  0.7995
 2817SOL     OW20086   0.778   1.031  10.043  0.0114 -0.0501  0.3808
 2817SOL    HW120087   0.798   1.121  10.017  0.3545 -0.0412  0.6805
 2817SOL    HW220088   0.712   1.037  10.112  0.8931  0.5427  1.1643
 2818SOL     OW20089   4.681   4.084   8.147  0.3079 -0.0048 -0.1449
 2818SOL    HW120090   0.037   4.081   8.129  0.4870  1.4481  0.5614
 2818SOL    HW220091   4.661   4.178   8.139  1.3106  0.3808  2.1928
 2819SOL     OW20092   1.883   0.559   7.511 -0.4268 -0.1951  0.0360
 2819SOL    HW120093   1.872   0.534   7.419  3.0246  1.1343 -0.7530
 2819SOL    HW220094   1.883   0.476   7.557 -2.2437  1.5853  3.2907
 2820SOL     OW20095   0.304   3.962   8.544  0.3194 -0.4273  0.3559
 2820SOL    HW120096   0.214   3.935   8.559 -0.0992  0.8369  0.1053
 2820SOL    HW220097   0.345   3.923   8.622  0.6538 -0.0860  0.3506
 2821SOL     OW20098   3.793   3.081   7.816  0.6536 -0.8680 -0.1953
 2821SOL    HW120099   3.798   3.040   7.902 -0.0995 -2.6480 -1.0102
 2821SOL    HW220100   3.730   3.035   7.760 -0.4572  0.0500  0.3292
 2822SOL     OW20101   4.451   4.115   4.836  0.3168 -0.0089  0.0295
 2822SOL    HW120102   4.521   4.112   4.771  0.0382  1.2474 -0.3486
 2822SOL    HW220103   4.479   4.055   4.904 -1.9290  0.4715  1.4074
 2823SOL     OW20104   1.633   3.726   9.059  0.4846 -0.0257 -0.7553
 2823SOL    HW120105   1.573   3.742   9.132  1.0245 -2.8845  0.3388
 2823SOL    HW220106   1.653   3.814   9.027  0.7353  0.3212  0.3337
 2824SOL     OW20107   1.812   3.645   9.273 -0.3754  0.3444 -0.0391
 2824SOL    HW120108   1.790   3.712   9.338  0.0951  0.5775 -0.1249
 2824SOL    HW220109   1.765   3.678   9.197 -3.0256  1.1308  1.9189
 2825SOL     OW20110   3.979   2.255   2.707  0.8807  0.0312  0.1110
 2825SOL    HW120111   3.990   2.347   2.680  0.8132  0.2292  0.7684
 2825SOL    HW220112   3.971   2.274   2.800  0.2450  3.2810 -0.5802
 2826SOL     OW20113   0.306   2.476   0.515  0.4828 -0.4752  0.0308
 2826SOL    HW120114   0.284   2.540   0.447  0.0898  0.9805  1.5151
 2826SOL    HW220115   0.247   2.403   0.499 -0.6538  0.4018  0.2292
 2827SOL     OW20116   1.209   1.521   0.367  0.2367 -0.4209 -0.3354
 2827SOL    HW120117   1.224   1.432   0.336  1.8189 -0.2805  0.0316
 2827SOL    HW220118   1.237   1.523   0.458  1.7399 -0.2468 -0.7954
 2828SOL     OW20119   2.524   3.859  10.128  0.7084  0.4004  0.1466
 2828SOL    HW120120   2.491   3.828  10.044  0.7648 -0.0161  0.2825
 2828SOL    HW220121   2.606   3.904  10.105 -0.3911  0.1300 -4.4546
 2829SOL     OW20122   1.276   2.606   6.477 -0.1569 -0.2064 -0.1293
 2829SOL    HW120123   1.362   2.595   6.437  0.5827  1.4289  0.9957
 2829SOL    HW220124   1.210   2.628   6.410  0.5068 -2.3991 -1.4642
 2830SOL     OW20125   0.669   3.852   9.185 -0.2317 -0.8429  0.6149
 2830SOL    HW120126   0.630   3.788   9.245 -0.4401 -0.6446  0.6897
 2830SOL    HW220127   0.624   3.811   9.111  0.7766 -4.0125  1.7291
 2831SOL     OW20128   4.566   4.599   9.872  0.3677 -0.0826 -0.2680
 2831SOL    HW120129   4.496   4.623   9.932  0.2974 -2.1378  0.4596
 2831SOL    HW220130   4.640   4.580   9.930 -0.9027 -0.0351  1.3829
 2832SOL     OW20131   3.456   0.852   5.839  0.0802 -0.0800  0.2271
 2832SOL    HW120132   3.400   0.776   5.824 -0.9634  0.4793  1.2369
 2832SOL    HW220133   3.381   0.912   5.835  0.6460  0.6972  1.2045
 2833SOL     OW20134   3.725   0.914   5.693 -0.0368 -0.0563 -0.0528
 2833SOL    HW120135   3.787   0.873   5.753 -0.0994 -1.3720 -0.8884
 2833SOL    HW220136   3.643   0.899   5.740  0.0268 -2.5411 -0.7109
 2834SOL     OW20137   1.473   2.896   7.322  0.6498 -0.5683 -0.7821
 2834SOL    HW120138   1.533   2.852   7.262  0.0425 -1.3590 -0.8000
 2834SOL    HW220139   1.455   2.978   7.276 -0.3483 -0.1619  0.3268
 2835SOL     OW20140   4.304   3.576  11.811 -0.3190  0.2630  0.0589
 2835SOL    HW120141   4.347   3.644  11.862  0.4742  0.3409 -0.7073
 2835SOL    HW220142   4.377   3.515  11.806 -1.8081 -1.4847 -0.5957
 2836SOL     OW20143   1.272   1.901  13.230 -0.1667 -0.4130 -0.3539
 2836SOL    HW120144   1.343   1.837  13.239  1.2693  1.0124 -1.5198
 2836SOL    HW220145   1.232   1.876  13.146 -3.0348  1.5496  0.4579
 2837SOL     OW20146   0.622   1.442   5.025 -0.3774 -0.2525  0.0568
 2837SOL    HW120147   0.565   1.366   5.014 -1.8598  1.0523 -1.2890
 2837SOL    HW220148   0.642   1.457   4.932 -0.6485 -2.7767 -0.3989
 2838SOL     OW20149   2.330   0.151   9.212 -0.5616  0.2204  0.3264
 2838SOL    HW120150   2.351   0.102   9.133  1.1352  0.8270  0.3999
 2838SOL    HW220151   2.408   0.204   9.233 -0.8396  1.2280 -1.1655
 2839SOL     OW20152   3.550   3.453   7.611 -0.1267  0.6096  0.4021
 2839SOL    HW120153   3.467   3.435   7.657 -0.6285 -0.3774 -0.8930
 2839SOL    HW220154   3.533   3.535   7.565 -2.5166  0.1995  0.5528
 2840SOL     OW20155   1.825   1.477  16.713  0.4212  0.5017 -0.1827
 2840SOL    HW120156   1.869   1.484  16.629 -1.2241 -1.9050 -1.2407
 2840SOL    HW220157   1.892   1.442  16.772 -1.0694 -1.6626  0.2119
 2841SOL     OW20158   1.626   3.840   1.537  0.4946 -0.0051 -0.5026
 2841SOL    HW120159   1.709   3.845   1.490  0.4386  1.5961 -0.4351
 2841SOL    HW220160   1.573   3.889   1.474 -0.5274 -0.8358 -0.3077
 2842SOL     OW20161   3.035   0.916  12.808 -0.1177  0.1316 -0.3362
 2842SOL    HW120162   3.026   0.826  12.776 -0.6571 -0.2667  0.9256
 2842SOL    HW220163   2.987   0.911  12.891 -0.1436 -4.4693 -0.6246
 2843SOL     OW20164   1.583   3.645  15.229  0.4688 -0.2411 -0.0348
 2843SOL    HW120165   1.520   3.692  15.284  0.8846 -0.8904  0.9872
 2843SOL    HW220166   1.572   3.684  15.143  0.8586 -0.1111 -0.0273
 2844SOL     OW20167   1.735   0.391  11.396 -0.4596 -0.0453  0.5706
 2844SOL    HW120168   1.668   0.328  11.421 -1.1782  0.7627  0.6470
 2844SOL    HW220169   1.680   0.439  11.334  0.5769 -0.9542 -1.0634
 2845SOL     OW20170   2.391   0.849   4.667  0.8336 -0.0732  0.6712
 2845SOL    HW120171   2.347   0.765   4.677 -0.7496  0.6128 -0.5190
 2845SOL    HW220172   2.480   0.821   4.643  0.3874  0.0108 -1.0465
 2846SOL     OW20173   1.379   2.660   2.683 -0.3846 -0.2258 -0.6032
 2846SOL    HW120174   1.334   2.582   2.713 -0.0053 -0.2728 -0.1621
 2846SOL    HW220175   1.406   2.702   2.765 -0.9602  1.6262 -1.3556
 2847SOL     OW20176   2.332   4.144   2.715  0.2439 -0.1800 -0.5946
 2847SOL    HW120177   2.286   4.144   2.799 -0.0715  0.6514 -0.7695
 2847SOL    HW220178   2.422   4.157   2.746  0.3013 -1.9946 -0.0155
 2848SOL     OW20179   3.531   4.384   7.842  0.0251 -0.0761 -0.4113
 2848SOL    HW120180   3.510   4.477   7.849 -0.5698 -0.0643 -2.3164
 2848SOL    HW220181   3.592   4.392   7.768  0.0522  0.9263 -0.2873
 2849SOL     OW20182   0.228   0.716   5.952  0.0787  0.0061 -0.5374
 2849SOL    HW120183   0.239   0.621   5.952  0.9233  0.1039  0.4271
 2849SOL    HW220184   0.155   0.726   5.891  0.9098 -1.2195 -1.7322
 2850SOL     OW20185   0.413   0.801   2.715  0.0581  0.1623  0.2921
 2850SOL    HW120186   0.496   0.774   2.754 -0.5314  0.2754  1.6245
 2850SOL    HW220187   0.403   0.879   2.769 -1.5137 -0.0085  0.2308
 2851SOL     OW20188   1.969   0.759   8.557  0.2393  0.5232 -0.0841
 2851SOL    HW120189   2.033   0.803   8.613 -0.5511  0.4711  0.8581
 2851SOL    HW220190   1.931   0.694   8.615  2.3676 -1.0777 -0.4769
 2852SOL     OW20191   0.244   3.908   3.565  0.2435 -0.0672 -0.2805
 2852SOL    HW120192   0.191   3.957   3.501 -1.0147 -0.1639  0.6947
 2852SOL    HW220193   0.283   3.973   3.624  2.6701 -1.4262 -0.3900
 2853SOL     OW20194   0.395   4.465   7.011  0.2854 -0.1355  0.4375
 2853SOL    HW120195   0.408   4.372   7.028  3.1139  0.2017  0.0254
 2853SOL    HW220196   0.368   4.469   6.919 -0.4474 -1.9191  0.5860
 2854SOL     OW20197   3.539   1.707   2.790  0.1612 -0.0706  0.0623
 2854SOL    HW120198   3.608   1.762   2.753  0.1913  0.3342  0.7220
 2854SOL    HW220199   3.525   1.733   2.881  0.1050  4.6055 -1.3058
 2855SOL     OW20200   4.544   3.326   5.000  0.7142 -0.1632 -0.3950
 2855SOL    HW120201   4.458   3.367   4.991  0.6700  0.1394  1.5487
 2855SOL    HW220202   4.548   3.277   4.918  0.8052 -1.4305  0.3768
 2856SOL     OW20203   0.824   0.100   6.527 -0.2959  0.3496  0.3877
 2856SOL    HW120204   0.834   0.043   6.602  0.4937 -1.6638 -1.2448
 2856SOL    HW220205   0.736   0.077   6.497  0.5498 -2.6730  0.2420
 2857SOL     OW20206   3.068   1.162   5.110  0.4378 -0.0798 -0.3819
 2857SOL    HW120207   3.040   1.100   5.043  0.4249 -1.4420  0.8726
 2857SOL    HW220208   3.094   1.240   5.062  2.1207  0.3874  1.2670
 2858SOL     OW20209   0.743   0.582   1.175  0.2365 -0.0679  0.2928
 2858SOL    HW120210   0.749   0.616   1.085 -0.4243  0.5184  0.4748
 2858SOL    HW220211   0.744   0.666   1.221 -0.3195  1.3441 -2.2895
 2859SOL     OW20212   1.172   3.723   7.873  0.2504 -0.8460  0.2173
 2859SOL    HW120213   1.161   3.655   7.806 -0.8686 -0.3413 -0.1089
 2859SOL    HW220214   1.138   3.800   7.828  0.2124 -1.2639 -0.4655
 2860SOL     OW20215   1.414   2.966   8.702  0.0899  0.4654  0.0525
 2860SOL    HW120216   1.444   3.041   8.754 -1.7561 -1.5883  4.1102
 2860SOL    HW220217   1.497   2.928   8.674  1.0214  1.5744  1.3327
 2861SOL     OW20218   3.819   1.346   5.488 -0.0050 -0.3235 -0.7251
 2861SOL    HW120219   3.813   1.257   5.451 -1.7647 -1.1532  1.5440
 2861SOL    HW220220   3.830   1.318   5.579  3.2995 -1.1834 -1.3857
 2862SOL     OW20221   2.204   0.459  16.124 -0.2517 -0.5775  0.3779
 2862SOL    HW120222   2.136   0.525  16.110 -0.5219 -0.5446  1.8648
 2862SOL    HW220223   2.271   0.507  16.173  0.7557 -1.7497  0.1529
 2863SOL     OW20224   2.933   4.423   4.195  0.2026 -0.4016  0.4002
 2863SOL    HW120225   2.921   4.329   4.209 -0.3660 -0.3422  0.3379
 2863SOL    HW220226   2.855   4.459   4.237  1.7750  3.3057  0.1041
 2864SOL     OW20227   3.320   3.182   7.426 -0.0800 -0.0286 -0.5927
 2864SOL    HW120228   3.411   3.196   7.451 -0.4149  0.2901  0.4592
 2864SOL    HW220229   3.281   3.263   7.460 -0.3031 -0.4861  0.2157
 2865SOL     OW20230   0.197   0.839   5.177 -0.7042 -0.2202  0.1362
 2865SOL    HW120231   0.116   0.790   5.167 -0.1385 -0.2306 -4.3419
 2865SOL    HW220232   0.189   0.868   5.268  0.0867  0.8519 -0.1323
 2866SOL     OW20233   4.025   0.995   3.473  0.3784  0.0111 -0.2735
 2866SOL    HW120234   4.027   0.928   3.405 -2.6048  0.3363 -0.6705
 2866SOL    HW220235   4.000   0.931   3.541 -1.1174  0.9226  0.0466
 2867SOL     OW20236   2.451   4.174   6.046  0.1475 -0.6778 -0.1305
 2867SOL    HW120237   2.530   4.227   6.039 -0.1066 -0.4853 -1.5566
 2867SOL    HW220238   2.484   4.088   6.018 -1.3805 -0.7487 -1.6991
 2868SOL     OW20239   3.366   0.381   1.603  0.3727  0.8385  0.2741
 2868SOL    HW120240   3.358   0.357   1.696 -2.9365  1.6376  0.1806
 2868SOL    HW220241   3.461   0.384   1.595  0.3365  0.1288 -0.4018
 2869SOL     OW20242   0.655   3.076  13.797 -0.2531 -0.1043  0.7285
 2869SOL    HW120243   0.629   3.168  13.808 -0.7070 -0.1079 -0.3306
 2869SOL    HW220244   0.579   3.042  13.843  1.8218 -0.7121  3.7186
 2870SOL     OW20245   4.529   3.392   4.208  0.0532  0.0561 -0.3869
 2870SOL    HW120246   4.582   3.470   4.195  0.0878  0.2310  0.7546
 2870SOL    HW220247   4.592   3.321   4.219 -0.1760 -0.4829 -2.6200
 2871SOL     OW20248   3.071   0.348   5.289 -0.0689 -0.2231 -0.0735
 2871SOL    HW120249   3.125   0.324   5.365 -0.7574  1.2504  0.8876
 2871SOL    HW220250   3.074   0.444   5.297  0.4314 -0.3065  0.7810
 2872SOL     OW20251   4.206   2.168   8.527  0.6535 -0.1897 -0.0029
 2872SOL    HW120252   4.150   2.122   8.465  1.1373  1.8199 -1.9299
 2872SOL    HW220253   4.236   2.238   8.469  0.8802 -0.0127  0.3249
 2873SOL     OW20254   1.159   4.661   5.161 -0.5839 -1.1493  0.2477
 2873SOL    HW120255   1.118   4.732   5.112 -2.0854 -0.4888  2.4759
 2873SOL    HW220256   1.091   4.593   5.153 -0.7297 -0.9806  0.0629
 2874SOL     OW20257   3.036   1.063   5.543  0.2489 -0.1050 -0.0720
 2874SOL    HW120258   3.095   0.993   5.518 -1.1444 -0.8161 -1.3614
 2874SOL    HW220259   3.094   1.124   5.590  0.2987  2.1104 -2.9823
 2875SOL     OW20260   0.726   3.374   9.092 -0.4224 -0.0100  0.0491
 2875SOL    HW120261   0.668   3.316   9.043 -0.5817 -0.9221  1.3096
 2875SOL    HW220262   0.681   3.458   9.080 -0.1184 -0.1064 -1.7738
 2876SOL     OW20263   2.380   2.148   8.398 -0.7138 -0.2199 -0.1404
 2876SOL    HW120264   2.473   2.143   8.379 -0.7253  0.3403 -0.3367
 2876SOL    HW220265   2.347   2.059   8.409 -1.0958  0.2813  2.6212
 2877SOL     OW20266   2.093   2.913   6.135 -0.3522  0.8750  0.1261
 2877SOL    HW120267   2.021   2.939   6.078  1.0002 -0.7787 -2.3416
 2877SOL    HW220268   2.158   2.980   6.114 -0.9732  0.9456 -1.5626
 2878SOL     OW20269   3.568   4.070  10.369  0.3732  0.2572  0.3804
 2878SOL    HW120270   3.548   3.982  10.335  1.2683 -0.8826  2.7780
 2878SOL    HW220271   3.550   4.052  10.462  1.2017  1.4422  0.7705
 2879SOL     OW20272   1.258   4.032   6.083 -0.5734 -0.2267  0.5288
 2879SOL    HW120273   1.260   4.102   6.149 -0.1828  1.0055 -0.7930
 2879SOL    HW220274   1.293   3.967   6.144  0.6460  0.3675  0.4585
 2880SOL     OW20275   1.827   0.085   6.498 -0.7290 -0.3918 -0.3313
 2880SOL    HW120276   1.801   0.176   6.480 -1.9815 -0.5400  0.7292
 2880SOL    HW220277   1.895   0.096   6.565  0.7725 -1.3274 -1.7108
 2881SOL     OW20278   3.116   4.018   2.751 -0.4443  0.8036 -0.1047
 2881SOL    HW120279   3.138   4.077   2.678 -0.6103 -2.5384 -2.8363
 2881SOL    HW220280   3.148   4.071   2.824  0.3591 -0.6683  0.6073
 2882SOL     OW20281   4.415   0.607  12.824 -0.1825  0.6313  0.2943
 2882SOL    HW120282   4.336   0.655  12.800  0.0001 -0.0903 -1.8080
 2882SOL    HW220283   4.390   0.595  12.915 -0.9476  1.0495  0.1304
 2883SOL     OW20284   3.973   0.034   6.783 -0.1110 -0.0914  0.1676
 2883SOL    HW120285   3.903   4.715   6.816  0.8292 -1.2041  0.2360
 2883SOL    HW220286   4.009   4.712   6.718 -1.3438 -0.3739 -0.2646
 2884SOL     OW20287   2.888   4.173  16.132  0.4675  0.1977  0.0794
 2884SOL    HW120288   2.856   4.263  16.136  2.0851  0.6893  2.0746
 2884SOL    HW220289   2.808   4.135  16.095 -0.0312  0.1511  1.1820
 2885SOL     OW20290   3.836   4.135   4.772  0.4105  0.2553  0.5104
 2885SOL    HW120291   3.787   4.107   4.849 -1.4930 -0.3380 -0.9263
 2885SOL    HW220292   3.867   4.224   4.793 -2.3085  0.8894  1.8211
 2886SOL     OW20293   2.000   3.712   6.773  0.4459  0.1464 -0.2086
 2886SOL    HW120294   1.930   3.697   6.837  0.4723 -1.5266 -0.5716
 2886SOL    HW220295   2.057   3.772   6.821 -0.3768 -1.6186  3.0261
 2887SOL     OW20296   2.271   1.057  12.499  0.0898  0.5671 -0.7331
 2887SOL    HW120297   2.311   1.017  12.576 -0.4165  1.0212 -0.2389
 2887SOL    HW220298   2.254   1.146  12.528 -0.6058  0.2545 -0.1776
 2888SOL     OW20299   2.945   3.823   8.434 -0.2030 -0.6386  0.2607
 2888SOL    HW120300   2.902   3.819   8.349  0.9893 -2.4894 -0.2412
 2888SOL    HW220301   2.888   3.876   8.490 -0.9601 -0.4047 -0.7314
 2889SOL     OW20302   4.392   2.231   4.629 -0.9074 -0.3350  0.4984
 2889SOL    HW120303   4.307   2.187   4.625  0.0605 -2.2468  0.8131
 2889SOL    HW220304   4.428   2.190   4.708 -1.2713 -1.7023 -0.0416
 2890SOL     OW20305   0.755   0.900   3.757 -0.5422  0.1464 -0.3804
 2890SOL    HW120306   0.798   0.917   3.674 -1.8213  0.1325 -1.0450
 2890SOL    HW220307   0.800   0.823   3.794  0.4567  0.3348 -1.2150
 2891SOL     OW20308   0.539   3.888  12.248  0.5532  0.7122  0.0933
 2891SOL    HW120309   0.479   3.904  12.320  0.0698 -2.4103  0.3947
 2891SOL    HW220310   0.526   3.962  12.188 -0.1028  0.3884 -0.1746
 2892SOL     OW20311   1.825   0.035  17.221 -0.3127  0.5019 -0.3643
 2892SOL    HW120312   1.884   0.071  17.155  1.4017 -1.7996 -0.0733
 2892SOL    HW220313   1.825   4.681  17.195  1.7924  0.4210 -0.0150
 2893SOL     OW20314   4.644   4.157   4.632  0.4053 -0.1434 -0.0292
 2893SOL    HW120315   4.647   4.097   4.558  1.4869  1.0927 -0.9919
 2893SOL    HW220316   4.736   4.181   4.648  0.6102 -1.5273  0.8571
 2894SOL     OW20317   3.021   0.190  12.103  0.2203 -0.0941  0.8845
 2894SOL    HW120318   2.968   0.150  12.034  1.5667 -0.6301  0.1478
 2894SOL    HW220319   2.994   0.138  12.178  0.6269  1.3137  1.9936
 2895SOL     OW20320   3.777   2.630   3.470 -0.1027  0.1856  0.3028
 2895SOL    HW120321   3.730   2.648   3.388  0.0563  1.9108  0.5972
 2895SOL    HW220322   3.815   2.714   3.496  2.5376 -0.7335 -0.5552
 2896SOL     OW20323   2.138   4.125   4.534  0.1960  0.0917  0.3511
 2896SOL    HW120324   2.045   4.125   4.514  0.3029  0.5734 -0.1437
 2896SOL    HW220325   2.169   4.211   4.504  1.6231 -0.4249  0.3132
 2897SOL     OW20326   0.673   1.654  15.627  0.1450  0.6611  0.1540
 2897SOL    HW120327   0.640   1.593  15.561  1.9227 -0.2936  0.1522
 2897SOL    HW220328   0.732   1.588  15.663 -1.8039 -0.5845  1.0282
 2898SOL     OW20329   1.530   4.067   7.875 -0.1212 -0.3128 -0.6840
 2898SOL    HW120330   1.551   3.979   7.846  1.4157  0.8198 -2.9706
 2898SOL    HW220331   1.513   4.055   7.969 -0.3399  1.2673 -0.5170
 2899SOL     OW20332   1.125   2.600   1.782  0.6806 -0.3537 -0.2894
 2899SOL    HW120333   1.195   2.609   1.846  0.8859  0.5063 -0.6354
 2899SOL    HW220334   1.150   2.667   1.719  1.3087 -1.1880 -0.9287
 2900SOL     OW20335   1.431   1.669  10.205  0.2756 -0.0836 -0.1812
 2900SOL    HW120336   1.436   1.762  10.225  3.0118 -0.0526 -0.9732
 2900SOL    HW220337   1.501   1.669  10.139 -1.3864  0.1058 -1.9375
 2901SOL     OW20338   3.411   2.647  13.188  0.2388 -0.2240  0.1835
 2901SOL    HW120339   3.436   2.655  13.096  1.1329  1.1719  0.5407
 2901SOL    HW220340   3.357   2.724  13.206  4.1013  1.9467  2.4179
 2902SOL     OW20341   2.140   0.687   7.636  0.5665 -0.3927 -0.0844
 2902SOL    HW120342   2.143   0.601   7.594 -2.1587 -0.6285  0.2640
 2902SOL    HW220343   2.118   0.754   7.571  0.7021  0.7585  1.0638
 2903SOL     OW20344   0.993   4.035   1.705 -0.3581 -0.3182  0.2668
 2903SOL    HW120345   0.963   3.979   1.776 -2.0424 -0.6027 -0.6592
 2903SOL    HW220346   0.953   3.991   1.630 -0.7280 -0.9694  0.8450
 2904SOL     OW20347   3.258   2.982  11.260  0.4752 -0.4902 -0.2353
 2904SOL    HW120348   3.339   2.952  11.302  0.6863 -1.0715 -1.0602
 2904SOL    HW220349   3.216   2.899  11.239 -1.2756 -0.3560  2.7223
 2905SOL     OW20350   2.658   1.110   4.742  0.2044 -0.1356 -0.9040
 2905SOL    HW120351   2.608   1.033   4.769  2.2268 -0.9533  0.4959
 2905SOL    HW220352   2.628   1.132   4.653  0.4537  0.6091 -0.8081
 2906SOL     OW20353   1.765   1.900   4.550  0.2661  0.2420  0.2817
 2906SOL    HW120354   1.825   1.920   4.478 -0.7339 -0.5289 -0.7724
 2906SOL    HW220355   1.681   1.940   4.525 -0.4334 -1.1844  0.3725
 2907SOL     OW20356   2.094   1.581   7.323  0.7321  0.2160  0.8183
 2907SOL    HW120357   2.168   1.564   7.381  1.3755  0.4440  0.0523
 2907SOL    HW220358   2.077   1.673   7.341  0.9749  0.1939  1.1603
 2908SOL     OW20359   0.543   3.726   4.517  0.2030  0.2260 -0.0156
 2908SOL    HW120360   0.516   3.813   4.546 -0.1343 -0.7234  2.5341
 2908SOL    HW220361   0.458   3.694   4.487  0.2631  0.6074 -0.5946
 2909SOL     OW20362   4.696   2.533   8.246 -0.2056 -0.1203  0.0242
 2909SOL    HW120363   4.713   2.572   8.332  0.9726 -1.5611  0.4668
 2909SOL    HW220364   4.611   2.572   8.229 -0.8870 -0.8655  1.7113
 2910SOL     OW20365   3.591   2.475   7.490 -0.1026  0.3357  0.0895
 2910SOL    HW120366   3.618   2.507   7.404  3.1097  0.3206  1.0978
 2910SOL    HW220367   3.495   2.468   7.489 -0.1544  1.1502 -0.1390
 2911SOL     OW20368   4.151   4.233   3.102  0.4037 -0.1539 -0.5452
 2911SOL    HW120369   4.109   4.152   3.131 -2.7559  1.9770  0.8426
 2911SOL    HW220370   4.244   4.214   3.117  0.4929 -1.2834 -2.5050
 2912SOL     OW20371   4.547   2.461   8.965  0.2205 -0.1021 -0.1338
 2912SOL    HW120372   4.527   2.555   8.963 -0.9333 -0.3283  0.7159
 2912SOL    HW220373   4.593   2.456   9.049  0.1238  1.4412  0.0115
 2913SOL     OW20374   3.536   0.198   3.886  0.2660 -0.4518 -0.0898
 2913SOL    HW120375   3.550   0.104   3.874 -0.5463 -0.8801  2.1769
 2913SOL    HW220376   3.619   0.219   3.929 -1.3164 -0.3201  2.8796
 2914SOL     OW20377   2.425   0.730   5.848  0.4705  0.0182 -0.0412
 2914SOL    HW120378   2.455   0.820   5.863  2.5540 -0.6601 -0.1944
 2914SOL    HW220379   2.459   0.694   5.930  0.1987  0.1845  0.1447
 2915SOL     OW20380   2.534   4.640   5.548  0.1605 -0.0391  0.4316
 2915SOL    HW120381   2.515   4.626   5.455 -2.2649 -0.1905  0.9369
 2915SOL    HW220382   2.597   4.571   5.569 -1.4195 -1.5466  0.3155
 2916SOL     OW20383   2.589   1.455  11.948 -1.1028 -0.3040 -0.3493
 2916SOL    HW120384   2.605   1.525  12.010 -0.7801 -0.8742  0.2108
 2916SOL    HW220385   2.616   1.379  11.999 -0.0617  0.5351  0.3476
 2917SOL     OW20386   4.697   1.293   9.179 -0.0028 -0.1458 -0.1085
 2917SOL    HW120387   4.604   1.314   9.180  0.0181 -0.0445 -1.4236
 2917SOL    HW220388   4.695   1.201   9.152  0.3346 -0.2159  0.0986
 2918SOL     OW20389   4.737   1.839   5.661 -0.3708  0.9444  0.4600
 2918SOL    HW120390   0.002   1.901   5.588 -1.6863 -0.1189 -0.5158
 2918SOL    HW220391   0.092   1.818   5.674 -0.2906  1.4991  0.7402
 2919SOL     OW20392   1.373   0.164   7.207  0.1332  0.2890  0.3325
 2919SOL    HW120393   1.323   0.242   7.181 -0.3181 -0.5160 -1.2493
 2919SOL    HW220394   1.371   0.172   7.302  3.6254 -0.6953  0.5015
 2920SOL     OW20395   0.017   3.254   4.201 -0.3568  0.4113  0.4057
 2920SOL    HW120396   0.078   3.215   4.263  0.9365 -1.1394 -1.8307
 2920SOL    HW220397   0.076   3.292   4.136  0.7889 -1.0038  0.6171
 2921SOL     OW20398   2.077   3.949   8.584 -0.2637  0.2209  0.1235
 2921SOL    HW120399   1.982   3.948   8.594 -0.4740 -1.1121 -2.1480
 2921SOL    HW220400   2.105   3.950   8.676 -3.4462  2.5904  1.0543
 2922SOL     OW20401   0.113   0.935   8.600  0.2819 -0.3967 -0.3711
 2922SOL    HW120402   0.039   0.901   8.650  2.8263 -1.8010  2.4494
 2922SOL    HW220403   0.178   0.864   8.601  1.6106  0.7624 -3.2340
 2923SOL     OW20404   0.824   1.168   9.054  0.3856 -0.0767 -0.0695
 2923SOL    HW120405   0.861   1.164   9.143  0.1391  1.5775  0.0953
 2923SOL    HW220406   0.852   1.253   9.023  0.7429 -0.4171 -0.6590
 2924SOL     OW20407   1.107   0.631   3.395  0.4808  0.2510  0.7019
 2924SOL    HW120408   1.146   0.695   3.336  1.7432 -1.2424 -0.1000
 2924SOL    HW220409   1.183   0.574   3.384 -0.8007 -1.0303 -1.3488
 2925SOL     OW20410   3.471   0.515   1.988  0.3920  0.2862 -0.3305
 2925SOL    HW120411   3.482   0.557   1.902  3.1297  3.0732  1.3795
 2925SOL    HW220412   3.517   0.432   1.978 -0.4940 -0.2430  0.0282
 2926SOL     OW20413   4.415   0.495  16.338  0.2003  0.3525 -0.2625
 2926SOL    HW120414   4.353   0.564  16.314 -0.5044  0.1598  1.0425
 2926SOL    HW220415   4.423   0.500  16.433  1.1603  1.1024 -0.3736
 2927SOL     OW20416   4.661   4.554   9.226  0.0097 -0.2988  0.1106
 2927SOL    HW120417   4.566   4.545   9.228  0.1643 -1.9729 -0.0459
 2927SOL    HW220418   4.681   4.500   9.149 -3.0719 -1.4539  0.1371
 2928SOL     OW20419   0.791   4.100  16.857  0.2925  0.4867 -0.8244
 2928SOL    HW120420   0.781   4.041  16.932  0.6855  0.4343 -0.8155
 2928SOL    HW220421   0.717   4.088  16.797 -0.1640  0.1399 -0.1886
 2929SOL     OW20422   3.681   0.228   5.078  0.5916  0.4423  1.0581
 2929SOL    HW120423   3.763   0.276   5.093  0.8744  0.6404 -1.2172
 2929SOL    HW220424   3.617   0.265   5.139 -0.9741 -0.9167  0.2293
 2930SOL     OW20425   2.414   2.122   7.586 -0.2568  0.5735 -0.2156
 2930SOL    HW120426   2.467   2.055   7.545  1.7342  0.1342  3.0443
 2930SOL    HW220427   2.341   2.076   7.626  0.7434 -1.0333 -0.2438
 2931SOL     OW20428   4.157   1.117   4.196 -0.2061  0.0172  0.3854
 2931SOL    HW120429   4.236   1.136   4.146  0.1292 -0.7388  0.6286
 2931SOL    HW220430   4.130   1.200   4.235 -0.3785  0.0909  0.1114
 2932SOL     OW20431   0.179   0.301   5.036 -0.1624 -0.2541  0.0008
 2932SOL    HW120432   0.152   0.365   5.102 -1.4515 -0.0622 -0.7266
 2932SOL    HW220433   0.227   0.359   4.976  1.2971  0.1078  1.4974
 2933SOL     OW20434   2.202   0.223  13.215 -0.3523  0.1600  0.3778
 2933SOL    HW120435   2.168   0.238  13.304 -0.7795  0.0145  0.2406
 2933SOL    HW220436   2.122   0.244  13.167 -0.4024  3.5818  1.9587
 2934SOL     OW20437   1.383   0.436  17.617  0.2492 -0.6985 -0.1004
 2934SOL    HW120438   1.411   0.344  17.621 -1.2911 -1.1762 -0.2008
 2934SOL    HW220439   1.409   0.460  17.528  0.5371  0.6824  0.3516
 2935SOL     OW20440   3.073   3.910   7.738  0.1354  0.4032 -0.0202
 2935SOL    HW120441   3.168   3.909   7.722  0.1455  2.5657 -0.0960
 2935SOL    HW220442   3.033   3.924   7.653 -0.5991 -0.0766  0.2460
 2936SOL     OW20443   1.476   2.339   5.432  0.6491 -0.2936 -0.1907
 2936SOL    HW120444   1.535   2.265   5.415  2.1303  0.8957 -0.2080
 2936SOL    HW220445   1.492   2.389   5.352 -0.1531 -0.1997 -0.2993
 2937SOL     OW20446   3.975   4.670   4.611  0.2004  0.2211  0.0525
 2937SOL    HW120447   4.042   4.651   4.677  1.0761  2.0701 -0.3026
 2937SOL    HW220448   3.996   0.024   4.595 -1.6594  0.1928 -2.5713
 2938SOL     OW20449   2.856   0.221  11.214 -0.1032 -0.3685  0.2533
 2938SOL    HW120450   2.761   0.225  11.216 -0.1650 -1.9850 -0.0645
 2938SOL    HW220451   2.863   0.150  11.278  1.2959 -3.1757 -2.9798
 2939SOL     OW20452   3.938   4.189   5.840 -0.1385 -0.4378 -0.2877
 2939SOL    HW120453   3.993   4.225   5.771 -0.3891  2.1063  0.8494
 2939SOL    HW220454   4.007   4.146   5.891  0.0943 -2.1353 -2.0216
 2940SOL     OW20455   3.892   0.842   7.442 -0.1654 -0.1631 -0.0909
 2940SOL    HW120456   3.837   0.919   7.458 -1.7570 -1.0095 -1.4615
 2940SOL    HW220457   3.857   0.783   7.509 -0.4991  1.2103  0.9524
 2941SOL     OW20458   0.813   0.894   8.063  0.0297  0.7277 -0.4219
 2941SOL    HW120459   0.765   0.932   7.990 -0.2270 -3.1363 -2.2614
 2941SOL    HW220460   0.804   0.801   8.042  2.4514  0.4208 -0.1456
 2942SOL     OW20461   2.928   2.307   2.678  0.3610  0.5881  0.9518
 2942SOL    HW120462   2.952   2.376   2.617 -0.1266 -2.2763 -2.4732
 2942SOL    HW220463   3.014   2.279   2.706  0.8450  1.5995  0.4857
 2943SOL     OW20464   1.887   1.719   5.947  0.3856 -0.0753 -0.2003
 2943SOL    HW120465   1.962   1.777   5.963  0.4535 -0.4521  0.8089
 2943SOL    HW220466   1.831   1.786   5.907 -1.1979 -1.0878  0.3344
 2944SOL     OW20467   0.388   2.432   8.859  0.8454  0.0352 -0.5313
 2944SOL    HW120468   0.335   2.469   8.789 -0.9323 -0.1789  0.7119
 2944SOL    HW220469   0.471   2.470   8.827  1.4379  0.3422  1.3772
 2945SOL     OW20470   1.873   4.709  16.768  0.3341  0.1014 -0.8080
 2945SOL    HW120471   1.875   4.665  16.853 -1.0420  3.6062  1.0125
 2945SOL    HW220472   1.954   0.022  16.775 -0.4509  0.9673  1.7364
 2946SOL     OW20473   3.899   2.412   4.675  0.0480 -0.1330 -0.4291
 2946SOL    HW120474   3.991   2.424   4.697 -0.1054  1.7426 -0.8064
 2946SOL    HW220475   3.872   2.400   4.766  2.5833  1.9429  0.5913
 2947SOL     OW20476   2.431   2.718  13.064  0.1247 -0.0572  0.2340
 2947SOL    HW120477   2.465   2.767  13.140  2.2015 -0.0948 -0.6631
 2947SOL    HW220478   2.513   2.682  13.030 -0.2830 -0.9237  0.1860
 2948SOL     OW20479   2.677   1.263   6.032 -0.0546 -0.0636  0.0281
 2948SOL    HW120480   2.587   1.283   6.008  0.1428 -0.2520 -0.8542
 2948SOL    HW220481   2.712   1.349   6.055  1.0060 -0.1926 -1.1406
 2949SOL     OW20482   0.303   3.916   9.373 -0.1859  0.2939  0.5294
 2949SOL    HW120483   0.313   3.893   9.465  2.4718  2.6571  0.8258
 2949SOL    HW220484   0.391   3.943   9.348 -0.2992  0.4294  0.2737
 2950SOL     OW20485   1.221   2.478  16.469  0.4010 -0.6501 -0.2787
 2950SOL    HW120486   1.166   2.417  16.518 -0.4884  0.5473  0.2040
 2950SOL    HW220487   1.261   2.420  16.403 -0.4990 -1.3441 -0.2202
 2951SOL     OW20488   3.415   0.160   4.317 -0.2772  0.0291  0.5171
 2951SOL    HW120489   3.340   0.166   4.258 -2.3701  0.1359  3.2066
 2951SOL    HW220490   3.415   0.068   4.345  0.0519 -0.5868 -1.4766
 2952SOL     OW20491   2.225   1.830  17.062  0.1262  0.5776 -0.1327
 2952SOL    HW120492   2.260   1.781  17.136 -0.5598 -0.1890 -0.3174
 2952SOL    HW220493   2.290   1.818  16.992  1.2920  2.9107  0.5459
 2953SOL     OW20494   1.508   4.218  15.899  0.1295  0.0385 -0.0538
 2953SOL    HW120495   1.560   4.267  15.963 -1.1674  0.2194  0.8489
 2953SOL    HW220496   1.425   4.204  15.945 -0.6141  0.6169 -1.2372
 2954SOL     OW20497   1.182   3.734  12.091 -0.2700  0.6181 -0.2700
 2954SOL    HW120498   1.103   3.707  12.043 -0.1463  0.7809 -0.5631
 2954SOL    HW220499   1.237   3.656  12.085 -1.1065 -0.0699  0.9944
 2955SOL     OW20500   3.906   2.365   0.012  0.6552 -0.2291  0.4028
 2955SOL    HW120501   3.815   2.394   0.013  1.0060  0.8720 -0.0745
 2955SOL    HW220502   3.926   2.379   0.104  0.1505  2.1393  0.1436
 2956SOL     OW20503   0.917   2.349   5.823  0.8208  0.2831  0.2722
 2956SOL    HW120504   0.918   2.331   5.729  0.9221  0.5179  0.2266
 2956SOL    HW220505   1.006   2.325   5.851  0.9689  0.6737  0.1388
 2957SOL     OW20506   1.277   0.374   6.187 -0.0557 -0.1959  0.2627
 2957SOL    HW120507   1.347   0.435   6.165  0.9165 -0.6999  2.0146
 2957SOL    HW220508   1.248   0.354   6.098 -0.4414 -0.6732  0.4936
 2958SOL     OW20509   1.237   3.219   8.584 -0.1077 -0.0417 -0.3213
 2958SOL    HW120510   1.258   3.311   8.567 -0.0092 -0.0643 -0.3235
 2958SOL    HW220511   1.321   3.189   8.619 -0.6360  1.3597  2.1483
 2959SOL     OW20512   4.155   1.052   7.528 -0.0925  0.6978 -0.1859
 2959SOL    HW120513   4.112   1.105   7.460  0.3230  1.3431  0.0569
 2959SOL    HW220514   4.227   1.023   7.472 -1.6706 -1.3566 -1.1535
 2960SOL     OW20515   1.153   4.398   7.108 -0.1647  0.2529 -0.1431
 2960SOL    HW120516   1.244   4.406   7.079  0.5834 -2.6186  1.4304
 2960SOL    HW220517   1.150   4.455   7.184  2.6540 -0.6520  0.6633
 2961SOL     OW20518   1.418   1.771  17.618  0.3554 -0.7879 -0.0517
 2961SOL    HW120519   1.487   1.786  17.553 -0.2674 -0.3764 -0.6086
 2961SOL    HW220520   1.348   1.729  17.569  0.7989 -1.0876 -0.4293
 2962SOL     OW20521   2.194   3.187   4.129 -0.0975 -0.2127 -0.1358
 2962SOL    HW120522   2.201   3.281   4.115  2.0945 -0.0785  1.8687
 2962SOL    HW220523   2.112   3.187   4.179 -0.0279 -0.8300 -0.0204
 2963SOL     OW20524   2.854   3.766   5.873  0.3542 -0.3697  0.0557
 2963SOL    HW120525   2.908   3.845   5.881 -1.2685  0.7317  0.1332
 2963SOL    HW220526   2.794   3.769   5.946 -1.9591 -1.1361 -1.8146
 2964SOL     OW20527   3.102   4.494   5.936 -0.0832 -0.2886 -0.7134
 2964SOL    HW120528   3.119   4.588   5.945  1.0089 -0.5333 -0.1067
 2964SOL    HW220529   3.192   4.468   5.915 -0.0518 -0.1497 -0.7552
 2965SOL     OW20530   4.558   0.993   5.195 -0.0574 -0.2865  0.0440
 2965SOL    HW120531   4.484   1.030   5.146 -0.2545  2.1880  2.1820
 2965SOL    HW220532   4.513   0.971   5.277  0.4522 -2.7864 -0.3540
 2966SOL     OW20533   2.257   1.840   5.729  0.0240 -0.1946 -0.0977
 2966SOL    HW120534   2.197   1.911   5.704 -0.9916 -0.8765  0.3853
 2966SOL    HW220535   2.340   1.883   5.709 -0.8880  1.1423 -1.0922
 2967SOL     OW20536   1.652   0.834   7.316 -0.4050 -0.3272 -0.6882
 2967SOL    HW120537   1.714   0.907   7.315  0.4491 -1.0311  1.2879
 2967SOL    HW220538   1.600   0.861   7.240  1.6430  3.4736 -0.7203
 2968SOL     OW20539   2.613   0.818  15.728 -0.1670  0.1295  0.0634
 2968SOL    HW120540   2.529   0.786  15.695 -0.4361  2.1357 -1.1540
 2968SOL    HW220541   2.645   0.849  15.644  0.0051 -2.7217 -0.9152
 2969SOL     OW20542   1.303   1.684   4.362 -0.5817  0.0735 -0.4793
 2969SOL    HW120543   1.390   1.664   4.326  0.1641 -1.4311  2.1699
 2969SOL    HW220544   1.258   1.602   4.342 -1.3495  0.6864 -1.2645
 2970SOL     OW20545   0.539   1.303   3.414  0.2237  0.2455 -0.0194
 2970SOL    HW120546   0.556   1.358   3.338  1.4661 -0.0051  0.0831
 2970SOL    HW220547   0.465   1.353   3.450  1.3699  3.1783 -1.7777
 2971SOL     OW20548   3.945   1.989   6.909  0.4284  0.2058  0.1881
 2971SOL    HW120549   3.974   1.899   6.916  0.4198  0.1614 -0.4227
 2971SOL    HW220550   3.858   1.984   6.869  0.4940 -0.6468  0.1626
 2972SOL     OW20551   3.428   3.637   5.259 -0.8000 -0.1276  0.1059
 2972SOL    HW120552   3.408   3.581   5.184 -0.2769  1.7748 -1.4673
 2972SOL    HW220553   3.346   3.648   5.306  0.6020  1.5192  2.1759
 2973SOL     OW20554   3.321   3.582   7.705  0.2378 -0.1452  0.2472
 2973SOL    HW120555   3.309   3.676   7.692  1.8312  0.4009  2.7220
 2973SOL    HW220556   3.324   3.573   7.801 -1.0705 -0.6660  0.2465
 2974SOL     OW20557   3.586   0.864   6.432  0.5148  0.0281 -0.2554
 2974SOL    HW120558   3.653   0.801   6.406  1.5082  0.8240  0.3658
 2974SOL    HW220559   3.538   0.867   6.350 -2.3783 -1.0312  1.3947
 2975SOL     OW20560   2.036   4.478  16.518 -0.0221 -0.7556  0.0695
 2975SOL    HW120561   1.972   4.548  16.504  0.9979 -0.6640 -4.0572
 2975SOL    HW220562   2.045   4.483  16.613 -1.4619  1.0875  0.1024
 2976SOL     OW20563   3.311   0.474   6.676 -0.3029  0.5323 -0.9029
 2976SOL    HW120564   3.393   0.462   6.628  0.2451  1.8135 -0.2941
 2976SOL    HW220565   3.264   0.531   6.615 -1.0446 -0.3999 -1.2087
 2977SOL     OW20566   3.115   3.038   4.365 -0.0629  0.0613  0.2895
 2977SOL    HW120567   3.112   2.963   4.424  1.6362 -0.5917 -0.4832
 2977SOL    HW220568   3.180   3.015   4.299  0.5227  1.7802  0.2615
 2978SOL     OW20569   0.601   4.512   6.720  0.4576  0.3630  0.0881
 2978SOL    HW120570   0.569   4.600   6.738  0.0621 -0.2606  2.4437
 2978SOL    HW220571   0.683   4.510   6.770  0.5470 -1.2126 -0.1412
 2979SOL     OW20572   0.107   2.691  16.854  0.0439  0.3766 -0.1762
 2979SOL    HW120573   0.095   2.743  16.933  0.4756  0.6121 -0.2668
 2979SOL    HW220574   0.198   2.703  16.828 -0.8320  2.4630 -2.1782
 2980SOL     OW20575   2.610   1.285   8.146 -0.2601 -0.3211 -0.3736
 2980SOL    HW120576   2.681   1.223   8.133 -0.7722 -1.1536  0.7831
 2980SOL    HW220577   2.540   1.226   8.175  0.1960 -0.2658  0.8244
 2981SOL     OW20578   1.336   2.128  17.457 -0.6317 -0.0883 -0.3356
 2981SOL    HW120579   1.334   2.100  17.549 -3.7679  2.8514  0.4975
 2981SOL    HW220580   1.250   2.170  17.449 -0.5668 -0.1313 -1.1648
 2982SOL     OW20581   1.786   1.170   6.243  0.1118 -0.0826  0.1565
 2982SOL    HW120582   1.831   1.134   6.320  0.7239  1.7776  0.6650
 2982SOL    HW220583   1.841   1.246   6.225  0.4954 -0.4493 -0.2247
 2983SOL     OW20584   4.435   0.687   9.247 -0.0220  0.0705  0.2251
 2983SOL    HW120585   4.428   0.763   9.305 -3.0624 -0.6018  0.7519
 2983SOL    HW220586   4.464   0.613   9.299  3.2803 -0.3412 -2.2117
 2984SOL     OW20587   0.829   2.835   6.226 -0.0832  0.4230 -0.2482
 2984SOL    HW120588   0.887   2.788   6.166 -1.3577 -0.1498 -1.0393
 2984SOL    HW220589   0.828   2.919   6.180 -1.4754  2.1759  3.0440
 2985SOL     OW20590   2.548   0.761  16.836 -0.4026  0.1538 -0.6533
 2985SOL    HW120591   2.520   0.822  16.768 -1.8825  0.6954  0.4471
 2985SOL    HW220592   2.634   0.752  16.794  0.5207  1.4629  0.9202
 2986SOL     OW20593   2.727   3.991   7.218  0.2152  0.1933  0.3343
 2986SOL    HW120594   2.730   4.031   7.131 -2.5871  2.2892  1.1803
 2986SOL    HW220595   2.721   3.904   7.177 -2.5655 -0.3865  2.0102
 2987SOL     OW20596   0.052   0.312   3.780 -1.2705  0.4650  0.4063
 2987SOL    HW120597   4.735   0.347   3.711  0.1386  1.6474 -0.1133
 2987SOL    HW220598   0.015   0.350   3.859 -0.0171 -1.1095  1.7627
 2988SOL     OW20599   2.541   0.314   5.356 -0.0671  0.1667  0.2304
 2988SOL    HW120600   2.570   0.310   5.265  0.5417 -1.6433  0.5189
 2988SOL    HW220601   2.484   0.391   5.357 -0.9288 -0.4822  0.6909
 2989SOL     OW20602   0.484   0.314   7.573 -0.1114  0.1342 -0.1254
 2989SOL    HW120603   0.465   0.223   7.549  1.8237 -0.7757  1.7093
 2989SOL    HW220604   0.557   0.310   7.511 -0.1657 -0.6410 -0.1391
 2990SOL     OW20605   2.866   4.578   8.688  0.0294  0.1579  0.0627
 2990SOL    HW120606   2.907   4.535   8.613  1.7670  0.7830  0.6659
 2990SOL    HW220607   2.926   4.564   8.761 -2.9784 -1.0956  2.2862
 2991SOL     OW20608   4.375   3.700   2.323  0.4118 -0.8596 -0.4709
 2991SOL    HW120609   4.435   3.770   2.346  1.0636 -1.3211 -0.7797
 2991SOL    HW220610   4.305   3.701   2.389  1.1310  0.0856  0.2688
 2992SOL     OW20611   1.725   0.017   4.078  0.0251 -0.1678 -0.2996
 2992SOL    HW120612   1.647   4.708   4.051 -1.6285  1.2782  2.0367
 2992SOL    HW220613   1.787   4.686   4.102 -0.8407 -1.2462 -1.1869
 2993SOL     OW20614   1.723   2.129   5.988 -0.1440 -0.9148 -0.0180
 2993SOL    HW120615   1.631   2.125   6.015 -0.3927  0.0645 -0.7286
 2993SOL    HW220616   1.731   2.052   5.931  1.0850 -0.2235 -0.7868
 2994SOL     OW20617   0.217   0.838  12.866 -0.4037 -0.2324  0.0343
 2994SOL    HW120618   0.183   0.766  12.812  0.4314  0.3800 -1.3085
 2994SOL    HW220619   0.159   0.907  12.833 -0.0282  0.4859  0.8724
 2995SOL     OW20620   3.719   0.159   7.202 -0.0554  0.1811  0.3287
 2995SOL    HW120621   3.626   0.146   7.221  0.0586 -2.2535 -0.7687
 2995SOL    HW220622   3.732   0.224   7.271 -0.7485  0.4205  0.2348
 2996SOL     OW20623   4.727   1.967   7.443  0.5483  0.0219  0.6415
 2996SOL    HW120624   0.006   1.892   7.499  1.5150  0.4161  0.8810
 2996SOL    HW220625   4.650   2.007   7.482  0.5459  1.0008 -0.3703
 2997SOL     OW20626   2.516   0.761   9.720 -0.6406 -0.0129 -0.1149
 2997SOL    HW120627   2.430   0.775   9.759 -0.3635  2.5910 -0.4745
 2997SOL    HW220628   2.493   0.748   9.628 -0.0122  0.1672 -0.2915
 2998SOL     OW20629   0.467   3.583   6.727 -0.0464  0.3949  0.2207
 2998SOL    HW120630   0.542   3.536   6.764  1.7794  2.0146 -1.4959
 2998SOL    HW220631   0.442   3.531   6.651 -0.2015  2.0195 -0.8288
 2999SOL     OW20632   4.564   0.015   6.095  0.3245 -0.0598  0.5381
 2999SOL    HW120633   4.566   0.012   6.191  0.6996  0.6857  0.5563
 2999SOL    HW220634   4.650   0.050   6.074 -0.2791 -0.1945 -2.1810
 3000SOL     OW20635   2.668   3.950   3.637 -0.7354  0.1472  0.2322
 3000SOL    HW120636   2.753   3.928   3.673 -1.1302 -2.0241 -0.1371
 3000SOL    HW220637   2.613   3.917   3.709 -1.1529  1.5033  0.5310
 3001SOL     OW20638   2.628   3.423  12.859 -0.2778 -0.3889  0.1296
 3001SOL    HW120639   2.665   3.464  12.781 -0.4245 -0.6001 -0.0514
 3001SOL    HW220640   2.550   3.381  12.824 -1.9969  1.8054  1.2808
 3002SOL     OW20641   2.524   3.959  14.646 -0.2863  0.3191 -0.3000
 3002SOL    HW120642   2.507   3.996  14.733  0.0681  1.4606 -0.7194
 3002SOL    HW220643   2.605   3.913  14.666  0.0244  0.4179 -1.3445
 3003SOL     OW20644   0.474   2.549   5.134  0.8415 -0.2769 -0.0399
 3003SOL    HW120645   0.463   2.632   5.087  1.3048  0.6658  1.5207
 3003SOL    HW220646   0.394   2.541   5.187  0.4840  0.0493 -0.5243
 3004SOL     OW20647   4.367   3.339   8.374  0.2914 -0.3528 -0.4175
 3004SOL    HW120648   4.307   3.271   8.403 -1.2215  0.4845 -1.5659
 3004SOL    HW220649   4.318   3.386   8.307 -1.2081  0.4670  1.2637
 3005SOL     OW20650   0.750   1.099   5.031  0.1186  0.2354 -0.0156
 3005SOL    HW120651   0.757   1.005   5.019 -0.7297 -0.2002  2.9300
 3005SOL    HW220652   0.841   1.126   5.017  1.4301 -3.0699  2.1898
 3006SOL     OW20653   2.833   1.738   6.818 -0.0023  0.6167  0.3346
 3006SOL    HW120654   2.816   1.664   6.877  1.1656  0.5731  0.6197
 3006SOL    HW220655   2.780   1.806   6.859  0.6572  1.0078  0.5317
 3007SOL     OW20656   3.758   4.465   3.214  0.2954  0.1830 -0.0230
 3007SOL    HW120657   3.714   4.388   3.177 -0.3790  0.9621 -0.8673
 3007SOL    HW220658   3.832   4.478   3.154  0.9890  0.1647  0.8323
 3008SOL     OW20659   2.717   0.384   7.193 -0.3581 -0.6936 -0.0613
 3008SOL    HW120660   2.721   0.378   7.098 -0.2103  0.8302 -0.1655
 3008SOL    HW220661   2.623   0.395   7.208  0.0448  0.2729  1.8488
 3009SOL     OW20662   2.933   4.300  17.357 -0.2145 -0.2231  0.0799
 3009SOL    HW120663   2.953   4.332  17.445  0.1811 -0.7071  0.1628
 3009SOL    HW220664   3.002   4.237  17.339  2.0777  2.5238 -0.7822
 3010SOL     OW20665   0.057   0.083   1.639 -0.3836 -0.2810  0.3792
 3010SOL    HW120666   0.055   0.141   1.715 -0.0134  0.4880 -0.1920
 3010SOL    HW220667   0.149   0.055   1.640 -0.3356 -0.1646 -0.5060
 3011SOL     OW20668   3.284   4.422   5.327  0.5562  0.1451  0.2803
 3011SOL    HW120669   3.353   4.369   5.288  1.4431  1.7288 -0.2851
 3011SOL    HW220670   3.318   4.438   5.415 -0.8207 -2.4285  1.2881
 3012SOL     OW20671   0.474   0.157   0.783 -0.3444 -0.4781 -0.1466
 3012SOL    HW120672   0.398   0.183   0.835  0.1763 -3.9436  2.3157
 3012SOL    HW220673   0.552   0.205   0.811  1.2160 -2.1617 -1.5836
 3013SOL     OW20674   2.205   4.537   9.668 -0.2750 -0.0609 -0.0226
 3013SOL    HW120675   2.145   4.470   9.700 -0.3685 -0.0675 -0.2182
 3013SOL    HW220676   2.265   4.486   9.615  0.9221 -1.3974  2.6109
 3014SOL     OW20677   1.629   4.211   0.470 -0.1009  0.4059  0.0816
 3014SOL    HW120678   1.547   4.248   0.437  1.6878  0.1699 -4.6240
 3014SOL    HW220679   1.669   4.197   0.384  1.1241  1.1673  0.5233
 3015SOL     OW20680   2.234   2.627   3.748 -0.3435 -0.5883 -0.3473
 3015SOL    HW120681   2.278   2.634   3.833 -1.7048  1.5787  0.1689
 3015SOL    HW220682   2.181   2.548   3.758  0.3859 -1.3534 -2.5694
 3016SOL     OW20683   1.608   3.527   3.980 -0.3038 -1.1404 -0.8087
 3016SOL    HW120684   1.606   3.534   3.884  1.9341  0.8975 -0.7137
 3016SOL    HW220685   1.556   3.448   3.993 -3.1530  0.9277  0.4735
 3017SOL     OW20686   0.192   3.094   4.319 -0.4553 -0.6355 -0.3850
 3017SOL    HW120687   0.116   3.037   4.311 -1.1182 -0.2959  3.6312
 3017SOL    HW220688   0.261   3.032   4.340 -0.2141 -0.2674 -0.0826
 3018SOL     OW20689   2.768   0.721  14.944 -0.1271  0.5034  0.4122
 3018SOL    HW120690   2.682   0.763  14.949 -0.6153 -0.3032 -0.9754
 3018SOL    HW220691   2.809   0.764  15.018  0.6465 -0.1393  0.3541
 3019SOL     OW20692   2.559   4.106   7.403  0.0786 -0.5223 -0.4843
 3019SOL    HW120693   2.627   4.080   7.341  0.3722  0.8860 -0.7685
 3019SOL    HW220694   2.534   4.193   7.370 -0.6658  0.5663  2.9790
 3020SOL     OW20695   1.598   2.175   0.935 -0.2271 -0.3272  0.2552
 3020SOL    HW120696   1.652   2.099   0.915 -1.6990 -1.1539 -0.5918
 3020SOL    HW220697   1.573   2.194   0.844  1.1048 -0.4449 -0.1386
 3021SOL     OW20698   2.745   2.498   4.867  0.1135  0.2747  0.0182
 3021SOL    HW120699   2.759   2.421   4.812 -0.7349  1.2135 -1.4982
 3021SOL    HW220700   2.825   2.506   4.919  0.5084  0.2177 -0.5811
 3022SOL     OW20701   3.532   4.535   7.194  0.1054 -0.3793  0.0897
 3022SOL    HW120702   3.621   4.512   7.219  0.8354 -0.0683 -2.2516
 3022SOL    HW220703   3.558   4.564   7.107  1.7509  1.0164  1.0595
 3023SOL     OW20704   1.757   0.358  14.597  0.5454 -0.2551  0.1888
 3023SOL    HW120705   1.843   0.348  14.556  0.2577 -2.3919  0.0936
 3023SOL    HW220706   1.721   0.425  14.539  2.3523  0.2065 -0.4248
 3024SOL     OW20707   1.296   1.013   1.665  0.2505  0.1798 -0.1582
 3024SOL    HW120708   1.280   0.950   1.736  1.5866  1.1025  0.9581
 3024SOL    HW220709   1.382   0.987   1.634  1.8686  3.2810  1.7053
 3025SOL     OW20710   1.964   1.427   6.205 -0.0987 -0.2765  0.5805
 3025SOL    HW120711   2.000   1.486   6.138 -1.2354  0.0264  0.2322
 3025SOL    HW220712   2.024   1.447   6.276  0.3319 -0.2166  0.2016
 3026SOL     OW20713   4.389   0.826   4.520  0.6863  0.7578 -0.3443
 3026SOL    HW120714   4.295   0.823   4.507  0.7195 -1.9144  0.0241
 3026SOL    HW220715   4.418   0.811   4.430 -0.0652  0.3802 -0.5192
 3027SOL     OW20716   1.628   2.935  13.366  0.5972  0.3500  0.0496
 3027SOL    HW120717   1.708   2.987  13.359 -0.9877  2.9190  1.0266
 3027SOL    HW220718   1.641   2.873  13.438  0.8996  1.3265  0.8190
 3028SOL     OW20719   1.007   2.313  16.030  0.3143 -0.2876 -0.6595
 3028SOL    HW120720   0.998   2.314  16.125 -1.0268  0.2888 -0.8026
 3028SOL    HW220721   1.008   2.405  16.002  1.2559  0.0548  0.4944
 3029SOL     OW20722   2.049   4.590   2.536  0.3565 -0.6894 -0.2795
 3029SOL    HW120723   2.139   4.568   2.512  0.4399 -2.6618  1.7535
 3029SOL    HW220724   2.044   4.683   2.516  2.1796  0.0252  2.5305
 3030SOL     OW20725   4.168   3.536   9.506  0.4110  0.3236  0.1592
 3030SOL    HW120726   4.188   3.619   9.549 -1.4282 -0.4433  2.4934
 3030SOL    HW220727   4.245   3.483   9.528  0.9722  1.0334 -0.1026
 3031SOL     OW20728   4.358   4.407   3.351 -0.1093 -0.0482 -0.6013
 3031SOL    HW120729   4.440   4.359   3.337  1.0972  1.7995 -0.0600
 3031SOL    HW220730   4.327   4.369   3.433 -2.2483 -2.5530 -2.6024
 3032SOL     OW20731   3.246   1.726   3.335  0.1243  0.4286  0.1078
 3032SOL    HW120732   3.238   1.819   3.357  0.9246 -0.0980  2.5670
 3032SOL    HW220733   3.190   1.687   3.402 -1.3071  2.9938  0.4236
 3033SOL     OW20734   0.401   1.507  14.129 -0.5688 -0.1619  0.6271
 3033SOL    HW120735   0.447   1.512  14.045 -0.4841  2.6213  0.8270
 3033SOL    HW220736   0.441   1.438  14.181  0.0064  0.4410  0.9862
 3034SOL     OW20737   0.769   1.947   8.099  0.0423  0.3942 -0.0853
 3034SOL    HW120738   0.700   2.014   8.099  0.9836  1.3570  0.2103
 3034SOL    HW220739   0.724   1.867   8.069  0.1741  0.5362 -0.6564
 3035SOL     OW20740   2.098   0.601   2.798 -0.3094 -0.5397 -0.2482
 3035SOL    HW120741   2.092   0.682   2.747 -2.5813 -1.4409 -1.4060
 3035SOL    HW220742   2.118   0.648   2.879 -0.3271  0.4763 -0.8369
 3036SOL     OW20743   1.495   3.403  15.281  0.3883  0.4447  0.2662
 3036SOL    HW120744   1.522   3.495  15.284 -0.8458  0.7962  0.8130
 3036SOL    HW220745   1.461   3.399  15.191  0.1394  0.9376  0.3377
 3037SOL     OW20746   3.963   2.889   7.431  0.8754  0.1091  0.7070
 3037SOL    HW120747   3.959   2.943   7.353 -4.0554  0.0578  0.9014
 3037SOL    HW220748   4.040   2.838   7.408  0.7049  0.5546 -0.8102
 3038SOL     OW20749   0.321   0.531   8.628  0.8837 -0.2486 -0.0477
 3038SOL    HW120750   0.285   0.602   8.683 -0.6434 -2.7220  2.1541
 3038SOL    HW220751   0.412   0.549   8.652  0.4925 -0.3833  1.5913
 3039SOL     OW20752   4.688   2.337   2.411 -0.3579  0.4312 -0.1137
 3039SOL    HW120753   4.633   2.401   2.365  0.8573  1.7706  0.2730
 3039SOL    HW220754   0.036   2.379   2.403 -1.3238  2.8063  1.9400
 3040SOL     OW20755   1.669   2.857   5.203  0.8297 -0.2270 -0.1889
 3040SOL    HW120756   1.637   2.891   5.119 -1.7819  0.0517  0.9433
 3040SOL    HW220757   1.740   2.920   5.212  1.2820 -0.6780 -0.5641
 3041SOL     OW20758   2.723   2.491   2.719  0.0255 -0.2875 -0.3019
 3041SOL    HW120759   2.802   2.439   2.722 -0.4439 -1.0426 -1.1598
 3041SOL    HW220760   2.682   2.495   2.806  1.0316 -1.2760  0.2149
 3042SOL     OW20761   4.219   2.099  16.613 -0.4582  0.1435 -0.4454
 3042SOL    HW120762   4.239   2.186  16.646  0.8533 -0.9637  1.6645
 3042SOL    HW220763   4.127   2.106  16.587 -0.4223  3.1318  0.3304
 3043SOL     OW20764   2.534   2.346   5.685 -0.3316 -0.3277  0.6344
 3043SOL    HW120765   2.497   2.427   5.722  1.2856  0.9626 -0.5425
 3043SOL    HW220766   2.492   2.331   5.600  1.3630  1.9038 -0.6199
 3044SOL     OW20767   3.983   3.969   3.132  0.7345 -0.2856 -0.4391
 3044SOL    HW120768   3.894   3.961   3.168  1.2052 -1.5516  0.4534
 3044SOL    HW220769   4.043   3.934   3.198 -1.6825 -1.8284  0.9657
 3045SOL     OW20770   0.218   0.054   7.366 -0.1867 -0.0993 -0.7047
 3045SOL    HW120771   0.155   0.117   7.332  0.8954  0.5945 -1.4401
 3045SOL    HW220772   0.240   4.732   7.296 -1.7672 -2.2883  0.6744
 3046SOL     OW20773   4.235   4.009   9.360 -0.2656  0.3000  0.1065
 3046SOL    HW120774   4.300   4.079   9.352  2.2887 -1.9514  1.0082
 3046SOL    HW220775   4.165   4.057   9.403 -1.5586 -0.0725 -1.5963
 3047SOL     OW20776   2.914   1.158   5.319 -0.3962  0.4553 -0.3549
 3047SOL    HW120777   2.966   1.171   5.239 -0.9854 -2.0344 -1.1563
 3047SOL    HW220778   2.971   1.131   5.390  0.0925  1.1176 -0.4971
 3048SOL     OW20779   2.880   1.308  12.490  0.4451 -0.1693 -0.0401
 3048SOL    HW120780   2.842   1.242  12.548 -1.9479  2.7793  1.7757
 3048SOL    HW220781   2.843   1.384  12.536 -0.2223 -1.9724  2.4335
 3049SOL     OW20782   2.621   3.878  12.906  0.4436  0.1734  0.3680
 3049SOL    HW120783   2.604   3.866  12.812  0.1226 -0.0367  0.4531
 3049SOL    HW220784   2.660   3.792  12.925  0.7232  0.1519 -0.2755
 3050SOL     OW20785   0.913   0.027  11.915 -0.1657 -0.4433  0.7440
 3050SOL    HW120786   0.937   4.674  11.934 -1.8349 -1.3676 -1.4780
 3050SOL    HW220787   1.001   0.065  11.914 -0.3538 -0.0017  2.0460
 3051SOL     OW20788   1.172   4.040   8.814  0.2626 -0.2107 -0.1875
 3051SOL    HW120789   1.242   4.005   8.870  0.1219  0.1729  0.2368
 3051SOL    HW220790   1.183   3.975   8.745 -3.4036 -1.7433  0.6856
 3052SOL     OW20791   0.866   1.358   3.347  0.3632  0.1288 -0.2209
 3052SOL    HW120792   0.864   1.283   3.405 -0.7126  0.5105  0.2428
 3052SOL    HW220793   0.815   1.418   3.402  2.5756 -0.4223  2.3777
 3053SOL     OW20794   3.630   2.845   2.438 -0.0530 -0.1228 -0.1772
 3053SOL    HW120795   3.575   2.918   2.466  0.4721  0.5809 -0.9777
 3053SOL    HW220796   3.698   2.833   2.504 -0.2305 -2.8667 -0.4931
 3054SOL     OW20797   4.003   4.132   8.648 -0.3686 -0.1255  0.7104
 3054SOL    HW120798   3.948   4.182   8.587  0.6558  0.9497  0.6847
 3054SOL    HW220799   4.078   4.111   8.593  0.3286 -0.1823  1.6865
 3055SOL     OW20800   0.649   1.708   3.273 -0.5795  0.5236  0.1210
 3055SOL    HW120801   0.610   1.622   3.260 -0.4925  0.7180 -1.4175
 3055SOL    HW220802   0.712   1.676   3.338 -1.4146 -0.2435  0.5604
 3056SOL     OW20803   3.708   4.658   0.079  0.5123  0.4143  0.1793
 3056SOL    HW120804   3.753   4.734   0.116 -1.1108  0.8137  1.3451
 3056SOL    HW220805   3.621   4.692   0.058 -0.4357 -0.8419  2.0545
 3057SOL     OW20806   3.493   4.361  12.645 -0.4434 -0.6296  0.6842
 3057SOL    HW120807   3.440   4.285  12.670 -0.5756 -0.9996 -0.7236
 3057SOL    HW220808   3.556   4.355  12.716 -0.4481  1.4325  0.8709
 3058SOL     OW20809   2.073   2.300  10.515  0.1111 -0.3353 -0.2599
 3058SOL    HW120810   2.160   2.309  10.477  0.8340  1.1217  1.7483
 3058SOL    HW220811   2.044   2.389  10.533  2.1797  0.3354 -0.2671
 3059SOL     OW20812   2.338   0.703   2.631  0.4381 -0.4124 -0.6708
 3059SOL    HW120813   2.260   0.757   2.648  1.2709  0.3139  0.8091
 3059SOL    HW220814   2.319   0.635   2.566  1.9882 -0.0740 -1.4708
 3060SOL     OW20815   4.543   3.135   9.704 -0.7483  0.7601 -0.6691
 3060SOL    HW120816   4.551   3.047   9.741  1.9439  0.8378 -1.0349
 3060SOL    HW220817   4.580   3.112   9.618 -1.7557 -0.4384 -0.7898
 3061SOL     OW20818   1.754   0.892   3.974  0.7220  0.3950  0.4996
 3061SOL    HW120819   1.825   0.860   4.030  1.8109  1.2419 -0.3965
 3061SOL    HW220820   1.704   0.946   4.035 -0.4783  0.2469 -0.3435
 3062SOL     OW20821   1.142   2.706  16.589 -0.4587 -0.2323 -0.3471
 3062SOL    HW120822   1.176   2.622  16.558 -0.3529  0.1443 -1.2534
 3062SOL    HW220823   1.205   2.769  16.553  0.3385 -0.1680  1.1740
 3063SOL     OW20824   1.564   0.021   8.966  0.1197  0.4800 -0.1442
 3063SOL    HW120825   1.615   4.725   9.039 -1.6820 -0.9321  0.4756
 3063SOL    HW220826   1.480   0.045   9.007 -0.1274 -1.1313  0.3140
 3064SOL     OW20827   1.698   1.518   7.272 -1.0584 -0.1404 -0.0075
 3064SOL    HW120828   1.629   1.457   7.300 -1.0725 -0.4617 -0.7330
 3064SOL    HW220829   1.749   1.529   7.352  0.2903 -0.1704 -0.8630
 3065SOL     OW20830   2.214   2.818  13.326 -0.0280  0.2404  0.6955
 3065SOL    HW120831   2.284   2.780  13.378  0.4433  2.7648  1.9255
 3065SOL    HW220832   2.222   2.912  13.346 -3.2890  0.6399  0.1664
 3066SOL     OW20833   1.023   1.008   1.641 -1.0523 -0.2242  0.2871
 3066SOL    HW120834   1.053   0.921   1.668 -0.8451 -0.2281  0.0521
 3066SOL    HW220835   1.108   1.052   1.645 -0.6590 -0.9312 -0.2590
 3067SOL     OW20836   1.447   3.596   8.114 -0.0446 -0.5123 -0.0890
 3067SOL    HW120837   1.525   3.651   8.123  1.8136 -2.8574 -1.7771
 3067SOL    HW220838   1.489   3.516   8.147 -0.3022 -0.9739 -0.8907
 3068SOL     OW20839   4.681   3.250   5.497 -0.0420  0.2416  0.0794
 3068SOL    HW120840   4.626   3.232   5.420  0.4137 -1.0907  0.0574
 3068SOL    HW220841   4.640   3.187   5.557 -0.8291  0.7982  0.1324
 3069SOL     OW20842   3.345   2.513   2.953 -0.8954 -0.3320 -0.5078
 3069SOL    HW120843   3.315   2.490   3.041  0.8195  1.4180  0.5289
 3069SOL    HW220844   3.397   2.439   2.924  0.0239  0.6265 -1.3112
 3070SOL     OW20845   3.439   0.534   5.340 -0.3455  0.5514 -0.0534
 3070SOL    HW120846   3.510   0.470   5.350 -0.3303  0.3855 -1.2544
 3070SOL    HW220847   3.451   0.594   5.414 -3.5786  0.6026  0.4232
 3071SOL     OW20848   3.470   2.619   1.104 -0.2145  0.1347 -0.2572
 3071SOL    HW120849   3.526   2.685   1.144  1.5400 -2.1274  1.0513
 3071SOL    HW220850   3.523   2.539   1.098 -1.7011 -0.7987 -1.1183
 3072SOL     OW20851   3.903   0.244   7.447  0.1009 -0.5338  0.5176
 3072SOL    HW120852   3.951   0.198   7.517  0.4148 -1.4847 -0.3096
 3072SOL    HW220853   3.833   0.276   7.503 -0.5535 -1.5554  0.2830
 3073SOL     OW20854   3.128   4.137   4.920  0.3662 -0.0928 -0.6347
 3073SOL    HW120855   3.115   4.044   4.937  1.5109 -0.2162 -0.4521
 3073SOL    HW220856   3.042   4.172   4.942  0.5005  0.0934 -0.3959
 3074SOL     OW20857   4.053   1.762   2.638  0.1872  0.2692  0.3953
 3074SOL    HW120858   4.126   1.823   2.629  0.4831 -0.4455 -2.0599
 3074SOL    HW220859   4.045   1.725   2.550 -0.0654 -0.3672  0.6815
 3075SOL     OW20860   1.810   2.587   5.324 -0.2158  0.1112  0.2653
 3075SOL    HW120861   1.887   2.643   5.331 -0.3920  0.7283 -2.8339
 3075SOL    HW220862   1.780   2.585   5.415 -1.7453  1.8567 -0.2156
 3076SOL     OW20863   1.942   1.238   6.844  0.2897  0.1821 -0.0861
 3076SOL    HW120864   2.019   1.216   6.791  0.2862 -1.4908  0.6096
 3076SOL    HW220865   1.942   1.333   6.858  2.2177  0.2354 -0.3377
 3077SOL     OW20866   3.947   2.658   6.630 -0.2089 -0.0086 -0.2568
 3077SOL    HW120867   3.904   2.645   6.714 -0.4542  0.4814 -0.3055
 3077SOL    HW220868   3.914   2.577   6.592 -1.3949  0.5187 -0.3592
 3078SOL     OW20869   0.252   1.310  12.192  0.0746 -0.1950  0.5244
 3078SOL    HW120870   0.336   1.346  12.163  0.7140 -1.7738  0.4537
 3078SOL    HW220871   0.231   1.369  12.265  1.2677  1.1705 -0.2325
 3079SOL     OW20872   4.379   3.995   8.370 -0.2353  0.1727 -0.1451
 3079SOL    HW120873   4.420   4.020   8.453  0.0958  0.0596 -0.2731
 3079SOL    HW220874   4.286   3.989   8.391 -0.2002  0.5589  0.1181
 3080SOL     OW20875   1.711   3.553   6.353 -0.1933  0.1639 -0.5046
 3080SOL    HW120876   1.740   3.551   6.444 -1.5753  0.6409 -0.0467
 3080SOL    HW220877   1.735   3.462   6.336 -0.2850 -0.0627  0.5721
 3081SOL     OW20878   0.534   0.422   1.260 -0.2208 -0.2872  0.4001
 3081SOL    HW120879   0.547   0.431   1.354 -0.0591  0.1899  0.3305
 3081SOL    HW220880   0.616   0.460   1.229  0.0969 -0.5082  0.9746
 3082SOL     OW20881   1.907   0.948  11.979  0.4342  0.3425 -0.5227
 3082SOL    HW120882   1.860   0.938  11.896 -2.1547 -1.1496  1.1122
 3082SOL    HW220883   1.930   0.855  11.989 -1.1714 -0.2673 -2.5217
 3083SOL     OW20884   0.261   2.407   4.044  0.1031  0.1077 -0.0305
 3083SOL    HW120885   0.215   2.332   4.082  2.3223  0.0022  2.4766
 3083SOL    HW220886   0.257   2.383   3.952  0.1570 -2.5389  0.6517
 3084SOL     OW20887   0.959   2.003   3.815  0.9315  0.0234 -0.0874
 3084SOL    HW120888   0.988   2.028   3.727 -0.0899  1.1339 -0.1168
 3084SOL    HW220889   0.974   2.086   3.860 -2.3268 -0.6394  2.3050
 3085SOL     OW20890   2.108   4.000   2.640  0.5092  0.0251 -0.1712
 3085SOL    HW120891   2.079   3.991   2.549 -0.4875 -0.5970  0.2129
 3085SOL    HW220892   2.184   4.057   2.629  1.5423 -0.9183  2.1234
 3086SOL     OW20893   0.400   0.671   2.477 -0.0898 -0.5290 -0.2572
 3086SOL    HW120894   0.335   0.714   2.421 -0.2551  1.0435  1.1499
 3086SOL    HW220895   0.395   0.719   2.559 -3.4201 -0.1056 -0.6976
 3087SOL     OW20896   4.374   3.116   2.777  0.7219 -0.1486  0.0198
 3087SOL    HW120897   4.363   3.183   2.844  0.6093 -0.0956 -0.0511
 3087SOL    HW220898   4.470   3.117   2.770  0.7409  0.4046  0.4149
 3088SOL     OW20899   3.466   0.445   8.466 -0.2440  0.8063  0.3060
 3088SOL    HW120900   3.403   0.496   8.414 -1.0318 -0.9037 -0.4060
 3088SOL    HW220901   3.534   0.509   8.486  1.5862 -1.1042  0.1294
 3089SOL     OW20902   0.754   3.451   6.459 -0.2560 -0.4430  0.2050
 3089SOL    HW120903   0.820   3.465   6.392 -1.0931 -2.4155 -1.0324
 3089SOL    HW220904   0.743   3.533   6.509 -0.3047  0.7617 -1.7980
 3090SOL     OW20905   2.555   1.818   2.144  0.4050 -0.6146  0.0657
 3090SOL    HW120906   2.616   1.885   2.115 -0.5353  0.7427  1.2647
 3090SOL    HW220907   2.529   1.850   2.230  1.1964 -0.6133  0.3060
 3091SOL     OW20908   0.827   0.838   6.994  0.3062  0.4606 -0.3912
 3091SOL    HW120909   0.762   0.852   6.926  1.1548  0.4658 -1.2003
 3091SOL    HW220910   0.863   0.924   7.013 -0.5104  0.2200  2.2286
 3092SOL     OW20911   0.569   2.717  12.783  0.0986  0.3310 -0.1490
 3092SOL    HW120912   0.513   2.642  12.762 -2.0608  1.3678  1.9636
 3092SOL    HW220913   0.500   2.783  12.772 -0.8404 -0.4987  0.7742
 3093SOL     OW20914   3.933   1.904  14.689  0.3860 -0.2982  0.0436
 3093SOL    HW120915   3.919   1.891  14.595 -2.1040  0.1318  0.3463
 3093SOL    HW220916   3.967   1.994  14.690  1.2032 -0.6405  2.5605
 3094SOL     OW20917   3.613   1.402   7.595 -0.3708  0.1782  0.0061
 3094SOL    HW120918   3.594   1.341   7.524 -1.1094  0.6571 -0.2187
 3094SOL    HW220919   3.647   1.475   7.542  1.6319  0.7216  2.0367
 3095SOL     OW20920   0.535   2.272  16.689  0.4374 -0.3451  0.4806
 3095SOL    HW120921   0.467   2.216  16.728 -0.7616  0.8709  0.1393
 3095SOL    HW220922   0.497   2.357  16.712  1.7051  0.6165 -0.9745
 3096SOL     OW20923   0.697   1.948   9.790 -0.4680 -0.0918 -0.4847
 3096SOL    HW120924   0.718   1.943   9.883  0.3773 -1.2477 -0.7399
 3096SOL    HW220925   0.783   1.981   9.763 -0.3074 -1.0372 -1.1255
 3097SOL     OW20926   4.106   2.304  17.464 -0.6579 -0.1602  0.2737
 3097SOL    HW120927   4.190   2.265  17.487 -1.2371 -2.5409 -1.6443
 3097SOL    HW220928   4.108   2.385  17.515 -1.2876 -0.4547  0.7574
 3098SOL     OW20929   0.836   2.961  10.055 -0.2886  0.5206  0.2153
 3098SOL    HW120930   0.768   2.896  10.038 -1.5706  1.6519  1.0347
 3098SOL    HW220931   0.839   2.961  10.151  0.2457  0.1678  0.1992
 3099SOL     OW20932   2.077   1.952   1.693 -0.8105 -0.4918 -0.0504
 3099SOL    HW120933   2.083   2.045   1.716 -0.0930 -0.8374  1.2082
 3099SOL    HW220934   2.170   1.930   1.691 -0.7483 -0.2378  0.0691
 3100SOL     OW20935   4.733   3.071  12.451  0.0548 -0.3328 -0.4704
 3100SOL    HW120936   4.658   3.049  12.396 -1.1627  0.9223  0.7077
 3100SOL    HW220937   0.034   3.148  12.409  2.2247 -1.3611 -0.3557
 3101SOL     OW20938   4.149   3.923   9.102 -0.6051 -0.4773 -0.4641
 3101SOL    HW120939   4.190   3.999   9.142  1.8230 -2.3829  0.7119
 3101SOL    HW220940   4.068   3.921   9.152 -1.4639  1.9068 -1.7787
 3102SOL     OW20941   4.411   4.115   3.107  0.0408 -0.3134  0.2595
 3102SOL    HW120942   4.436   4.084   3.020 -0.5505 -1.0067  0.3305
 3102SOL    HW220943   4.491   4.130   3.157  1.1739 -2.1403 -0.9995
 3103SOL     OW20944   2.767   3.488   7.095  0.1212 -0.8339 -0.1475
 3103SOL    HW120945   2.801   3.423   7.157 -0.0576  0.3947  1.2465
 3103SOL    HW220946   2.694   3.440   7.057 -0.0800  0.8283 -1.8959
 3104SOL     OW20947   2.271   3.842  15.601 -0.6058  0.2920  0.6878
 3104SOL    HW120948   2.215   3.914  15.630  0.2744  0.3554  2.2512
 3104SOL    HW220949   2.214   3.795  15.540  1.8391 -0.6197 -0.8996
 3105SOL     OW20950   2.283   4.216   7.164 -0.4695  0.0690  0.3952
 3105SOL    HW120951   2.350   4.285   7.166 -2.5779  2.1520 -0.8821
 3105SOL    HW220952   2.228   4.251   7.094 -0.3225  0.2764  0.3797
 3106SOL     OW20953   4.724   0.571   1.792  0.4215 -0.2467 -0.0177
 3106SOL    HW120954   4.680   0.519   1.858 -0.2840 -0.2290 -0.4762
 3106SOL    HW220955   4.654   0.611   1.741 -1.1557 -1.2930  1.3378
 3107SOL     OW20956   1.841   0.502   2.850  0.1423 -0.2031  0.3136
 3107SOL    HW120957   1.925   0.532   2.816  0.5163 -0.1262  1.2888
 3107SOL    HW220958   1.825   0.436   2.783  3.1777  0.4417 -1.0606
 3108SOL     OW20959   1.491   1.811   0.751  0.6277  0.2521  0.0500
 3108SOL    HW120960   1.526   1.900   0.761  2.4718 -0.5168  0.3386
 3108SOL    HW220961   1.474   1.791   0.843  0.5274  1.3076  0.2642
 3109SOL     OW20962   2.780   1.565  12.632  0.1671  0.2548  0.0882
 3109SOL    HW120963   2.753   1.608  12.714 -2.4676 -1.1379 -0.0386
 3109SOL    HW220964   2.843   1.625  12.592  1.9593 -0.2911  2.1078
 3110SOL     OW20965   2.714   1.589   2.187  0.5731  0.3393  0.9502
 3110SOL    HW120966   2.798   1.590   2.142 -0.0768 -2.4107 -0.3068
 3110SOL    HW220967   2.675   1.670   2.154  1.3960  0.9653  1.5145
 3111SOL     OW20968   1.754   0.843   8.418 -0.0965  0.3258  0.1163
 3111SOL    HW120969   1.724   0.903   8.486  1.7584 -0.0781  1.3087
 3111SOL    HW220970   1.842   0.837   8.455  1.2597  1.5856 -2.9023
 3112SOL     OW20971   2.194   1.006   3.331  0.3166  0.1316  0.2067
 3112SOL    HW120972   2.235   0.965   3.255  1.7094  0.1962  0.9225
 3112SOL    HW220973   2.239   0.951   3.395 -4.3124 -5.6279 -1.5841
 3113SOL     OW20974   0.319   1.566   8.839 -0.5432  0.0332 -0.9113
 3113SOL    HW120975   0.237   1.598   8.875 -1.7098 -1.1516 -2.5664
 3113SOL    HW220976   0.319   1.476   8.870 -1.8663  0.0466 -0.8791
 3114SOL     OW20977   1.007   3.655   2.207  0.1053 -0.3276 -0.1379
 3114SOL    HW120978   1.061   3.682   2.281 -2.0481  0.3083  1.2123
 3114SOL    HW220979   0.927   3.620   2.246 -0.5591  0.7782 -0.4888
 3115SOL     OW20980   2.662   4.145   2.306  0.4636 -0.4937 -0.5730
 3115SOL    HW120981   2.625   4.200   2.237  0.2926 -1.5652 -1.3307
 3115SOL    HW220982   2.613   4.064   2.294 -0.1822  0.2163 -2.7795
 3116SOL     OW20983   3.853   2.586   2.994  0.0617 -0.1548 -0.6617
 3116SOL    HW120984   3.904   2.663   3.017 -2.0484  1.3225 -0.8950
 3116SOL    HW220985   3.915   2.514   2.992  0.9553  0.6558 -3.1477
 3117SOL     OW20986   2.276   2.762  15.928 -0.2405  0.0701 -0.0062
 3117SOL    HW120987   2.330   2.803  15.860  1.0734  1.2747  1.7687
 3117SOL    HW220988   2.301   2.799  16.012  2.1578  0.6692 -0.9702
 3118SOL     OW20989   0.078   1.575   5.919 -0.1498 -0.3488  0.0541
 3118SOL    HW120990   0.155   1.625   5.893 -0.6871  0.3303 -0.2142
 3118SOL    HW220991   0.004   1.631   5.895 -1.6086 -2.9168 -1.5155
 3119SOL     OW20992   4.624   1.613   2.863 -0.1613  0.4437  0.1525
 3119SOL    HW120993   4.550   1.558   2.889  0.3785 -0.6630 -0.6449
 3119SOL    HW220994   4.692   1.578   2.920  0.8983 -0.7524 -1.8301
 3120SOL     OW20995   4.309   3.329   0.957 -0.1591  0.0393  0.0847
 3120SOL    HW120996   4.239   3.267   0.977  0.8180 -0.4491  1.9142
 3120SOL    HW220997   4.369   3.318   1.031 -0.8866 -0.9902  0.5179
 3121SOL     OW20998   3.814   1.247   2.529  0.0037 -0.1325 -0.0908
 3121SOL    HW120999   3.778   1.334   2.544  2.5660  1.1383 -1.2342
 3121SOL    HW221000   3.903   1.266   2.499  0.0763  2.6662  1.8973
 3122SOL     OW21001   2.716   4.340   3.500  0.3900  0.8633 -0.7041
 3122SOL    HW121002   2.736   4.404   3.432  3.0553 -0.1142 -0.8462
 3122SOL    HW221003   2.803   4.331   3.540  0.1950 -0.8203 -0.6910
 3123SOL     OW21004   4.483   2.595  13.160 -0.1317  0.1959  0.4953
 3123SOL    HW121005   4.510   2.685  13.177 -2.2114  0.5873  1.6607
 3123SOL    HW221006   4.458   2.603  13.069 -0.2152 -0.6666  0.4358
 3124SOL     OW21007   2.136   3.864   9.890 -0.1319  0.1911 -0.3771
 3124SOL    HW121008   2.222   3.823   9.890 -1.6186 -2.9463  0.2100
 3124SOL    HW221009   2.081   3.794   9.854 -0.7509  0.2589  0.4295
 3125SOL     OW21010   4.454   0.247   7.431 -0.1034  0.4708  0.1644
 3125SOL    HW121011   4.377   0.299   7.452 -0.0512  0.2644  0.8558
 3125SOL    HW221012   4.447   0.238   7.335 -0.0097  1.6211  0.0602
 3126SOL     OW21013   4.037   3.993   4.927  0.1055 -0.7130 -0.1227
 3126SOL    HW121014   4.026   4.088   4.928  1.4294 -0.5975  2.1452
 3126SOL    HW221015   4.003   3.970   4.841 -1.9907 -0.9455  0.7436
 3127SOL     OW21016   1.805   4.614   2.044 -0.4800 -0.5143 -0.3068
 3127SOL    HW121017   1.741   4.646   1.981  0.6881 -0.5888 -1.5195
 3127SOL    HW221018   1.743   4.609   2.117 -0.8193  2.2747 -0.3794
 3128SOL     OW21019   2.580   3.266   5.262  0.0236  0.6528  0.3048
 3128SOL    HW121020   2.614   3.237   5.347 -3.2321 -0.7922  1.1434
 3128SOL    HW221021   2.605   3.192   5.208 -0.5987 -0.1550  1.1204
 3129SOL     OW21022   2.553   0.273   9.368 -0.2410  0.0555 -0.4321
 3129SOL    HW121023   2.613   0.292   9.440  1.4916 -2.4548 -1.2021
 3129SOL    HW221024   2.581   0.185   9.343 -0.6078 -0.7698  2.0815
 3130SOL     OW21025   0.917   2.296  15.772  0.1077 -0.2524 -0.2300
 3130SOL    HW121026   0.891   2.222  15.718 -0.1325  0.1480 -0.6600
 3130SOL    HW221027   0.936   2.261  15.859  0.1646  0.3332 -0.0050
 3131SOL     OW21028   1.417   1.947   1.883 -0.3601 -0.2286 -0.2474
 3131SOL    HW121029   1.471   1.878   1.922  0.6310  1.2526  1.0184
 3131SOL    HW221030   1.477   2.022   1.875  1.9043 -1.9793  0.4672
 3132SOL     OW21031   0.331   3.711  15.824  0.0189 -0.0071 -0.2342
 3132SOL    HW121032   0.370   3.626  15.846 -2.7715 -1.5229 -1.1231
 3132SOL    HW221033   0.295   3.689  15.738  0.5588 -3.5729  0.4493
 3133SOL     OW21034   1.925   4.675   6.210 -0.1043 -0.1188 -0.2520
 3133SOL    HW121035   1.851   4.663   6.269 -2.5909  0.7586 -3.2030
 3133SOL    HW221036   1.999   4.656   6.269 -1.8410  1.1709  2.3594
 3134SOL     OW21037   2.782   0.121   5.201 -0.1527 -0.3487 -0.1730
 3134SOL    HW121038   2.752   0.034   5.176  1.5178 -1.5360  1.9016
 3134SOL    HW221039   2.703   0.172   5.186 -0.7400 -1.0391  0.5545
 3135SOL     OW21040   2.643   1.955   8.695  0.7037  0.1270  0.0792
 3135SOL    HW121041   2.699   1.925   8.623 -0.6657  1.7079 -1.6308
 3135SOL    HW221042   2.689   2.032   8.727  0.9435  0.3244 -0.7643
 3136SOL     OW21043   0.821   2.691   4.904  0.0077  0.0294 -0.3105
 3136SOL    HW121044   0.880   2.693   4.829  0.4560 -1.0938  0.0118
 3136SOL    HW221045   0.833   2.783   4.928 -1.0591 -0.3626  1.7800
 3137SOL     OW21046   2.183   3.135  13.509 -0.2644  0.3426  0.5878
 3137SOL    HW121047   2.125   3.211  13.507  0.7417  1.0674 -0.4256
 3137SOL    HW221048   2.116   3.070  13.531 -0.1258 -0.2469 -0.7394
 3138SOL     OW21049   2.742   1.565  11.422  0.9835  0.1355 -0.4536
 3138SOL    HW121050   2.780   1.477  11.412 -0.1440 -0.4094  0.0766
 3138SOL    HW221051   2.720   1.563  11.515  2.8335 -0.9726 -0.0264
 3139SOL     OW21052   2.972   4.724   3.494  0.0866  0.0506 -0.3424
 3139SOL    HW121053   3.038   0.054   3.508  0.9148 -0.6636 -0.7642
 3139SOL    HW221054   2.983   4.685   3.581 -1.0534 -0.9635 -0.6497
 3140SOL     OW21055   2.195   3.770  14.565  0.0158  0.4344  0.3862
 3140SOL    HW121056   2.224   3.808  14.648  0.3697 -0.5979  0.7310
 3140SOL    HW221057   2.110   3.811  14.549 -0.5511 -1.3520 -1.1596
 3141SOL     OW21058   4.129   4.075   6.033 -0.7315  0.4657 -0.1886
 3141SOL    HW121059   4.160   3.984   6.022 -0.9893  0.0604  2.5418
 3141SOL    HW221060   4.147   4.089   6.126 -1.3836 -1.6097  0.2646
 3142SOL     OW21061   2.070   3.081  13.052 -0.0521  0.2390 -0.3918
 3142SOL    HW121062   2.090   2.988  13.067 -0.4185  0.3059  0.5046
 3142SOL    HW221063   1.986   3.076  13.008 -1.0013  1.0859  1.3393
 3143SOL     OW21064   0.160   1.971   4.135 -0.6102  0.2000  0.0773
 3143SOL    HW121065   0.096   1.977   4.205 -2.5540 -3.3479 -1.4367
 3143SOL    HW221066   0.193   1.881   4.135  2.3336  1.2320 -3.7199
 3144SOL     OW21067   4.478   4.266   2.178  0.1126 -0.0638 -0.0307
 3144SOL    HW121068   4.439   4.330   2.120 -1.0485 -0.4825  0.2937
 3144SOL    HW221069   4.573   4.272   2.173  0.1131 -0.5934 -0.6363
 3145SOL     OW21070   3.946   3.294   7.923 -0.0959 -0.3197  0.3477
 3145SOL    HW121071   3.888   3.222   7.898 -1.1522  0.6179  0.1070
 3145SOL    HW221072   3.897   3.372   7.896 -0.7919 -0.5554  0.9059
 3146SOL     OW21073   4.292   2.114   5.242 -0.6097 -0.0331  0.5177
 3146SOL    HW121074   4.379   2.154   5.241 -0.0294 -1.2478  2.1685
 3146SOL    HW221075   4.240   2.187   5.209  0.1170  1.9678  3.8236
 3147SOL     OW21076   3.460   0.964   6.683  0.1187  0.4523  0.2529
 3147SOL    HW121077   3.454   0.874   6.715 -0.3590  0.4220  0.0688
 3147SOL    HW221078   3.495   0.950   6.595  0.2794  0.1826  0.3606
 3148SOL     OW21079   3.613   3.113   5.516 -0.2819 -0.7192  0.2420
 3148SOL    HW121080   3.567   3.153   5.442 -0.5994 -2.0091 -0.2574
 3148SOL    HW221081   3.534   3.093   5.567  0.5120 -0.7802  1.4408
 3149SOL     OW21082   0.833   0.148  17.098 -0.3340 -0.4664 -0.0542
 3149SOL    HW121083   0.845   0.212  17.027 -2.8552  2.5910  2.2218
 3149SOL    HW221084   0.898   0.185  17.157  0.0590 -0.8718 -0.2382
 3150SOL     OW21085   3.342   1.289   4.577 -0.2767 -0.0690  0.5084
 3150SOL    HW121086   3.289   1.221   4.617 -0.3091 -0.8243 -0.8351
 3150SOL    HW221087   3.403   1.244   4.519  1.9467  0.4533  2.4290
 3151SOL     OW21088   0.101   3.847  10.643 -0.6123  0.8933 -0.3827
 3151SOL    HW121089   0.164   3.839  10.572 -1.0789 -0.2764 -0.6534
 3151SOL    HW221090   0.144   3.818  10.724  0.2825 -0.6578 -1.4331
 3152SOL     OW21091   3.329   3.299   4.422 -0.7945  0.6357 -0.6054
 3152SOL    HW121092   3.347   3.303   4.328 -1.3569  0.1192 -0.7310
 3152SOL    HW221093   3.244   3.257   4.429  0.8414 -2.7050 -0.6494
 3153SOL     OW21094   0.485   4.196   3.396  0.3550 -0.1844 -0.0685
 3153SOL    HW121095   0.430   4.272   3.379 -1.3833 -1.7134 -1.2516
 3153SOL    HW221096   0.452   4.172   3.483 -0.6090  0.9357 -0.1300
 3154SOL     OW21097   2.417   3.580   2.660  0.4573  0.2206 -0.8101
 3154SOL    HW121098   2.493   3.636   2.648 -0.1579  0.6605 -2.5741
 3154SOL    HW221099   2.376   3.599   2.576  2.6477  0.9780 -1.7039
 3155SOL     OW21100   3.340   4.687   3.757 -0.3546  0.4622  0.0384
 3155SOL    HW121101   3.295   4.621   3.810  1.7558  1.4065  3.0203
 3155SOL    HW221102   3.297   0.029   3.786 -0.6175  0.4915 -0.4245
 3156SOL     OW21103   2.373   2.757   7.860 -0.3760 -0.7564 -0.1564
 3156SOL    HW121104   2.285   2.767   7.824 -1.2244 -0.5743  2.0186
 3156SOL    HW221105   2.398   2.667   7.840 -0.6332 -0.9402  0.3643
 3157SOL     OW21106   0.639   0.653   0.518 -0.0589 -0.1181  0.3352
 3157SOL    HW121107   0.717   0.706   0.530 -0.1565 -0.0378  0.6038
 3157SOL    HW221108   0.564   0.713   0.527 -1.4105 -1.7171 -0.2636
 3158SOL     OW21109   2.753   3.510   7.937 -0.4906  0.1477 -0.1882
 3158SOL    HW121110   2.793   3.567   7.872 -0.3601 -0.1782 -0.3985
 3158SOL    HW221111   2.662   3.538   7.938 -0.2200  1.0253 -0.9016
 3159SOL     OW21112   2.241   0.553   0.405  0.8077 -0.0875 -0.3173
 3159SOL    HW121113   2.300   0.579   0.334 -1.4060  1.8148 -1.4549
 3159SOL    HW221114   2.184   0.630   0.402  0.6795 -0.2326 -1.5864
 3160SOL     OW21115   0.689   1.399  16.014 -1.0358 -0.0073  0.3012
 3160SOL    HW121116   0.741   1.410  16.093 -0.5128  0.4115 -0.1016
 3160SOL    HW221117   0.647   1.484  16.015  0.0460  0.5501 -1.1005
 3161SOL     OW21118   3.642   4.101  11.502  0.4067  0.2957 -0.2466
 3161SOL    HW121119   3.651   4.127  11.594  0.3322  0.4912 -0.2939
 3161SOL    HW221120   3.731   4.109  11.469  1.3177 -1.7343  1.7054
 3162SOL     OW21121   4.372   0.512   2.693 -0.4754  0.6510  0.4672
 3162SOL    HW121122   4.434   0.447   2.659  0.2669  0.8046  1.5083
 3162SOL    HW221123   4.397   0.532   2.784  0.9390 -1.9840  0.6715
 3163SOL     OW21124   1.859   0.960   5.116 -0.3532 -0.1912  0.3618
 3163SOL    HW121125   1.783   1.018   5.119 -1.5115 -1.5455 -2.5571
 3163SOL    HW221126   1.818   0.880   5.150  1.7628 -0.4873  2.2046
 3164SOL     OW21127   0.610   0.569   7.472 -0.2214 -0.2815  0.1821
 3164SOL    HW121128   0.646   0.635   7.413  0.7092  0.3808  1.4783
 3164SOL    HW221129   0.518   0.594   7.486 -0.7340 -1.2669 -1.3791
 3165SOL     OW21130   2.803   4.220   1.328  0.0232 -0.3109  0.9584
 3165SOL    HW121131   2.896   4.244   1.328  0.3822 -1.6764 -0.4583
 3165SOL    HW221132   2.818   4.126   1.316  0.8483 -0.0095 -0.4799
 3166SOL     OW21133   4.327   4.152  14.011  0.1304 -0.1108  0.2758
 3166SOL    HW121134   4.318   4.064  13.973 -1.0049  0.3277 -0.4644
 3166SOL    HW221135   4.241   4.188  13.988 -0.3748 -1.0720  0.6535
 3167SOL     OW21136   3.306   2.400   1.663  0.6525  0.4534  0.1259
 3167SOL    HW121137   3.313   2.320   1.611 -2.1387  0.2854  0.0309
 3167SOL    HW221138   3.212   2.412   1.675  0.1199 -2.0611 -1.6095
 3168SOL     OW21139   2.295   2.958   5.796  0.2595  0.3143  0.0644
 3168SOL    HW121140   2.276   2.950   5.703  1.2168 -0.0129 -0.1049
 3168SOL    HW221141   2.274   3.050   5.805  0.2722  0.3606 -0.3762
 3169SOL     OW21142   3.054   3.865   3.222  0.5660 -0.1673 -0.0251
 3169SOL    HW121143   3.069   3.950   3.180 -0.2583  0.5221  1.0666
 3169SOL    HW221144   3.034   3.806   3.149  1.8688  2.2797 -2.3584
 3170SOL     OW21145   1.710   4.580  13.027 -0.0605  0.1039 -0.5125
 3170SOL    HW121146   1.717   4.651  12.963  2.4635  1.1329  0.9208
 3170SOL    HW221147   1.688   4.630  13.105 -1.8227 -0.9026 -0.3516
 3171SOL     OW21148   1.653   3.678   5.205 -0.0061 -0.7063 -0.0758
 3171SOL    HW121149   1.713   3.646   5.272  2.0955  2.6130 -0.3391
 3171SOL    HW221150   1.582   3.615   5.217 -0.6336  0.0325  0.0896
 3172SOL     OW21151   2.736   1.138   0.365 -0.1440 -0.3620  0.0736
 3172SOL    HW121152   2.643   1.115   0.369 -0.4496  1.1058  1.1482
 3172SOL    HW221153   2.732   1.184   0.281  0.2774  1.7364  1.2170
 3173SOL     OW21154   3.852   2.077   7.273 -0.2271  0.2119 -0.1108
 3173SOL    HW121155   3.921   2.088   7.208 -1.1455  0.1623 -1.0874
 3173SOL    HW221156   3.899   2.096   7.354  0.2815  1.0557 -0.6041
 3174SOL     OW21157   0.709   2.388   1.729 -0.2250  0.5435  0.1398
 3174SOL    HW121158   0.804   2.382   1.727 -0.4955 -3.7539  1.4066
 3174SOL    HW221159   0.694   2.341   1.811  0.6976  0.2223  0.1212
 3175SOL     OW21160   1.677   0.487  14.387  0.2435  0.2959 -0.0049
 3175SOL    HW121161   1.708   0.513  14.301  1.3115  0.8024  0.5265
 3175SOL    HW221162   1.608   0.423  14.366 -1.4763  1.5241  1.8651
 3176SOL     OW21163   1.795   2.162   7.321  0.6677  0.5013 -0.4631
 3176SOL    HW121164   1.703   2.155   7.346  0.8847 -0.0425  0.1745
 3176SOL    HW221165   1.805   2.074   7.285  0.6358  0.9808 -1.6598
 3177SOL     OW21166   4.169   3.702   8.230 -0.4741  0.0636 -0.4487
 3177SOL    HW121167   4.146   3.695   8.322  1.5777  0.8931  0.1284
 3177SOL    HW221168   4.257   3.738   8.239 -1.3628  2.0401  0.1097
 3178SOL     OW21169   3.401   4.482   9.237 -0.5312 -0.5421  0.0822
 3178SOL    HW121170   3.462   4.556   9.237 -0.0997 -0.8952 -1.8579
 3178SOL    HW221171   3.454   4.421   9.185  0.3963  0.7388 -0.4872
 3179SOL     OW21172   1.055   0.845   8.965  0.7589  0.7177  0.0552
 3179SOL    HW121173   1.018   0.819   8.881 -0.4850  1.9714  0.2294
 3179SOL    HW221174   0.984   0.898   9.000 -0.8388 -2.2525  1.3432
 3180SOL     OW21175   2.323   0.293   5.808 -0.3128  0.3969 -0.2519
 3180SOL    HW121176   2.326   0.311   5.714  0.1733  3.6879  0.3903
 3180SOL    HW221177   2.397   0.236   5.829 -0.6381 -0.0754 -0.4080
 3181SOL     OW21178   3.213   2.914   3.241  0.0674 -0.0262  0.0094
 3181SOL    HW121179   3.258   2.942   3.162 -0.1273 -0.5843 -0.3019
 3181SOL    HW221180   3.128   2.890   3.204 -1.3500  3.6005  0.9803
 3182SOL     OW21181   3.993   2.340   2.993  0.0675  0.2176  0.3243
 3182SOL    HW121182   3.990   2.245   2.983  0.9383  0.3560 -1.2150
 3182SOL    HW221183   3.963   2.337   3.084  0.6875  0.0234  0.5221
 3183SOL     OW21184   0.538   0.433  14.926  0.0551  0.0476 -0.1892
 3183SOL    HW121185   0.595   0.487  14.872  0.7351 -0.6813 -0.1959
 3183SOL    HW221186   0.491   0.379  14.863 -0.4087 -1.5920  1.5583
 3184SOL     OW21187   1.618   4.092   3.718 -0.0363  0.6636  0.3319
 3184SOL    HW121188   1.687   4.096   3.784  0.4124  1.2885 -0.1810
 3184SOL    HW221189   1.669   4.093   3.637 -1.1374  0.9340 -0.3568
 3185SOL     OW21190   1.436   2.368   1.736 -0.0963  0.0456  0.1373
 3185SOL    HW121191   1.500   2.333   1.798  0.0165 -2.0763 -1.1812
 3185SOL    HW221192   1.428   2.293   1.677  0.6730 -0.8616  1.1795
 3186SOL     OW21193   1.446   3.686  11.853  0.3635 -0.5645 -0.5572
 3186SOL    HW121194   1.369   3.701  11.907  2.3423  1.6511  1.6722
 3186SOL    HW221195   1.504   3.757  11.882 -0.3524  0.2399 -1.0919
 3187SOL     OW21196   4.453   2.639   3.989  0.5254  0.6801 -0.4270
 3187SOL    HW121197   4.434   2.582   4.064  3.8665  0.2458  0.0887
 3187SOL    HW221198   4.534   2.688   4.000  0.3564  1.0843 -1.0009
 3188SOL     OW21199   4.273   3.159   8.566  0.1991  0.0397 -0.2402
 3188SOL    HW121200   4.289   3.202   8.650 -3.8916  1.1859 -0.0449
 3188SOL    HW221201   4.179   3.151   8.551 -0.0285 -2.1985  2.5204
 3189SOL     OW21202   1.514   2.340  11.932  0.1149  0.3220 -0.1638
 3189SOL    HW121203   1.537   2.410  11.870 -1.8282 -0.3765 -1.6736
 3189SOL    HW221204   1.537   2.264  11.879 -0.6747 -0.6090  0.8234
 3190SOL     OW21205   0.856   1.401  10.564  0.1055 -0.0534  0.0685
 3190SOL    HW121206   0.928   1.343  10.542 -0.2006 -0.0322 -0.9759
 3190SOL    HW221207   0.786   1.345  10.532 -2.8221  4.3175 -1.1433
 3191SOL     OW21208   1.308   3.909   5.838  0.0368 -0.0097  0.4067
 3191SOL    HW121209   1.351   3.981   5.793 -0.4303  0.2567  0.3861
 3191SOL    HW221210   1.315   3.928   5.932  1.3311  0.2901  0.2464
 3192SOL     OW21211   0.618   4.506  11.265 -0.7766  0.3475  0.1504
 3192SOL    HW121212   0.539   4.557  11.282 -1.5498 -0.6202 -0.5859
 3192SOL    HW221213   0.591   4.416  11.251 -1.0113  0.4970 -0.3568
 3193SOL     OW21214   1.587   1.682  15.454 -0.1257  0.1898 -0.2579
 3193SOL    HW121215   1.511   1.641  15.413  0.2016 -0.7133  0.0515
 3193SOL    HW221216   1.642   1.714  15.382  0.4846 -0.3655 -0.0419
 3194SOL     OW21217   2.318   3.721   8.831 -0.5630  0.6274 -0.4895
 3194SOL    HW121218   2.235   3.728   8.877 -0.5710  0.9213 -0.5484
 3194SOL    HW221219   2.359   3.807   8.843  0.3819  0.3362 -1.5652
 3195SOL     OW21220   1.651   4.215  17.417 -0.4493 -0.2547 -0.0631
 3195SOL    HW121221   1.615   4.133  17.382 -2.3405 -0.1032  1.5327
 3195SOL    HW221222   1.674   4.261  17.336  0.0138 -0.4861 -0.0603
 3196SOL     OW21223   3.786   0.622   9.223 -0.0729  0.1406  0.3017
 3196SOL    HW121224   3.728   0.546   9.220 -0.5437  0.5239 -0.2606
 3196SOL    HW221225   3.851   0.577   9.278 -0.2651  0.6008  0.9100
 3197SOL     OW21226   3.403   2.368   0.777 -0.7296 -0.4147  0.3476
 3197SOL    HW121227   3.343   2.300   0.746 -0.8218  0.1827 -0.7912
 3197SOL    HW221228   3.371   2.448   0.736  3.7355  1.7706  1.1186
 3198SOL     OW21229   1.185   2.149   4.276  0.4882  0.1210  0.2446
 3198SOL    HW121230   1.141   2.179   4.355 -0.7133  1.0180 -0.7608
 3198SOL    HW221231   1.198   2.056   4.295  2.7106  0.6968  1.5473
 3199SOL     OW21232   1.674   0.474   1.532 -0.3966 -0.4617  0.5666
 3199SOL    HW121233   1.717   0.523   1.462  0.0429 -1.5178  0.0966
 3199SOL    HW221234   1.691   0.385   1.500  0.3698 -0.3107  0.5505
 3200SOL     OW21235   0.537   0.385   3.945  0.2736  0.8627  0.1771
 3200SOL    HW121236   0.492   0.301   3.957  1.3320  0.4103  0.9717
 3200SOL    HW221237   0.479   0.441   3.998 -0.7054  1.5360 -1.6113
 3201SOL     OW21238   4.578   4.133   5.193 -0.0083 -0.2972 -0.1283
 3201SOL    HW121239   4.586   4.223   5.162 -2.3076 -0.3886 -0.9691
 3201SOL    HW221240   4.497   4.099   5.154 -0.9023  0.6670  0.8929
 3202SOL     OW21241   2.523   4.135   6.892 -0.1264 -0.1851  0.6372
 3202SOL    HW121242   2.477   4.139   6.976  0.8953  0.8063  1.1472
 3202SOL    HW221243   2.612   4.140   6.926  0.5629  0.4792 -1.2608
 3203SOL     OW21244   1.519   1.999   8.107 -0.1659  0.2771  1.0655
 3203SOL    HW121245   1.534   1.924   8.050  0.4805  0.8607  0.4519
 3203SOL    HW221246   1.432   1.977   8.138 -0.4923  0.2462  0.1226
 3204SOL     OW21247   3.079   4.484   7.424  0.6717  0.2196  0.1279
 3204SOL    HW121248   3.053   4.393   7.414 -1.0694  0.6573  0.5744
 3204SOL    HW221249   3.169   4.458   7.404  0.9165  1.2930 -0.1799
 3205SOL     OW21250   3.567   1.924   4.625  0.0960 -0.1465 -0.3355
 3205SOL    HW121251   3.635   1.870   4.585  0.1973 -0.4051  0.1886
 3205SOL    HW221252   3.581   2.006   4.577 -0.7518  1.2089  1.7455
 3206SOL     OW21253   2.778   2.888   7.333 -0.0053  0.4638  0.8199
 3206SOL    HW121254   2.847   2.855   7.390 -0.6163 -1.6243  0.3690
 3206SOL    HW221255   2.829   2.923   7.260  3.6663 -0.0570  3.1167
 3207SOL     OW21256   3.650   4.509   2.476  0.0678 -0.1610  0.7613
 3207SOL    HW121257   3.743   4.531   2.477  0.3490 -1.3809  0.6100
 3207SOL    HW221258   3.630   4.527   2.384  3.0961 -2.3258 -0.3101
 3208SOL     OW21259   0.526   0.527  15.495 -0.3144  0.6445  0.1621
 3208SOL    HW121260   0.464   0.592  15.463 -1.4869 -0.6805 -0.2469
 3208SOL    HW221261   0.484   0.442  15.480 -1.5210  1.4295 -0.8870
 3209SOL     OW21262   2.265   0.478  17.155 -0.0494  0.8824  0.0660
 3209SOL    HW121263   2.327   0.423  17.203 -1.9086 -1.0512  0.2734
 3209SOL    HW221264   2.239   0.543  17.220  0.4706  0.1113  1.0626
 3210SOL     OW21265   0.901   1.102   7.026  0.6063  0.0034 -0.5648
 3210SOL    HW121266   0.919   1.169   6.959  0.8999  0.1419 -0.3472
 3210SOL    HW221267   0.987   1.075   7.059  1.0612 -0.3651 -2.0510
 3211SOL     OW21268   1.011   2.258  11.043 -0.6039  0.4113  0.7209
 3211SOL    HW121269   1.026   2.240  10.950 -0.9733 -0.2711  0.7952
 3211SOL    HW221270   1.008   2.354  11.047 -1.8375  0.4736 -1.5354
 3212SOL     OW21271   3.611   1.237   3.189  0.2840  0.3352 -0.2369
 3212SOL    HW121272   3.571   1.264   3.271 -0.4302  0.7668 -0.7212
 3212SOL    HW221273   3.625   1.327   3.158 -0.1001  1.0796  1.7433
 3213SOL     OW21274   2.930   2.668   0.061 -0.0337 -0.0574  0.1049
 3213SOL    HW121275   2.932   2.761   0.041  0.2308  0.8846  4.5349
 3213SOL    HW221276   2.980   2.643  17.734  1.3877 -1.0403  1.3592
 3214SOL     OW21277   4.479   2.058   1.342 -0.1734 -0.1264  0.3644
 3214SOL    HW121278   4.398   2.036   1.387  0.0377  0.2003  0.9009
 3214SOL    HW221279   4.471   2.152   1.362  0.5103 -0.5252  2.4861
 3215SOL     OW21280   1.507   4.139   5.401  0.5319  0.2567 -0.0003
 3215SOL    HW121281   1.498   4.147   5.496  0.0183 -0.7541  0.0345
 3215SOL    HW221282   1.564   4.063   5.386 -0.6096 -0.9936  2.0519
 3216SOL     OW21283   1.243   4.200   8.086 -0.1258 -0.0740  0.3985
 3216SOL    HW121284   1.303   4.126   8.084  0.2785  0.3043 -1.9316
 3216SOL    HW221285   1.261   4.234   8.174 -0.1754 -2.6021  1.3794
 3217SOL     OW21286   2.970   3.079  16.228 -0.6484 -0.1787 -0.3976
 3217SOL    HW121287   2.927   3.048  16.148  0.0669  1.9703 -1.6030
 3217SOL    HW221288   2.895   3.107  16.282 -0.2038 -0.3919  0.3308
 3218SOL     OW21289   0.359   0.427  12.813  0.0337 -0.2025 -0.0894
 3218SOL    HW121290   0.448   0.392  12.824 -0.6450 -1.6594  0.7470
 3218SOL    HW221291   0.342   0.442  12.906  0.7919  0.0342  0.0082
 3219SOL     OW21292   0.545   3.805   7.228  0.7651 -0.1910  0.2458
 3219SOL    HW121293   0.624   3.750   7.224 -0.1102 -1.6357  2.5657
 3219SOL    HW221294   0.499   3.772   7.151  1.7433  0.3353 -0.5527
 3220SOL     OW21295   1.079   3.650   2.742  0.1270 -0.4800 -0.0929
 3220SOL    HW121296   1.162   3.657   2.694 -0.6317 -0.0949 -1.3557
 3220SOL    HW221297   1.028   3.625   2.665  0.2389  0.9434 -0.6231
 3221SOL     OW21298   3.736   1.392   5.068  0.0816  0.3221  0.0474
 3221SOL    HW121299   3.809   1.387   5.006 -0.5765  0.8006 -0.7594
 3221SOL    HW221300   3.685   1.455   5.017  1.4774  0.3925 -1.2718
 3222SOL     OW21301   4.072   3.780   7.885  0.0693 -0.1745 -0.1252
 3222SOL    HW121302   4.148   3.832   7.911 -1.9549  2.7892 -0.1527
 3222SOL    HW221303   4.000   3.835   7.915 -0.0519 -0.2573 -0.2641
 3223SOL     OW21304   0.424   1.197  13.843  0.2437  0.5019  0.2600
 3223SOL    HW121305   0.479   1.193  13.765  0.9794 -1.3451  0.8816
 3223SOL    HW221306   0.339   1.180  13.803  0.4179  3.2239 -1.2540
 3224SOL     OW21307   0.035   1.417   3.745  0.3681  0.3329 -0.2361
 3224SOL    HW121308   0.130   1.410   3.740  0.3229 -1.7394  1.4573
 3224SOL    HW221309   0.020   1.510   3.728 -1.1345 -0.0237 -0.8563
 3225SOL     OW21310   0.484   0.133  11.807  0.0507 -0.1228 -0.1297
 3225SOL    HW121311   0.495   0.184  11.887  0.0200  0.3861 -0.4412
 3225SOL    HW221312   0.393   0.104  11.815  0.1043 -0.3119 -0.2094
 3226SOL     OW21313   0.536   3.612  12.662  0.4457  0.2423 -0.5163
 3226SOL    HW121314   0.574   3.540  12.713  1.5643  0.0389 -1.6449
 3226SOL    HW221315   0.606   3.627  12.598 -0.2985 -0.6655 -1.5481
 3227SOL     OW21316   4.563   0.296  14.210 -0.5399  0.2315 -0.0481
 3227SOL    HW121317   4.601   0.375  14.248 -1.6544  1.2714 -1.0824
 3227SOL    HW221318   4.518   0.246  14.278 -0.3776  1.7458  1.1710
 3228SOL     OW21319   1.571   4.460  16.028 -0.1254 -0.1016  0.0674
 3228SOL    HW121320   1.610   4.535  16.072  1.2143 -1.3711  1.0514
 3228SOL    HW221321   1.508   4.508  15.973  0.9119  1.2528  0.0550
 3229SOL     OW21322   1.754   4.166   1.437 -0.0688 -0.3216  0.8186
 3229SOL    HW121323   1.753   4.080   1.396 -1.1825 -1.1531  2.5929
 3229SOL    HW221324   1.672   4.205   1.406  1.0633  0.6959 -0.9185
 3230SOL     OW21325   1.284   4.657   4.815  0.1057 -0.3743  0.4039
 3230SOL    HW121326   1.289   4.654   4.911 -1.8589 -2.1249  0.4491
 3230SOL    HW221327   1.298   0.013   4.799  0.3135 -0.2003  1.5572
 3231SOL     OW21328   1.507   0.520   6.119 -0.3596 -0.6133 -0.4120
 3231SOL    HW121329   1.587   0.468   6.119 -0.3797 -0.6266  1.4568
 3231SOL    HW221330   1.545   0.602   6.088 -1.0391  0.8227  2.5725
 3232SOL     OW21331   3.078   3.620   4.006  0.1243  0.0799 -0.2952
 3232SOL    HW121332   3.048   3.704   3.972 -1.9402 -0.2292  0.7847
 3232SOL    HW221333   3.173   3.624   3.990  0.3542  1.1213  1.3665
 3233SOL     OW21334   3.999   2.080   2.950  0.0158 -0.3942 -0.2337
 3233SOL    HW121335   3.970   2.052   2.863  2.9898 -1.3157 -0.9364
 3233SOL    HW221336   4.069   2.017   2.964 -0.2786 -0.5084  0.7103
 3234SOL     OW21337   1.464   2.178  13.176  0.6016 -0.2043 -0.7502
 3234SOL    HW121338   1.544   2.218  13.140  1.0043 -1.3595 -1.1616
 3234SOL    HW221339   1.493   2.087  13.184  1.6343  0.1760 -0.1955
 3235SOL     OW21340   2.771   2.751   2.763 -0.1383 -0.2508  0.0688
 3235SOL    HW121341   2.745   2.704   2.842 -0.4684 -0.4613 -0.1675
 3235SOL    HW221342   2.771   2.678   2.701  1.2453  0.5564 -0.8954
 3236SOL     OW21343   4.571   2.236  15.782 -0.1364 -0.2036 -0.0028
 3236SOL    HW121344   4.618   2.308  15.739 -1.8365 -0.0058 -1.5255
 3236SOL    HW221345   4.494   2.289  15.803  0.9011  0.7904  1.3012
 3237SOL     OW21346   0.421   0.544   7.730 -0.2227  0.4544  0.2399
 3237SOL    HW121347   0.478   0.621   7.727  1.3569 -0.7030  0.4240
 3237SOL    HW221348   0.489   0.477   7.719 -0.2058  0.4629  0.2902
 3238SOL     OW21349   3.729   0.702  16.675 -0.3680 -0.4495  0.5228
 3238SOL    HW121350   3.747   0.726  16.584 -0.8136  0.8411  0.7729
 3238SOL    HW221351   3.820   0.683  16.698 -0.2823  1.9991  2.1987
 3239SOL     OW21352   4.200   1.084   1.941 -0.0385 -0.3977  0.7991
 3239SOL    HW121353   4.115   1.060   1.977 -0.9520 -0.8569 -1.7073
 3239SOL    HW221354   4.219   1.171   1.977 -0.1363 -0.4090  0.8781
 3240SOL     OW21355   0.303   3.157  11.175  0.0147 -0.0372  0.8195
 3240SOL    HW121356   0.321   3.250  11.157 -0.0479 -0.5430 -1.7750
 3240SOL    HW221357   0.244   3.128  11.106 -2.0095  1.2013  2.0235
 3241SOL     OW21358   4.590   3.379   1.726 -0.1804 -0.0839 -0.3436
 3241SOL    HW121359   4.535   3.405   1.800 -1.1912  0.7763 -1.3941
 3241SOL    HW221360   4.556   3.296   1.695  0.1934  0.2332 -1.6031
 3242SOL     OW21361   1.788   4.117   5.102 -0.1190 -0.0145  0.1516
 3242SOL    HW121362   1.774   4.211   5.092  2.3332  0.2635 -0.7963
 3242SOL    HW221363   1.720   4.079   5.047  0.4350 -1.7134  0.6276
 3243SOL     OW21364   0.930   2.218   2.815  0.1048  0.5537  0.1055
 3243SOL    HW121365   0.844   2.178   2.828  0.3827 -0.6913 -1.8264
 3243SOL    HW221366   0.963   2.173   2.737  0.7270  1.9526 -0.4483
 3244SOL     OW21367   2.854   0.261   9.553 -0.0512 -0.2669 -0.3024
 3244SOL    HW121368   2.918   0.274   9.623  2.7740  1.7403 -3.2560
 3244SOL    HW221369   2.777   0.289   9.602  0.7662  1.2897  0.0811
 3245SOL     OW21370   2.834   2.640   6.016  0.0889 -0.2557 -0.2652
 3245SOL    HW121371   2.783   2.656   6.095 -0.1334 -0.9238 -0.2695
 3245SOL    HW221372   2.805   2.552   5.990  1.1159 -0.1280 -1.8564
 3246SOL     OW21373   1.897   1.793   1.315  0.1262  0.2571  1.2078
 3246SOL    HW121374   1.939   1.749   1.241  0.8786 -1.7310  2.8089
 3246SOL    HW221375   1.815   1.744   1.318  0.8881 -1.1913 -0.9766
 3247SOL     OW21376   0.128   3.158  10.965  0.1958  0.0297  0.0528
 3247SOL    HW121377   0.073   3.233  10.943  0.4991 -0.4896 -2.4755
 3247SOL    HW221378   0.069   3.120  11.030  2.0065  0.3249  1.8550
 3248SOL     OW21379   3.177   1.584  14.503 -0.3917  0.3823 -0.0558
 3248SOL    HW121380   3.212   1.622  14.584  0.4991  1.1320 -0.7911
 3248SOL    HW221381   3.125   1.514  14.542 -1.6464 -0.0848 -2.5394
 3249SOL     OW21382   1.250   4.054   7.387  0.7807  0.1489 -0.2782
 3249SOL    HW121383   1.280   4.145   7.389 -2.0407  1.0261  1.4251
 3249SOL    HW221384   1.318   4.008   7.437 -0.6120  0.0535  1.5158
 3250SOL     OW21385   2.879   4.132   4.095 -0.2349  0.8784  0.5135
 3250SOL    HW121386   2.790   4.119   4.130  0.2414  1.2202  1.8582
 3250SOL    HW221387   2.889   4.051   4.046 -3.2966  0.4296  0.6275
 3251SOL     OW21388   3.370   1.778   5.867 -0.4024  0.5992  0.3770
 3251SOL    HW121389   3.344   1.869   5.876 -1.5012  0.1708  1.5899
 3251SOL    HW221390   3.367   1.731   5.950  1.0513 -1.7503 -0.8961
 3252SOL     OW21391   3.727   0.448   2.242 -0.3400  0.1540 -0.4146
 3252SOL    HW121392   3.713   0.356   2.265  0.0254  0.7317  2.2069
 3252SOL    HW221393   3.715   0.444   2.148 -0.9250 -1.9315 -0.2331
 3253SOL     OW21394   2.736   1.016  13.936 -0.0400  0.0393 -0.2367
 3253SOL    HW121395   2.658   1.069  13.954  0.5714  0.7528  0.2859
 3253SOL    HW221396   2.801   1.083  13.959  0.1975 -0.2544 -0.0595
 3254SOL     OW21397   2.234   4.596   8.112 -0.1809  0.1289  0.4666
 3254SOL    HW121398   2.294   4.578   8.040  0.0458 -1.3699  1.0370
 3254SOL    HW221399   2.287   4.659   8.161  2.0999 -1.1903 -0.3139
 3255SOL     OW21400   4.388   0.241  11.833 -0.2550 -0.1789  0.1583
 3255SOL    HW121401   4.405   0.152  11.862 -0.3223  0.0281  0.8252
 3255SOL    HW221402   4.397   0.229  11.738  0.9984 -1.6993  0.4776
 3256SOL     OW21403   1.639   2.383   7.646  0.8530 -0.0854  0.0638
 3256SOL    HW121404   1.633   2.452   7.580  1.5197  1.1815  1.3323
 3256SOL    HW221405   1.732   2.361   7.636  1.3839  1.5953  1.3133
 3257SOL     OW21406   3.418   3.996   6.518 -0.0402 -0.0561  0.2245
 3257SOL    HW121407   3.463   3.934   6.461 -0.6638  0.0229 -0.3559
 3257SOL    HW221408   3.333   3.992   6.474  0.9174  0.6072 -1.6564
 3258SOL     OW21409   2.957   3.664  10.924  0.5429  0.0426 -0.1728
 3258SOL    HW121410   2.886   3.657  10.988 -0.3388  2.0120 -0.9546
 3258SOL    HW221411   3.016   3.730  10.960  1.2298 -1.4564  1.4650
 3259SOL     OW21412   1.218   2.853  14.328 -0.1738  0.5805 -0.0827
 3259SOL    HW121413   1.250   2.880  14.242 -0.3063  2.3928  0.4382
 3259SOL    HW221414   1.158   2.924  14.350 -0.7625  0.6806 -2.0087
 3260SOL     OW21415   2.341   3.511   5.775  0.3689 -0.0120  0.1832
 3260SOL    HW121416   2.431   3.528   5.803 -0.0705  0.6730  1.1868
 3260SOL    HW221417   2.351   3.496   5.681  0.3704  0.0080  0.1801
 3261SOL     OW21418   1.048   2.860  16.783 -0.2379 -0.2490 -0.1699
 3261SOL    HW121419   1.078   2.809  16.858 -1.1850  0.7028  0.8410
 3261SOL    HW221420   1.055   2.798  16.709 -3.6071 -1.1899  0.3101
 3262SOL     OW21421   3.112   2.546   6.548  0.1256 -0.4716  0.1419
 3262SOL    HW121422   3.058   2.598   6.608  1.8247 -0.3754  1.6059
 3262SOL    HW221423   3.045   2.480   6.527 -0.2584  0.2722 -0.9493
 3263SOL     OW21424   2.380   1.177   8.223 -0.7754 -0.1193  0.0700
 3263SOL    HW121425   2.292   1.214   8.217 -0.4318  1.1819  2.7217
 3263SOL    HW221426   2.386   1.160   8.317 -2.0177 -1.6018 -0.1310
 3264SOL     OW21427   2.189   2.807  13.046  0.0097 -0.3340 -0.0816
 3264SOL    HW121428   2.283   2.793  13.034  0.4031  1.0019  1.3651
 3264SOL    HW221429   2.195   2.813  13.142  1.8912  0.1579 -0.2360
 3265SOL     OW21430   2.707   0.554   9.416  0.2651 -0.5345 -0.6217
 3265SOL    HW121431   2.729   0.604   9.338 -0.6955  1.8451  0.6120
 3265SOL    HW221432   2.728   0.465   9.389  0.5426 -0.6504 -0.0311
 3266SOL     OW21433   3.179   3.436   5.812 -0.2111 -0.7144 -0.6159
 3266SOL    HW121434   3.249   3.414   5.751  0.4031 -1.8250  0.4697
 3266SOL    HW221435   3.141   3.513   5.772 -2.4831 -1.5047  0.0232
 3267SOL     OW21436   3.834   4.267   3.687  0.5765  0.2332 -0.2645
 3267SOL    HW121437   3.775   4.331   3.648  0.8291  1.1293  0.8020
 3267SOL    HW221438   3.868   4.225   3.608  0.8007  1.0307 -0.5993
 3268SOL     OW21439   0.235   1.513   5.030 -0.1831  0.2291  0.4263
 3268SOL    HW121440   0.140   1.510   5.023 -0.0623 -0.2042 -1.0089
 3268SOL    HW221441   0.254   1.527   4.938  1.1833  2.1758  0.9832
 3269SOL     OW21442   2.605   0.637  12.794 -0.1008  0.3536 -0.3868
 3269SOL    HW121443   2.651   0.721  12.791 -1.1038  0.9275  0.3334
 3269SOL    HW221444   2.517   0.664  12.767 -1.1169 -1.6703  0.8863
 3270SOL     OW21445   1.755   0.874   1.849  0.0297 -0.0455  0.3866
 3270SOL    HW121446   1.836   0.837   1.816 -0.1258 -1.2568  1.3660
 3270SOL    HW221447   1.780   0.962   1.876 -0.1205 -0.1230  0.7845
 3271SOL     OW21448   1.416   3.451   5.249 -1.3335 -0.1308 -0.3425
 3271SOL    HW121449   1.336   3.436   5.199 -1.8993  0.3235  0.4223
 3271SOL    HW221450   1.390   3.536   5.285 -0.6411  0.3039 -0.8605
 3272SOL     OW21451   0.247   2.798   7.101  0.3960 -0.4091  0.2646
 3272SOL    HW121452   0.191   2.800   7.023  0.4807  1.1232  0.2389
 3272SOL    HW221453   0.321   2.744   7.075 -1.0830 -1.7007 -1.2220
 3273SOL     OW21454   2.926   0.296   6.938 -0.0343  0.6288  0.3674
 3273SOL    HW121455   2.973   0.377   6.957 -0.2311  0.9348 -0.4886
 3273SOL    HW221456   2.978   0.235   6.992 -1.7364 -0.6856  0.5128
 3274SOL     OW21457   4.716   3.377  14.285  0.2931  0.6500  0.0021
 3274SOL    HW121458   4.652   3.418  14.343  0.5607  1.0807 -0.0025
 3274SOL    HW221459   4.700   3.284  14.301  0.7890  0.4894 -0.4487
 3275SOL     OW21460   2.463   4.519   3.297  0.4810 -0.1616 -0.3762
 3275SOL    HW121461   2.461   4.510   3.392 -3.1890 -0.6719 -0.4943
 3275SOL    HW221462   2.558   4.524   3.289  0.5623 -2.1512 -0.6960
 3276SOL     OW21463   2.234   3.704   4.885 -0.5813  0.2669  0.1559
 3276SOL    HW121464   2.323   3.701   4.849 -0.8770  3.2156 -0.7749
 3276SOL    HW221465   2.213   3.610   4.881  2.0641 -0.3941  1.6942
 3277SOL     OW21466   2.718   1.024   9.716 -0.5145  0.2133 -0.9415
 3277SOL    HW121467   2.751   1.110   9.690  0.6956  0.4567  1.4487
 3277SOL    HW221468   2.631   1.056   9.736 -0.7771 -0.8454 -0.3616
 3278SOL     OW21469   0.304   2.898   4.983 -0.2360  0.3513 -0.3965
 3278SOL    HW121470   0.295   2.922   5.075 -2.1664  2.4545 -1.1302
 3278SOL    HW221471   0.394   2.867   4.983 -0.6338 -0.8370  0.5497
 3279SOL     OW21472   0.787   0.248   3.036  0.4309 -0.4567  0.8618
 3279SOL    HW121473   0.793   0.248   3.131  1.2054  0.0647  0.8147
 3279SOL    HW221474   0.717   0.311   3.018  0.6993 -0.9813 -2.0237
 3280SOL     OW21475   3.468   1.362   8.699 -0.3721  0.2615 -0.0832
 3280SOL    HW121476   3.420   1.401   8.772 -0.5072 -1.7437  0.8929
 3280SOL    HW221477   3.536   1.308   8.740  0.1692  2.4456  1.8862
 3281SOL     OW21478   0.318   3.727   8.892  0.3279 -0.1928  0.1227
 3281SOL    HW121479   0.236   3.725   8.843  0.2559  1.0951  0.1780
 3281SOL    HW221480   0.374   3.760   8.822 -0.0359 -0.9306 -0.5168
 3282SOL     OW21481   2.972   4.241   7.351 -0.5558  0.2136 -0.0125
 3282SOL    HW121482   2.922   4.185   7.410  1.1385 -1.4277 -0.1395
 3282SOL    HW221483   3.026   4.183   7.298 -0.8965 -0.2171  0.1068
 3283SOL     OW21484   3.124   4.140   4.201 -0.4113 -0.4252  0.5154
 3283SOL    HW121485   3.044   4.149   4.150  0.3367 -0.3190 -0.6247
 3283SOL    HW221486   3.082   4.097   4.276 -1.2934  1.3025  0.9998
 3284SOL     OW21487   0.862   2.300  11.901  0.7705  0.7473 -0.2325
 3284SOL    HW121488   0.789   2.344  11.945  0.2706 -1.1945  0.8630
 3284SOL    HW221489   0.891   2.360  11.832 -1.2516  1.8179 -0.1609
 3285SOL     OW21490   3.022   1.911   6.732 -0.0987 -0.2623  0.7377
 3285SOL    HW121491   3.081   1.862   6.789  0.8338 -1.2570 -1.0815
 3285SOL    HW221492   2.944   1.856   6.746 -0.9517  0.7547  0.0308
 3286SOL     OW21493   3.056   3.441  16.371 -0.4034  0.3738 -0.0175
 3286SOL    HW121494   3.010   3.417  16.290  1.2163  0.2691 -0.9126
 3286SOL    HW221495   3.073   3.533  16.350 -0.3366 -0.0417 -1.7653
 3287SOL     OW21496   3.811   1.861   4.108  0.1642 -0.1225  0.3651
 3287SOL    HW121497   3.735   1.833   4.160  0.9964 -0.5649  1.3398
 3287SOL    HW221498   3.875   1.794   4.133  1.4375  0.8632 -0.2434
 3288SOL     OW21499   2.838   3.388  13.391  0.2810  0.3677 -0.9771
 3288SOL    HW121500   2.903   3.458  13.389  0.8725 -0.2383 -2.9467
 3288SOL    HW221501   2.822   3.368  13.299  0.5825 -1.6591 -0.5977
 3289SOL     OW21502   3.232   0.050  10.105 -0.0056 -0.7713 -0.1338
 3289SOL    HW121503   3.161   0.093  10.153 -0.4011 -1.3972 -0.1576
 3289SOL    HW221504   3.214   0.061  10.012  0.4954  1.7324  0.0799
 3290SOL     OW21505   3.649   2.100   9.348 -0.2673  0.0301  0.3768
 3290SOL    HW121506   3.649   2.070   9.439 -2.0588 -1.9291 -0.2641
 3290SOL    HW221507   3.738   2.087   9.315 -0.1545 -3.7943  2.1631
 3291SOL     OW21508   0.814   3.073   1.080 -0.2521  0.3607 -0.5918
 3291SOL    HW121509   0.823   3.149   1.022  0.7673 -1.1931 -2.4622
 3291SOL    HW221510   0.873   3.002   1.057  0.6471  1.3061 -1.1902
 3292SOL     OW21511   0.923   2.180   6.819  0.1364 -0.4252  0.3708
 3292SOL    HW121512   0.991   2.229   6.866 -0.2129 -0.9445  1.4326
 3292SOL    HW221513   0.869   2.160   6.896 -0.7784 -0.8978 -0.3903
 3293SOL     OW21514   1.087   0.617  12.902 -0.3535  0.2491 -0.4022
 3293SOL    HW121515   1.180   0.618  12.879 -0.3163  2.7127 -0.1005
 3293SOL    HW221516   1.089   0.585  12.993  1.5873  0.2602 -0.4283
 3294SOL     OW21517   2.060   0.507  11.648  0.1241 -0.0160  0.3212
 3294SOL    HW121518   2.092   0.527  11.560 -2.6579 -0.7395 -0.8414
 3294SOL    HW221519   2.032   0.596  11.668  1.4594  0.8764 -1.6868
 3295SOL     OW21520   0.640   0.120   6.081  0.1238 -0.1361  0.7390
 3295SOL    HW121521   0.701   0.046   6.080  1.0773  0.6601  0.1839
 3295SOL    HW221522   0.559   0.075   6.057  1.3376 -1.5257 -0.7987
 3296SOL     OW21523   3.388   4.017   9.118  0.3007  0.0024 -0.4649
 3296SOL    HW121524   3.469   4.023   9.168 -1.1133  4.1035  1.3251
 3296SOL    HW221525   3.327   4.042   9.187  1.2914  0.5433  0.2191
 3297SOL     OW21526   3.078   2.477   2.175  0.5461  0.3153  0.2901
 3297SOL    HW121527   2.984   2.493   2.184  0.8459  2.5838 -0.7491
 3297SOL    HW221528   3.115   2.550   2.224  1.3878  0.5731 -0.7314
 3298SOL     OW21529   1.701   4.320  16.453  0.1595 -0.4650 -0.1338
 3298SOL    HW121530   1.677   4.399  16.503  0.8993 -0.4311  0.1647
 3298SOL    HW221531   1.635   4.318  16.384 -1.7288  1.4236  1.5844
 3299SOL     OW21532   1.778   4.150   7.115  0.0836 -0.0957  0.0213
 3299SOL    HW121533   1.722   4.089   7.163  0.7142 -0.3713  0.3914
 3299SOL    HW221534   1.841   4.171   7.184  0.3214  2.6741 -1.0414
 3300SOL     OW21535   3.814   0.082  12.350  0.1353  0.0616 -0.0058
 3300SOL    HW121536   3.836   0.121  12.265  3.6135  0.4423  1.0604
 3300SOL    HW221537   3.765   0.003  12.328 -0.1633  0.0981  0.5252
 3301SOL     OW21538   4.409   1.532   5.962  0.0909 -0.1948 -0.4970
 3301SOL    HW121539   4.360   1.469   5.908 -0.7122 -0.1535  0.1841
 3301SOL    HW221540   4.475   1.570   5.905  0.2707 -0.7033 -0.6324
 3302SOL     OW21541   4.674   2.981   7.200 -0.1215  0.2530 -0.1354
 3302SOL    HW121542   4.586   2.984   7.238  1.1857  1.9963  2.7162
 3302SOL    HW221543   4.669   3.073   7.174 -1.3007  0.3031  0.2494
 3303SOL     OW21544   3.752   4.668   5.440  0.2103 -0.1845  0.3192
 3303SOL    HW121545   3.778   4.682   5.348 -0.9939 -2.0588 -0.2943
 3303SOL    HW221546   3.713   0.017   5.445  2.3125  0.8484 -1.3794
 3304SOL     OW21547   2.683   3.312  17.208 -0.0869  0.2695 -0.5494
 3304SOL    HW121548   2.706   3.232  17.161  0.4804 -0.0287  0.2334
 3304SOL    HW221549   2.747   3.312  17.279 -0.3096 -2.6785 -0.3209
 3305SOL     OW21550   1.791   0.094  11.393  0.2938  0.5089  0.1999
 3305SOL    HW121551   1.886   0.104  11.405  0.5651 -0.1482 -1.3242
 3305SOL    HW221552   1.763   0.121  11.480 -1.1682  1.8037 -0.6706
 3306SOL     OW21553   1.314   2.394   5.973  0.1739 -0.3282 -0.3788
 3306SOL    HW121554   1.325   2.466   5.911 -1.1065 -1.4764 -1.9253
 3306SOL    HW221555   1.239   2.423   6.024 -1.2096 -1.0384 -2.0260
 3307SOL     OW21556   4.552   3.190   4.575 -0.1603  0.0825  0.0497
 3307SOL    HW121557   4.646   3.178   4.560 -0.3413  0.2194 -1.2252
 3307SOL    HW221558   4.541   3.285   4.567 -0.0616  0.0229 -0.8297
 3308SOL     OW21559   2.205   0.165   9.445 -0.2720 -0.0749 -0.1743
 3308SOL    HW121560   2.245   0.137   9.363 -0.1214 -1.5406  0.3985
 3308SOL    HW221561   2.188   0.083   9.492  0.1336  0.7178  1.3444
 3309SOL     OW21562   3.021   4.666   2.670  0.4114  0.5312 -0.1436
 3309SOL    HW121563   2.945   4.654   2.727  0.0013  1.1893 -0.5626
 3309SOL    HW221564   3.071   4.584   2.675  0.6178  0.5862 -1.3166
 3310SOL     OW21565   1.395   1.437  10.464 -0.2167 -0.1524 -0.3535
 3310SOL    HW121566   1.437   1.495  10.401  1.7777  2.1761  3.0685
 3310SOL    HW221567   1.315   1.487  10.474 -1.3323 -1.8245 -0.9323
 3311SOL     OW21568   2.200   2.256   2.958 -0.7465  0.1285  0.3226
 3311SOL    HW121569   2.181   2.165   2.934 -0.4330 -0.0670  0.8203
 3311SOL    HW221570   2.221   2.296   2.874 -3.5622 -3.1861 -1.9384
 3312SOL     OW21571   3.930   0.635   7.258  0.1481  0.1804  0.1847
 3312SOL    HW121572   3.987   0.609   7.330 -0.8256  0.7064  1.1444
 3312SOL    HW221573   3.896   0.719   7.286 -0.1503  0.2647 -0.4196
 3313SOL     OW21574   2.681   2.795   9.801  0.0074  0.1007 -0.0975
 3313SOL    HW121575   2.706   2.777   9.710  3.0340  1.2200  0.5205
 3313SOL    HW221576   2.667   2.889   9.791 -2.6634 -0.5481 -2.3591
 3314SOL     OW21577   3.641   4.409  13.636  0.1169  0.2038 -0.0250
 3314SOL    HW121578   3.572   4.394  13.700 -0.9034 -0.7302 -1.3491
 3314SOL    HW221579   3.591   4.412  13.555  2.1431  0.0081 -1.2917
 3315SOL     OW21580   1.556   0.273   4.393  0.0792 -0.3904  0.3561
 3315SOL    HW121581   1.575   0.332   4.467  3.5573 -1.4735  0.3365
 3315SOL    HW221582   1.646   0.249   4.367  0.1917  1.2434 -0.7238
 3316SOL     OW21583   1.530   1.854  15.113 -0.4612 -0.2594 -0.1443
 3316SOL    HW121584   1.596   1.824  15.176  0.4730  2.5169  0.2006
 3316SOL    HW221585   1.551   1.944  15.088  1.3533 -1.2558 -2.2439
 3317SOL     OW21586   3.173   4.558   3.992  0.2410 -0.0118 -0.2818
 3317SOL    HW121587   3.223   4.479   4.015  0.1018 -0.8217 -2.7747
 3317SOL    HW221588   3.133   4.588   4.074  1.0896  1.2572 -0.3325
 3318SOL     OW21589   3.953   4.468  13.326  0.2156 -0.0702 -0.3920
 3318SOL    HW121590   3.864   4.477  13.361 -0.0477 -2.1798 -0.5229
 3318SOL    HW221591   3.940   4.515  13.243  1.0989  1.8521  0.5504
 3319SOL     OW21592   3.994   1.752  11.582 -0.5116  0.2783 -0.3452
 3319SOL    HW121593   4.034   1.694  11.647  1.3781  0.4377 -1.3601
 3319SOL    HW221594   3.902   1.727  11.582 -0.8594  1.5135 -0.8507
 3320SOL     OW21595   1.501   2.827  13.136  0.0823 -0.0169  0.7868
 3320SOL    HW121596   1.541   2.830  13.222  3.2525 -0.7648 -0.6655
 3320SOL    HW221597   1.556   2.766  13.086  0.5197 -0.2952  1.6136
 3321SOL     OW21598   2.456   3.149   2.116 -0.3255  0.0106 -0.2036
 3321SOL    HW121599   2.378   3.094   2.116  0.7952 -1.5770 -0.3579
 3321SOL    HW221600   2.516   3.106   2.055  2.1951  1.4735  1.2334
 3322SOL     OW21601   0.953   1.526  12.331  0.2852  0.1533  0.6525
 3322SOL    HW121602   0.874   1.567  12.296  0.7743  1.6705  1.3528
 3322SOL    HW221603   1.017   1.593  12.307 -0.8552  0.6520 -0.9429
 3323SOL     OW21604   4.041   1.991  16.296  0.0519 -0.2387  0.0025
 3323SOL    HW121605   4.040   1.941  16.214 -0.0565 -0.2991  0.0409
 3323SOL    HW221606   4.105   1.948  16.353 -0.8827 -1.2202  0.3169
 3324SOL     OW21607   1.288   2.589   5.808  0.9273 -0.2560 -0.5643
 3324SOL    HW121608   1.375   2.620   5.783  0.9779 -0.4136 -0.5808
 3324SOL    HW221609   1.275   2.526   5.737 -0.1144  0.0488 -0.6489
 3325SOL     OW21610   3.736   0.422  15.006  0.3496  0.1406  0.1511
 3325SOL    HW121611   3.735   0.453  14.915 -0.4491 -0.4910 -0.0614
 3325SOL    HW221612   3.829   0.401  15.009  0.2593  0.0470  1.9437
 3326SOL     OW21613   1.050   1.114   2.339 -0.1409 -0.3378  0.2554
 3326SOL    HW121614   1.025   1.162   2.418  1.6611  0.8460  0.1237
 3326SOL    HW221615   1.067   1.026   2.371 -0.2157  0.0419  1.3228
 3327SOL     OW21616   3.116   0.748   2.852  0.3288 -0.5613 -0.1520
 3327SOL    HW121617   3.198   0.716   2.814  0.6351 -0.7364  0.6706
 3327SOL    HW221618   3.084   0.663   2.882 -1.5576  0.7314  1.4688
 3328SOL     OW21619   0.283   1.189   7.077 -0.1094  0.2520  0.1771
 3328SOL    HW121620   0.272   1.194   6.982  2.3341 -0.6891 -0.1566
 3328SOL    HW221621   0.206   1.236   7.109 -1.3978 -1.3818 -0.5154
 3329SOL     OW21622   1.507   1.021   9.790 -0.0787  0.5032  0.5434
 3329SOL    HW121623   1.581   0.999   9.733 -2.0738 -0.0687 -1.8638
 3329SOL    HW221624   1.478   0.934   9.815 -2.2741  1.0018 -0.2234
 3330SOL     OW21625   0.046   4.580   9.625 -0.1545  0.5233 -0.1827
 3330SOL    HW121626   4.734   4.648   9.579 -0.5469  1.9671  2.3095
 3330SOL    HW221627   0.013   4.606   9.712 -1.2823 -0.7037 -0.2508
 3331SOL     OW21628   1.862   1.471   5.777 -0.2156 -0.2313 -0.2680
 3331SOL    HW121629   1.938   1.521   5.744 -1.8126  2.5274  0.1986
 3331SOL    HW221630   1.789   1.525   5.748 -0.7694  0.5479  2.5935
 3332SOL     OW21631   4.294   0.519   6.087 -0.0006 -0.0733 -0.1389
 3332SOL    HW121632   4.220   0.551   6.035 -0.9664  1.4081  2.1609
 3332SOL    HW221633   4.257   0.437   6.120 -1.5700  0.9859  0.7176
 3333SOL     OW21634   0.070   2.694   6.930  0.0843  0.1887 -0.4975
 3333SOL    HW121635   0.084   2.610   6.973 -1.3228 -0.1412 -0.6689
 3333SOL    HW221636   0.025   2.668   6.849 -0.7567 -2.0386  0.6717
 3334SOL     OW21637   3.715   2.652   9.221 -0.1637 -0.0804  0.1947
 3334SOL    HW121638   3.682   2.672   9.309  1.9956  0.2301  0.9291
 3334SOL    HW221639   3.806   2.624   9.232  0.5679  2.4804  0.6249
 3335SOL     OW21640   3.156   0.379   4.509 -0.2909 -0.6858  0.7051
 3335SOL    HW121641   3.081   0.332   4.544 -0.8917 -0.9041 -0.8984
 3335SOL    HW221642   3.111   0.424   4.437  1.0122  1.0345  0.9555
 3336SOL     OW21643   3.369   1.682  15.917 -0.1274  0.0045  0.0101
 3336SOL    HW121644   3.291   1.637  15.884  0.0018 -0.3967  0.2537
 3336SOL    HW221645   3.413   1.615  15.969 -0.5855  0.6632  1.2418
 3337SOL     OW21646   2.671   1.451  17.673 -0.2104  0.6682  0.2269
 3337SOL    HW121647   2.637   1.540  17.684 -1.4812  0.0543  1.2560
 3337SOL    HW221648   2.751   1.463  17.623 -0.4619  0.0626 -0.3252
 3338SOL     OW21649   3.520   1.651   3.320 -0.1554 -0.2940 -0.0239
 3338SOL    HW121650   3.573   1.726   3.345 -0.2232 -0.4028  0.4402
 3338SOL    HW221651   3.435   1.694   3.314 -0.6127 -1.0713  0.8735
 3339SOL     OW21652   0.030   3.363   3.348  0.4231  0.2739  0.7602
 3339SOL    HW121653   4.710   3.305   3.397  1.1430  0.9230  2.3794
 3339SOL    HW221654   0.002   3.346   3.258  0.4265 -1.2510  1.0616
 3340SOL     OW21655   1.950   3.654   7.073  0.5812 -0.3085  0.2351
 3340SOL    HW121656   2.032   3.644   7.122  0.9419 -1.0748 -0.5379
 3340SOL    HW221657   1.892   3.621   7.142 -0.1131  0.6908  0.1374
 3341SOL     OW21658   4.272   3.558   6.376 -0.5730  0.3231  0.5792
 3341SOL    HW121659   4.326   3.635   6.360  1.4967 -1.5661 -1.4662
 3341SOL    HW221660   4.308   3.491   6.319  0.6066 -0.2070  1.9761
 3342SOL     OW21661   4.197   2.235  10.670  0.1030 -0.6120 -0.1058
 3342SOL    HW121662   4.223   2.152  10.708  0.2302  0.1733  1.5038
 3342SOL    HW221663   4.255   2.292  10.721 -0.8018  0.7917 -0.6156
 3343SOL     OW21664   1.908   1.231  17.235  0.5230 -0.2376  0.4277
 3343SOL    HW121665   1.858   1.199  17.309  1.8916 -2.4154  0.3905
 3343SOL    HW221666   1.841   1.257  17.171  0.8540 -0.2430  0.0748
 3344SOL     OW21667   2.099   3.045   5.284  0.2500 -0.0958 -0.5341
 3344SOL    HW121668   2.137   3.110   5.225  0.2450 -0.0215 -0.4560
 3344SOL    HW221669   2.008   3.050   5.257  0.3640 -1.3414 -1.1735
 3345SOL     OW21670   1.823   3.387   7.872 -0.1822  0.3161 -0.1097
 3345SOL    HW121671   1.888   3.318   7.857  0.2401  0.7803 -0.3943
 3345SOL    HW221672   1.752   3.336   7.912  0.2090  0.8582  1.2801
 3346SOL     OW21673   2.892   4.708   0.322  0.1527 -0.2441  0.4066
 3346SOL    HW121674   2.944   0.037   0.366 -0.8271  0.5098  0.4121
 3346SOL    HW221675   2.800   4.710   0.350 -0.5069  1.3688 -1.8433
 3347SOL     OW21676   0.712   2.986   4.614  0.0107  0.0850 -0.4105
 3347SOL    HW121677   0.775   2.970   4.544 -0.9094  1.3190 -1.5298
 3347SOL    HW221678   0.629   2.995   4.566 -0.1577  1.0739  0.0656
 3348SOL     OW21679   1.955   1.805   8.785  0.2343  0.5329 -0.2829
 3348SOL    HW121680   1.994   1.734   8.734 -0.7441  0.8424 -1.4842
 3348SOL    HW221681   1.863   1.782   8.800  0.3275  0.5751  0.3329
 3349SOL     OW21682   2.875   0.316   3.035 -0.3708 -0.0324  0.2200
 3349SOL    HW121683   2.785   0.331   3.065 -0.4670  1.0549 -0.6135
 3349SOL    HW221684   2.874   0.221   3.018 -0.1795 -0.3674  2.1543
 3350SOL     OW21685   1.402   0.216  14.579 -0.3650  0.4265 -0.5546
 3350SOL    HW121686   1.426   0.202  14.671  0.2514 -0.6923 -0.8917
 3350SOL    HW221687   1.314   0.179  14.577 -0.3370  0.3802 -0.9440
 3351SOL     OW21688   4.018   2.340  12.456 -0.0671 -0.0319  0.0733
 3351SOL    HW121689   4.059   2.259  12.428  0.3196 -0.0477  0.6887
 3351SOL    HW221690   3.957   2.311  12.524 -0.2704  2.3976  0.9303
 3352SOL     OW21691   3.930   2.239  12.096 -0.3854 -0.1416 -0.1348
 3352SOL    HW121692   4.023   2.248  12.114  0.3480 -4.0065 -1.9508
 3352SOL    HW221693   3.915   2.300  12.025  0.8582  2.7685  2.1172
 3353SOL     OW21694   3.414   2.674  17.581 -0.2473 -0.7214 -0.4158
 3353SOL    HW121695   3.501   2.709  17.599 -0.8057  1.4078 -1.8354
 3353SOL    HW221696   3.414   2.617  17.658 -0.3741  1.7038  1.3579
 3354SOL     OW21697   0.975   1.278   5.081  0.3893  0.2101  0.2764
 3354SOL    HW121698   0.921   1.357   5.093  1.8472  1.2134  0.2476
 3354SOL    HW221699   0.991   1.280   4.986 -1.2658 -0.2731 -0.0139
 3355SOL     OW21700   0.934   2.690  13.497 -0.2799 -0.4385 -0.1570
 3355SOL    HW121701   0.859   2.631  13.494  0.3048 -1.2054  0.2333
 3355SOL    HW221702   0.893   2.756  13.553 -2.9278 -0.9739 -1.4932
 3356SOL     OW21703   3.296   4.365   7.318 -0.1741 -0.4091  0.6006
 3356SOL    HW121704   3.250   4.300   7.264  0.3251  1.1720 -1.7072
 3356SOL    HW221705   3.361   4.395   7.255 -1.3665 -0.5943 -0.7256
 3357SOL     OW21706   4.000   2.552   8.478  0.5287 -0.2790  0.0243
 3357SOL    HW121707   4.024   2.521   8.566 -2.1577 -0.8614  0.5673
 3357SOL    HW221708   3.983   2.646   8.484  0.6767 -0.2529  0.0289
 3358SOL     OW21709   3.155   1.165  12.843 -0.0570  0.3556  0.0489
 3358SOL    HW121710   3.149   1.072  12.820 -1.4425  0.1913  1.0779
 3358SOL    HW221711   3.241   1.163  12.885  1.2826  1.1614 -2.6525
 3359SOL     OW21712   3.806   0.971  16.822  0.0599 -0.2817 -0.4581
 3359SOL    HW121713   3.894   1.004  16.843 -0.7532  1.6983 -0.2423
 3359SOL    HW221714   3.817   0.884  16.784  1.2094 -0.3356 -0.0379
 3360SOL     OW21715   2.603   3.339   0.874  0.2958  0.3195  0.2514
 3360SOL    HW121716   2.563   3.402   0.814 -0.8159 -0.6647 -0.0544
 3360SOL    HW221717   2.692   3.369   0.860  1.3704 -1.1971  3.9414
 3361SOL     OW21718   1.105   0.591   2.776 -0.6100 -0.2909 -0.2845
 3361SOL    HW121719   1.109   0.552   2.864 -0.7144 -0.3804 -0.3200
 3361SOL    HW221720   1.150   0.675   2.784 -2.3200  0.6054 -0.0431
 3362SOL     OW21721   1.894   1.678   8.036 -0.1748 -0.2641 -0.0715
 3362SOL    HW121722   1.982   1.707   8.011  0.2046 -1.3069  0.0423
 3362SOL    HW221723   1.909   1.612   8.105 -2.7957 -1.0042 -0.1865
 3363SOL     OW21724   1.621   4.587   2.239 -0.7689  0.0180  0.0426
 3363SOL    HW121725   1.632   4.593   2.334  1.4636 -0.4677 -0.1954
 3363SOL    HW221726   1.526   4.585   2.231 -0.5390 -0.7145 -2.6028
 3364SOL     OW21727   4.515   0.907   5.708 -0.5064  0.0126  0.0361
 3364SOL    HW121728   4.534   0.899   5.802 -1.1662  0.7893  0.2364
 3364SOL    HW221729   4.592   0.959   5.686 -1.0868  1.4439  1.3848
 3365SOL     OW21730   4.004   4.259   8.908  0.5658  0.3820  0.2639
 3365SOL    HW121731   3.924   4.305   8.884  1.9497  2.5249 -0.3098
 3365SOL    HW221732   4.026   4.208   8.830  0.1842 -0.1083  0.4789
 3366SOL     OW21733   4.257   2.369   8.913  0.4968 -0.2253  0.1439
 3366SOL    HW121734   4.310   2.329   8.844  0.8219  1.2724 -0.4698
 3366SOL    HW221735   4.290   2.458   8.906 -2.4992  0.8891 -0.0303
 3367SOL     OW21736   2.100   1.717  13.315 -0.2394 -0.1033 -0.0435
 3367SOL    HW121737   2.069   1.786  13.374  1.7902  0.9512 -0.2269
 3367SOL    HW221738   2.025   1.658  13.310  1.2427 -1.7325 -2.7072
 3368SOL     OW21739   0.923   3.784   8.406  0.1390  0.0773  0.2710
 3368SOL    HW121740   0.892   3.749   8.323 -0.0155  1.6328 -0.3153
 3368SOL    HW221741   0.964   3.703   8.438 -0.7549 -0.6144 -0.3383
 3369SOL     OW21742   4.578   2.076   3.241  0.2201  0.0975 -0.1883
 3369SOL    HW121743   4.612   1.988   3.221  1.5487  0.2551  1.3650
 3369SOL    HW221744   4.488   2.056   3.266  0.3523 -2.4228 -1.7087
 3370SOL     OW21745   0.280   1.041   4.976 -0.5073  0.0258 -0.1304
 3370SOL    HW121746   0.294   0.966   4.919 -0.0563 -0.4973  0.6665
 3370SOL    HW221747   0.221   1.003   5.042 -2.7759  3.4216 -0.1728
 3371SOL     OW21748   0.965   0.812   5.987 -0.1608  0.5367  0.0279
 3371SOL    HW121749   0.999   0.897   5.957 -0.7156  0.8113  0.1762
 3371SOL    HW221750   0.992   0.808   6.079 -1.7648  0.4700  0.5019
 3372SOL     OW21751   1.128   3.404   5.147 -0.4597 -0.2548 -0.2914
 3372SOL    HW121752   1.073   3.411   5.069  2.4255  0.4413 -2.2476
 3372SOL    HW221753   1.137   3.499   5.153 -2.1456 -0.1698  1.1889
 3373SOL     OW21754   1.872   0.132   1.603  0.1431  0.4449  0.1776
 3373SOL    HW121755   1.945   0.177   1.645 -0.9473  1.8250  0.5943
 3373SOL    HW221756   1.801   0.174   1.651 -1.1170 -0.2800 -1.0410
 3374SOL     OW21757   0.906   3.761  16.145 -0.1972  0.7857 -0.5038
 3374SOL    HW121758   0.985   3.815  16.153 -0.3784  1.2206 -1.6858
 3374SOL    HW221759   0.940   3.671  16.146 -3.6396 -0.5134 -1.0977
 3375SOL     OW21760   3.093   1.386   8.087 -0.1679  0.0108 -0.2698
 3375SOL    HW121761   3.000   1.396   8.065  0.1927  3.8238 -0.0455
 3375SOL    HW221762   3.116   1.322   8.020 -0.2038  1.4560 -1.6560
 3376SOL     OW21763   1.295   4.554  10.417 -0.0061  0.9160  0.4796
 3376SOL    HW121764   1.258   4.580  10.332  0.2136  1.9285  0.6955
 3376SOL    HW221765   1.266   4.464  10.428 -1.3302  0.9524 -2.5688
 3377SOL     OW21766   4.082   1.333   8.634  0.1705  0.1762 -0.7865
 3377SOL    HW121767   4.058   1.249   8.597 -0.1707 -0.2715  0.4408
 3377SOL    HW221768   4.128   1.384   8.568  1.8249 -0.9153 -0.4629
 3378SOL     OW21769   2.056   2.751   8.573 -0.1467  0.0408  0.0504
 3378SOL    HW121770   2.123   2.685   8.556 -0.2083 -0.2735  1.0568
 3378SOL    HW221771   2.102   2.825   8.534  0.2368  0.8446  2.0194
 3379SOL     OW21772   2.879   2.898   5.937  0.5153 -0.2244 -0.9427
 3379SOL    HW121773   2.871   2.803   5.949 -1.8071  0.1851  0.8664
 3379SOL    HW221774   2.973   2.912   5.945 -0.1022  1.6397  3.2191
 3380SOL     OW21775   4.719   3.561   8.268 -0.4755 -0.5031 -0.1367
 3380SOL    HW121776   4.727   3.506   8.191  0.4638 -0.0243 -0.3892
 3380SOL    HW221777   4.679   3.503   8.333 -2.8806  1.4920  0.1531
 3381SOL     OW21778   1.820   0.467   4.217 -0.3046 -0.6105 -0.2460
 3381SOL    HW121779   1.804   0.375   4.239 -0.2821 -0.9267 -1.5581
 3381SOL    HW221780   1.798   0.506   4.301  0.3048  0.2948 -0.5060
 3382SOL     OW21781   1.420   0.918  11.844  0.3254  0.2506  0.5444
 3382SOL    HW121782   1.342   0.894  11.894  1.4851 -2.2766  1.1326
 3382SOL    HW221783   1.451   0.834  11.810 -1.3526  0.3836 -1.3291
 3383SOL     OW21784   0.783   0.418  11.984  0.0028 -0.1244  0.9992
 3383SOL    HW121785   0.699   0.390  12.020 -0.5369 -0.7604 -0.7347
 3383SOL    HW221786   0.795   0.498  12.035 -2.3864  0.2464  0.9935
 3384SOL     OW21787   3.224   0.775  12.528 -0.1101 -0.8234  0.8867
 3384SOL    HW121788   3.146   0.766  12.472  1.2235 -1.7726 -0.8331
 3384SOL    HW221789   3.227   0.687  12.565 -0.1153 -0.9416  0.6129
 3385SOL     OW21790   1.066   4.138  14.549  0.1179 -0.0774  0.0216
 3385SOL    HW121791   1.115   4.207  14.594  0.2452 -1.1017  1.4617
 3385SOL    HW221792   0.980   4.181  14.548  1.0036  1.6387 -0.9945
 3386SOL     OW21793   0.302   1.206   3.245 -0.4561  0.2297  0.1091
 3386SOL    HW121794   0.333   1.257   3.170 -0.6644 -2.1872 -1.6203
 3386SOL    HW221795   0.381   1.160   3.272 -1.0747 -2.0721 -1.9369
 3387SOL     OW21796   4.005   3.723   4.660 -0.0286 -0.2301 -0.3933
 3387SOL    HW121797   3.982   3.788   4.593  0.2757  0.3567  0.0771
 3387SOL    HW221798   3.946   3.651   4.640 -0.2550 -0.7820  2.3827
 3388SOL     OW21799   3.346   2.702   3.835 -0.4789  0.5594 -0.1546
 3388SOL    HW121800   3.303   2.648   3.768 -0.2068  0.4332 -0.2273
 3388SOL    HW221801   3.374   2.630   3.891  0.4777  1.8428  0.9991
 3389SOL     OW21802   1.697   4.680  10.704  0.2858  0.9668  0.5143
 3389SOL    HW121803   1.790   4.705  10.705  0.5248 -0.1207  4.2718
 3389SOL    HW221804   1.692   4.668  10.609  1.7009 -1.9143  0.8307
 3390SOL     OW21805   0.589   2.918   7.383 -0.8777  0.6887  0.1260
 3390SOL    HW121806   0.626   2.978   7.318 -1.9271 -0.1628 -1.2324
 3390SOL    HW221807   0.511   2.962   7.418 -2.0413  0.4247 -2.1361
 3391SOL     OW21808   2.520   4.604   4.497 -0.4939  0.2125  0.3553
 3391SOL    HW121809   2.496   4.553   4.420  0.6850  3.0251 -1.9030
 3391SOL    HW221810   2.487   4.544   4.564 -2.9353  0.2850 -0.7818
 3392SOL     OW21811   3.068   3.167   5.373 -0.2519 -0.1368 -0.0352
 3392SOL    HW121812   3.022   3.219   5.439  2.1674  0.6786  1.0128
 3392SOL    HW221813   3.004   3.096   5.364 -0.0672 -0.5833  2.0868
 3393SOL     OW21814   3.770   1.709   6.587 -0.4370  0.0878  0.1096
 3393SOL    HW121815   3.866   1.713   6.594 -0.0936 -2.6260 -2.8944
 3393SOL    HW221816   3.739   1.778   6.646 -0.8610  1.0301 -1.2170
 3394SOL     OW21817   0.895   4.537  11.289 -0.0002 -0.0372 -0.2929
 3394SOL    HW121818   0.921   4.561  11.200  0.2616  1.4355  0.1779
 3394SOL    HW221819   0.800   4.550  11.284  0.0750  0.0050 -1.8434
 3395SOL     OW21820   2.713   3.132   4.833  0.0428 -0.2481 -0.1008
 3395SOL    HW121821   2.618   3.138   4.827  0.3138  0.2816 -3.8504
 3395SOL    HW221822   2.714   3.062   4.899 -0.3840 -0.6256 -0.4879
 3396SOL     OW21823   0.739   2.882   7.053  0.3778 -0.0634  0.3088
 3396SOL    HW121824   0.678   2.956   7.061  1.4299  0.5217  2.8144
 3396SOL    HW221825   0.702   2.837   6.977  2.2651 -0.3991 -0.4115
 3397SOL     OW21826   4.326   2.681   4.790  0.2232 -0.2941 -0.4923
 3397SOL    HW121827   4.384   2.623   4.740 -0.0787 -0.8891 -0.1586
 3397SOL    HW221828   4.313   2.743   4.718 -2.1629  1.3011  1.3091
 3398SOL     OW21829   1.756   3.175  13.690  0.3119  0.1924 -0.0821
 3398SOL    HW121830   1.790   3.221  13.613  1.3770 -0.7201 -0.1489
 3398SOL    HW221831   1.778   3.239  13.759  2.5518 -0.9315  0.2297
 3399SOL     OW21832   1.439   0.563   1.970 -0.0792  0.3737 -0.1734
 3399SOL    HW121833   1.396   0.479   1.957  1.6531 -0.5396  0.0029
 3399SOL    HW221834   1.488   0.577   1.889  0.8179  0.2650  0.3520
 3400SOL     OW21835   1.645   3.358  11.671  0.4181 -0.3827 -0.8515
 3400SOL    HW121836   1.730   3.346  11.713  0.3835 -0.4981 -0.8160
 3400SOL    HW221837   1.594   3.294  11.721  0.4134 -0.0448 -0.4186
 3401SOL     OW21838   3.210   4.271   8.132 -0.5906  0.2275 -0.1374
 3401SOL    HW121839   3.144   4.313   8.187  0.4924  3.0843 -1.0416
 3401SOL    HW221840   3.288   4.254   8.186 -0.7154 -0.7662 -0.2683
 3402SOL     OW21841   1.023   3.654   6.757  0.1666  0.7045 -0.5188
 3402SOL    HW121842   1.082   3.596   6.806 -1.2743 -0.0761  0.2831
 3402SOL    HW221843   0.984   3.704   6.828  1.3052  0.0431  0.5938
 3403SOL     OW21844   4.184   3.521   2.786 -0.6325 -0.4170 -0.8174
 3403SOL    HW121845   4.199   3.599   2.732 -1.7515  0.2175 -0.2269
 3403SOL    HW221846   4.094   3.536   2.816 -0.0414  1.0718  0.2516
 3404SOL     OW21847   2.892   1.280   2.402 -0.0549 -0.1026 -0.1069
 3404SOL    HW121848   2.962   1.217   2.421 -1.5742 -1.1594  1.9329
 3404SOL    HW221849   2.824   1.225   2.364 -0.1832  0.8829 -1.3170
 3405SOL     OW21850   2.127   0.853   2.685  0.1691 -0.1126 -0.1777
 3405SOL    HW121851   2.164   0.927   2.637 -1.2856  0.9273  0.3350
 3405SOL    HW221852   2.040   0.890   2.676  0.5680  0.8420 -0.1153
 3406SOL     OW21853   4.099   0.600   5.936 -0.3985 -0.7974  0.5756
 3406SOL    HW121854   4.069   0.544   5.865  0.3029 -0.1313 -0.2499
 3406SOL    HW221855   4.014   0.627   5.973  0.0591  0.1744  0.9202
 3407SOL     OW21856   0.980   0.204  14.769 -0.2239 -0.3896  0.4805
 3407SOL    HW121857   0.970   0.230  14.861 -0.9731 -1.8388  0.8105
 3407SOL    HW221858   0.903   0.155  14.739 -0.8582 -0.1094  1.6203
 3408SOL     OW21859   1.475   2.083   6.718  0.0677 -0.0444 -0.4157
 3408SOL    HW121860   1.463   2.153   6.655  1.4554  1.0221  0.4851
 3408SOL    HW221861   1.517   2.134   6.787 -1.8478  0.2887  0.5080
 3409SOL     OW21862   0.758   4.054   4.908 -0.0047  0.0014 -0.9812
 3409SOL    HW121863   0.765   3.987   4.976  0.5442  1.7774  0.7393
 3409SOL    HW221864   0.677   4.090   4.942  1.3865  0.6000  1.7137
 3410SOL     OW21865   2.326   0.923   1.834  0.2520 -0.1623  1.1188
 3410SOL    HW121866   2.262   0.994   1.838  0.7845  0.2058  3.0843
 3410SOL    HW221867   2.345   0.920   1.927 -2.9449  1.0314  1.8139
 3411SOL     OW21868   0.688   4.451   5.524  0.1857  0.6304 -0.0621
 3411SOL    HW121869   0.776   4.473   5.493 -0.1627  1.1160 -0.7015
 3411SOL    HW221870   0.637   4.528   5.499  0.2507  0.0308 -2.0517
 3412SOL     OW21871   3.095   4.258   2.579  0.2525  0.1946  0.2076
 3412SOL    HW121872   3.038   4.291   2.511 -0.1642  2.2045  1.5345
 3412SOL    HW221873   3.038   4.262   2.656 -1.0911 -0.9415 -0.7391
 3413SOL     OW21874   1.109   0.474   3.659  0.2903  0.0381  0.1271
 3413SOL    HW121875   1.134   0.385   3.635  1.0334  0.4302 -0.5616
 3413SOL    HW221876   1.074   0.516   3.580  1.5799 -2.7350 -1.9328
 3414SOL     OW21877   3.015   0.145   7.223 -0.2960  0.4650  0.2742
 3414SOL    HW121878   3.092   0.191   7.256 -1.5381  1.1265  2.2025
 3414SOL    HW221879   2.939   0.189   7.261  0.4521  1.7663  0.2645
 3415SOL     OW21880   3.212   3.645   8.344 -0.0715  0.2749  0.3238
 3415SOL    HW121881   3.276   3.692   8.398 -0.8534  0.2162  1.3064
 3415SOL    HW221882   3.141   3.635   8.408  0.4754 -0.5424  0.8075
 3416SOL     OW21883   2.842   3.272   0.037 -0.1522  0.1591 -0.0975
 3416SOL    HW121884   2.808   3.339   0.095  2.5492  0.9576  0.5455
 3416SOL    HW221885   2.788   3.283  17.709 -1.3053  2.3324  0.9998
 3417SOL     OW21886   3.171   4.161   8.604 -0.6864  0.4737  0.2600
 3417SOL    HW121887   3.218   4.078   8.606  0.2136  1.0592  4.7145
 3417SOL    HW221888   3.237   4.223   8.573 -1.7141  1.4821  0.0970
 3418SOL     OW21889   0.367   4.361   2.027 -0.3089 -0.2127 -0.0418
 3418SOL    HW121890   0.296   4.355   1.963  0.5156 -3.0242 -0.6744
 3418SOL    HW221891   0.326   4.304   2.092  1.0717 -0.6944  0.4006
 3419SOL     OW21892   0.704   3.565  13.708  0.5777  0.0593  0.4412
 3419SOL    HW121893   0.686   3.488  13.762 -0.4347 -1.2829 -1.8139
 3419SOL    HW221894   0.625   3.619  13.720 -0.3311 -1.5870  1.9601
 3420SOL     OW21895   4.133   1.712   1.574  0.5935 -0.6534  0.0008
 3420SOL    HW121896   4.131   1.619   1.551 -1.0352 -0.8999  1.1370
 3420SOL    HW221897   4.042   1.723   1.603  0.4752  2.7548 -1.6063
 3421SOL     OW21898   1.168   0.087   5.814  0.3618 -0.6363  0.1494
 3421SOL    HW121899   1.193   4.733   5.803  1.4386 -0.3191  0.0086
 3421SOL    HW221900   1.160   0.081   5.909  2.8758  0.7130  0.4336
 3422SOL     OW21901   1.952   3.839   2.101  0.1292 -0.4533  0.2250
 3422SOL    HW121902   2.030   3.822   2.048 -0.1658 -1.9855  0.2857
 3422SOL    HW221903   1.896   3.879   2.034  1.1980  1.4184  0.4486
 3423SOL     OW21904   2.283   2.382   7.644  0.7433  0.3029 -0.5795
 3423SOL    HW121905   2.358   2.323   7.651  0.4765  0.0150 -0.1850
 3423SOL    HW221906   2.265   2.394   7.737 -2.7607  0.7915 -1.3061
 3424SOL     OW21907   3.346   0.445  10.832 -0.8243  0.1304  0.2890
 3424SOL    HW121908   3.367   0.537  10.815  1.7567 -0.2862  1.1569
 3424SOL    HW221909   3.325   0.448  10.925 -0.2247 -0.3743  0.4473
 3425SOL     OW21910   2.381   1.839   4.266  0.0831  0.2187 -0.1675
 3425SOL    HW121911   2.346   1.765   4.315  0.4207  1.2155  1.5741
 3425SOL    HW221912   2.420   1.792   4.192  1.0654  0.4101  0.2299
 3426SOL     OW21913   3.122   2.383   9.644 -0.2344 -0.2228 -0.0264
 3426SOL    HW121914   3.169   2.306   9.611  2.4009  0.9945  0.8284
 3426SOL    HW221915   3.037   2.347   9.621 -1.8555  3.2415  0.5541
 3427SOL     OW21916   4.016   4.282  12.035  0.1670 -0.4819  0.4015
 3427SOL    HW121917   4.033   4.368  12.073 -0.8044  0.2218 -0.7471
 3427SOL    HW221918   4.103   4.246  12.014  0.6956  1.7100 -1.1222
 3428SOL     OW21919   3.854   2.138   2.284  0.8056 -0.2344 -0.1184
 3428SOL    HW121920   3.787   2.069   2.289  0.2067  0.3451 -0.1711
 3428SOL    HW221921   3.910   2.120   2.360  2.1931  2.4540 -0.5088
 3429SOL     OW21922   3.815   2.052   1.457  0.2449 -0.1965 -0.5896
 3429SOL    HW121923   3.796   2.006   1.539 -0.1238 -0.3653 -0.7707
 3429SOL    HW221924   3.782   1.989   1.393 -0.9667  1.6228 -1.7497
 3430SOL     OW21925   1.960   3.500   1.992  0.6933  0.0626  0.4823
 3430SOL    HW121926   1.940   3.453   1.910  0.7312 -0.0946  0.5630
 3430SOL    HW221927   2.036   3.543   1.954  1.6637  0.3368  2.7490
 3431SOL     OW21928   1.892   0.169   7.089 -0.0440 -0.2976 -0.1844
 3431SOL    HW121929   1.847   0.147   7.171 -1.6225 -2.0369 -1.4979
 3431SOL    HW221930   1.829   0.235   7.061  0.9064  1.2127  1.2328
 3432SOL     OW21931   3.495   4.041   4.352  0.6560 -0.1148  0.4780
 3432SOL    HW121932   3.547   4.100   4.298 -1.1340  0.7642 -0.2778
 3432SOL    HW221933   3.556   4.031   4.426  2.0932  1.5743 -0.4721
 3433SOL     OW21934   0.411   4.164  13.540 -0.0573  0.0018 -0.1276
 3433SOL    HW121935   0.458   4.098  13.591  0.8185  0.8773  0.2181
 3433SOL    HW221936   0.435   4.144  13.450 -0.3161  1.0999 -0.4408
 3434SOL     OW21937   2.854   3.866   2.564 -0.6592 -0.1918  0.6173
 3434SOL    HW121938   2.908   3.902   2.634  1.7876 -2.0044 -0.3226
 3434SOL    HW221939   2.799   3.943   2.552 -0.9739 -0.2191  1.8442
 3435SOL     OW21940   4.167   1.163  15.941 -0.1395 -0.4030  0.1972
 3435SOL    HW121941   4.195   1.251  15.913 -0.5481  0.2673  1.9157
 3435SOL    HW221942   4.093   1.141  15.885 -0.4019 -1.8962  1.1455
 3436SOL     OW21943   4.693   3.122  16.878  0.7733  0.2964  0.2358
 3436SOL    HW121944   4.609   3.082  16.857  0.0258  1.8123  0.2895
 3436SOL    HW221945   4.731   3.132  16.791  0.4679  2.2703  0.3280
 3437SOL     OW21946   0.651   3.608   1.451 -0.2481 -0.8289  0.4515
 3437SOL    HW121947   0.614   3.691   1.422 -0.7550 -0.2555  2.6731
 3437SOL    HW221948   0.720   3.595   1.387 -0.5300  2.1376 -0.4423
 3438SOL     OW21949   3.658   4.195   6.856 -0.0823 -0.0030  0.1704
 3438SOL    HW121950   3.728   4.132   6.867  0.1101  0.1908  0.0437
 3438SOL    HW221951   3.677   4.233   6.771 -1.5386  0.2613 -0.0392
 3439SOL     OW21952   0.209   2.281  11.295 -0.3687 -0.2557 -0.2603
 3439SOL    HW121953   0.303   2.262  11.294  0.4139  3.4873 -0.4768
 3439SOL    HW221954   0.168   2.200  11.322  3.4439 -1.1237  2.9451
 3440SOL     OW21955   3.401   1.236  12.662 -0.4857  0.0209 -0.4705
 3440SOL    HW121956   3.384   1.145  12.685 -1.5885  0.7376  1.4805
 3440SOL    HW221957   3.386   1.282  12.744 -2.6710 -0.6541 -0.4950
 3441SOL     OW21958   0.692   3.585   6.018  0.0959 -0.1558  0.1514
 3441SOL    HW121959   0.767   3.609   5.964 -0.4069 -1.9165 -1.3420
 3441SOL    HW221960   0.701   3.654   6.083 -1.3637 -0.5395  0.7551
 3442SOL     OW21961   2.086   4.363   5.058  0.8164  0.5377  0.1282
 3442SOL    HW121962   2.125   4.436   5.008  0.6182  0.3873 -0.2417
 3442SOL    HW221963   2.001   4.358   5.015  0.3581  0.4636  1.0465
 3443SOL     OW21964   0.740   2.919   6.503  0.2448  0.0054 -0.2003
 3443SOL    HW121965   0.771   2.837   6.541 -0.2993 -0.7105 -1.2885
 3443SOL    HW221966   0.771   2.931   6.414 -1.1167 -0.2353 -0.7167
 3444SOL     OW21967   0.351   1.832   2.920 -0.2825 -0.3926  0.0978
 3444SOL    HW121968   0.414   1.813   2.990  1.0471 -0.9059 -1.2670
 3444SOL    HW221969   0.301   1.896   2.971  0.2203  0.9635 -1.1393
 3445SOL     OW21970   3.650   3.159  11.405 -0.0590  0.3410 -0.7455
 3445SOL    HW121971   3.641   3.064  11.396 -1.7840  0.0592  3.9682
 3445SOL    HW221972   3.560   3.183  11.382 -0.3559 -1.9412 -1.9022
 3446SOL     OW21973   4.071   0.759   3.311 -0.7861 -0.2452  0.1884
 3446SOL    HW121974   4.137   0.803   3.258 -0.5921  0.9036  1.3696
 3446SOL    HW221975   4.122   0.681   3.332  0.9509  0.3683 -1.8781
 3447SOL     OW21976   3.643   3.986   8.523 -0.2559  0.4705 -0.4290
 3447SOL    HW121977   3.600   3.923   8.465 -0.4834 -0.5519  0.8395
 3447SOL    HW221978   3.690   3.938   8.591 -1.5656  0.9454  0.8161
 3448SOL     OW21979   4.342   0.195  15.251 -0.4250 -0.3648 -0.3697
 3448SOL    HW121980   4.312   0.124  15.308  0.7741  0.1286  0.8702
 3448SOL    HW221981   4.327   0.280  15.292 -0.7408  0.3290 -1.9257
 3449SOL     OW21982   1.081   4.552   5.762 -0.2314  0.5674  0.2216
 3449SOL    HW121983   1.088   4.458   5.747 -0.7062  0.7085 -0.8780
 3449SOL    HW221984   1.002   4.536   5.813  0.8182  0.1857  1.7149
 3450SOL     OW21985   3.214   0.130   3.459  0.4177 -0.3277 -0.6530
 3450SOL    HW121986   3.163   0.210   3.470 -0.2827 -0.9371  0.5480
 3450SOL    HW221987   3.298   0.175   3.448 -0.5164  1.4010 -0.7780
 3451SOL     OW21988   0.871   1.834   1.227 -0.6398  0.2634  0.1304
 3451SOL    HW121989   0.921   1.753   1.225 -1.5473 -0.2709 -0.7574
 3451SOL    HW221990   0.781   1.806   1.208 -1.0581  2.3038 -0.9656
 3452SOL     OW21991   3.001   1.179   6.501  0.4666  0.5800  0.1436
 3452SOL    HW121992   3.038   1.135   6.577 -0.3136  1.5071  1.0624
 3452SOL    HW221993   3.074   1.191   6.440 -0.9807  1.0474 -1.5231
 3453SOL     OW21994   3.422   3.279   9.426 -0.0323 -0.4579  0.3776
 3453SOL    HW121995   3.404   3.193   9.389 -0.6565  0.2652 -0.9968
 3453SOL    HW221996   3.510   3.262   9.461  0.2437 -1.5860 -0.8842
 3454SOL     OW21997   0.395   2.505   1.008  0.3311 -0.1678  0.2638
 3454SOL    HW121998   0.443   2.554   0.942 -0.4514  1.1053  0.6327
 3454SOL    HW221999   0.314   2.490   0.959  0.5893  0.1886 -0.2582
 3455SOL     OW22000   0.926   2.054  14.768 -0.4313 -0.1555 -0.3163
 3455SOL    HW122001   0.837   2.057  14.802 -0.2091 -2.7801  0.5004
 3455SOL    HW222002   0.937   1.959  14.770  0.4033 -0.0799 -1.4711
 3456SOL     OW22003   3.196   1.879  15.994 -0.1633  0.5454  0.1547
 3456SOL    HW122004   3.233   1.949  15.941  1.8779  0.3585  1.3074
 3456SOL    HW222005   3.249   1.809  15.956 -0.7268  0.6187 -0.7699
 3457SOL     OW22006   0.228   4.500   6.758 -0.6755  0.5579  0.3453
 3457SOL    HW122007   0.172   4.567   6.719 -3.3162 -2.6942 -1.4329
 3457SOL    HW222008   0.246   4.457   6.674 -0.3341 -1.9039  1.6923
 3458SOL     OW22009   0.163   4.180   4.742 -0.7851  0.3299 -0.8210
 3458SOL    HW122010   0.147   4.161   4.834  2.2488 -2.5187 -0.8526
 3458SOL    HW222011   0.203   4.267   4.751  0.9326 -0.5737  0.3594
 3459SOL     OW22012   0.232   0.470  16.655  0.2031  0.8414 -0.1065
 3459SOL    HW122013   0.301   0.510  16.603  0.5174  0.7470  0.2333
 3459SOL    HW222014   0.271   0.458  16.742 -2.6117 -0.3301  0.9828
 3460SOL     OW22015   4.659   3.237   7.056 -0.4911  0.5524 -0.3628
 3460SOL    HW122016   4.679   3.325   7.023 -1.2261  0.3568 -1.3326
 3460SOL    HW222017   4.582   3.260   7.108 -0.3835 -0.6986  0.3388
 3461SOL     OW22018   1.433   0.203   5.267 -0.6854  0.1190 -0.0494
 3461SOL    HW122019   1.338   0.204   5.273 -0.5980  2.0895  0.8977
 3461SOL    HW222020   1.450   0.109   5.280 -0.4453  0.1837  0.1047
 3462SOL     OW22021   3.022   2.376   1.399 -0.6473 -0.0258 -0.1137
 3462SOL    HW122022   3.041   2.290   1.438 -0.0027  0.6060  0.9485
 3462SOL    HW222023   2.934   2.396   1.431 -0.5414  1.7285 -0.9212
 3463SOL     OW22024   3.706   0.463   6.878 -0.4964  0.7954 -0.2811
 3463SOL    HW122025   3.733   0.553   6.858  1.3287  0.4838  0.7598
 3463SOL    HW222026   3.753   0.419   6.808  0.0577 -2.9748  2.4931
 3464SOL     OW22027   0.163   1.507   6.378 -0.0319 -0.0502  0.2974
 3464SOL    HW122028   0.238   1.458   6.344 -0.7521  0.6959 -2.3973
 3464SOL    HW222029   0.184   1.586   6.329 -1.3533  0.1280  0.0445
 3465SOL     OW22030   2.940   1.668   2.668 -0.0311 -0.1136  0.7271
 3465SOL    HW122031   2.951   1.756   2.633  0.3594  0.2451  1.7542
 3465SOL    HW222032   2.884   1.623   2.605  0.9098  1.0139 -0.9138
 3466SOL     OW22033   2.678   0.004  15.207 -0.2145  0.0346 -0.2834
 3466SOL    HW122034   2.716   4.723  15.121  0.0232 -0.4773 -0.0653
 3466SOL    HW222035   2.725   4.675  15.256  1.0384  0.4946 -0.8688
 3467SOL     OW22036   0.161   1.272   1.649  0.1470  0.1263  0.2995
 3467SOL    HW122037   0.151   1.352   1.701 -2.1528  0.2959 -0.4008
 3467SOL    HW222038   0.180   1.214   1.723 -1.6358 -1.2927 -0.3529
 3468SOL     OW22039   3.785   2.153   8.863  0.1923  0.0286 -0.1310
 3468SOL    HW122040   3.815   2.062   8.859 -2.2128 -0.7183 -0.6392
 3468SOL    HW222041   3.803   2.192   8.777  0.6650 -0.4274 -0.2432
 3469SOL     OW22042   1.271   1.234   2.591  0.0241  0.0637  0.1285
 3469SOL    HW122043   1.356   1.253   2.631 -0.3042 -0.6260  1.1804
 3469SOL    HW222044   1.296   1.194   2.508  0.5830 -0.4334  0.5400
 3470SOL     OW22045   1.737   1.795   4.212 -0.9725  0.6474  0.4080
 3470SOL    HW122046   1.747   1.869   4.271  0.3852  0.7761  0.0091
 3470SOL    HW222047   1.824   1.779   4.175  0.2471  1.3005  2.9854
 3471SOL     OW22048   0.718   3.672  11.895 -0.3945 -0.4578  0.3496
 3471SOL    HW122049   0.801   3.624  11.905 -0.2673 -0.2959  0.0756
 3471SOL    HW222050   0.749   3.761  11.908  1.1959 -1.1997  1.6535
 3472SOL     OW22051   2.583   1.731  17.624  0.3628  0.7205  0.0654
 3472SOL    HW122052   2.526   1.784  17.569 -1.6270  0.6763  2.0945
 3472SOL    HW222053   2.621   1.799  17.680 -1.1901  1.0280  0.7220
 3473SOL     OW22054   1.101   0.130   6.453  0.1735  0.1576 -0.5067
 3473SOL    HW122055   1.117   0.099   6.543  3.9244 -0.6773 -1.4690
 3473SOL    HW222056   1.006   0.129   6.451  0.1219 -0.0690  1.3591
 3474SOL     OW22057   2.814   0.321   6.693  0.2569 -0.0996  0.1967
 3474SOL    HW122058   2.875   0.350   6.761 -2.4867  4.1545  0.8086
 3474SOL    HW222059   2.857   0.258   6.635 -0.9706 -0.5695 -0.2008
 3475SOL     OW22060   4.588   3.215   2.383 -0.5365  0.0914  0.6992
 3475SOL    HW122061   4.563   3.167   2.304 -0.3785 -1.3109  1.4894
 3475SOL    HW222062   4.518   3.178   2.437 -2.3717 -1.6056 -2.8573
 3476SOL     OW22063   2.468   3.361  12.234 -0.1620  0.2287 -0.2793
 3476SOL    HW122064   2.456   3.283  12.288 -1.9047 -0.1462 -1.2153
 3476SOL    HW222065   2.391   3.359  12.177  2.0799  3.0818 -3.3882
 3477SOL     OW22066   3.084   3.371   1.956 -0.2498  0.5204  0.0120
 3477SOL    HW122067   3.134   3.295   1.985 -1.1573  0.1662  0.6312
 3477SOL    HW222068   3.159   3.424   1.928 -0.8671  1.4262  0.0803
 3478SOL     OW22069   0.828   2.273  15.130  0.5715  0.3960  0.7099
 3478SOL    HW122070   0.858   2.193  15.088 -0.7129 -1.7007  3.7585
 3478SOL    HW222071   0.807   2.235  15.215 -0.6624 -1.6568 -0.4977
 3479SOL     OW22072   0.435   2.761   3.129  0.3498  0.3678  0.6224
 3479SOL    HW122073   0.346   2.730   3.110  1.0612 -0.2748 -1.5505
 3479SOL    HW222074   0.458   2.694   3.194 -0.9685 -1.7592 -1.1079
 3480SOL     OW22075   3.350   0.559   9.673  0.2882 -0.0868  0.2547
 3480SOL    HW122076   3.404   0.502   9.619  0.6779  1.3206 -0.8310
 3480SOL    HW222077   3.292   0.599   9.608 -0.6737  0.6382  1.5772
 3481SOL     OW22078   1.902   1.323   4.719  0.1392 -0.1508  0.4981
 3481SOL    HW122079   1.898   1.235   4.755 -0.1269 -0.8853 -1.3315
 3481SOL    HW222080   1.940   1.307   4.632  2.0915  2.5418  0.8297
 3482SOL     OW22081   0.014   2.889   4.759 -0.1343 -0.3373 -0.1352
 3482SOL    HW122082   0.001   2.795   4.745  0.1533 -0.2838 -0.7859
 3482SOL    HW222083   0.069   2.892   4.681  0.0216  1.1047  0.0416
 3483SOL     OW22084   2.775   1.789   9.004 -0.3016  0.0180 -0.5097
 3483SOL    HW122085   2.748   1.881   9.008 -0.1360 -0.0952  2.8845
 3483SOL    HW222086   2.699   1.741   9.036 -0.5221  0.5899 -0.1720
 3484SOL     OW22087   1.861   0.138   7.982 -0.3502  0.1630 -0.1416
 3484SOL    HW122088   1.913   0.161   8.060 -0.8107 -0.6186  0.3852
 3484SOL    HW222089   1.923   0.077   7.942  0.6305  0.8750  0.2695
 3485SOL     OW22090   2.583   3.502   5.525  0.3331  0.0546  0.4954
 3485SOL    HW122091   2.664   3.493   5.574  2.1769  1.4531 -2.2441
 3485SOL    HW222092   2.585   3.598   5.519 -1.2546 -0.0173 -1.2915
 3486SOL     OW22093   1.077   2.729   4.321 -0.1019  0.6071  0.0158
 3486SOL    HW122094   1.104   2.656   4.376 -1.3996 -0.3565 -0.6194
 3486SOL    HW222095   0.986   2.735   4.352  0.9531  0.4546  3.1229
 3487SOL     OW22096   0.559   2.325   5.001  0.1503  0.7297 -0.1150
 3487SOL    HW122097   0.519   2.326   4.914 -0.0047 -3.1524 -0.0893
 3487SOL    HW222098   0.507   2.392   5.044  0.5306  1.8164 -1.3447
 3488SOL     OW22099   3.703   3.160   1.081  0.0183 -0.0852  0.6267
 3488SOL    HW122100   3.634   3.130   1.023  1.5210 -0.9184 -0.7459
 3488SOL    HW222101   3.688   3.098   1.152  0.9732 -0.4137  0.5468
 3489SOL     OW22102   4.344   0.726   2.144  0.7288 -0.1368  0.2311
 3489SOL    HW122103   4.415   0.662   2.136  1.1759  0.2133  1.4128
 3489SOL    HW222104   4.383   0.798   2.095 -1.1388  1.1946  0.6921
 3490SOL     OW22105   0.417   0.079   8.815 -0.0091  0.1286 -0.2885
 3490SOL    HW122106   0.423   0.011   8.748 -0.9950  1.6877 -1.9718
 3490SOL    HW222107   0.497   0.058   8.863  0.2049 -0.7570 -1.0280
 3491SOL     OW22108   1.494   2.913  10.489 -0.0710  1.0865 -0.1623
 3491SOL    HW122109   1.434   2.922  10.415 -0.8914 -0.2415  0.3468
 3491SOL    HW222110   1.463   2.831  10.526 -1.4711  1.2802 -0.8998
 3492SOL     OW22111   1.700   3.851  11.884 -0.3934  0.1120 -0.2657
 3492SOL    HW122112   1.791   3.876  11.870 -0.2548 -1.1310 -1.5925
 3492SOL    HW222113   1.655   3.933  11.900  1.7538  1.4144 -0.9700
 3493SOL     OW22114   3.748   1.524   2.499 -0.2761  0.0418  0.2254
 3493SOL    HW122115   3.666   1.517   2.549 -1.2619  2.5439 -1.0763
 3493SOL    HW222116   3.726   1.578   2.423  0.6674  0.0508 -0.0315
 3494SOL     OW22117   3.496   3.567   2.886  0.0645 -0.6313  0.7277
 3494SOL    HW122118   3.406   3.577   2.854  0.5227 -2.2255 -1.0074
 3494SOL    HW222119   3.509   3.473   2.879  0.6860 -0.5167  0.3833
 3495SOL     OW22120   3.705   4.665  11.879  0.0076 -0.5711  0.2975
 3495SOL    HW122121   3.797   4.643  11.862  0.2892 -0.3481  1.5726
 3495SOL    HW222122   3.656   4.583  11.876 -1.6066  0.3518  1.6129
 3496SOL     OW22123   2.038   4.522   4.182 -0.4059 -0.8877  0.6349
 3496SOL    HW122124   2.056   4.547   4.092 -1.1546  2.5829  1.4535
 3496SOL    HW222125   2.117   4.478   4.214  0.9367  0.8189 -0.3611
 3497SOL     OW22126   4.549   4.554   7.564 -0.5205 -0.0642  0.0916
 3497SOL    HW122127   4.615   4.623   7.574 -0.0431 -0.4324 -0.5380
 3497SOL    HW222128   4.607   4.481   7.543  0.6019  2.1718 -4.7124
 3498SOL     OW22129   0.946   0.693   8.773 -0.1252  0.1100  0.3101
 3498SOL    HW122130   0.946   0.651   8.687 -0.0193 -0.8336  0.7710
 3498SOL    HW222131   0.862   0.676   8.816 -0.8973  0.1803 -1.1629
 3499SOL     OW22132   0.998   2.737   4.696 -0.4217 -0.3357  0.1591
 3499SOL    HW122133   0.996   2.833   4.696  1.5164 -0.3093 -1.1446
 3499SOL    HW222134   1.091   2.716   4.705 -0.3948  0.6941  2.4178
 3500SOL     OW22135   2.410   3.195   2.378 -0.1915 -0.3640 -0.0910
 3500SOL    HW122136   2.432   3.184   2.286 -0.4634 -0.0086 -0.1991
 3500SOL    HW222137   2.381   3.286   2.381  2.2506  0.4222 -0.0414
 3501SOL     OW22138   1.937   0.287   5.800  0.2599  0.0026 -0.2671
 3501SOL    HW122139   1.897   0.370   5.776  1.6730  0.5140 -0.8356
 3501SOL    HW222140   1.866   0.224   5.786  0.5393 -0.2029 -0.7874
 3502SOL     OW22141   0.718   0.583   6.826 -0.4116 -0.0873  0.3390
 3502SOL    HW122142   0.749   0.548   6.909 -2.2349 -0.2927  0.9395
 3502SOL    HW222143   0.690   0.670   6.856  0.1848  0.0692  0.4530
 3503SOL     OW22144   2.280   4.175   6.287 -0.0529 -0.0160 -0.2060
 3503SOL    HW122145   2.327   4.174   6.204  1.3180  2.9969  0.5474
 3503SOL    HW222146   2.335   4.116   6.338 -1.3321  0.6181  1.9287
 3504SOL     OW22147   0.385   2.404   5.835 -0.2494 -0.0236 -0.6243
 3504SOL    HW122148   0.475   2.434   5.825 -0.6885  1.5644  0.2073
 3504SOL    HW222149   0.377   2.377   5.927 -0.2185  0.1635 -0.5668
 3505SOL     OW22150   4.698   2.789   3.050  0.6786  0.0670 -0.1863
 3505SOL    HW122151   4.671   2.702   3.078  0.1628  0.8091  1.6524
 3505SOL    HW222152   0.056   2.792   3.051  0.7391 -1.7780 -0.3110
 3506SOL     OW22153   3.295   3.212   8.042 -0.2052 -0.0476 -0.0903
 3506SOL    HW122154   3.363   3.145   8.052 -1.9433 -1.8346 -0.2526
 3506SOL    HW222155   3.305   3.262   8.123 -0.1012  0.5834 -0.4871
 3507SOL     OW22156   4.307   0.651   8.765  0.4651  0.0006 -0.6301
 3507SOL    HW122157   4.227   0.667   8.815  1.2348  2.7174 -0.2604
 3507SOL    HW222158   4.368   0.685   8.830 -2.0460  3.6284 -0.1615
 3508SOL     OW22159   2.159   2.772   4.423  0.0682 -0.2959 -0.0826
 3508SOL    HW122160   2.220   2.698   4.421 -2.0945 -2.0394 -1.8453
 3508SOL    HW222161   2.218   2.843   4.398  0.2072  0.0145  1.1380
 3509SOL     OW22162   2.784   4.055  17.304 -0.7642  0.6108  0.6960
 3509SOL    HW122163   2.787   4.090  17.215  2.9918 -2.4524 -0.4082
 3509SOL    HW222164   2.826   4.126  17.352 -0.3434  1.1337 -0.4619
 3510SOL     OW22165   3.608   1.152   1.006  0.2352 -0.3820  0.0727
 3510SOL    HW122166   3.666   1.076   1.000 -0.6619 -1.0740  0.2542
 3510SOL    HW222167   3.522   1.111   1.016 -0.8576  2.4664  2.4022
 3511SOL     OW22168   3.245   4.437   6.544  0.1374  0.7413 -0.1016
 3511SOL    HW122169   3.314   4.371   6.541  1.6807  2.3324 -0.1221
 3511SOL    HW222170   3.242   4.461   6.451 -0.0942  1.6755  0.1431
 3512SOL     OW22171   3.576   2.612   9.929 -0.3523 -0.1069 -0.0397
 3512SOL    HW122172   3.525   2.628  10.008 -1.6715 -1.0942 -0.6965
 3512SOL    HW222173   3.656   2.577   9.967 -1.6668 -2.9774  0.0602
 3513SOL     OW22174   4.008   1.274   3.687  0.4204 -0.0527 -0.3089
 3513SOL    HW122175   4.012   1.328   3.608  0.3326 -1.9124 -1.6037
 3513SOL    HW222176   3.946   1.207   3.658  1.6051 -1.9114  1.4279
 3514SOL     OW22177   0.344   4.466  11.798  0.0606  0.4718  0.5254
 3514SOL    HW122178   0.321   4.494  11.710 -0.2289  0.8834  0.7324
 3514SOL    HW222179   0.405   4.394  11.780 -0.2631  0.8497 -1.9616
 3515SOL     OW22180   0.036   3.942  16.914 -0.2601  0.1396 -0.0055
 3515SOL    HW122181   0.118   3.964  16.958 -0.8489  0.2008  1.0688
 3515SOL    HW222182   0.021   3.852  16.941  1.0479  0.9290  3.3251
 3516SOL     OW22183   2.363   3.599  13.603 -0.5390  0.4771 -0.1135
 3516SOL    HW122184   2.440   3.644  13.639  0.5895 -0.2244 -1.6432
 3516SOL    HW222185   2.393   3.511  13.628 -1.8526 -0.6775 -2.5730
 3517SOL     OW22186   2.571   1.585  13.508 -0.6577  0.1649  0.0812
 3517SOL    HW122187   2.542   1.594  13.599 -1.5787  1.2999 -0.3222
 3517SOL    HW222188   2.488   1.594  13.461 -0.5051  0.8630 -0.0661
 3518SOL     OW22189   1.034   1.425   7.114  0.3541  0.0731  0.1989
 3518SOL    HW122190   1.073   1.351   7.162  0.0796  0.4233  0.9508
 3518SOL    HW222191   0.946   1.433   7.150 -1.0469  0.3559 -3.2950
 3519SOL     OW22192   4.003   2.498   7.046 -0.0682  0.3391  0.3135
 3519SOL    HW122193   4.085   2.543   7.025 -0.7939  1.1885 -0.6952
 3519SOL    HW222194   4.000   2.526   7.137 -2.1786 -0.0821  0.3816
 3520SOL     OW22195   0.521   2.474  16.881 -0.3956 -0.4000 -0.2489
 3520SOL    HW122196   0.611   2.506  16.891 -0.6494  0.5075 -0.9382
 3520SOL    HW222197   0.501   2.465  16.975 -0.8742 -1.0325 -0.4142
 3521SOL     OW22198   1.218   1.155   3.126  0.4561 -0.2917 -0.0705
 3521SOL    HW122199   1.284   1.218   3.157  0.3658  0.6299 -1.7694
 3521SOL    HW222200   1.253   1.127   3.041  0.3365 -1.1753  0.1704
 3522SOL     OW22201   3.193   0.140   4.169 -0.0676 -0.2055  0.6101
 3522SOL    HW122202   3.222   0.125   4.078 -0.5105  0.1938  0.4028
 3522SOL    HW222203   3.114   0.086   4.179 -1.3896  1.6129 -0.1331
 3523SOL     OW22204   3.466   2.051   7.903 -0.2847  0.0960  0.2367
 3523SOL    HW122205   3.446   1.976   7.960  0.7165  0.7681  1.4880
 3523SOL    HW222206   3.378   2.074   7.874  0.7200  0.6942 -2.3699
 3524SOL     OW22207   1.193   3.267   4.061  0.1502  0.0377 -0.5685
 3524SOL    HW122208   1.122   3.285   4.000  0.2089  2.8258  0.2059
 3524SOL    HW222209   1.171   3.332   4.128 -1.9240 -2.7979  1.4900
 3525SOL     OW22210   2.602   2.164   3.332  0.5694 -0.3423 -0.3076
 3525SOL    HW122211   2.529   2.191   3.388 -1.2039 -2.8803 -1.4407
 3525SOL    HW222212   2.672   2.153   3.396  0.4717 -0.4900 -0.2287
 3526SOL     OW22213   0.003   2.055  17.384 -0.2134 -0.3884  0.2631
 3526SOL    HW122214   4.660   2.062  17.334  0.2476  0.8356 -0.3321
 3526SOL    HW222215   4.722   2.096  17.469  0.4845  0.1277  0.1672
 3527SOL     OW22216   1.708   4.006   9.088  0.1448  0.0094 -0.5017
 3527SOL    HW122217   1.654   4.079   9.119 -0.5861 -0.7644  0.0433
 3527SOL    HW222218   1.751   4.053   9.016  1.3024  0.6031  0.5788
 3528SOL     OW22219   2.791   4.003   2.823  0.0383  0.2111  0.0454
 3528SOL    HW122220   2.818   3.937   2.887  1.6852 -0.2774 -1.1453
 3528SOL    HW222221   2.697   3.998   2.843  0.2266 -3.6639 -0.0976
 3529SOL     OW22222   0.287   2.782   4.072 -0.0433  0.3790 -0.4203
 3529SOL    HW122223   0.320   2.871   4.055  1.8679 -0.4458 -1.0006
 3529SOL    HW222224   0.266   2.742   3.988  1.3016  1.1542 -1.1294
 3530SOL     OW22225   4.678   2.022  13.659  0.2255 -0.0173 -0.7253
 3530SOL    HW122226   4.605   1.962  13.676  1.0992 -0.6053  0.9238
 3530SOL    HW222227   4.707   2.044  13.747 -0.1100  1.8244 -1.0818
 3531SOL     OW22228   2.550   3.856  12.622 -0.3259 -0.0320  0.3006
 3531SOL    HW122229   2.529   3.788  12.557  0.0972  0.6820 -0.5772
 3531SOL    HW222230   2.511   3.935  12.586 -0.7817 -0.8151 -0.9436
 3532SOL     OW22231   0.235   0.474  10.647 -0.3780 -0.1863 -0.3375
 3532SOL    HW122232   0.213   0.462  10.554  0.7856 -1.7030 -0.4045
 3532SOL    HW222233   0.330   0.479  10.640 -0.3084 -1.7207 -0.3290
 3533SOL     OW22234   1.170   2.204  16.771  0.0363  0.4296  0.4572
 3533SOL    HW122235   1.112   2.136  16.738  2.4818 -0.9584 -0.9137
 3533SOL    HW222236   1.161   2.274  16.707 -0.9968  1.2149  1.4435
 3534SOL     OW22237   2.177   3.204   6.089 -0.1556  0.0534 -0.4836
 3534SOL    HW122238   2.124   3.177   6.165 -2.2703  1.2133 -1.5320
 3534SOL    HW222239   2.136   3.286   6.062 -0.2879  0.5981  1.3372
 3535SOL     OW22240   4.293   0.087   4.610 -0.0361 -0.0205  0.4704
 3535SOL    HW122241   4.277   0.121   4.699  0.7213  0.9682  0.2292
 3535SOL    HW222242   4.373   0.131   4.582  1.3484 -4.4080 -2.3771
 3536SOL     OW22243   4.224   0.680  16.316 -0.0971  0.3661 -0.1008
 3536SOL    HW122244   4.196   0.646  16.231  1.2613 -0.2196 -0.3294
 3536SOL    HW222245   4.272   0.758  16.289 -1.0099  1.4627  1.4807
 3537SOL     OW22246   0.344   4.628   6.391 -0.0946  0.3539 -0.2230
 3537SOL    HW122247   0.311   4.544   6.421 -0.6846  1.0751  1.1518
 3537SOL    HW222248   0.260   4.662   6.359 -0.2962  0.1752  0.1181
 3538SOL     OW22249   3.459   1.376   3.417  0.1315  0.2690 -0.3547
 3538SOL    HW122250   3.406   1.387   3.496  0.1747  0.5260 -0.3598
 3538SOL    HW222251   3.471   1.469   3.396 -0.4329  0.5941  0.7957
 3539SOL     OW22252   2.467   1.236   7.297  0.2437 -0.7670 -0.0828
 3539SOL    HW122253   2.483   1.245   7.391  1.1589 -0.9929 -0.2183
 3539SOL    HW222254   2.431   1.147   7.294  0.2348 -0.8421  1.8482
 3540SOL     OW22255   0.348   1.325   6.312  0.6436  0.3136  0.2693
 3540SOL    HW122256   0.340   1.230   6.323 -1.3130  0.3506 -0.7493
 3540SOL    HW222257   0.422   1.323   6.252  1.5719 -2.8638  1.4678
 3541SOL     OW22258   3.552   4.172   2.750 -0.3837  0.4486  0.0367
 3541SOL    HW122259   3.541   4.199   2.659  0.2946 -2.0167 -0.7783
 3541SOL    HW222260   3.528   4.080   2.747  0.0712  0.2786  1.5448
 3542SOL     OW22261   3.683   2.200  16.191 -0.4271  0.0705  0.3233
 3542SOL    HW122262   3.761   2.250  16.216 -0.6440  0.7946 -0.4374
 3542SOL    HW222263   3.644   2.269  16.136  1.2958 -0.3970 -1.5002
 3543SOL     OW22264   3.988   0.716  16.752 -0.2213 -0.4641  0.5294
 3543SOL    HW122265   4.063   0.707  16.693  1.0576  2.1739  1.7849
 3543SOL    HW222266   4.032   0.718  16.837  0.0632 -2.1169  0.4205
 3544SOL     OW22267   0.733   3.576   2.092  0.0724 -0.2246  0.6040
 3544SOL    HW122268   0.735   3.482   2.074 -0.0947  0.2644 -1.9593
 3544SOL    HW222269   0.724   3.570   2.187 -2.7400 -3.4136  0.1199
 3545SOL     OW22270   0.257   4.601   9.071 -0.4468  0.0725 -0.3771
 3545SOL    HW122271   0.208   4.681   9.052 -2.1082 -0.4075  1.9240
 3545SOL    HW222272   0.325   4.628   9.133  0.3071 -0.6273 -0.8896
 3546SOL     OW22273   0.852   3.974   7.987 -0.3611  0.6029  0.2076
 3546SOL    HW122274   0.890   4.061   8.001  1.4500 -0.1228 -0.3357
 3546SOL    HW222275   0.898   3.944   7.909 -0.4854  0.7158  0.0896
 3547SOL     OW22276   4.366   3.541   3.159  0.1936 -0.1219  0.2689
 3547SOL    HW122277   4.419   3.577   3.230  0.6598  2.1950 -1.2465
 3547SOL    HW222278   4.425   3.468   3.143 -1.3669 -1.3448  0.0095
 3548SOL     OW22279   0.075   2.205   2.143  0.3888  0.6641  0.1063
 3548SOL    HW122280   0.132   2.276   2.172 -0.8170  0.7374  2.2957
 3548SOL    HW222281   4.737   2.198   2.200 -0.4970  1.9841 -0.9259
 3549SOL     OW22282   3.957   4.204   9.315 -0.0921  0.5911  0.3184
 3549SOL    HW122283   4.007   4.213   9.235 -0.4497 -1.1371 -0.1081
 3549SOL    HW222284   4.020   4.244   9.375  1.6508  0.2014 -1.2914
 3550SOL     OW22285   1.079   0.017  11.531 -0.1192  0.7932 -0.3346
 3550SOL    HW122286   1.131   0.017  11.451  0.1644  1.1016 -0.1493
 3550SOL    HW222287   1.065   4.662  11.548 -3.9675  0.9436 -2.9065
 3551SOL     OW22288   0.660   4.674   3.350  0.1429 -0.1149  0.0440
 3551SOL    HW122289   0.570   4.694   3.377  0.0115 -1.8102  0.8478
 3551SOL    HW222290   0.657   4.585   3.315 -0.6003 -0.2730  0.5081
 3552SOL     OW22291   3.222   2.620   3.616 -0.6939  0.3283 -0.1119
 3552SOL    HW122292   3.208   2.526   3.618 -2.9744  0.6638 -0.8376
 3552SOL    HW222293   3.257   2.636   3.528 -1.4042 -0.8702 -0.6043
 3553SOL     OW22294   1.532   1.367  11.399 -0.1416 -0.5239  0.3908
 3553SOL    HW122295   1.460   1.387  11.459 -0.6550  1.1298 -0.7731
 3553SOL    HW222296   1.517   1.273  11.386  0.7847 -1.1081  3.6891
 3554SOL     OW22297   4.218   0.937   0.381 -0.5119  0.0477  0.1097
 3554SOL    HW122298   4.166   0.936   0.301  0.2385 -3.2054 -0.3324
 3554SOL    HW222299   4.188   1.007   0.440  0.7844  0.1154  0.6855
 3555SOL     OW22300   0.183   0.640   4.018 -0.1075  0.4467  0.4291
 3555SOL    HW122301   0.226   0.660   3.935  0.1091 -1.0116  0.1968
 3555SOL    HW222302   0.251   0.625   4.084  0.5213  1.0670 -0.0807
 3556SOL     OW22303   0.437   0.549  16.446  0.3517  0.0692  0.3985
 3556SOL    HW122304   0.530   0.534  16.462  0.1813 -0.7600  0.6254
 3556SOL    HW222305   0.435   0.527  16.353  1.5198 -0.8532  0.5845
 3557SOL     OW22306   4.303   4.616   5.559 -0.0103  0.3057 -0.1240
 3557SOL    HW122307   4.209   4.620   5.577  0.6349  3.3536  2.4957
 3557SOL    HW222308   4.306   4.555   5.485 -0.2401 -1.5166  1.3640
 3558SOL     OW22309   2.178   4.581   7.378 -0.1098 -0.1294  0.3766
 3558SOL    HW122310   2.139   4.595   7.464  0.9786 -1.3978  1.0782
 3558SOL    HW222311   2.268   4.568   7.410  0.0803 -0.3702 -0.2507
 3559SOL     OW22312   0.265   0.006   5.456  0.8681 -0.5635 -0.2472
 3559SOL    HW122313   0.310   0.089   5.439  2.2510 -1.0633  0.9489
 3559SOL    HW222314   0.220   0.026   5.538 -1.6259  1.2558 -2.0941
 3560SOL     OW22315   1.917   4.188   6.642 -0.2601  0.1153  0.0888
 3560SOL    HW122316   1.871   4.267   6.614 -0.4470  0.7092  2.1122
 3560SOL    HW222317   1.868   4.165   6.721 -0.2673 -0.2455 -0.0188
 3561SOL     OW22318   3.546   1.313  12.442 -0.3443  0.2442 -0.0844
 3561SOL    HW122319   3.490   1.275  12.510  0.2702 -1.4133 -0.5088
 3561SOL    HW222320   3.541   1.256  12.366 -0.3890  0.5056 -0.2753
 3562SOL     OW22321   3.823   3.770   8.182  0.6499  0.2049 -0.1369
 3562SOL    HW122322   3.821   3.819   8.100  2.0254  1.7946  0.7797
 3562SOL    HW222323   3.906   3.722   8.173  1.8729  1.9225  2.0885
 3563SOL     OW22324   2.144   3.622   2.146 -0.2434 -0.4265 -0.8603
 3563SOL    HW122325   2.110   3.618   2.236  0.4019  1.2520 -0.5495
 3563SOL    HW222326   2.073   3.571   2.106  0.7310  0.1733 -3.3368
 3564SOL     OW22327   2.479   3.283   7.768  0.7847 -0.2588  0.3873
 3564SOL    HW122328   2.462   3.189   7.757  0.1094 -0.1245  0.2780
 3564SOL    HW222329   2.404   3.318   7.720  0.0267  1.6595  2.9955
 3565SOL     OW22330   0.278   0.505   7.962  0.0687  0.7385 -0.2828
 3565SOL    HW122331   0.328   0.483   7.884 -0.7130 -0.2467 -0.5112
 3565SOL    HW222332   0.223   0.427   7.968  2.1772 -0.7611 -0.5405
 3566SOL     OW22333   3.734   2.884   3.932  0.4456  0.3036  0.0304
 3566SOL    HW122334   3.667   2.943   3.965 -0.4250 -1.6311  1.7254
 3566SOL    HW222335   3.820   2.914   3.960  0.6008 -0.6851  0.6003
 3567SOL     OW22336   1.841   3.630  13.976  0.7571 -0.4132  0.5267
 3567SOL    HW122337   1.888   3.704  13.937 -2.0997  1.1549  0.0801
 3567SOL    HW222338   1.781   3.608  13.906 -0.7952  1.2782  1.3152
 3568SOL     OW22339   4.673   0.124   7.970  0.5284  0.2239  0.2352
 3568SOL    HW122340   4.644   0.208   7.934 -2.2849 -0.2236  1.3997
 3568SOL    HW222341   4.633   0.128   8.057 -0.8646 -0.3121 -0.3729
 3569SOL     OW22342   3.464   1.457  13.784  0.8673  0.3156  0.5772
 3569SOL    HW122343   3.522   1.465  13.708 -0.0810  0.0567 -0.1823
 3569SOL    HW222344   3.462   1.539  13.833 -1.1571  0.8437 -0.4026
 3570SOL     OW22345   1.943   1.207   2.815 -0.1475 -0.0523 -0.1009
 3570SOL    HW122346   1.927   1.267   2.888  1.8714  1.2545 -0.7455
 3570SOL    HW222347   1.871   1.241   2.762  1.0759  1.3465 -0.8654
 3571SOL     OW22348   1.379   2.602  16.915 -0.2223  0.2718  0.1863
 3571SOL    HW122349   1.406   2.517  16.951 -3.4727 -0.4110  1.0968
 3571SOL    HW222350   1.415   2.608  16.827  0.9615 -2.4919  0.4911
 3572SOL     OW22351   0.106   3.823  15.974 -0.1367  0.2108  0.8551
 3572SOL    HW122352   0.167   3.767  15.927 -1.6427 -0.0625 -0.7736
 3572SOL    HW222353   0.131   3.777  16.054 -1.1704  0.9078  1.5677
 3573SOL     OW22354   1.279   2.241   3.852  0.1201 -0.1862  0.0407
 3573SOL    HW122355   1.260   2.176   3.784 -2.6290  0.3136  0.3389
 3573SOL    HW222356   1.203   2.232   3.908  0.0396  1.1237  0.1297
 3574SOL     OW22357   0.924   1.829  15.707  0.3346  0.5552  0.3715
 3574SOL    HW122358   0.992   1.770  15.673 -0.9303  0.0278 -1.2483
 3574SOL    HW222359   0.865   1.774  15.759 -0.4303  1.9201  0.9443
 3575SOL     OW22360   0.166   0.620  12.704  0.4117 -0.2668 -0.0655
 3575SOL    HW122361   0.234   0.567  12.746  0.6740 -1.1033 -1.5551
 3575SOL    HW222362   0.083   0.586  12.737  1.0518 -2.4780 -0.7588
 3576SOL     OW22363   4.038   1.723   4.218  0.3626 -0.0722 -0.3559
 3576SOL    HW122364   4.103   1.678   4.272 -1.3855 -1.2622  0.7691
 3576SOL    HW222365   4.083   1.704   4.136  0.5900 -0.7025 -0.0875
 3577SOL     OW22366   3.416   1.128   2.444 -0.6498  0.1371 -0.0357
 3577SOL    HW122367   3.352   1.094   2.507 -1.7035  1.5677 -0.3301
 3577SOL    HW222368   3.456   1.043   2.427 -0.9617 -0.6658  3.2231
 3578SOL     OW22369   0.832   4.698   4.512  0.4040 -0.7311  0.1070
 3578SOL    HW122370   0.840   4.605   4.493 -1.7686 -0.6683 -1.1215
 3578SOL    HW222371   0.871   0.009   4.439 -0.5952  1.2319  0.9115
 3579SOL     OW22372   1.029   4.073   5.693 -0.5034 -0.3488 -0.2426
 3579SOL    HW122373   0.981   4.109   5.618  0.5140  3.7195  1.0806
 3579SOL    HW222374   1.074   4.157   5.705  0.6829 -1.0132 -0.0567
 3580SOL     OW22375   2.143   3.263   8.196  0.1042  0.4053 -0.0702
 3580SOL    HW122376   2.074   3.207   8.162 -0.4236 -0.3781  2.2954
 3580SOL    HW222377   2.196   3.277   8.118  0.6483 -2.0204 -0.1201
 3581SOL     OW22378   1.467   0.930  17.523  0.4748 -0.6792 -0.1330
 3581SOL    HW122379   1.445   0.938  17.616  1.7628  0.0482  0.1145
 3581SOL    HW222380   1.446   1.013  17.479 -1.8141 -1.1687  0.0034
 3582SOL     OW22381   3.763   2.278   1.020  0.0730 -0.2162  0.2641
 3582SOL    HW122382   3.765   2.292   0.926  1.2494  1.4727  0.5412
 3582SOL    HW222383   3.850   2.300   1.053  0.9258 -2.6431 -0.4040
 3583SOL     OW22384   1.910   2.663   6.002 -0.6042 -0.0671  0.1829
 3583SOL    HW122385   1.946   2.632   6.085 -0.0263 -1.6252 -0.6530
 3583SOL    HW222386   1.880   2.580   5.964 -0.7831 -0.8498  2.0437
 3584SOL     OW22387   4.469   0.344   5.042  0.2154 -0.0295  0.5558
 3584SOL    HW122388   4.383   0.332   5.082  0.7308 -3.1871  0.6973
 3584SOL    HW222389   4.477   0.439   5.031 -0.9586 -0.1603 -1.3824
 3585SOL     OW22390   0.903   2.638   5.666 -0.0030  0.3214 -0.3827
 3585SOL    HW122391   0.854   2.587   5.730  1.7480 -0.4119  0.3694
 3585SOL    HW222392   0.905   2.578   5.591  0.5672 -1.1466  0.8139
 3586SOL     OW22393   2.285   2.602   8.551  0.4344  0.5569 -0.0579
 3586SOL    HW122394   2.274   2.594   8.646 -0.1611  0.1084 -0.1619
 3586SOL    HW222395   2.381   2.602   8.549  0.4574  1.2237  0.9627
 3587SOL     OW22396   0.294   1.730   0.933 -0.3617  0.6776 -0.3112
 3587SOL    HW122397   0.291   1.656   0.994 -1.1478 -2.1834 -3.7827
 3587SOL    HW222398   0.310   1.688   0.848 -0.9048 -1.1086  0.4627
 3588SOL     OW22399   4.335   0.398   1.251 -0.2035 -0.1240  0.6389
 3588SOL    HW122400   4.324   0.383   1.345 -0.0811 -2.2679  0.3200
 3588SOL    HW222401   4.286   0.320   1.225 -0.9411  0.4276  0.3746
 3589SOL     OW22402   2.479   3.165   7.316 -0.3202  0.1016 -0.1550
 3589SOL    HW122403   2.418   3.215   7.262 -1.4024 -0.3925  0.6061
 3589SOL    HW222404   2.438   3.177   7.402 -2.1155 -0.3221 -0.9671
 3590SOL     OW22405   1.850   0.733   0.524  0.4848 -0.5399  0.3122
 3590SOL    HW122406   1.874   0.784   0.447 -0.4495  1.2659  1.2159
 3590SOL    HW222407   1.932   0.743   0.572  1.1704 -1.3425 -0.7033
 3591SOL     OW22408   2.530   0.846   8.273  0.3213 -0.3315  0.4315
 3591SOL    HW122409   2.599   0.780   8.266  0.7802  0.0155  1.8219
 3591SOL    HW222410   2.450   0.794   8.287 -0.8584  1.6632  1.0103
 3592SOL     OW22411   1.389   0.673   2.902  0.1860 -0.4622  0.0052
 3592SOL    HW122412   1.461   0.688   2.963  0.4159  3.4977 -1.2315
 3592SOL    HW222413   1.433   0.725   2.835 -0.5328  0.0161 -0.0931
 3593SOL     OW22414   1.301   3.472   4.580  0.0122  0.0391 -0.3548
 3593SOL    HW122415   1.214   3.441   4.604  0.2684 -0.9556 -0.6815
 3593SOL    HW222416   1.281   3.545   4.521 -1.9988  0.5551  0.9977
 3594SOL     OW22417   1.066   0.026  15.100  0.0847 -0.6935 -0.1017
 3594SOL    HW122418   1.040   0.025  15.192 -2.1628 -2.1857 -0.7780
 3594SOL    HW222419   1.093   0.118  15.101  2.2450 -1.3138 -1.9127
 3595SOL     OW22420   2.396   0.759   4.201 -0.6839 -0.5772  0.3512
 3595SOL    HW122421   2.354   0.825   4.146 -0.9630 -1.7114 -0.8049
 3595SOL    HW222422   2.471   0.800   4.243 -0.8823  1.1459 -0.9541
 3596SOL     OW22423   3.934   0.210   4.150  0.5688  0.0402 -0.3771
 3596SOL    HW122424   3.898   0.224   4.062 -1.2890 -0.3016  0.3355
 3596SOL    HW222425   3.852   0.198   4.197  0.5205 -2.7962 -1.1511
 3597SOL     OW22426   1.662   1.969  17.201  0.1693 -0.3814  0.6451
 3597SOL    HW122427   1.708   2.053  17.193  1.1239 -1.1219 -1.6025
 3597SOL    HW222428   1.692   1.936  17.117  0.9421 -0.9465  1.1454
 3598SOL     OW22429   4.663   0.557   7.658  0.1327  0.0804  0.1811
 3598SOL    HW122430   4.659   0.541   7.564 -1.1349 -1.7859  0.5587
 3598SOL    HW222431   4.605   0.634   7.664  1.3243  0.9766  0.1227
 3599SOL     OW22432   4.164   4.160   3.400 -0.5866  0.4250  0.5024
 3599SOL    HW122433   4.072   4.161   3.425 -1.1495  1.4381 -1.5486
 3599SOL    HW222434   4.174   4.241   3.349 -1.8416 -0.8471 -1.7523
 3600SOL     OW22435   3.502   4.645   6.597  0.0706  0.3788 -0.1327
 3600SOL    HW122436   3.429   4.585   6.579  1.0524 -1.0280  0.5144
 3600SOL    HW222437   3.472   4.673   6.684  0.7088 -0.2999  0.3053
 3601SOL     OW22438   4.167   2.326   6.630  0.3125 -0.3862 -0.2277
 3601SOL    HW122439   4.234   2.269   6.668  0.2632 -1.3325 -1.5526
 3601SOL    HW222440   4.089   2.273   6.646 -0.7883  1.8048  1.5499
 3602SOL     OW22441   4.567   0.482   6.826 -0.4439  0.2501 -0.1205
 3602SOL    HW122442   4.569   0.555   6.887 -0.2485 -1.4549  1.9133
 3602SOL    HW222443   4.477   0.455   6.847 -0.2905 -0.0914  0.0981
 3603SOL     OW22444   2.922   1.315  16.100  0.0031  0.7099  0.3614
 3603SOL    HW122445   2.845   1.303  16.155 -0.5640  0.0987 -0.5644
 3603SOL    HW222446   2.935   1.234  16.052 -0.1652  2.6379 -2.9539
 3604SOL     OW22447   0.877   3.188   7.494 -0.2255 -0.6309 -0.2533
 3604SOL    HW122448   0.847   3.205   7.583 -1.8225 -1.3993 -0.6392
 3604SOL    HW222449   0.797   3.171   7.445 -0.7958 -1.1593  0.8683
 3605SOL     OW22450   0.320   3.174   2.305  0.2257 -0.6584 -0.3773
 3605SOL    HW122451   0.245   3.224   2.272  1.3226  1.8998  1.1158
 3605SOL    HW222452   0.270   3.097   2.335  1.5133 -1.6307 -0.7258
 3606SOL     OW22453   2.824   2.895  10.507 -0.3698 -0.1039  0.1674
 3606SOL    HW122454   2.874   2.921  10.430 -0.1974  4.0888  1.6932
 3606SOL    HW222455   2.861   2.958  10.569 -0.3381 -0.8154  0.8772
 3607SOL     OW22456   2.182   3.309   2.640 -0.2301 -0.5303  0.3099
 3607SOL    HW122457   2.234   3.358   2.576 -2.3674  1.9541  0.5032
 3607SOL    HW222458   2.207   3.217   2.629 -0.2678 -0.7050  1.7231
 3608SOL     OW22459   1.285   2.539   4.731  0.0903 -0.3764 -0.0665
 3608SOL    HW122460   1.316   2.620   4.772  0.5751 -0.4845 -0.2302
 3608SOL    HW222461   1.221   2.515   4.799  1.0465 -2.9795 -0.0862
 3609SOL     OW22462   4.448   3.155   5.868  0.3485 -0.2194  0.1602
 3609SOL    HW122463   4.428   3.248   5.857  1.4085 -0.0724 -0.4506
 3609SOL    HW222464   4.369   3.124   5.823  0.1166 -1.5857  1.4912
 3610SOL     OW22465   0.660   0.288  15.174  0.5260  0.2043 -0.2911
 3610SOL    HW122466   0.579   0.283  15.226  0.7879 -0.8239  0.0225
 3610SOL    HW222467   0.630   0.354  15.111  0.8363 -1.3583 -2.0724
 3611SOL     OW22468   0.333   2.738   0.670  0.0254  0.5876  0.3949
 3611SOL    HW122469   0.417   2.719   0.628 -0.3311  1.1799 -0.5777
 3611SOL    HW222470   0.319   2.666   0.732  0.5229  0.4767  0.3739
 3612SOL     OW22471   3.407   3.203  17.405  0.3482 -0.2846  0.3564
 3612SOL    HW122472   3.368   3.287  17.380 -0.5850 -0.5460  0.9342
 3612SOL    HW222473   3.494   3.204  17.365 -1.0129  1.3028 -2.6266
 3613SOL     OW22474   0.669   2.828   1.996 -0.0031  0.1925 -0.2688
 3613SOL    HW122475   0.601   2.805   1.932  0.4327  2.4529 -1.5610
 3613SOL    HW222476   0.747   2.837   1.940 -0.8771  0.9087 -1.3884
 3614SOL     OW22477   3.163   3.411   7.515 -0.4011  0.0003  0.2299
 3614SOL    HW122478   3.208   3.451   7.590  0.0845 -0.6460  0.2800
 3614SOL    HW222479   3.089   3.379   7.567  0.7007 -1.2172  1.0287
 3615SOL     OW22480   0.755   2.208   1.378  0.2025 -0.2119  0.1507
 3615SOL    HW122481   0.797   2.294   1.391 -0.8104  0.7569 -3.0134
 3615SOL    HW222482   0.672   2.224   1.423  0.0204  1.6829 -0.8480
 3616SOL     OW22483   3.525   3.982   9.566 -0.7817 -0.4973  0.1483
 3616SOL    HW122484   3.561   3.975   9.655 -1.5020  0.2082  0.4970
 3616SOL    HW222485   3.499   4.074   9.566 -0.3090 -0.3608  1.2569
 3617SOL     OW22486   4.603   3.676   5.561  0.0236  0.0525  0.3228
 3617SOL    HW122487   4.603   3.771   5.554  1.6539 -0.0649 -1.4217
 3617SOL    HW222488   4.509   3.664   5.574 -0.1547 -1.0862 -1.9395
 3618SOL     OW22489   3.366   3.415   2.265 -0.0951 -0.1309 -0.2995
 3618SOL    HW122490   3.271   3.404   2.253  0.0095 -1.9400  0.4498
 3618SOL    HW222491   3.357   3.510   2.276  0.0185 -0.1271 -0.2398
 3619SOL     OW22492   4.532   0.917  17.729 -0.3929  0.4438  0.4534
 3619SOL    HW122493   4.516   0.974  17.654  2.3301  0.5464 -0.0242
 3619SOL    HW222494   4.512   0.967   0.058 -2.6229  1.0271 -0.4679
 3620SOL     OW22495   0.529   3.758   3.683  0.0858 -0.5028 -0.4101
 3620SOL    HW122496   0.597   3.743   3.749  0.4175 -0.6402 -0.7842
 3620SOL    HW222497   0.582   3.820   3.634  0.2450 -1.1156 -1.0024
 3621SOL     OW22498   1.519   1.571   7.538  0.1882 -0.3377 -0.1503
 3621SOL    HW122499   1.603   1.616   7.542 -1.0629  1.9678 -0.2908
 3621SOL    HW222500   1.489   1.564   7.628  2.0444 -0.4989  0.4485
 3622SOL     OW22501   3.267   3.526   9.472  0.2467 -0.3166  0.1112
 3622SOL    HW122502   3.315   3.562   9.398 -1.4817 -1.1445 -1.4423
 3622SOL    HW222503   3.307   3.439   9.474 -0.4735 -0.6421  0.3041
 3623SOL     OW22504   1.601   3.728   3.295 -0.2843  0.3765 -0.3909
 3623SOL    HW122505   1.676   3.762   3.247  0.0941  1.5634  1.0502
 3623SOL    HW222506   1.617   3.756   3.385  5.3655 -0.2361 -1.2271
 3624SOL     OW22507   4.712   0.185   7.288  0.1466 -0.2174 -0.1834
 3624SOL    HW122508   4.639   0.177   7.350  0.1022  1.3137 -0.0397
 3624SOL    HW222509   4.663   0.178   7.206  0.9711 -0.8667 -0.6215
 3625SOL     OW22510   2.342   1.622   4.455  0.1303 -0.1502 -0.2055
 3625SOL    HW122511   2.260   1.573   4.445 -0.4953  0.9636 -0.4466
 3625SOL    HW222512   2.395   1.553   4.496  2.1074  0.7125 -1.2966
 3626SOL     OW22513   2.132   0.357   9.232 -0.2511 -0.0482 -0.4203
 3626SOL    HW122514   2.179   0.408   9.298 -0.3969  1.9440 -1.8324
 3626SOL    HW222515   2.196   0.288   9.216  2.4383  2.2657  0.2822
 3627SOL     OW22516   1.824   0.498   1.785  0.8298 -0.1247  0.0585
 3627SOL    HW122517   1.869   0.583   1.779 -3.3989  1.9612 -1.9245
 3627SOL    HW222518   1.757   0.511   1.719  1.2543 -0.6542 -0.4722
 3628SOL     OW22519   2.472   3.467  10.867  0.2233  0.0641  0.5234
 3628SOL    HW122520   2.407   3.501  10.806  0.8859 -2.0696 -1.3571
 3628SOL    HW222521   2.434   3.383  10.893  1.5233 -1.3154 -1.9905
 3629SOL     OW22522   1.141   1.490   7.971 -0.2332 -0.3296 -0.2576
 3629SOL    HW122523   1.118   1.402   7.998 -2.8533  0.4724  0.0915
 3629SOL    HW222524   1.076   1.505   7.903  1.5430  0.8840 -1.6782
 3630SOL     OW22525   2.961   3.442  10.486  0.5508  0.2127 -1.1737
 3630SOL    HW122526   3.008   3.359  10.485 -1.2922 -0.7989 -3.4486
 3630SOL    HW222527   2.929   3.459  10.574 -1.1329 -3.2345 -1.1372
 3631SOL     OW22528   3.982   4.492   6.502  0.0144  0.3207  0.1293
 3631SOL    HW122529   3.968   4.406   6.543  0.5470  0.1689 -0.0140
 3631SOL    HW222530   3.895   4.516   6.469  0.2654  1.8227  0.5648
 3632SOL     OW22531   2.183   0.512   9.977 -0.7217  0.1586  0.4257
 3632SOL    HW122532   2.113   0.448   9.967 -0.8922  0.4430 -0.1919
 3632SOL    HW222533   2.260   0.455   9.984 -0.4278  0.7299  2.0065
 3633SOL     OW22534   3.562   0.167   6.948 -0.1225  0.0689  0.2208
 3633SOL    HW122535   3.596   0.168   6.859 -3.8019  3.5004 -1.1448
 3633SOL    HW222536   3.635   0.119   6.987 -1.2512 -1.2626  0.7254
 3634SOL     OW22537   3.478   1.284   5.512 -0.3585  0.2418  0.4025
 3634SOL    HW122538   3.448   1.374   5.501  0.5586  0.5362  0.3128
 3634SOL    HW222539   3.512   1.267   5.425 -0.4080  0.6669  0.3008
 3635SOL     OW22540   4.368   1.904   4.213  0.0208 -0.0932 -0.5207
 3635SOL    HW122541   4.302   1.925   4.147 -1.3536  0.2493  0.9422
 3635SOL    HW222542   4.355   1.978   4.272  3.9086 -1.1287  1.6118
 3636SOL     OW22543   2.303   3.280   7.154 -0.4203 -0.2511 -0.6005
 3636SOL    HW122544   2.369   3.319   7.098  0.5480  0.7308  1.2088
 3636SOL    HW222545   2.275   3.354   7.208 -2.0705 -0.8290 -0.6578
 3637SOL     OW22546   2.711   3.532   3.434  0.0601 -0.0794  0.4352
 3637SOL    HW122547   2.796   3.572   3.451 -0.1344  0.3956  0.3017
 3637SOL    HW222548   2.726   3.452   3.483  0.5022 -0.3922 -0.2116
 3638SOL     OW22549   4.212   4.382  14.418 -0.4658  0.0910 -0.0096
 3638SOL    HW122550   4.230   4.333  14.498 -1.4156  0.3602  0.3605
 3638SOL    HW222551   4.267   4.460  14.427  0.7311 -0.7876  0.3275
 3639SOL     OW22552   0.403   1.741  12.807  0.0343 -0.3473  0.5229
 3639SOL    HW122553   0.350   1.790  12.744 -0.1988 -1.4835 -0.1559
 3639SOL    HW222554   0.447   1.813  12.852  0.9976  1.1672 -2.8697
 3640SOL     OW22555   3.099   4.681   2.084 -0.2389  0.2011 -0.3593
 3640SOL    HW122556   3.112   4.721   2.170 -1.1504 -1.6743  0.6481
 3640SOL    HW222557   3.005   4.686   2.063  0.0072 -0.3221 -1.5455
 3641SOL     OW22558   1.450   0.749   3.705  0.5215  0.3219 -0.5674
 3641SOL    HW122559   1.468   0.663   3.665  1.6084  0.3958 -0.2473
 3641SOL    HW222560   1.441   0.729   3.798  0.6460 -1.0731 -0.8464
 3642SOL     OW22561   0.542   4.375   4.893  0.0323 -0.2207 -0.4178
 3642SOL    HW122562   0.576   4.440   4.954 -0.0076  0.2798 -0.9368
 3642SOL    HW222563   0.529   4.293   4.942  0.9838  0.3338  0.7760
 3643SOL     OW22564   2.190   0.445   5.567 -0.2155 -0.3778 -0.4873
 3643SOL    HW122565   2.243   0.481   5.496 -2.2446  0.1916 -1.7084
 3643SOL    HW222566   2.102   0.472   5.541 -0.2194  1.1474  1.0729
 3644SOL     OW22567   0.290   4.475  10.064  0.1784  0.5523 -0.0148
 3644SOL    HW122568   0.232   4.538  10.022 -2.8521 -2.3599 -0.1879
 3644SOL    HW222569   0.278   4.502  10.155  0.6479 -1.3492  0.6251
 3645SOL     OW22570   0.900   3.616  14.793 -0.3785 -0.3056 -0.7844
 3645SOL    HW122571   0.868   3.552  14.729 -1.8436 -0.2512 -0.1117
 3645SOL    HW222572   0.885   3.701  14.752 -0.0520  0.8199  1.4145
 3646SOL     OW22573   2.906   0.646   7.762 -0.3897 -0.2103 -0.9483
 3646SOL    HW122574   2.814   0.631   7.737 -0.8426 -0.7713  1.0370
 3646SOL    HW222575   2.891   0.685   7.848  1.8998 -1.7645  0.1590
 3647SOL     OW22576   1.638   2.614   7.514  0.0048  0.4541  0.0096
 3647SOL    HW122577   1.608   2.597   7.425  2.5620  0.6103 -0.8657
 3647SOL    HW222578   1.702   2.684   7.499 -0.4058  0.7267 -0.4544
 3648SOL     OW22579   4.389   1.923  11.896 -0.4472 -0.1682 -0.0355
 3648SOL    HW122580   4.350   1.840  11.922  0.5624 -1.3368 -2.1841
 3648SOL    HW222581   4.390   1.924  11.800 -1.0256 -1.1322 -0.0506
 3649SOL     OW22582   0.306   0.007  12.437  0.0776 -0.4934  0.1089
 3649SOL    HW122583   0.308   4.667  12.492  0.0596 -0.7261 -0.2265
 3649SOL    HW222584   0.361   0.075  12.478  1.9199 -0.5823 -2.2221
 3650SOL     OW22585   3.447   3.034   5.047  0.1101  0.3028 -0.3581
 3650SOL    HW122586   3.410   3.115   5.012  3.0150  2.2451  1.0307
 3650SOL    HW222587   3.379   2.978   5.011 -0.9915  0.2877  1.7768
 3651SOL     OW22588   4.542   2.291   3.010  0.0555 -0.3321 -0.0660
 3651SOL    HW122589   4.596   2.277   2.931 -1.3011 -1.4237 -0.8045
 3651SOL    HW222590   4.560   2.211   3.059 -0.4125 -1.1727 -1.2495
 3652SOL     OW22591   0.427   0.182   2.255  0.2179  0.1869  0.3330
 3652SOL    HW122592   0.395   0.201   2.343  2.9556 -0.8099  1.5592
 3652SOL    HW222593   0.496   0.119   2.276 -0.2901 -1.0706 -1.7250
 3653SOL     OW22594   0.756   2.488   0.245  0.2181  0.2496  1.0150
 3653SOL    HW122595   0.737   2.555   0.178 -0.2503 -0.1105  0.7918
 3653SOL    HW222596   0.849   2.501   0.264  0.7804  0.4945 -1.7668
 3654SOL     OW22597   2.041   0.227   8.682  0.6043  0.4504  0.0333
 3654SOL    HW122598   1.988   0.154   8.650 -1.4899  0.6063  3.1652
 3654SOL    HW222599   1.988   0.259   8.755 -0.8690  0.8867 -1.2175
 3655SOL     OW22600   0.477   1.943  14.948  0.0502  0.6102 -0.6638
 3655SOL    HW122601   0.395   1.897  14.927 -0.1172  1.0348 -0.9441
 3655SOL    HW222602   0.504   1.883  15.017 -0.4658  0.8808 -0.2237
 3656SOL     OW22603   2.568   2.423   2.978  0.7316  0.4207 -0.4573
 3656SOL    HW122604   2.482   2.451   3.008  0.2126 -1.6156 -0.0334
 3656SOL    HW222605   2.552   2.328   2.981 -1.0524  0.7116 -0.5807
 3657SOL     OW22606   1.193   3.500   8.304 -0.0474 -0.3519 -0.8155
 3657SOL    HW122607   1.179   3.590   8.273 -0.5424 -0.5339 -1.1185
 3657SOL    HW222608   1.110   3.484   8.350 -0.1212  2.5551  0.0669
 3658SOL     OW22609   2.577   3.796  13.337 -0.2193  0.6563 -0.2128
 3658SOL    HW122610   2.524   3.841  13.272  0.7972  1.3430 -0.5681
 3658SOL    HW222611   2.666   3.816  13.307  0.8867 -0.9760  1.9946
 3659SOL     OW22612   1.331   3.004  10.298 -0.5159  0.1537 -0.4147
 3659SOL    HW122613   1.328   3.041  10.211  1.3513  0.5267 -0.3271
 3659SOL    HW222614   1.300   3.080  10.346  0.4721  0.7155 -0.6651
 3660SOL     OW22615   1.984   0.361   3.879  0.3020  0.4326  0.2781
 3660SOL    HW122616   1.952   0.272   3.864 -1.5589  1.5517 -2.4538
 3660SOL    HW222617   1.919   0.412   3.831 -1.0445 -2.8297 -1.3703
 3661SOL     OW22618   3.803   0.672   4.005 -0.0291  0.0995  0.2082
 3661SOL    HW122619   3.888   0.642   3.973  0.0744  1.1676 -0.5201
 3661SOL    HW222620   3.812   0.635   4.093  2.6095 -2.5565 -1.1606
 3662SOL     OW22621   1.139   0.973   4.624 -0.1997  0.0104 -0.2507
 3662SOL    HW122622   1.193   1.018   4.560  0.4122  1.0573  1.0017
 3662SOL    HW222623   1.080   0.923   4.568 -0.9695  1.5032 -0.7776
 3663SOL     OW22624   4.596   2.691   7.955 -0.2379  0.3376 -0.2125
 3663SOL    HW122625   4.558   2.678   8.042  0.3389  2.8708  0.4183
 3663SOL    HW222626   4.688   2.676   7.973 -0.3777  2.2736  2.0912
 3664SOL     OW22627   3.978   0.112   7.700  0.3910 -0.4860  0.3002
 3664SOL    HW122628   3.972   0.025   7.741  0.5443 -1.5754 -1.9993
 3664SOL    HW222629   4.074   0.114   7.697  0.4309 -1.3166  1.0335
 3665SOL     OW22630   0.903   1.125   3.523  0.5605  0.2908 -0.2699
 3665SOL    HW122631   0.979   1.078   3.556 -0.9915 -1.3725  0.9400
 3665SOL    HW222632   0.916   1.110   3.430 -0.8859 -1.8968 -0.1103
 3666SOL     OW22633   0.828   2.054  16.822 -0.0036 -0.0799 -0.2049
 3666SOL    HW122634   0.902   1.996  16.803  1.0018  1.1939 -0.2085
 3666SOL    HW222635   0.758   1.992  16.801 -1.4652  1.2750  0.6797
 3667SOL     OW22636   2.399   0.876   3.746  0.6703  0.5673 -0.2757
 3667SOL    HW122637   2.309   0.875   3.780 -0.1704  0.6972 -2.4827
 3667SOL    HW222638   2.445   0.827   3.814 -2.3108 -1.6673  0.1680
 3668SOL     OW22639   0.519   2.551   8.419  0.0064 -0.0065  0.1675
 3668SOL    HW122640   0.590   2.487   8.423 -0.2913 -0.2961  0.7682
 3668SOL    HW222641   0.509   2.566   8.513 -1.0507 -0.3847  0.1191
 3669SOL     OW22642   3.627   3.314   1.481 -0.5045  0.7012 -0.0137
 3669SOL    HW122643   3.654   3.404   1.466  2.7340 -0.2283  0.2275
 3669SOL    HW222644   3.683   3.271   1.417 -1.7585  2.7591 -2.4548
 3670SOL     OW22645   2.710   1.659   5.273 -0.2027 -0.0300  0.0620
 3670SOL    HW122646   2.694   1.639   5.365  1.7748  3.9309  1.2557
 3670SOL    HW222647   2.655   1.593   5.230 -2.1563  0.5474  1.6777
 3671SOL     OW22648   0.480   0.982   5.425  0.1056  0.1474 -1.2269
 3671SOL    HW122649   0.542   1.012   5.359  1.0950 -0.9642 -0.8105
 3671SOL    HW222650   0.428   1.062   5.435 -0.5872 -0.9748  4.5623
 3672SOL     OW22651   3.083   1.146   8.972 -0.5857  0.1063 -0.4827
 3672SOL    HW122652   3.041   1.132   8.888  2.1115 -1.9371 -1.5113
 3672SOL    HW222653   3.108   1.237   8.956 -0.3026  0.2466  0.7546
 3673SOL     OW22654   3.919   4.022   6.321 -0.5297 -0.5509 -0.8695
 3673SOL    HW122655   3.879   3.936   6.329  0.4095 -1.0522 -1.5510
 3673SOL    HW222656   4.007   4.004   6.288 -1.4091 -0.9918 -2.9880
 3674SOL     OW22657   2.916   2.702   6.642  0.6130  0.0700  0.2085
 3674SOL    HW122658   2.897   2.788   6.679 -0.4720 -0.3381  0.5997
 3674SOL    HW222659   2.891   2.644   6.714 -1.9734  0.6329 -0.2200
 3675SOL     OW22660   1.151   4.262  12.667  0.0109  0.4972  0.1969
 3675SOL    HW122661   1.164   4.206  12.590  0.0771 -0.4277  0.8816
 3675SOL    HW222662   1.074   4.225  12.711  0.1754  0.8916  0.8125
 3676SOL     OW22663   0.654   1.419   5.338  0.1522 -0.0795  0.3294
 3676SOL    HW122664   0.633   1.445   5.248  5.1603  3.0971  0.0581
 3676SOL    HW222665   0.636   1.326   5.349 -0.5236  0.0200  0.0675
 3677SOL     OW22666   1.278   0.866  10.986 -0.1178  0.3035  0.4440
 3677SOL    HW122667   1.217   0.818  10.930  0.4329  0.8578 -0.6288
 3677SOL    HW222668   1.303   0.948  10.942 -2.4027  0.1935 -1.0734
 3678SOL     OW22669   4.682   1.776   4.704  0.0852  0.1502  0.3053
 3678SOL    HW122670   4.701   1.863   4.669  1.0793 -0.3725 -0.4666
 3678SOL    HW222671   4.589   1.764   4.684  0.7063 -2.4441 -1.0483
 3679SOL     OW22672   0.441   3.306   1.218 -0.0559  0.4084  0.0862
 3679SOL    HW122673   0.491   3.387   1.205 -0.3296  0.4490 -0.6735
 3679SOL    HW222674   0.357   3.335   1.183 -0.5018 -1.5091 -0.3853
 3680SOL     OW22675   3.184   4.600  14.424  0.1375 -0.3613 -0.1857
 3680SOL    HW122676   3.112   4.660  14.443 -0.5163 -1.3773  0.5544
 3680SOL    HW222677   3.120   4.533  14.402  0.6062 -0.2589 -1.8352
 3681SOL     OW22678   4.088   2.368   7.665  0.2808 -0.0950  0.0204
 3681SOL    HW122679   4.069   2.290   7.718  0.5230  0.4062  0.8530
 3681SOL    HW222680   4.003   2.410   7.652  0.5819  1.1136  1.8236
 3682SOL     OW22681   1.746   1.050   8.595  0.2101 -0.0666  0.5571
 3682SOL    HW122682   1.750   1.028   8.688 -3.0736 -1.4316  0.3759
 3682SOL    HW222683   1.839   1.065   8.577 -0.9367  1.8304 -3.8300
 3683SOL     OW22684   2.371   2.129   1.938  0.0685 -0.7169  0.0266
 3683SOL    HW122685   2.446   2.172   1.980  0.7320 -1.0197 -0.8380
 3683SOL    HW222686   2.333   2.203   1.893  1.0635 -0.8943 -1.1044
 3684SOL     OW22687   2.948   1.770  15.948 -0.0161 -0.1615 -0.5378
 3684SOL    HW122688   2.878   1.801  16.005  1.8644 -4.3413  3.9476
 3684SOL    HW222689   3.023   1.823  15.974  0.9552 -2.2855  0.9453
 3685SOL     OW22690   1.577   0.604   4.879 -0.0938 -0.2780 -0.2806
 3685SOL    HW122691   1.598   0.678   4.822 -0.8642 -0.1080 -0.3428
 3685SOL    HW222692   1.542   0.650   4.955 -2.1502 -1.9089 -0.2511
 3686SOL     OW22693   2.173   2.911   3.649  0.3884 -0.5294 -0.2113
 3686SOL    HW122694   2.246   2.918   3.587  0.2728 -0.2110 -0.3108
 3686SOL    HW222695   2.194   2.831   3.698  1.2992  0.7286  1.4806
 3687SOL     OW22696   3.450   0.349  15.048  0.2277 -0.0375  0.3342
 3687SOL    HW122697   3.532   0.382  15.012 -0.2267 -0.4707 -1.1093
 3687SOL    HW222698   3.454   0.255  15.030 -2.8285 -0.3098  1.0694
 3688SOL     OW22699   2.033   0.513  16.494 -0.2113  0.2595  0.5172
 3688SOL    HW122700   2.038   0.562  16.576  1.8098  0.3316  0.3596
 3688SOL    HW222701   2.025   0.582  16.428 -0.4264  0.2463  0.5302
 3689SOL     OW22702   2.538   0.230   4.771 -0.1013 -0.0290  0.2408
 3689SOL    HW122703   2.550   0.289   4.696  2.5947  1.3664  1.7547
 3689SOL    HW222704   2.580   0.152   4.735 -0.1661  0.1915 -0.3128
 3690SOL     OW22705   4.630   0.827   8.742 -0.4117  0.7858 -0.2189
 3690SOL    HW122706   4.601   0.799   8.828 -0.5844  0.9757 -0.2168
 3690SOL    HW222707   4.553   0.815   8.686  0.4399 -0.8521 -1.0667
 3691SOL     OW22708   2.354   2.441  13.058  0.1522 -0.1106  0.3136
 3691SOL    HW122709   2.365   2.536  13.067 -1.0694 -0.1131  1.6424
 3691SOL    HW222710   2.386   2.434  12.968  1.7740  2.3776  0.6952
 3692SOL     OW22711   4.197   0.625   1.177  0.0720  0.2838  0.4883
 3692SOL    HW122712   4.243   0.542   1.185  0.6299  0.4686 -0.7387
 3692SOL    HW222713   4.268   0.689   1.176 -0.1652  0.5392 -0.2255
 3693SOL     OW22714   4.340   2.831   7.621  0.3389 -0.0706  0.0817
 3693SOL    HW122715   4.366   2.793   7.537  1.2081  2.7200 -0.8963
 3693SOL    HW222716   4.414   2.801   7.673 -0.0377  0.0075  0.6723
 3694SOL     OW22717   3.655   3.819   4.607 -0.7384  0.0413  0.5986
 3694SOL    HW122718   3.607   3.737   4.593  1.2709 -0.8475 -0.9982
 3694SOL    HW222719   3.659   3.805   4.702 -1.5360  0.9121  0.7687
 3695SOL     OW22720   0.193   3.102  17.196  0.2065 -0.0757 -0.0342
 3695SOL    HW122721   0.261   3.078  17.259 -1.0401  0.5494  1.5451
 3695SOL    HW222722   0.224   3.190  17.174  0.5842 -0.7156 -2.1124
 3696SOL     OW22723   4.689   0.280   4.047  0.0142 -0.2239 -0.0305
 3696SOL    HW122724   4.657   0.191   4.064 -0.5978 -0.3665 -1.9385
 3696SOL    HW222725   0.046   0.269   4.048 -0.0274 -0.5896 -0.0571
 3697SOL     OW22726   1.739   1.288   2.675  0.0463 -0.1863 -0.0104
 3697SOL    HW122727   1.677   1.310   2.744 -0.5965 -2.5911  0.1866
 3697SOL    HW222728   1.698   1.214   2.630 -1.5232  1.2047 -0.8751
 3698SOL     OW22729   0.169   4.247   5.480  0.3861  0.6557  0.1592
 3698SOL    HW122730   0.189   4.336   5.451 -0.8866  1.2448  1.1191
 3698SOL    HW222731   0.172   4.261   5.574 -0.0412 -0.5501  0.3512
 3699SOL     OW22732   2.394   3.510   9.444  0.6935  0.4550  0.4305
 3699SOL    HW122733   2.313   3.551   9.476 -0.1979 -0.0162 -1.2075
 3699SOL    HW222734   2.371   3.425   9.407 -0.0410 -0.7299  3.6208
 3700SOL     OW22735   4.511   3.754   0.377  0.0329 -0.3303  0.4697
 3700SOL    HW122736   4.514   3.671   0.424 -0.5449 -0.0537  0.9981
 3700SOL    HW222737   4.418   3.750   0.354  0.5681 -0.2888 -1.6701
 3701SOL     OW22738   3.499   2.861  16.655  0.5060  0.5022 -0.6106
 3701SOL    HW122739   3.507   2.768  16.636  1.8271  0.2616  1.0824
 3701SOL    HW222740   3.452   2.892  16.578 -2.2752  1.8970  1.6309
 3702SOL     OW22741   3.113   4.184   7.635  0.4562  0.0644  0.1072
 3702SOL    HW122742   3.200   4.223   7.630  0.8323 -0.6807  0.9044
 3702SOL    HW222743   3.123   4.151   7.724 -0.1241  0.8914  0.4855
 3703SOL     OW22744   4.155   3.226   9.431 -0.3458 -0.3978  0.3444
 3703SOL    HW122745   4.195   3.294   9.486  0.0888  1.4130 -2.2194
 3703SOL    HW222746   4.080   3.193   9.480 -1.2629  1.3792  0.1539
 3704SOL     OW22747   0.534   0.844  17.428  0.4125 -0.3679  0.2625
 3704SOL    HW122748   0.468   0.775  17.439  0.4722 -0.6285 -0.9446
 3704SOL    HW222749   0.507   0.884  17.345 -2.7447  0.6211  1.7663
 3705SOL     OW22750   0.789   3.627   4.483  0.1168  0.1293 -0.2520
 3705SOL    HW122751   0.711   3.674   4.512  0.6571  1.4445 -0.9199
 3705SOL    HW222752   0.771   3.637   4.390  0.4696  0.4323 -0.2899
 3706SOL     OW22753   3.910   4.133   0.599  1.0124 -0.3397 -0.2461
 3706SOL    HW122754   3.834   4.123   0.541  0.6372  0.5694  0.0828
 3706SOL    HW222755   3.959   4.057   0.570  0.2680 -0.2474 -1.7699
 3707SOL     OW22756   4.684   3.019   4.057  0.0620 -1.0473  0.2550
 3707SOL    HW122757   4.600   3.024   4.102 -1.3232 -3.4755 -2.1071
 3707SOL    HW222758   4.727   3.104   4.068  0.2581 -1.0523 -0.4783
 3708SOL     OW22759   3.975   4.738  12.694 -0.3794  0.2078  0.0364
 3708SOL    HW122760   3.963   4.650  12.730  2.2827  1.0103  2.9079
 3708SOL    HW222761   3.920   0.051  12.752 -0.6017 -0.0277  0.0338
 3709SOL     OW22762   4.627   3.736  10.312 -0.1758 -0.4745 -0.0642
 3709SOL    HW122763   4.641   3.778  10.227 -0.9883  0.7618  0.4218
 3709SOL    HW222764   4.713   3.756  10.350  0.9150 -0.0727 -2.6891
 3710SOL     OW22765   1.988   1.236   2.292 -0.2019 -0.5412 -0.5748
 3710SOL    HW122766   1.990   1.302   2.361 -1.1548 -1.5392  0.4018
 3710SOL    HW222767   2.069   1.268   2.253 -1.1415  0.0483 -2.0370
 3711SOL     OW22768   1.561   4.103   4.461  1.2572 -0.5406 -0.2096
 3711SOL    HW122769   1.530   4.020   4.425  0.4775 -0.2034 -0.3219
 3711SOL    HW222770   1.480   4.149   4.483  1.6000 -0.5570  1.0693
 3712SOL     OW22771   4.687   1.851   3.846 -0.4676 -0.2400  0.0272
 3712SOL    HW122772   0.036   1.846   3.808  0.2356  0.1050  1.5918
 3712SOL    HW222773   4.636   1.807   3.778 -0.3788  0.9915 -0.8391
 3713SOL     OW22774   1.389   2.618   1.874 -0.5318  0.3650  0.6411
 3713SOL    HW122775   1.430   2.554   1.817 -0.5865  0.4913  0.4608
 3713SOL    HW222776   1.405   2.580   1.960  1.7151 -0.3411 -0.1079
 3714SOL     OW22777   0.561   3.877   2.603 -0.6813 -0.6357  0.0259
 3714SOL    HW122778   0.629   3.893   2.538 -1.2063 -3.0226 -1.0922
 3714SOL    HW222779   0.498   3.856   2.535 -0.7274  2.0975 -0.7931
 3715SOL     OW22780   1.940   4.341   4.806  0.1808  0.1975 -0.2962
 3715SOL    HW122781   1.847   4.339   4.786 -0.2255 -1.0695  1.7486
 3715SOL    HW222782   1.980   4.420   4.769 -0.5011  0.4384 -0.5117
 3716SOL     OW22783   1.785   4.353  10.825 -0.1958 -0.1533 -0.0045
 3716SOL    HW122784   1.830   4.271  10.845 -0.3277 -0.1877  0.1487
 3716SOL    HW222785   1.816   4.367  10.735  1.9499 -0.8349  0.6263
 3717SOL     OW22786   3.395   1.908   4.338 -0.7097 -0.2200 -0.0872
 3717SOL    HW122787   3.384   1.830   4.391 -0.2147 -0.2148  0.0153
 3717SOL    HW222788   3.339   1.968   4.387 -1.4753  0.0835 -1.3110
 3718SOL     OW22789   2.429   2.700  11.587  0.4831 -0.2352  0.3654
 3718SOL    HW122790   2.476   2.631  11.635  1.4086  0.2934  0.2242
 3718SOL    HW222791   2.499   2.764  11.599 -0.2937  0.5603  0.6363
 3719SOL     OW22792   3.234   2.056   2.569 -0.0148  0.2983  0.1476
 3719SOL    HW122793   3.225   2.125   2.635  0.1781 -0.0527  0.5383
 3719SOL    HW222794   3.327   2.069   2.550 -0.4699  0.6549 -1.7831
 3720SOL     OW22795   4.595   4.431   5.367  0.5028 -0.3930 -0.4760
 3720SOL    HW122796   4.689   4.449   5.366  0.3585  0.2922 -1.7792
 3720SOL    HW222797   4.591   4.371   5.442  0.4469 -0.1875 -0.3122
 3721SOL     OW22798   0.337   4.657   6.068  0.5379 -0.6500  0.0428
 3721SOL    HW122799   0.267   4.630   6.128  0.1532  0.1535 -0.0491
 3721SOL    HW222800   0.407   4.595   6.091  1.4468 -0.0258 -1.0649
 3722SOL     OW22801   1.470   0.646   7.048 -0.5546  0.2625  0.3321
 3722SOL    HW122802   1.508   0.716   6.995 -0.5265  0.4224  0.5647
 3722SOL    HW222803   1.390   0.617   7.004 -0.1244 -2.4314  1.3396
 3723SOL     OW22804   4.111   1.587  10.198  0.6384 -0.0400 -0.1951
 3723SOL    HW122805   4.025   1.548  10.208  0.8125 -0.1071  0.9427
 3723SOL    HW222806   4.096   1.644  10.122 -1.0781 -0.9322 -0.5135
 3724SOL     OW22807   1.477   0.650   6.458 -0.3080 -0.1585 -0.0607
 3724SOL    HW122808   1.458   0.567   6.414  2.6913 -1.0270  0.2652
 3724SOL    HW222809   1.542   0.674   6.393 -0.6483  0.4150 -0.1910
 3725SOL     OW22810   4.477   4.617   1.355 -0.0060  0.6724  0.7451
 3725SOL    HW122811   4.495   4.690   1.413  0.4664  1.0152  0.1599
 3725SOL    HW222812   4.527   4.544   1.393  0.9802  1.6918  1.3892
 3726SOL     OW22813   2.393   2.187   3.527  0.0888 -0.1659 -0.2206
 3726SOL    HW122814   2.321   2.148   3.479  1.1137  0.8346 -2.5734
 3726SOL    HW222815   2.362   2.181   3.618  1.3212  0.5649  0.2542
 3727SOL     OW22816   1.191   2.836   1.610  0.4995 -0.1151 -0.1404
 3727SOL    HW122817   1.179   2.762   1.551  2.7863 -1.7864  1.4537
 3727SOL    HW222818   1.166   2.907   1.551 -1.6824  1.0750  2.2026
 3728SOL     OW22819   4.175   1.710   7.726 -0.4296 -0.6323 -0.0813
 3728SOL    HW122820   4.258   1.683   7.685 -0.4152  0.9004 -1.0402
 3728SOL    HW222821   4.185   1.671   7.813 -1.1235 -0.0258  0.2653
 3729SOL     OW22822   2.131   0.615   6.562 -0.1748  0.4638  0.3864
 3729SOL    HW122823   2.144   0.600   6.656  1.4487  1.7683  0.3677
 3729SOL    HW222824   2.218   0.648   6.540 -0.4465  1.7161  1.1654
 3730SOL     OW22825   1.584   0.177   6.834 -0.5742  0.2145 -0.5514
 3730SOL    HW122826   1.527   0.238   6.787  0.0577  2.6625  1.8825
 3730SOL    HW222827   1.652   0.226   6.879 -0.0025 -2.6098  1.6918
 3731SOL     OW22828   2.964   1.675   5.663  0.4725 -0.3303  0.0035
 3731SOL    HW122829   2.878   1.650   5.629  0.4164  0.1659 -0.2250
 3731SOL    HW222830   2.980   1.595   5.712  1.6662  0.3587  0.7484
 3732SOL     OW22831   1.797   3.762   5.725 -0.0199  0.1227 -0.4511
 3732SOL    HW122832   1.777   3.849   5.691 -0.1340  0.5917  0.7945
 3732SOL    HW222833   1.790   3.776   5.820  0.9866 -0.8865 -0.2296
 3733SOL     OW22834   4.374   4.712   2.221 -0.0912 -0.0469 -0.3995
 3733SOL    HW122835   4.458   4.665   2.226  0.8400  1.5140 -1.1591
 3733SOL    HW222836   4.375   0.041   2.289 -0.3581 -1.6427  1.1903
 3734SOL     OW22837   3.059   4.006  17.067 -0.6904  0.4470 -0.1808
 3734SOL    HW122838   3.002   3.962  17.004  0.8382 -1.6403 -0.0997
 3734SOL    HW222839   3.126   4.044  17.010  2.1993 -1.6971  1.8153
 3735SOL     OW22840   1.053   1.110  12.004  0.1047 -0.3229 -0.3084
 3735SOL    HW122841   1.109   1.032  12.008 -1.3258 -1.3601 -0.6616
 3735SOL    HW222842   0.972   1.077  12.041  0.9863 -1.1798  0.8768
 3736SOL     OW22843   1.680   0.433   1.113  0.1624  0.1447 -0.4188
 3736SOL    HW122844   1.628   0.381   1.175 -1.5533  1.7918 -0.4866
 3736SOL    HW222845   1.639   0.515   1.139  1.1839  0.7155 -0.6419
 3737SOL     OW22846   1.525   2.555   6.391  0.3544 -0.1507  0.2995
 3737SOL    HW122847   1.505   2.465   6.365 -3.0357  0.5206  0.5712
 3737SOL    HW222848   1.574   2.539   6.472  1.5755 -1.5004 -0.7060
 3738SOL     OW22849   3.968   0.322   8.667  0.2249  0.3819  0.3590
 3738SOL    HW122850   4.015   0.241   8.646  0.2298  0.0938  1.4359
 3738SOL    HW222851   4.034   0.390   8.658  1.0270 -0.6591 -1.5557
 3739SOL     OW22852   4.593   1.015   6.142 -0.1448  0.0597 -0.3511
 3739SOL    HW122853   4.586   1.103   6.105  0.0877  0.6045  0.9040
 3739SOL    HW222854   4.538   1.022   6.220  0.1224  0.1087 -0.1631
 3740SOL     OW22855   2.337   2.296   5.936  0.1883 -0.0551  0.3401
 3740SOL    HW122856   2.249   2.320   5.965 -0.6197 -1.5695 -0.8553
 3740SOL    HW222857   2.390   2.362   5.980  0.5256 -0.8162  1.0706
 3741SOL     OW22858   3.293   1.831   9.448  0.2247  0.2715  0.4700
 3741SOL    HW122859   3.363   1.888   9.480  2.0962 -2.3323  0.9380
 3741SOL    HW222860   3.223   1.893   9.425 -0.3684  0.0276  1.6497
 3742SOL     OW22861   3.275   0.417   9.890  0.2754  0.3792  0.0616
 3742SOL    HW122862   3.196   0.374   9.859 -0.5171  0.6856  1.6549
 3742SOL    HW222863   3.307   0.457   9.809 -1.3691 -1.6519 -1.5742
 3743SOL     OW22864   2.386   0.538   5.326  0.2489 -0.4061 -0.5566
 3743SOL    HW122865   2.422   0.604   5.267 -0.7880 -0.4999 -1.2794
 3743SOL    HW222866   2.298   0.574   5.333  0.0553 -1.0017  0.0494
 3744SOL     OW22867   2.165   4.095  15.640 -0.2431  0.5619 -0.3826
 3744SOL    HW122868   2.201   4.180  15.665  0.8467  0.1556 -0.5816
 3744SOL    HW222869   2.070   4.105  15.649 -0.2879 -2.2430  2.1390
 3745SOL     OW22870   1.056   0.155   1.607  0.0199  0.4244  0.5231
 3745SOL    HW122871   1.039   0.156   1.701 -4.1274 -0.3205 -0.2014
 3745SOL    HW222872   1.097   0.070   1.593 -0.4411 -0.0776  2.1625
 3746SOL     OW22873   1.610   3.452   1.932 -0.0353  0.2490 -0.1716
 3746SOL    HW122874   1.590   3.469   1.840 -0.3294 -2.8946 -0.6956
 3746SOL    HW222875   1.525   3.427   1.969  0.4026  1.7974  1.8351
 3747SOL     OW22876   4.510   1.349  10.253  0.3590 -0.2498  0.5082
 3747SOL    HW122877   4.577   1.287  10.224 -0.9735 -2.2967  1.8499
 3747SOL    HW222878   4.547   1.419  10.200  1.1021 -0.7244  0.3978
 3748SOL     OW22879   2.448   0.281  10.643  0.9024  0.8106  0.0171
 3748SOL    HW122880   2.532   0.291  10.599  1.5382 -1.0043  0.8341
 3748SOL    HW222881   2.400   0.352  10.598  1.0537  1.3356  0.6894
 3749SOL     OW22882   1.505   3.276   5.802  0.1009  0.3684 -1.0203
 3749SOL    HW122883   1.412   3.269   5.780  0.0076  1.2156 -0.8872
 3749SOL    HW222884   1.501   3.253   5.895 -1.7307 -0.4751 -1.2992
 3750SOL     OW22885   0.616   2.924   5.700  0.0623  0.0803 -0.1724
 3750SOL    HW122886   0.616   2.918   5.604  1.3496 -0.1388 -0.1590
 3750SOL    HW222887   0.581   3.012   5.712 -0.6566 -0.0953 -0.9751
 3751SOL     OW22888   3.107   1.152   7.928  0.5005  0.3636  0.4847
 3751SOL    HW122889   3.113   1.079   7.990 -1.5850  0.9735  1.3954
 3751SOL    HW222890   3.183   1.140   7.871  0.3322  0.3612  0.2613
 3752SOL     OW22891   1.190   1.874   1.384  0.1795  0.5945 -0.4358
 3752SOL    HW122892   1.121   1.810   1.365  0.5795 -0.1366  0.5688
 3752SOL    HW222893   1.186   1.863   1.479 -2.6887  0.9433 -0.5174
 3753SOL     OW22894   4.578   4.006   3.597  0.5722  0.2364  0.1412
 3753SOL    HW122895   4.528   3.963   3.667  2.2014 -2.8743 -0.6481
 3753SOL    HW222896   4.613   4.080   3.647  1.6843 -0.0342 -0.2449
 3754SOL     OW22897   0.386   0.003   6.816 -0.1710  0.3080 -0.0261
 3754SOL    HW122898   0.318   0.054   6.860 -0.8421 -0.6886  0.0939
 3754SOL    HW222899   0.336   4.694   6.750  1.5460  1.1896 -1.9632
 3755SOL     OW22900   0.923   3.829   3.309 -0.3956 -0.3861  0.6042
 3755SOL    HW122901   0.943   3.908   3.358  1.8391 -0.3612 -0.3711
 3755SOL    HW222902   1.003   3.817   3.258 -1.3806 -1.2864 -0.7445
 3756SOL     OW22903   1.945   3.702   8.249  0.0778 -0.4135 -0.5413
 3756SOL    HW122904   1.945   3.679   8.342  0.8502  0.7825 -0.2421
 3756SOL    HW222905   1.982   3.625   8.206 -1.3601 -0.3193 -1.9643
 3757SOL     OW22906   0.723   2.512   2.776 -0.0241 -0.6895  0.0510
 3757SOL    HW122907   0.756   2.457   2.705 -1.2183  1.9599 -2.5339
 3757SOL    HW222908   0.800   2.562   2.803 -1.7694  0.5745  2.6590
 3758SOL     OW22909   4.224   4.173  10.041 -0.2170 -0.1438  0.0808
 3758SOL    HW122910   4.154   4.217  10.090 -1.6296 -1.1207 -1.0754
 3758SOL    HW222911   4.305   4.219  10.066  0.5482 -1.8607  0.7753
 3759SOL     OW22912   3.435   3.084   7.204  0.1565  0.0237  0.2485
 3759SOL    HW122913   3.510   3.040   7.244  0.6165  0.4058 -0.1937
 3759SOL    HW222914   3.398   3.122   7.283 -0.4651  0.9196 -0.4755
 3760SOL     OW22915   2.077   2.424   8.187 -0.1692  0.3520  0.5881
 3760SOL    HW122916   2.026   2.399   8.110  0.8946  2.4342 -0.7556
 3760SOL    HW222917   2.149   2.360   8.190 -0.5655 -0.1179  0.2177
 3761SOL     OW22918   1.659   0.239   1.724 -0.0400  0.4187 -0.4612
 3761SOL    HW122919   1.584   0.256   1.667 -0.2164  0.9915 -0.0668
 3761SOL    HW222920   1.683   0.327   1.753 -0.1295  1.1413 -2.5987
 3762SOL     OW22921   3.089   1.647   3.835 -0.2703 -0.5701  0.1676
 3762SOL    HW122922   3.133   1.577   3.884 -0.0030 -0.6913 -0.2422
 3762SOL    HW222923   3.066   1.714   3.899 -1.3118 -1.1067  0.3483
 3763SOL     OW22924   2.158   0.586   1.469 -0.1106  1.3255  0.2483
 3763SOL    HW122925   2.147   0.513   1.530  2.3584 -0.6535 -1.6816
 3763SOL    HW222926   2.091   0.565   1.404 -0.8670  0.9684  1.1462
 3764SOL     OW22927   3.383   2.508   2.328 -0.6192 -0.4392 -0.2226
 3764SOL    HW122928   3.368   2.479   2.417 -0.7023  0.0189 -0.0860
 3764SOL    HW222929   3.327   2.584   2.313  0.1458 -0.4354 -3.0874
 3765SOL     OW22930   2.623   0.030   7.619 -0.1424  0.5238  0.4350
 3765SOL    HW122931   2.643   0.047   7.711  0.0567  0.0051  0.4868
 3765SOL    HW222932   2.697   4.709   7.604 -1.8674 -1.7455  0.9284
 3766SOL     OW22933   3.810   3.511   0.964  0.5131 -0.3878 -0.1604
 3766SOL    HW122934   3.815   3.421   0.997 -1.3934 -0.1545  0.7573
 3766SOL    HW222935   3.722   3.535   0.992  0.4652 -3.2725  2.1931
 3767SOL     OW22936   1.641   4.423  17.617  0.2089 -0.3061 -0.0964
 3767SOL    HW122937   1.735   4.421  17.637  0.3367 -0.8502 -0.7349
 3767SOL    HW222938   1.636   4.348  17.558 -1.0528  0.1727 -0.6015
 3768SOL     OW22939   3.074   4.675  15.199 -0.1631 -0.3759 -0.3483
 3768SOL    HW122940   3.065   4.654  15.292 -1.3857  3.3623  0.3779
 3768SOL    HW222941   3.005   0.002  15.186  0.1902  0.3921  1.6865
 3769SOL     OW22942   0.896   0.240   6.973  0.3272  0.7234  0.4666
 3769SOL    HW122943   0.832   0.221   6.904  4.0984 -0.1982 -2.7556
 3769SOL    HW222944   0.860   0.184   7.043  0.0354 -2.4057 -2.1997
 3770SOL     OW22945   3.090   1.649   7.992 -0.4262  0.3690  0.3890
 3770SOL    HW122946   3.104   1.560   8.024  2.0911 -0.3233 -2.6464
 3770SOL    HW222947   3.173   1.680   7.956 -0.6017 -0.8466 -1.0430
 3771SOL     OW22948   2.858   2.624   3.484  0.0775 -0.4089 -0.2913
 3771SOL    HW122949   2.778   2.670   3.457 -0.5079 -0.6186  1.1223
 3771SOL    HW222950   2.909   2.700   3.513 -0.9283 -0.4919  1.6881
 3772SOL     OW22951   3.563   0.632  11.852 -0.0299  0.0430 -0.1051
 3772SOL    HW122952   3.588   0.550  11.808  1.4748 -0.2322  1.2608
 3772SOL    HW222953   3.491   0.604  11.908 -0.6392  3.1179  0.6128
 3773SOL     OW22954   1.794   1.590  13.489 -0.2203 -0.6991  0.0235
 3773SOL    HW122955   1.829   1.558  13.406 -0.5689 -0.7392 -0.1088
 3773SOL    HW222956   1.777   1.503  13.525 -3.4094 -0.7583 -1.5228
 3774SOL     OW22957   0.904   4.117   2.812  0.2168 -0.1591  0.4466
 3774SOL    HW122958   0.827   4.155   2.855 -0.3349 -0.0736 -0.6123
 3774SOL    HW222959   0.897   4.022   2.819  0.0757 -0.2625 -1.0202
 3775SOL     OW22960   1.306   2.289  16.303 -0.2160 -0.4498  0.0125
 3775SOL    HW122961   1.226   2.238  16.297  0.3916 -1.6238  1.9304
 3775SOL    HW222962   1.364   2.213  16.298  0.0224 -0.3111  0.5935
 3776SOL     OW22963   4.664   4.088  14.169 -0.4095 -0.0095 -0.2892
 3776SOL    HW122964   4.652   3.995  14.188  0.5011  0.0558  0.6185
 3776SOL    HW222965   4.578   4.112  14.204  1.3499  1.4737  3.0192
 3777SOL     OW22966   2.821   4.122  17.026  0.3536  0.3512 -0.2832
 3777SOL    HW122967   2.913   4.109  17.049 -0.2073 -0.7875  1.2650
 3777SOL    HW222968   2.835   4.076  16.943 -3.5658 -2.2130  0.4831
 3778SOL     OW22969   2.971   0.569  16.315  0.8745  0.5486 -0.0770
 3778SOL    HW122970   2.981   0.510  16.390  1.1077  3.7891  2.4319
 3778SOL    HW222971   3.021   0.518  16.252  0.0704  0.1326 -0.3727
 3779SOL     OW22972   0.064   2.285   5.725  0.3570  0.4407 -0.0718
 3779SOL    HW122973   0.037   2.273   5.816  1.1934 -1.1689 -0.0474
 3779SOL    HW222974   0.023   2.363   5.687 -0.7760 -0.1804 -0.0943
 3780SOL     OW22975   3.683   3.282   0.636 -0.5799  0.0653 -0.1110
 3780SOL    HW122976   3.723   3.236   0.562  0.4249  3.3789 -1.6327
 3780SOL    HW222977   3.757   3.342   0.652  0.4340 -1.0637 -0.5394
 3781SOL     OW22978   0.908   3.857   6.333  0.1889  0.0443  0.4414
 3781SOL    HW122979   0.895   3.781   6.391 -1.6810 -0.8316 -1.1139
 3781SOL    HW222980   0.996   3.880   6.362 -0.7948  2.1634  1.6742
 3782SOL     OW22981   0.005   3.166   9.187 -0.0472  0.1775 -0.0961
 3782SOL    HW122982   4.735   3.075   9.158  1.3884  0.8591 -2.6223
 3782SOL    HW222983   0.035   3.204   9.104  1.5626 -2.2453 -0.6139
 3783SOL     OW22984   4.579   1.235   0.044 -0.4888  0.2124  0.2045
 3783SOL    HW122985   4.596   1.215  17.703  0.0380 -3.5950  1.1144
 3783SOL    HW222986   4.617   1.322   0.057  0.2487  0.2604 -2.3284
 3784SOL     OW22987   1.224   1.606  16.474  0.1269  0.4726 -0.0642
 3784SOL    HW122988   1.203   1.522  16.432  1.5999 -0.2055  0.5517
 3784SOL    HW222989   1.282   1.568  16.540 -2.1673 -0.7067  1.2853
 3785SOL     OW22990   2.550   1.078  10.533 -0.5624  0.0461 -0.0522
 3785SOL    HW122991   2.476   1.032  10.572  1.0126 -2.3125  0.1585
 3785SOL    HW222992   2.565   1.027  10.453 -0.7614 -1.5754  0.9536
 3786SOL     OW22993   0.538   0.489   5.029  0.0102  0.2908  0.7769
 3786SOL    HW122994   0.456   0.470   4.983  0.3803  2.0949 -0.6298
 3786SOL    HW222995   0.505   0.552   5.093 -1.0606 -0.2384  0.7490
 3787SOL     OW22996   3.551   0.691   3.869 -0.0994 -0.6785  0.6390
 3787SOL    HW122997   3.625   0.713   3.925  0.3180  2.3623 -1.1295
 3787SOL    HW222998   3.583   0.693   3.779 -2.1810  0.1187 -0.0895
 3788SOL     OW22999   1.722   4.178   7.730 -0.2244  0.0420 -0.6652
 3788SOL    HW123000   1.645   4.158   7.783  0.3440 -1.6134 -0.4713
 3788SOL    HW223001   1.686   4.227   7.655 -1.4708  0.4989  0.2410
 3789SOL     OW23002   2.509   3.236   5.892  0.2972 -0.2234 -0.1748
 3789SOL    HW123003   2.431   3.228   5.837  0.0849  0.5056  0.0198
 3789SOL    HW223004   2.557   3.173   5.838  0.4845 -0.1997 -0.0345
 3790SOL     OW23005   3.753   2.095  14.343  0.2342 -0.0005  0.1962
 3790SOL    HW123006   3.810   2.168  14.320 -0.3109  0.3146 -0.1528
 3790SOL    HW223007   3.817   2.024  14.351 -0.7831 -1.0007 -0.4264
 3791SOL     OW23008   1.254   0.083   9.417 -0.6482  0.3612 -0.2420
 3791SOL    HW123009   1.327   0.069   9.478 -1.6709 -1.4033  0.5838
 3791SOL    HW223010   1.305   0.131   9.351  0.0970 -0.6517 -0.4090
 3792SOL     OW23011   0.994   3.342   0.584  0.3861  0.3907  0.1895
 3792SOL    HW123012   1.042   3.294   0.651 -1.0494 -0.2742  0.7498
 3792SOL    HW223013   0.958   3.269   0.532  3.0406 -0.5057 -0.3746
 3793SOL     OW23014   3.241   2.932   3.601 -0.1761 -0.6938  0.0077
 3793SOL    HW123015   3.242   2.914   3.507  1.1936  1.2072 -0.3385
 3793SOL    HW223016   3.242   2.842   3.631 -0.9158  0.0111  2.1147
 3794SOL     OW23017   0.570   2.855   7.765  0.2844  0.0482  0.1890
 3794SOL    HW123018   0.644   2.894   7.811 -1.2107  2.0196  0.9070
 3794SOL    HW223019   0.522   2.934   7.738  3.3919  1.6362 -0.6378
 3795SOL     OW23020   1.272   3.079   9.369  0.5812 -0.1148  0.2977
 3795SOL    HW123021   1.229   3.135   9.304  1.5061 -0.9340 -1.0125
 3795SOL    HW223022   1.333   3.040   9.306 -1.6897 -3.2539  0.0394
 3796SOL     OW23023   1.988   4.591   9.943 -0.2618 -0.2043 -0.5979
 3796SOL    HW123024   2.070   4.544   9.935 -1.0815 -1.1424 -3.4380
 3796SOL    HW223025   1.971   4.583  10.037  1.8702 -1.6051 -0.3512
 3797SOL     OW23026   3.591   3.368  13.277  0.1665 -0.0585  0.0993
 3797SOL    HW123027   3.532   3.353  13.350  0.5569 -2.2626 -0.0451
 3797SOL    HW223028   3.527   3.374  13.206  1.3161  1.6962 -0.8117
 3798SOL     OW23029   2.818   4.709   2.054  0.2047  0.6023  0.3279
 3798SOL    HW123030   2.724   4.694   2.041  0.9187 -3.5290 -0.1846
 3798SOL    HW223031   2.826   4.675   2.143 -0.0909  0.1537  0.1822
 3799SOL     OW23032   0.940   4.328   0.355 -0.4074  0.0077  0.1567
 3799SOL    HW123033   1.000   4.253   0.356  0.0461  0.3607 -0.3132
 3799SOL    HW223034   0.998   4.404   0.348 -1.2930  0.6766  0.1187
 3800SOL     OW23035   3.171   0.369   3.558  0.2582  0.3700 -0.5406
 3800SOL    HW123036   3.181   0.412   3.643 -2.2425 -0.4760  0.1756
 3800SOL    HW223037   3.233   0.421   3.507  1.9088  1.5169  2.6014
 3801SOL     OW23038   2.689   1.043   8.747  0.1107  0.2705  0.3727
 3801SOL    HW123039   2.672   1.069   8.656  0.4327  1.9304  0.7935
 3801SOL    HW223040   2.638   0.962   8.752 -0.6944  0.6537 -1.5964
 3802SOL     OW23041   2.675   0.932   7.214  0.0397  0.1290  0.0405
 3802SOL    HW123042   2.688   0.876   7.138 -0.2040 -0.1381  0.1955
 3802SOL    HW223043   2.580   0.945   7.216 -0.1551 -1.3101 -0.4694
 3803SOL     OW23044   3.642   1.283  10.008 -0.5610  0.0126  0.0852
 3803SOL    HW123045   3.735   1.263  10.018 -0.3907 -0.5236 -2.3932
 3803SOL    HW223046   3.638   1.378  10.015  2.6080  0.1518  0.0744
 3804SOL     OW23047   3.632   1.378   6.743  0.0637 -0.4625 -0.7411
 3804SOL    HW123048   3.539   1.355   6.746 -0.1009  0.2028 -0.7035
 3804SOL    HW223049   3.632   1.446   6.811 -2.7163  0.6003 -1.7820
 3805SOL     OW23050   0.055   1.385   8.190  0.0840  0.0136 -0.0058
 3805SOL    HW123051   0.123   1.318   8.191 -0.2510 -0.3216  0.4146
 3805SOL    HW223052   0.063   1.388   8.285  2.1237  1.4664 -0.2353
 3806SOL     OW23053   2.815   0.396   8.319  0.3336 -0.0365  0.7517
 3806SOL    HW123054   2.907   0.416   8.335  0.8932 -1.0495 -1.2143
 3806SOL    HW223055   2.793   0.363   8.406  1.4700 -2.1781  0.2208
 3807SOL     OW23056   0.806   1.603   3.485  0.2886  0.8999  0.3964
 3807SOL    HW123057   0.876   1.567   3.540 -0.4602 -1.9103 -0.5051
 3807SOL    HW223058   0.757   1.648   3.554  2.2603  3.0034  0.4239
 3808SOL     OW23059   3.188   2.365   9.248 -0.1199  0.1605 -0.4437
 3808SOL    HW123060   3.233   2.439   9.208  0.8693 -0.8125 -1.1502
 3808SOL    HW223061   3.113   2.408   9.288  2.2604  1.6753  2.3764
 3809SOL     OW23062   3.909   3.952   7.410 -0.0689  0.0853 -0.1029
 3809SOL    HW123063   3.998   3.981   7.389 -0.5811  2.6307  1.1359
 3809SOL    HW223064   3.918   3.859   7.427  0.8646  0.4792  1.5258
 3810SOL     OW23065   2.765   2.176   8.829 -0.0632 -0.1895 -0.7304
 3810SOL    HW123066   2.853   2.199   8.861 -0.7880 -0.5628  1.4894
 3810SOL    HW223067   2.720   2.260   8.820  1.5279  0.8906  1.4529
 3811SOL     OW23068   3.637   2.245   7.759 -0.2419  0.0719 -0.2184
 3811SOL    HW123069   3.598   2.183   7.821 -0.8074  0.1308 -0.5073
 3811SOL    HW223070   3.723   2.254   7.799  0.4995 -0.0375 -1.8105
 3812SOL     OW23071   3.559   3.553   5.765 -0.1966 -0.1173  0.1049
 3812SOL    HW123072   3.514   3.472   5.745 -0.1889  0.0378 -0.5348
 3812SOL    HW223073   3.499   3.597   5.704 -0.5374 -1.6308 -0.6383
 3813SOL     OW23074   1.226   0.176  16.792  0.3338 -0.3164  0.4689
 3813SOL    HW123075   1.266   0.250  16.745 -0.3648 -1.3141 -1.6476
 3813SOL    HW223076   1.145   0.195  16.745 -0.6270  0.6451  2.4935
 3814SOL     OW23077   0.892   0.728   3.548  0.0527  0.4292  0.5377
 3814SOL    HW123078   0.840   0.651   3.572  0.9463 -0.2380  0.2943
 3814SOL    HW223079   0.950   0.676   3.492 -3.2601 -2.4358 -0.2674
 3815SOL     OW23080   3.657   3.812   0.394 -0.0831  0.4258 -0.2481
 3815SOL    HW123081   3.726   3.778   0.450 -1.9393 -2.1664  0.4824
 3815SOL    HW223082   3.626   3.728   0.359  1.3021  0.0792 -0.6364
 3816SOL     OW23083   0.978   2.425   9.025 -0.3244 -0.0021 -0.2685
 3816SOL    HW123084   0.949   2.342   8.986 -0.3340 -0.2344  0.2319
 3816SOL    HW223085   0.911   2.426   9.094  1.5606 -0.9836  1.5644
 3817SOL     OW23086   4.637   4.711  17.588  0.0332  0.2206 -0.4854
 3817SOL    HW123087   4.613   4.673  17.672  0.3915 -0.7175 -0.8176
 3817SOL    HW223088   4.566   4.697  17.525 -0.2583 -1.8592  0.3275
 3818SOL     OW23089   3.429   3.143   5.305 -0.0745 -0.1747 -0.0721
 3818SOL    HW123090   3.417   3.110   5.216  1.2411  3.0112 -1.4228
 3818SOL    HW223091   3.339   3.149   5.336 -0.0092  0.7663 -0.0556
 3819SOL     OW23092   1.598   2.537   0.053 -0.7685 -0.6830  0.3864
 3819SOL    HW123093   1.683   2.574   0.080 -1.4577  2.0144 -1.1629
 3819SOL    HW223094   1.550   2.612   0.018  0.2309 -1.4888 -2.7025
 3820SOL     OW23095   0.849   1.004  12.126 -0.3275  0.4002  0.2685
 3820SOL    HW123096   0.880   0.918  12.095 -1.8177 -0.8222  2.1283
 3820SOL    HW223097   0.811   0.973  12.209 -0.9206  0.9191  0.1931
 3821SOL     OW23098   1.648   3.754   0.313  0.6217  0.3333 -0.2403
 3821SOL    HW123099   1.711   3.687   0.339  0.7726  1.0834  1.3278
 3821SOL    HW223100   1.566   3.704   0.313  1.0376 -0.3557  1.9760
 3822SOL     OW23101   3.879   0.214  12.839  0.2297  0.7220 -0.1768
 3822SOL    HW123102   3.957   0.227  12.893 -0.6779  1.9343  0.8126
 3822SOL    HW223103   3.901   0.279  12.772  0.4082  1.1719  0.3215
 3823SOL     OW23104   2.180   3.337   6.494 -0.2526  0.3789 -0.0955
 3823SOL    HW123105   2.169   3.414   6.439 -3.3405 -0.9073 -1.2787
 3823SOL    HW223106   2.178   3.262   6.435  1.8522 -1.4579  2.1348
 3824SOL     OW23107   3.445   2.251   8.953  0.3189  0.0966 -0.0897
 3824SOL    HW123108   3.506   2.201   8.900 -0.6957 -1.4901  0.2213
 3824SOL    HW223109   3.491   2.278   9.032  0.1955 -1.5608  0.5542
 3825SOL     OW23110   2.973   0.951   0.591  0.0076 -0.2729  0.5591
 3825SOL    HW123111   2.965   0.864   0.553 -0.2955  0.2849 -0.6740
 3825SOL    HW223112   2.999   0.931   0.681  0.4628  1.3381  0.7910
 3826SOL     OW23113   3.993   1.640   4.840  0.0767 -0.4046 -0.3208
 3826SOL    HW123114   4.056   1.602   4.780 -1.0237 -0.5231 -1.3957
 3826SOL    HW223115   3.983   1.570   4.905 -0.9504  3.1191  3.3112
 3827SOL     OW23116   1.966   1.567   5.188 -0.0501 -0.0490  0.0387
 3827SOL    HW123117   1.911   1.579   5.265  1.8894 -1.5772  1.6359
 3827SOL    HW223118   1.906   1.582   5.115  0.3920  0.7823 -0.1503
 3828SOL     OW23119   0.338   4.006   5.182  0.1165  0.0536  0.0257
 3828SOL    HW123120   0.327   3.911   5.173  2.2203 -0.1191 -0.6328
 3828SOL    HW223121   0.259   4.028   5.232 -0.7379 -1.7859 -0.4875
 3829SOL     OW23122   2.210   2.098  15.465 -0.2547  0.0763 -0.4000
 3829SOL    HW123123   2.149   2.025  15.476 -1.6468  1.4978  1.3199
 3829SOL    HW223124   2.226   2.123  15.556  0.0740  1.4635 -0.8330
 3830SOL     OW23125   3.031   3.574   4.574 -0.0651  0.0315  0.4119
 3830SOL    HW123126   3.028   3.505   4.641 -0.7880 -0.7041 -0.3888
 3830SOL    HW223127   2.968   3.543   4.510  0.4216  2.8107 -1.4156
 3831SOL     OW23128   3.590   1.305  17.573 -0.4141 -1.2524 -0.0830
 3831SOL    HW123129   3.571   1.380  17.517  0.4346 -1.0404 -0.0900
 3831SOL    HW223130   3.587   1.361  17.651  0.6357  0.6960 -1.4324
 3832SOL     OW23131   2.137   4.537  12.033  0.2445 -0.0797 -0.0165
 3832SOL    HW123132   2.134   4.520  12.127  1.3852 -0.4971 -0.0527
 3832SOL    HW223133   2.074   4.475  11.997 -0.5487 -0.1862  1.5374
 3833SOL     OW23134   3.970   4.058   3.811 -0.3904  0.2248 -0.0172
 3833SOL    HW123135   3.927   4.032   3.893  1.1982 -1.3976  0.2810
 3833SOL    HW223136   3.917   4.136   3.794 -1.1337 -0.6462 -1.6372
 3834SOL     OW23137   4.724   2.397  14.718  0.6151 -0.6416 -0.1947
 3834SOL    HW123138   4.727   2.491  14.732  0.4369 -0.7938  0.8724
 3834SOL    HW223139   0.077   2.389  14.691  0.7940 -0.7033  0.4227
 3835SOL     OW23140   4.272   2.959   3.197  0.0373  0.0649 -0.9521
 3835SOL    HW123141   4.327   2.883   3.177  0.7817  0.3369  0.0559
 3835SOL    HW223142   4.329   3.034   3.184 -0.0191  0.2551 -0.0743
 3836SOL     OW23143   4.467   2.507   4.585 -0.2108 -0.2519 -0.2644
 3836SOL    HW123144   4.398   2.442   4.594 -0.2179 -0.3381 -0.9221
 3836SOL    HW223145   4.462   2.518   4.490  0.7845  2.2869 -0.0201
 3837SOL     OW23146   3.085   3.218  10.457 -0.0716 -0.6680 -0.5335
 3837SOL    HW123147   3.113   3.140  10.506  1.8394  0.9281  0.9179
 3837SOL    HW223148   3.129   3.203  10.373  2.5524 -1.1660  0.9038
 3838SOL     OW23149   3.326   3.909   7.333 -0.6332  0.0644  0.1136
 3838SOL    HW123150   3.367   3.824   7.320 -2.6745 -0.9394  0.1691
 3838SOL    HW223151   3.284   3.918   7.248  1.6297 -0.6932 -1.0722
 3839SOL     OW23152   3.191   2.995   0.609 -0.3151  0.0911  0.2147
 3839SOL    HW123153   3.174   2.999   0.515 -1.9617 -1.1483  0.4762
 3839SOL    HW223154   3.280   3.030   0.601 -0.7642  0.9210 -1.2004
 3840SOL     OW23155   0.953   2.290   5.291  0.1061  0.4275 -0.0236
 3840SOL    HW123156   0.866   2.269   5.258 -0.5471  3.7570 -0.3290
 3840SOL    HW223157   0.999   2.206   5.287 -3.7154 -1.7481  2.0019
 3841SOL     OW23158   0.113   3.996  16.364  0.4681 -0.3620 -0.8988
 3841SOL    HW123159   0.076   4.066  16.418  0.0606  0.3165 -2.0773
 3841SOL    HW223160   0.088   3.917  16.413 -1.3998  0.3086 -0.7579
 3842SOL     OW23161   3.257   4.042  15.752  0.1529  0.1594  0.0122
 3842SOL    HW123162   3.177   4.069  15.797  0.2187  1.0461 -0.4058
 3842SOL    HW223163   3.308   4.011  15.827  0.0531  2.9440  1.2375
 3843SOL     OW23164   2.564   0.289   7.545 -0.5376 -0.2496  0.2479
 3843SOL    HW123165   2.524   0.308   7.630  2.8718  0.1051  1.7992
 3843SOL    HW223166   2.593   0.198   7.551  2.7195  0.7432 -0.0441
 3844SOL     OW23167   3.512   1.127  12.232  0.0263  0.1969 -0.5026
 3844SOL    HW123168   3.460   1.108  12.154 -0.1529 -1.2157 -0.0378
 3844SOL    HW223169   3.480   1.057  12.289  1.3059 -1.0985 -1.3419
 3845SOL     OW23170   1.474   0.331   3.799 -0.0876 -0.1994 -0.3560
 3845SOL    HW123171   1.390   0.293   3.776 -1.1135  0.4940  2.2991
 3845SOL    HW223172   1.536   0.287   3.740  0.5452 -0.0353  0.1893
 3846SOL     OW23173   0.423   3.088   7.672 -0.3590  0.6043 -0.4676
 3846SOL    HW123174   0.441   3.140   7.593  0.5148  1.9619  0.6325
 3846SOL    HW223175   0.328   3.088   7.674 -0.2755  0.3045  2.4575
 3847SOL     OW23176   3.065   2.655   8.139 -0.6466  0.1703 -0.0379
 3847SOL    HW123177   3.097   2.575   8.180 -2.1045 -1.4624 -2.1169
 3847SOL    HW223178   3.023   2.622   8.059 -1.0903 -0.2061  0.3587
 3848SOL     OW23179   1.425   3.990  11.541  0.0854  0.1596 -0.2076
 3848SOL    HW123180   1.452   4.034  11.460 -1.4746  0.9550 -0.2953
 3848SOL    HW223181   1.356   4.054  11.557 -0.4583 -0.1291 -1.3884
 3849SOL     OW23182   4.346   2.694  13.530 -0.0045  0.1381  0.0571
 3849SOL    HW123183   4.402   2.674  13.605 -0.5739  0.6528  0.6230
 3849SOL    HW223184   4.284   2.753  13.572  2.4111  2.1658  0.7869
 3850SOL     OW23185   0.201   3.494   1.961 -0.6051 -0.0206 -0.2029
 3850SOL    HW123186   0.288   3.502   1.920 -1.4837 -1.3409 -2.3102
 3850SOL    HW223187   0.151   3.487   1.880  0.7803  0.9969 -1.1741
 3851SOL     OW23188   3.176   2.412   8.182 -0.9870  0.5239  0.0683
 3851SOL    HW123189   3.261   2.396   8.140 -2.4879 -1.2161 -2.3343
 3851SOL    HW223190   3.185   2.348   8.252  1.0340 -1.9254 -2.4295
 3852SOL     OW23191   2.914   3.436  16.153  0.5683 -0.4408 -0.4276
 3852SOL    HW123192   2.981   3.408  16.091 -0.7426 -0.6289 -1.7741
 3852SOL    HW223193   2.921   3.530  16.139  1.3841 -0.3351  0.6361
 3853SOL     OW23194   3.182   1.979  10.610 -0.5905 -0.3110  0.7383
 3853SOL    HW123195   3.189   2.065  10.652 -2.3156 -0.3096  1.0220
 3853SOL    HW223196   3.213   1.916  10.675 -1.1462 -1.5467 -0.2021
 3854SOL     OW23197   2.278   4.247  13.600  0.1439  0.6973 -0.0210
 3854SOL    HW123198   2.346   4.314  13.592  0.3982  0.4764  0.2865
 3854SOL    HW223199   2.249   4.251  13.691  1.2523 -1.8877  0.4566
 3855SOL     OW23200   4.694   4.305   7.540  0.1863  0.2235  0.1862
 3855SOL    HW123201   4.691   4.211   7.519  1.0673  0.5051 -1.2520
 3855SOL    HW223202   0.020   4.304   7.611 -1.0429  0.2445  1.2972
 3856SOL     OW23203   0.303   1.548   5.431 -0.1458  0.4203  0.4196
 3856SOL    HW123204   0.344   1.465   5.406  1.2525  0.4810  2.4854
 3856SOL    HW223205   0.211   1.525   5.448 -0.5766  1.5711 -0.4365
 3857SOL     OW23206   1.847   0.091   8.924  0.7197  0.3205 -0.0513
 3857SOL    HW123207   1.848   0.038   9.004  2.7349  2.1639  1.1568
 3857SOL    HW223208   1.764   0.137   8.933 -0.2607 -1.6322  0.8100
 3858SOL     OW23209   2.502   2.337   2.138 -0.2012  0.4066  0.4607
 3858SOL    HW123210   2.491   2.431   2.122 -2.7356  0.1535  0.7415
 3858SOL    HW223211   2.461   2.335   2.224 -1.9779  1.3581 -0.3720
 3859SOL     OW23212   0.220   1.160  15.434  0.6349  0.2853 -0.8204
 3859SOL    HW123213   0.133   1.136  15.404  0.9564 -0.0954 -1.4644
 3859SOL    HW223214   0.222   1.255  15.422  1.2800  0.3580 -0.1581
 3860SOL     OW23215   1.520   4.195   1.639 -0.1420 -0.2831  0.0996
 3860SOL    HW123216   1.458   4.137   1.595  0.8619 -0.5421 -0.9986
 3860SOL    HW223217   1.472   4.205   1.721 -1.1025 -0.8043 -0.3916
 3861SOL     OW23218   1.465   2.604   8.486 -0.1331 -0.3975 -0.1231
 3861SOL    HW123219   1.447   2.689   8.445 -1.1810 -0.6957 -0.2696
 3861SOL    HW223220   1.398   2.614   8.553  1.8212 -2.1029  2.0943
 3862SOL     OW23221   3.524   4.491  17.420 -0.2904  0.1889 -0.0226
 3862SOL    HW123222   3.489   4.545  17.349 -0.1947  1.5909  0.9927
 3862SOL    HW223223   3.447   4.486  17.478  0.3067  1.0578  0.8507
 3863SOL     OW23224   4.144   2.997   1.311 -0.2527 -0.6831 -0.4927
 3863SOL    HW123225   4.214   3.034   1.364 -0.6022  0.5980 -0.9419
 3863SOL    HW223226   4.151   3.057   1.237  0.3202 -1.0279 -0.7194
 3864SOL     OW23227   4.707   2.933   3.771  0.4194  0.1551  0.3708
 3864SOL    HW123228   4.702   2.988   3.849 -0.2715  1.8378 -0.8731
 3864SOL    HW223229   0.033   2.983   3.720  0.4484  0.1806  0.4314
 3865SOL     OW23230   0.144   0.925   2.763 -0.3288 -0.1211  0.0470
 3865SOL    HW123231   0.160   0.854   2.825  2.0134  0.7789  0.4788
 3865SOL    HW223232   0.155   0.880   2.679 -0.0930 -0.9717  0.5370
 3866SOL     OW23233   2.731   3.052   2.035 -0.4182 -0.3963  0.2605
 3866SOL    HW123234   2.789   2.982   2.065 -0.0527 -0.9179 -1.6948
 3866SOL    HW223235   2.725   3.054   1.940 -1.1192  0.2349  0.3102
 3867SOL     OW23236   3.787   0.142   2.610  0.6216  0.3237  0.3274
 3867SOL    HW123237   3.836   0.061   2.625  1.2652  0.3385 -1.7444
 3867SOL    HW223238   3.836   0.208   2.659 -0.7147 -0.0152  2.1464
 3868SOL     OW23239   4.127   1.017   5.236 -0.2742  0.0895 -0.0417
 3868SOL    HW123240   4.180   1.016   5.155  0.8961  1.0589  0.7003
 3868SOL    HW223241   4.072   0.939   5.234 -0.8515  0.4519  1.6619
 3869SOL     OW23242   3.411   3.203   3.229  0.1546  0.2799  0.0094
 3869SOL    HW123243   3.317   3.188   3.215 -0.2296  2.3282  0.4142
 3869SOL    HW223244   3.443   3.124   3.186 -2.4978 -0.8820  0.1701
 3870SOL     OW23245   0.591   4.659   5.039  0.2127 -0.4546 -0.6185
 3870SOL    HW123246   0.552   0.006   5.056  0.4602 -0.4043 -0.2802
 3870SOL    HW223247   0.674   4.672   4.993  0.1893  1.1290 -0.2073
 3871SOL     OW23248   4.641   4.231   2.744 -0.8730  0.9637 -0.5508
 3871SOL    HW123249   4.564   4.179   2.767  0.3294 -0.3348  0.4915
 3871SOL    HW223250   4.634   4.306   2.804 -1.4572  1.4042 -1.1725
 3872SOL     OW23251   0.748   1.750  13.652  0.2184  0.5454 -0.1878
 3872SOL    HW123252   0.656   1.766  13.630  0.3861  3.6760  1.3164
 3872SOL    HW223253   0.753   1.655  13.652  3.1202  0.7102  1.8022
 3873SOL     OW23254   1.402   0.975   2.714  0.8302  0.3180  0.3845
 3873SOL    HW123255   1.360   0.928   2.642  0.0168 -0.3082  1.2733
 3873SOL    HW223256   1.332   1.017   2.764  0.4858 -0.9320  0.9378
 3874SOL     OW23257   1.126   3.577   1.783 -0.1988 -0.3514 -0.0267
 3874SOL    HW123258   1.033   3.593   1.794 -0.3051 -1.1630  0.2357
 3874SOL    HW223259   1.143   3.533   1.866  0.1017 -1.6834 -0.7984
 3875SOL     OW23260   2.400   4.396   9.149  0.1853  0.3511  0.2538
 3875SOL    HW123261   2.364   4.458   9.085  0.5125  1.5791  1.2494
 3875SOL    HW223262   2.340   4.322   9.154  1.2135 -0.5297 -0.2761
 3876SOL     OW23263   0.701   2.450  17.198 -0.1396 -0.2314  0.2493
 3876SOL    HW123264   0.609   2.475  17.188  0.0259  0.2255 -0.1855
 3876SOL    HW223265   0.720   2.527  17.251 -1.3695  2.1709 -2.7438
 3877SOL     OW23266   2.600   4.736   0.417  0.3230  0.0977  0.1229
 3877SOL    HW123267   2.533   0.058   0.449  0.8417 -0.3066  1.9542
 3877SOL    HW223268   2.602   4.659   0.474 -0.9699 -0.2926 -0.3440
 3878SOL     OW23269   3.526   3.076   3.961 -0.1287 -0.5768 -0.3564
 3878SOL    HW123270   3.508   3.062   3.868  0.3018  3.4035 -1.0235
 3878SOL    HW223271   3.444   3.121   3.979 -0.5468 -0.9520 -1.2887
 3879SOL     OW23272   1.905   3.421  12.402  0.1876  0.5381  0.1952
 3879SOL    HW123273   1.885   3.339  12.357 -0.8609 -1.4987  4.3892
 3879SOL    HW223274   1.998   3.412  12.423  0.4765 -2.4008 -2.3516
 3880SOL     OW23275   1.578   2.135  17.677 -0.2154 -0.0348  0.2393
 3880SOL    HW123276   1.647   2.202  17.676 -0.7310  0.4589 -1.0259
 3880SOL    HW223277   1.566   2.129  17.583  0.4682  0.2013  0.1340
 3881SOL     OW23278   4.086   4.155  16.911  0.2478 -0.2651 -0.1846
 3881SOL    HW123279   4.146   4.082  16.923 -0.0646 -0.8860 -2.3571
 3881SOL    HW223280   4.017   4.117  16.856  0.0742  1.4121 -1.1258
 3882SOL     OW23281   3.099   4.656  16.733  0.3736  0.0106 -0.3388
 3882SOL    HW123282   3.032   4.588  16.743 -0.6768  0.8772 -1.5568
 3882SOL    HW223283   3.093   4.701  16.817 -2.3104  0.1712 -0.6006
 3883SOL     OW23284   0.981   4.412   5.485  0.1805  0.6300 -0.6636
 3883SOL    HW123285   1.011   4.486   5.432 -0.6947  0.5299 -1.3080
 3883SOL    HW223286   1.063   4.418   5.533 -0.3844 -1.5938  0.5417
 3884SOL     OW23287   2.428   1.313   0.184  0.4416 -0.2640 -0.1061
 3884SOL    HW123288   2.415   1.306   0.089  0.9721  1.8971 -0.3493
 3884SOL    HW223289   2.417   1.408   0.195  1.2041  0.0256 -1.8552
 3885SOL     OW23290   3.455   1.727   2.414  0.7235 -0.0806  0.3957
 3885SOL    HW123291   3.454   1.647   2.466  0.4788 -0.3144  0.0346
 3885SOL    HW223292   3.366   1.764   2.411  0.1881 -1.2216  2.3511
 3886SOL     OW23293   0.743   2.950   8.489  0.2380 -0.5175 -0.0949
 3886SOL    HW123294   0.711   2.935   8.400 -1.9159  1.3156  0.3599
 3886SOL    HW223295   0.763   2.859   8.511 -0.4827 -0.9079 -1.0206
 3887SOL     OW23296   2.338   3.811   1.075  0.3496  0.6314  0.7873
 3887SOL    HW123297   2.274   3.812   1.004  0.9894  1.6174  0.2313
 3887SOL    HW223298   2.418   3.839   1.030 -0.0314  3.5525  1.9417
 3888SOL     OW23299   4.671   0.625   2.602 -0.3903  0.3654 -0.0339
 3888SOL    HW123300   4.619   0.701   2.580 -0.4143  0.6367  0.9568
 3888SOL    HW223301   4.654   0.566   2.528 -3.0645 -1.0688  1.7207
 3889SOL     OW23302   3.302   2.689   5.988  0.0728 -0.4127 -0.1044
 3889SOL    HW123303   3.316   2.715   6.079 -1.7450  0.1314  0.0157
 3889SOL    HW223304   3.390   2.674   5.954 -0.5533  0.4156 -2.1214
 3890SOL     OW23305   3.095   2.353   4.360  0.1619 -0.3618  0.2012
 3890SOL    HW123306   3.043   2.359   4.280  0.5859  1.0203  0.0273
 3890SOL    HW223307   3.107   2.443   4.391  2.7436 -1.5963  2.6875
 3891SOL     OW23308   0.949   2.337  16.273 -0.3543  0.7595 -0.1341
 3891SOL    HW123309   0.927   2.290  16.353  1.7260 -0.6127 -0.3701
 3891SOL    HW223310   0.893   2.414  16.272  0.6764  1.5275  2.1994
 3892SOL     OW23311   3.339   3.495   8.575  0.0601 -0.4544 -0.3729
 3892SOL    HW123312   3.301   3.546   8.646  1.8763 -2.1736  1.8473
 3892SOL    HW223313   3.298   3.411   8.594  0.1631 -0.4390 -0.0795
 3893SOL     OW23314   0.990   2.471   7.241 -0.7709  0.0015  0.1491
 3893SOL    HW123315   0.912   2.450   7.294 -1.0879  0.1035 -0.2799
 3893SOL    HW223316   0.970   2.562   7.220 -0.2383  0.7993  3.0298
 3894SOL     OW23317   0.802   0.826   1.600 -0.7862 -0.2433 -0.3575
 3894SOL    HW123318   0.773   0.858   1.515  1.4651  2.3991 -0.1367
 3894SOL    HW223319   0.886   0.872   1.606 -0.5911 -0.5153 -0.9895
 3895SOL     OW23320   4.377   4.151   1.041  0.6960 -0.2442  0.0649
 3895SOL    HW123321   4.345   4.079   1.095  0.1951  0.3004  0.5048
 3895SOL    HW223322   4.325   4.140   0.961  0.3002  0.7583  0.1800
 3896SOL     OW23323   3.292   0.002   5.724  0.7765 -0.0495  0.3067
 3896SOL    HW123324   3.255   0.000   5.636 -1.6506 -1.9973  1.3540
 3896SOL    HW223325   3.315   0.094   5.740 -1.4203  0.2572  1.8375
 3897SOL     OW23326   2.593   1.363  13.052  0.4625 -0.2067  0.2373
 3897SOL    HW123327   2.685   1.338  13.039  0.2845 -0.8052  0.1498
 3897SOL    HW223328   2.603   1.384  13.145 -0.0465 -0.9149  0.4452
 3898SOL     OW23329   0.950   1.330   4.244 -0.3913 -0.1695  0.5699
 3898SOL    HW123330   0.944   1.235   4.238 -1.0780 -0.1477  0.8045
 3898SOL    HW223331   0.912   1.360   4.161  0.0611 -2.6055 -0.5098
 3899SOL     OW23332   1.597   3.931  10.204  0.6964 -0.1781  0.1899
 3899SOL    HW123333   1.626   3.839  10.205  0.4512 -0.2534  0.4016
 3899SOL    HW223334   1.553   3.929  10.290 -1.6962  0.8205 -1.0059
 3900SOL     OW23335   3.278   0.041  11.851 -0.0439  0.0922 -0.2955
 3900SOL    HW123336   3.218   0.075  11.785  0.1281  0.8494 -0.0671
 3900SOL    HW223337   3.249   4.688  11.854  1.4948 -0.4081 -0.5067
 3901SOL     OW23338   1.657   1.643   0.559  0.1328  0.5537  0.3684
 3901SOL    HW123339   1.708   1.721   0.536  1.2050 -0.4704 -0.6960
 3901SOL    HW223340   1.573   1.680   0.587  0.1340  0.9565 -0.1692
 3902SOL     OW23341   3.655   2.156   1.858 -0.1575  0.2525  0.2379
 3902SOL    HW123342   3.582   2.131   1.802  0.3319 -4.2876  1.6018
 3902SOL    HW223343   3.655   2.090   1.927  2.9303 -1.0433 -0.9726
 3903SOL     OW23344   1.031   2.513   0.273 -0.0973  0.0514 -0.0058
 3903SOL    HW123345   1.096   2.580   0.293  2.8969 -2.4342 -1.3609
 3903SOL    HW223346   1.089   2.440   0.251 -0.1789 -0.3615  1.1748
 3904SOL     OW23347   1.995   0.506   8.910  0.6843  0.1812  0.7308
 3904SOL    HW123348   1.950   0.471   8.987  1.2273 -4.6788 -1.1637
 3904SOL    HW223349   1.920   0.533   8.857  0.8919 -0.3930  0.1424
 3905SOL     OW23350   3.578   3.273   2.496  0.6783 -0.7967  0.1280
 3905SOL    HW123351   3.614   3.282   2.408  1.4329 -1.4119  0.3776
 3905SOL    HW223352   3.650   3.302   2.552  1.4019  1.5713 -2.0148
 3906SOL     OW23353   3.458   1.802   8.485  0.4400  0.0787  0.0433
 3906SOL    HW123354   3.468   1.856   8.406  2.3324  0.6572  0.6709
 3906SOL    HW223355   3.501   1.726   8.447  1.3929  0.9091 -0.5470
 3907SOL     OW23356   1.788   0.514   3.773 -0.2930 -0.2098 -0.1596
 3907SOL    HW123357   1.767   0.601   3.739 -0.0511  0.2240  0.7951
 3907SOL    HW223358   1.724   0.454   3.735 -0.4678  1.6743 -2.8205
 3908SOL     OW23359   1.396   1.549   8.066 -0.1127 -0.2128 -0.5407
 3908SOL    HW123360   1.308   1.529   8.032 -0.4915  0.6024 -0.0282
 3908SOL    HW223361   1.369   1.575   8.154 -2.0972 -1.7995 -0.6686
 3909SOL     OW23362   0.063   0.969   2.189 -0.6055 -0.0905 -0.0066
 3909SOL    HW123363   4.715   1.005   2.209 -0.0544  1.5503 -0.5874
 3909SOL    HW223364   0.047   0.942   2.099 -1.2242  2.0151 -0.5084
 3910SOL     OW23365   1.540   0.738   5.849  0.2431  0.4029 -0.3357
 3910SOL    HW123366   1.469   0.715   5.789 -2.8036  1.7531  2.8256
 3910SOL    HW223367   1.490   0.799   5.901  1.6906 -0.0289  1.5638
 3911SOL     OW23368   0.660   3.954  11.939 -0.0847 -0.0331 -0.0505
 3911SOL    HW123369   0.591   3.892  11.914 -1.2558  0.6694  1.4211
 3911SOL    HW223370   0.610   4.025  11.979 -1.1935  0.0955 -1.6631
 3912SOL     OW23371   3.799   3.355   7.616  0.0985  0.2261  0.4050
 3912SOL    HW123372   3.728   3.420   7.618 -1.4648 -1.4984  0.8789
 3912SOL    HW223373   3.777   3.305   7.695  2.2705  0.3523  1.0809
 3913SOL     OW23374   4.088   0.062   6.315 -0.1686  0.3113  0.2538
 3913SOL    HW123375   4.061   4.728   6.258 -1.4330  0.0233  1.2173
 3913SOL    HW223376   4.003   0.101   6.333  0.1032  1.4635 -1.0368
 3914SOL     OW23377   4.068   3.874   4.156 -0.2445 -0.2203  0.4213
 3914SOL    HW123378   4.039   3.931   4.227  0.2602  0.1235  0.3521
 3914SOL    HW223379   4.138   3.822   4.196 -1.5055  0.0018  2.9299
 3915SOL     OW23380   3.723   2.781   4.782  0.3717  0.1977  0.1082
 3915SOL    HW123381   3.819   2.773   4.777  0.7543  5.2068 -0.2629
 3915SOL    HW223382   3.690   2.773   4.692 -1.0426  1.7078  0.4983
 3916SOL     OW23383   2.749   0.254   1.548  0.1307  0.5919 -0.0448
 3916SOL    HW123384   2.796   0.327   1.506 -1.7951  1.7672 -0.1356
 3916SOL    HW223385   2.806   0.240   1.624  1.0299 -2.8513 -1.3554
 3917SOL     OW23386   0.823   1.958   7.547 -0.1054 -0.4980 -0.1553
 3917SOL    HW123387   0.869   1.878   7.572 -0.6358 -0.5430  0.6449
 3917SOL    HW223388   0.869   2.032   7.587  0.8621 -1.9646  1.4365
 3918SOL     OW23389   4.242   4.028   6.914  0.2364 -0.6587  0.1702
 3918SOL    HW123390   4.192   3.958   6.958  1.0583  0.4047  2.8366
 3918SOL    HW223391   4.197   4.107   6.944  0.6794 -0.3883  0.1210
 3919SOL     OW23392   2.352   0.839   8.999 -0.1254  0.5342 -0.6488
 3919SOL    HW123393   2.297   0.795   8.934  0.8068 -0.8249 -0.5288
 3919SOL    HW223394   2.312   0.803   9.077  1.2856 -0.1760 -0.2473
 3920SOL     OW23395   3.942   2.813  14.809 -0.0825 -0.3369 -0.0317
 3920SOL    HW123396   3.930   2.724  14.843  1.3201 -1.4202 -2.3361
 3920SOL    HW223397   4.027   2.838  14.845 -0.9395  3.1269 -0.4639
 3921SOL     OW23398   2.114   0.840   0.043 -0.7107 -0.1717  0.3233
 3921SOL    HW123399   2.196   0.800   0.071 -1.2008 -2.6154 -1.7648
 3921SOL    HW223400   2.065   0.820   0.122 -1.2630  0.2304  0.0813
 3922SOL     OW23401   2.665   0.447   7.835 -0.1294  0.0519 -0.2270
 3922SOL    HW123402   2.724   0.481   7.902  0.2747  1.3807 -1.2674
 3922SOL    HW223403   2.654   0.520   7.774  1.8335  1.1763  0.7665
 3923SOL     OW23404   2.941   1.682  12.219  0.4598 -0.4512 -0.7731
 3923SOL    HW123405   3.011   1.617  12.206  0.1241 -0.7863 -0.8965
 3923SOL    HW223406   2.948   1.705  12.311  0.8342  1.0556 -1.1638
 3924SOL     OW23407   2.691   1.898   7.694  0.1286 -0.0538 -0.1006
 3924SOL    HW123408   2.652   1.811   7.696  0.6929 -0.3163 -0.6792
 3924SOL    HW223409   2.640   1.927   7.618 -1.5983  0.4255  1.2427
 3925SOL     OW23410   1.090   3.391  14.911  0.6745 -0.3132  0.2825
 3925SOL    HW123411   1.037   3.470  14.897 -0.3297 -0.9075  0.7165
 3925SOL    HW223412   1.137   3.374  14.830 -0.6286  0.0836 -0.5694
 3926SOL     OW23413   1.900   4.010   0.727 -0.1163 -0.7413 -0.3365
 3926SOL    HW123414   1.892   4.103   0.709  1.0399 -0.7700 -1.0220
 3926SOL    HW223415   1.849   3.973   0.656 -1.6094 -0.0054  0.3594
 3927SOL     OW23416   4.021   1.662   9.135  0.0831 -0.0329  0.9092
 3927SOL    HW123417   3.952   1.694   9.194 -0.2366  1.5356 -0.3262
 3927SOL    HW223418   4.011   1.567   9.140 -1.1294  0.0159 -0.4913
 3928SOL     OW23419   1.651   3.262   4.188 -0.2246  0.3598  0.1691
 3928SOL    HW123420   1.619   3.348   4.215 -1.3615 -0.4169  1.3292
 3928SOL    HW223421   1.586   3.243   4.120 -0.3743 -0.9277  0.6500
 3929SOL     OW23422   1.788   2.422  11.984 -0.0947 -0.5147 -0.0566
 3929SOL    HW123423   1.744   2.347  11.943 -1.0325  1.8058 -3.2428
 3929SOL    HW223424   1.847   2.452  11.916  0.7225 -0.8954  0.4765
 3930SOL     OW23425   4.090   0.526   5.303 -0.4037  0.1949 -0.0256
 3930SOL    HW123426   4.090   0.538   5.397 -0.0087 -2.8618  0.3630
 3930SOL    HW223427   4.179   0.553   5.281 -0.6526  0.7297 -0.3804
 3931SOL     OW23428   3.421   3.733   8.487 -0.1445  0.0626  0.2187
 3931SOL    HW123429   3.478   3.729   8.411 -0.2402  1.8460  0.0478
 3931SOL    HW223430   3.427   3.645   8.522 -0.7880  0.5325  1.5264
 3932SOL     OW23431   2.590   0.289   5.093 -0.3580  0.1018  0.9263
 3932SOL    HW123432   2.509   0.306   5.044 -0.6391  1.0280  1.7275
 3932SOL    HW223433   2.646   0.300   5.016 -1.4483  3.1477  0.5884
 3933SOL     OW23434   3.028   3.615   2.074 -0.1922 -0.1135  0.0862
 3933SOL    HW123435   3.003   3.524   2.057 -3.3818  0.5596  1.1750
 3933SOL    HW223436   3.117   3.620   2.038 -0.8470 -1.4811 -1.7660
 3934SOL     OW23437   1.230   3.602   4.889  0.9396 -0.1632  0.1159
 3934SOL    HW123438   1.260   3.635   4.973  2.1585  0.2062 -0.4603
 3934SOL    HW223439   1.291   3.646   4.829  1.7962 -0.6924  0.5871
 3935SOL     OW23440   1.594   1.312   9.299 -0.3159  0.2867 -1.0403
 3935SOL    HW123441   1.640   1.249   9.243  1.8298  0.4200  0.5611
 3935SOL    HW223442   1.644   1.305   9.380 -0.8717 -0.8631 -0.7925
 3936SOL     OW23443   3.580   0.956   0.490 -0.4504  0.2280 -0.0763
 3936SOL    HW123444   3.618   0.993   0.410 -1.0940 -0.8651 -0.8879
 3936SOL    HW223445   3.495   0.926   0.459 -1.4471 -1.2575  4.0377
 3937SOL     OW23446   2.566   0.077   8.102  0.5681 -0.1342 -0.2280
 3937SOL    HW123447   2.638   0.062   8.165 -0.2651 -1.6149  0.3795
 3937SOL    HW223448   2.494   0.083   8.165 -1.0202 -2.3539 -1.8618
 3938SOL     OW23449   1.493   1.107   8.518  0.7254  0.3724 -0.3305
 3938SOL    HW123450   1.582   1.081   8.542  0.7685  0.5885 -0.2611
 3938SOL    HW223451   1.452   1.038   8.571  2.7014  1.5062  2.6953
 3939SOL     OW23452   1.927   1.460  11.107  0.0782  0.3410  0.1064
 3939SOL    HW123453   1.881   1.451  11.191 -1.6251  2.7769 -0.5693
 3939SOL    HW223454   1.885   1.532  11.059 -1.2784 -0.7642 -0.3873
 3940SOL     OW23455   2.897   4.390   8.154  0.2080  0.7566 -0.4479
 3940SOL    HW123456   2.813   4.395   8.200  1.1630 -1.9028  1.5739
 3940SOL    HW223457   2.919   4.483   8.148  0.3647  0.8864  2.0952
 3941SOL     OW23458   2.223   1.700  13.080 -0.2344 -0.0189 -0.6264
 3941SOL    HW123459   2.159   1.701  13.151 -0.8551  0.8524 -1.2023
 3941SOL    HW223460   2.306   1.693  13.126 -0.8195 -1.4786  0.2071
 3942SOL     OW23461   1.025   3.347   5.908  0.2140  0.0976  0.1665
 3942SOL    HW123462   1.119   3.346   5.891 -0.0312 -1.4310 -1.1081
 3942SOL    HW223463   0.986   3.296   5.837  1.5861 -3.1193  1.7225
 3943SOL     OW23464   1.642   1.423   8.290 -0.0089 -0.5499 -0.7041
 3943SOL    HW123465   1.567   1.364   8.285 -0.6815  0.1483  1.1356
 3943SOL    HW223466   1.595   1.506   8.296 -0.3656 -0.8048  0.0777
 3944SOL     OW23467   0.020   0.313   5.697  0.2173 -0.2097  0.4364
 3944SOL    HW123468   0.079   0.300   5.771 -0.2374 -0.5809  0.7339
 3944SOL    HW223469   4.694   0.247   5.722  1.2107 -0.8535  1.2318
 3945SOL     OW23470   1.694   3.381   9.066 -0.1183 -0.8675  0.6412
 3945SOL    HW123471   1.666   3.471   9.081  1.3907 -0.5234  1.4305
 3945SOL    HW223472   1.618   3.337   9.028  1.3606 -1.3252 -1.8087
 3946SOL     OW23473   0.646   2.039  10.372 -0.4127 -0.0349  0.0550
 3946SOL    HW123474   0.653   1.989  10.454  0.8254  0.0354 -0.0041
 3946SOL    HW223475   0.555   2.068  10.371  0.1373  1.6858  0.6627
 3947SOL     OW23476   3.190   1.012   1.807 -0.2162  0.1856  0.4742
 3947SOL    HW123477   3.153   0.993   1.893  1.0951  0.3370  1.0702
 3947SOL    HW223478   3.284   1.007   1.820 -0.2528 -1.0419  0.2582
 3948SOL     OW23479   0.682   3.193   7.269  0.1318  0.1909  0.2086
 3948SOL    HW123480   0.720   3.277   7.242 -0.1017 -0.2831 -1.5644
 3948SOL    HW223481   0.642   3.161   7.188  0.0865 -0.6231  0.5533
 3949SOL     OW23482   0.928   3.208  13.652 -0.1893 -0.0723 -0.2564
 3949SOL    HW123483   1.005   3.226  13.707  0.6191 -1.4883 -0.9385
 3949SOL    HW223484   0.867   3.176  13.719  0.4070  0.6817  0.6504
 3950SOL     OW23485   4.468   2.970  16.782 -0.1658  0.6097  0.3507
 3950SOL    HW123486   4.494   2.882  16.758 -2.3311  0.3293 -1.0357
 3950SOL    HW223487   4.377   2.964  16.812 -1.3005 -3.0689 -3.8455
 3951SOL     OW23488   3.671   2.145   4.189 -0.6907  0.4938 -0.7385
 3951SOL    HW123489   3.621   2.092   4.127 -1.9649  0.4712  0.3010
 3951SOL    HW223490   3.706   2.218   4.137 -0.2439  0.0946 -0.9968
 3952SOL     OW23491   0.966   2.488   4.189 -0.2420 -0.5079  0.0685
 3952SOL    HW123492   1.001   2.562   4.238 -2.4794  1.1251 -0.8122
 3952SOL    HW223493   1.021   2.497   4.111 -0.7466 -2.2384 -0.4798
 3953SOL     OW23494   0.072   4.307   6.861  0.4176  0.1419  0.2748
 3953SOL    HW123495   0.126   4.373   6.817  0.4039 -0.3744 -0.5190
 3953SOL    HW223496   0.123   4.227   6.849 -0.1341 -0.2408  0.4566
 3954SOL     OW23497   1.520   0.525   3.560 -0.0888 -0.1627 -0.1136
 3954SOL    HW123498   1.581   0.499   3.491  0.3916 -1.7425  0.9076
 3954SOL    HW223499   1.486   0.438   3.583  0.5359  0.5490  3.5516
 3955SOL     OW23500   2.641   1.456   1.286  0.4039  0.5733 -0.8076
 3955SOL    HW123501   2.695   1.486   1.359 -1.0888  0.8112  0.2234
 3955SOL    HW223502   2.652   1.361   1.287  0.1122  0.5562  1.9201
 3956SOL     OW23503   3.275   0.442   2.627  0.0240  0.8269 -0.0888
 3956SOL    HW123504   3.259   0.350   2.646 -1.3461  0.9143 -0.8222
 3956SOL    HW223505   3.187   0.478   2.615 -0.0650  0.5680 -0.2173
 3957SOL     OW23506   0.788   1.115  11.756  0.2354 -0.0469  0.0733
 3957SOL    HW123507   0.702   1.156  11.748  1.4131  2.1919 -1.1684
 3957SOL    HW223508   0.767   1.029  11.792 -0.3764  0.3404  0.6256
 3958SOL     OW23509   1.540   2.805   8.152  0.6425  0.3046  0.0498
 3958SOL    HW123510   1.550   2.848   8.067 -0.3476  0.7223  0.1478
 3958SOL    HW223511   1.486   2.728   8.135 -0.5162  1.5737 -1.9569
 3959SOL     OW23512   1.495   3.643   4.751  0.1559 -0.1132 -0.4158
 3959SOL    HW123513   1.473   3.716   4.693 -2.6078 -0.0823  0.6355
 3959SOL    HW223514   1.480   3.562   4.702  2.1149 -0.5385 -0.2898
 3960SOL     OW23515   1.660   2.130   1.548  0.1975  0.1390 -0.1154
 3960SOL    HW123516   1.715   2.090   1.481 -1.7805 -1.8084 -0.5772
 3960SOL    HW223517   1.647   2.216   1.508 -0.6595 -0.2553 -0.6973
 3961SOL     OW23518   3.804   3.538   1.434  0.3563  0.5251  0.1094
 3961SOL    HW123519   3.826   3.631   1.432 -0.0542  0.6240  0.2476
 3961SOL    HW223520   3.894   3.510   1.416  0.0690 -0.5327  0.3167
 3962SOL     OW23521   1.438   1.665   6.440  0.6752  0.1385  1.0761
 3962SOL    HW123522   1.360   1.609   6.436  0.6362  0.3218 -0.5543
 3962SOL    HW223523   1.452   1.693   6.350  0.0493  0.9118  1.2210
 3963SOL     OW23524   4.052   3.487  11.777 -0.2353 -0.0739  0.1113
 3963SOL    HW123525   3.999   3.508  11.853 -0.4827 -0.0199 -0.0771
 3963SOL    HW223526   4.142   3.497  11.810  0.1085 -4.2182  0.5014
 3964SOL     OW23527   0.330   0.455   6.528  0.1297  0.6913 -0.5249
 3964SOL    HW123528   0.394   0.415   6.588 -1.3399 -0.1328  0.5135
 3964SOL    HW223529   0.325   0.380   6.469 -1.0132  0.3388  0.0309
 3965SOL     OW23530   3.616   3.438   7.910  0.3625  0.1758  0.4706
 3965SOL    HW123531   3.594   3.400   7.825  2.5550  1.1112 -0.5206
 3965SOL    HW223532   3.675   3.506   7.878 -0.3287  0.5921  0.0676
 3966SOL     OW23533   3.171   0.824   6.745  0.1076 -0.4356  0.1091
 3966SOL    HW123534   3.184   0.869   6.829 -1.7901 -0.4748  0.4247
 3966SOL    HW223535   3.195   0.891   6.681  2.1848 -1.2067  0.1020
 3967SOL     OW23536   4.347   1.434   2.713 -0.1463  0.2472  0.6497
 3967SOL    HW123537   4.331   1.477   2.796 -1.9178 -1.0456  0.9632
 3967SOL    HW223538   4.392   1.355   2.745  2.2523  1.2940 -0.1223
 3968SOL     OW23539   2.332   2.513   1.083  0.1219  0.3285  0.3451
 3968SOL    HW123540   2.345   2.433   1.134  1.9553  0.8567  0.6939
 3968SOL    HW223541   2.322   2.575   1.155 -1.4432 -1.0633  1.3315
 3969SOL     OW23542   0.438   0.180   7.136  0.0529 -0.5065  0.3659
 3969SOL    HW123543   0.430   0.240   7.210  1.5168 -0.6132  0.6105
 3969SOL    HW223544   0.534   0.176   7.129 -0.0017 -1.1229 -0.0241
 3970SOL     OW23545   2.975   3.604   0.462 -0.1574 -0.1845 -0.7027
 3970SOL    HW123546   3.002   3.522   0.503 -2.1714  0.0650  1.1589
 3970SOL    HW223547   2.902   3.630   0.518 -0.1411  0.3352 -0.9288
 3971SOL     OW23548   0.245   2.557   4.263 -0.0502  0.1754  0.1575
 3971SOL    HW123549   0.263   2.639   4.217  1.0584  0.6632  1.4500
 3971SOL    HW223550   0.256   2.489   4.197 -0.9798  0.4416 -0.2787
 3972SOL     OW23551   2.462   3.923  10.843  0.6382 -0.1080 -0.1212
 3972SOL    HW123552   2.389   3.923  10.781 -0.8127  1.1870  1.5686
 3972SOL    HW223553   2.498   3.836  10.831  1.0979  0.1608 -0.7118
 3973SOL     OW23554   2.249   3.219   5.795  0.1240 -0.1497 -0.0133
 3973SOL    HW123555   2.233   3.298   5.743  0.2322 -0.1142  0.0068
 3973SOL    HW223556   2.182   3.223   5.862 -0.7216  0.4526 -0.8988
 3974SOL     OW23557   1.050   0.805   4.070  0.2615 -0.5111  0.1810
 3974SOL    HW123558   1.094   0.846   3.996  0.6221 -0.7691  0.2583
 3974SOL    HW223559   0.965   0.777   4.034 -0.3235  1.1583  0.2454
 3975SOL     OW23560   3.034   1.089   6.780 -0.3720 -0.5241  0.0614
 3975SOL    HW123561   2.977   1.064   6.853  1.7663  0.1718  1.9468
 3975SOL    HW223562   3.116   1.074   6.827  0.8669 -0.7222 -2.2077
 3976SOL     OW23563   0.521   1.837   3.852 -0.5801 -0.5458 -1.0026
 3976SOL    HW123564   0.502   1.912   3.908 -0.5108  0.6095 -2.5405
 3976SOL    HW223565   0.579   1.791   3.912  0.8822  0.7475 -1.4271
 3977SOL     OW23566   0.213   3.768  10.878 -0.3806 -0.2089 -0.2783
 3977SOL    HW123567   0.289   3.800  10.927  0.0493 -0.5339 -0.7352
 3977SOL    HW223568   0.197   3.691  10.932  0.0474 -1.0683 -1.3661
 3978SOL     OW23569   0.320   3.412  16.418  0.3138  0.2881  0.1653
 3978SOL    HW123570   0.258   3.477  16.384 -1.8577 -3.0924 -2.3029
 3978SOL    HW223571   0.375   3.457  16.482 -0.3681  0.0378  0.9299
 3979SOL     OW23572   0.998   1.922   2.246  0.4627 -0.2240 -0.3336
 3979SOL    HW123573   1.046   2.001   2.272  0.0675  0.7938 -2.6649
 3979SOL    HW223574   0.967   1.884   2.328 -0.5160 -0.0495 -0.6263
 3980SOL     OW23575   0.758   0.082   7.134 -0.2242 -0.7449 -0.1561
 3980SOL    HW123576   0.705   0.002   7.129 -0.0221 -1.0799  3.2828
 3980SOL    HW223577   0.837   0.039   7.100 -1.1932 -2.2158 -0.5539
 3981SOL     OW23578   4.531   4.325  14.875 -0.0336 -0.1750 -0.4451
 3981SOL    HW123579   4.510   4.417  14.859  0.1495 -0.2483 -1.1143
 3981SOL    HW223580   4.622   4.326  14.905  0.5099  3.5212 -2.0885
 3982SOL     OW23581   3.811   4.166  13.831 -0.2282 -0.3838  0.3622
 3982SOL    HW123582   3.780   4.247  13.872  3.1973  1.6046 -0.9195
 3982SOL    HW223583   3.778   4.166  13.741 -0.4609  0.8309  0.4509
 3983SOL     OW23584   2.675   1.825   5.791  0.2025 -0.5158 -0.2300
 3983SOL    HW123585   2.720   1.802   5.872 -0.5243  1.1280  0.6521
 3983SOL    HW223586   2.643   1.912   5.816  0.6540 -1.0565  2.2888
 3984SOL     OW23587   4.510   3.422   8.099  0.3622 -0.0933  0.4085
 3984SOL    HW123588   4.492   3.428   8.006 -2.4563 -0.0627  0.9550
 3984SOL    HW223589   4.498   3.515   8.121 -1.0022  0.1805 -1.5651
 3985SOL     OW23590   2.706   1.601   5.545  0.1272 -0.2239  0.5486
 3985SOL    HW123591   2.665   1.517   5.568 -0.2193 -0.4492 -0.8974
 3985SOL    HW223592   2.682   1.655   5.620  0.7098  1.8497 -0.7607
 3986SOL     OW23593   0.174   2.335   7.695  0.3418 -0.3223  0.6878
 3986SOL    HW123594   0.095   2.339   7.641  1.9157  0.3735 -1.5527
 3986SOL    HW223595   0.177   2.246   7.731 -1.8673  1.4565  5.3214
 3987SOL     OW23596   1.398   3.265  12.838  0.2611 -0.3498  0.1678
 3987SOL    HW123597   1.345   3.270  12.918  0.1420  2.0695 -0.0636
 3987SOL    HW223598   1.459   3.194  12.859  0.6496  0.3434  1.3855
 3988SOL     OW23599   0.719   0.739   7.242 -0.1376 -0.2466 -0.2054
 3988SOL    HW123600   0.761   0.733   7.156  1.6197  1.3768  0.5419
 3988SOL    HW223601   0.677   0.823   7.226 -0.6023  0.0955  2.8910
 3989SOL     OW23602   4.428   0.533   0.536 -0.6723 -0.2333  1.2061
 3989SOL    HW123603   4.380   0.560   0.614 -0.9144  1.9949  0.2968
 3989SOL    HW223604   4.386   0.602   0.484 -0.0295  0.2871  1.3763
 3990SOL     OW23605   1.759   1.651   6.348 -0.3673  0.1587 -0.4317
 3990SOL    HW123606   1.755   1.596   6.270  1.0455  0.5314 -0.7593
 3990SOL    HW223607   1.852   1.674   6.358 -0.1687 -1.5812  1.9001
 3991SOL     OW23608   1.172   2.766  14.602  0.5643  0.3113 -0.7585
 3991SOL    HW123609   1.216   2.792  14.520  1.4028 -0.4617 -0.5628
 3991SOL    HW223610   1.148   2.679  14.569  2.7685  0.5008 -2.9073
 3992SOL     OW23611   0.103   2.507   8.033  0.3913 -0.1595 -0.7647
 3992SOL    HW123612   0.071   2.506   8.123 -0.4453  1.1884 -1.0386
 3992SOL    HW223613   0.031   2.458   7.995 -0.2964  0.3826 -0.1624
 3993SOL     OW23614   0.275   4.462   9.756  0.3702 -0.0756 -0.2628
 3993SOL    HW123615   0.257   4.373   9.726  2.3533 -0.2512 -0.9258
 3993SOL    HW223616   0.200   4.509   9.720 -0.2268  0.5586  1.7577
 3994SOL     OW23617   0.313   2.170   5.707 -0.4275  0.2537 -0.1764
 3994SOL    HW123618   0.359   2.253   5.721 -0.5980  0.5196 -1.1875
 3994SOL    HW223619   0.228   2.211   5.726 -0.7714 -0.5588  0.0411
 3995SOL     OW23620   3.613   1.403  16.645 -0.1909 -0.3167 -0.6568
 3995SOL    HW123621   3.540   1.454  16.609 -1.1126 -1.4608 -0.3940
 3995SOL    HW223622   3.643   1.368  16.561  0.0182 -0.6252 -0.4510
 3996SOL     OW23623   4.728   4.424   2.472  0.4604 -0.1629  0.0208
 3996SOL    HW123624   0.046   4.451   2.545  0.9444 -2.2726  0.4202
 3996SOL    HW223625   0.046   4.348   2.455 -0.2562 -0.6347 -0.2259
 3997SOL     OW23626   1.468   3.069   2.873  0.2777 -0.0619  0.0711
 3997SOL    HW123627   1.536   3.137   2.869  0.3691 -0.1451  0.1928
 3997SOL    HW223628   1.444   3.064   2.781  1.3698 -1.1529 -0.1589
 3998SOL     OW23629   3.406   0.987   4.295  0.6423 -0.3418  0.1530
 3998SOL    HW123630   3.329   1.022   4.250 -0.3090 -4.0286 -1.0195
 3998SOL    HW223631   3.453   0.943   4.224  1.4525 -0.1470  0.5578
 3999SOL     OW23632   4.563   3.576   9.581  0.2281 -0.6116 -0.6966
 3999SOL    HW123633   4.544   3.669   9.584  1.9526 -0.2904 -0.1698
 3999SOL    HW223634   4.483   3.539   9.621 -0.1989  1.1365  0.0635
 4000SOL     OW23635   1.641   0.622   0.411 -0.1352  0.1711  0.1753
 4000SOL    HW123636   1.585   0.697   0.431  0.3296  0.0750  1.8298
 4000SOL    HW223637   1.720   0.651   0.457 -0.3128  1.2833 -0.2022
 4001SOL     OW23638   2.539   1.456  12.631 -0.0130  0.1245 -0.0085
 4001SOL    HW123639   2.619   1.490  12.591  0.0414  0.9734  0.8354
 4001SOL    HW223640   2.482   1.467  12.555 -1.0268  0.1465  0.7509
 4002SOL     OW23641   2.358   2.682   9.822 -0.0669 -0.5784  0.3249
 4002SOL    HW123642   2.336   2.713   9.734  0.1654 -2.7374 -0.5049
 4002SOL    HW223643   2.449   2.660   9.801 -0.0431  0.3306 -0.5116
 4003SOL     OW23644   2.495   3.356   6.964  0.1408  0.7878 -0.0002
 4003SOL    HW123645   2.502   3.268   6.926 -3.3016  0.7297 -0.4848
 4003SOL    HW223646   2.483   3.398   6.879 -1.6545  0.0770 -0.0850
 4004SOL     OW23647   3.108   0.889  12.229 -0.0568  0.2113 -0.0444
 4004SOL    HW123648   3.196   0.888  12.192  0.4647  4.0713  1.0946
 4004SOL    HW223649   3.062   0.931  12.157 -0.4524  0.6407  0.4532
 4005SOL     OW23650   0.560   4.421  13.661  0.2304 -0.0976 -0.0194
 4005SOL    HW123651   0.542   4.327  13.669 -1.6555  0.4195  1.5609
 4005SOL    HW223652   0.608   4.444  13.741 -1.6535  1.3792  0.6680
 4006SOL     OW23653   2.955   3.089   7.962  0.0706  0.1144 -0.3387
 4006SOL    HW123654   2.869   3.108   7.925 -0.9024  0.7651  2.2962
 4006SOL    HW223655   2.999   3.173   7.951 -0.3049  0.2043 -1.1699
 4007SOL     OW23656   3.331   0.821  15.783  0.3481 -0.4977  0.2474
 4007SOL    HW123657   3.286   0.902  15.758  0.2723 -0.3225  0.9534
 4007SOL    HW223658   3.394   0.861  15.843 -1.8406  2.7887  0.4082
 4008SOL     OW23659   4.513   1.227   7.774  0.1596 -0.6965 -0.5290
 4008SOL    HW123660   4.492   1.200   7.864 -0.1797  0.5309 -0.2397
 4008SOL    HW223661   4.427   1.210   7.737 -0.2577  1.1943 -0.3855
 4009SOL     OW23662   4.228   0.001   3.482  0.2455 -0.2341 -0.2729
 4009SOL    HW123663   4.306   4.690   3.458  0.6500  1.3279 -2.0731
 4009SOL    HW223664   4.163   4.690   3.431  1.4471 -2.1268 -0.0014
 4010SOL     OW23665   0.152   3.117  15.701 -0.4705 -0.0177  0.0311
 4010SOL    HW123666   0.119   3.206  15.686  1.1715  0.3966 -1.2209
 4010SOL    HW223667   0.149   3.105  15.796  0.2788  0.6459  0.1455
 4011SOL     OW23668   3.319   4.674  12.279  0.1313  0.7587 -0.7360
 4011SOL    HW123669   3.341   4.712  12.364  3.9675  0.7226 -1.6928
 4011SOL    HW223670   3.384   4.721  12.226  1.5543 -1.2269 -0.7852
 4012SOL     OW23671   2.079   0.211  16.230  0.7948  0.2134  0.5691
 4012SOL    HW123672   2.136   0.286  16.217  0.1093  0.9863  2.0471
 4012SOL    HW223673   2.000   0.248  16.268 -0.7019  0.6195 -2.9377
 4013SOL     OW23674   4.033   3.844   6.942  0.1222 -0.2000 -0.8083
 4013SOL    HW123675   4.015   3.800   6.859 -2.8908  0.5832 -0.5655
 4013SOL    HW223676   4.126   3.819   6.944 -0.2920 -1.5319  1.0380
 4014SOL     OW23677   1.580   1.177   0.299 -0.2714 -0.5286 -0.1683
 4014SOL    HW123678   1.506   1.149   0.245 -0.0500 -1.9333  0.2575
 4014SOL    HW223679   1.596   1.264   0.260  1.3708 -0.6993  0.1205
 4015SOL     OW23680   3.354   0.539   3.141 -0.1335 -0.1989 -0.1756
 4015SOL    HW123681   3.361   0.453   3.099  1.6123 -0.4263  0.5900
 4015SOL    HW223682   3.264   0.547   3.110  0.1978  3.2201 -0.2450
 4016SOL     OW23683   4.601   0.747  10.746  0.0876 -0.0356  0.0878
 4016SOL    HW123684   4.626   0.681  10.682  1.0944  0.9538 -0.5330
 4016SOL    HW223685   4.679   0.775  10.793  1.7225 -3.6241 -0.4981
 4017SOL     OW23686   4.323   4.322  12.730  0.2545 -0.0770  0.5493
 4017SOL    HW123687   4.348   4.313  12.822  0.8683 -3.2882  0.0675
 4017SOL    HW223688   4.407   4.302  12.689 -0.0606 -0.0357 -0.1188
 4018SOL     OW23689   0.418   3.005   2.589  0.2094 -0.1935  0.2944
 4018SOL    HW123690   0.486   2.974   2.648  3.0653  0.3010 -2.7279
 4018SOL    HW223691   0.392   3.083   2.638 -0.3808  0.6638 -1.3725
 4019SOL     OW23692   2.801   0.212  16.237 -0.2813  0.4702  0.8079
 4019SOL    HW123693   2.811   0.132  16.185  1.8468  1.6007 -0.5086
 4019SOL    HW223694   2.759   0.266  16.171 -2.0300 -1.5438  0.2757
 4020SOL     OW23695   2.922   2.574  12.086 -0.3086 -0.0831 -0.7794
 4020SOL    HW123696   3.005   2.526  12.089 -0.5470 -0.4617 -0.1736
 4020SOL    HW223697   2.929   2.615  12.000  0.3581  1.1780 -0.1257
 4021SOL     OW23698   4.465   4.467   6.381 -0.0286  0.5552 -0.8083
 4021SOL    HW123699   4.410   4.404   6.428  1.8508  0.4249  1.2584
 4021SOL    HW223700   4.391   4.514   6.343 -2.0860  0.8779  3.6324
 4022SOL     OW23701   1.721   2.065   6.994 -0.3257 -0.1404 -0.2018
 4022SOL    HW123702   1.637   2.045   7.035 -1.2368 -0.0864 -2.0474
 4022SOL    HW223703   1.738   2.142   7.048  1.3238 -1.0694  0.6054
 4023SOL     OW23704   0.260   4.101   8.851  0.1454 -0.0617 -0.2434
 4023SOL    HW123705   0.317   4.092   8.928 -0.1282  0.2301 -0.0049
 4023SOL    HW223706   0.264   4.196   8.838  1.4358 -0.3114 -1.6672
 4024SOL     OW23707   3.925   2.477   5.044  0.0109 -0.2133  0.1773
 4024SOL    HW123708   3.846   2.465   4.991  0.5647 -1.3664 -0.3773
 4024SOL    HW223709   3.920   2.402   5.103  0.8711  0.4093  1.0456
 4025SOL     OW23710   2.539   4.253  10.345 -0.0471 -0.0944  0.1935
 4025SOL    HW123711   2.476   4.226  10.412  2.7508  1.3567  3.4387
 4025SOL    HW223712   2.617   4.204  10.373  1.1986 -0.4191 -3.8480
 4026SOL     OW23713   2.348   2.012   6.062 -0.4323  0.5275  0.7447
 4026SOL    HW123714   2.430   2.039   6.102 -0.5108  0.8075  0.7200
 4026SOL    HW223715   2.305   2.095   6.039  3.1623  1.7327 -1.6710
 4027SOL     OW23716   1.511   3.672  14.375  0.0231 -0.2724 -0.7697
 4027SOL    HW123717   1.579   3.692  14.439  0.0671  2.9059 -1.8083
 4027SOL    HW223718   1.450   3.745  14.384  1.1101  0.2759  2.2530
 4028SOL     OW23719   0.252   2.467   1.902 -0.2604  0.5275  0.2505
 4028SOL    HW123720   0.265   2.420   1.984 -2.6253 -2.0322 -0.8481
 4028SOL    HW223721   0.334   2.516   1.911  1.1210 -1.3301 -2.0600
 4029SOL     OW23722   3.427   4.272   8.924 -0.3357  0.0842 -0.6168
 4029SOL    HW123723   3.520   4.257   8.938 -0.3346 -0.6526 -1.4573
 4029SOL    HW223724   3.391   4.205   8.982 -0.0921  1.7596  1.4906
 4030SOL     OW23725   0.825   3.623  13.478  0.0708  0.1381 -0.1029
 4030SOL    HW123726   0.742   3.632  13.432  0.1584 -0.7494 -0.4371
 4030SOL    HW223727   0.790   3.597  13.563 -0.9038  2.3588  0.1907
 4031SOL     OW23728   2.647   3.798  15.990  0.0235  0.1140  0.0228
 4031SOL    HW123729   2.629   3.704  15.989 -3.5191  0.8113 -2.0177
 4031SOL    HW223730   2.592   3.816  15.914 -0.1217 -0.0814  0.0822
 4032SOL     OW23731   0.828   3.302   6.947 -0.0489 -0.4516  0.4701
 4032SOL    HW123732   0.873   3.217   6.951  0.0712 -0.2939  2.5218
 4032SOL    HW223733   0.892   3.362   6.985  0.4452 -0.9030  0.3546
 4033SOL     OW23734   2.070   0.158   5.590 -0.3727 -0.3124  0.6435
 4033SOL    HW123735   2.031   0.145   5.677 -0.1869  0.3077  0.8170
 4033SOL    HW223736   2.093   0.251   5.590  0.1950 -0.4541 -1.0042
 4034SOL     OW23737   3.184   0.009   7.795  0.0132 -0.1506  0.0711
 4034SOL    HW123738   3.150   4.657   7.802 -0.9846  0.3444  1.5621
 4034SOL    HW223739   3.191   0.027   7.701 -2.2575 -0.6649 -0.2106
 4035SOL     OW23740   3.384   2.458   8.558 -0.1953 -0.2957 -0.5067
 4035SOL    HW123741   3.411   2.434   8.647 -1.8103  1.3827  0.4322
 4035SOL    HW223742   3.348   2.546   8.570 -0.6833 -0.5369 -0.2100
 4036SOL     OW23743   0.847   0.399  11.649  0.4068 -0.6834 -0.4788
 4036SOL    HW123744   0.827   0.473  11.706  2.0135 -1.6219  1.3053
 4036SOL    HW223745   0.816   0.319  11.692  1.0267  0.6149  2.3953
 4037SOL     OW23746   3.089   3.832   4.630  0.0586  0.6477  0.0843
 4037SOL    HW123747   3.170   3.820   4.680 -0.5543 -0.7599  0.7222
 4037SOL    HW223748   3.069   3.741   4.610 -2.3837  1.7080 -2.2211
 4038SOL     OW23749   3.330   4.413   6.881  0.4097 -0.1740 -0.1880
 4038SOL    HW123750   3.370   4.499   6.866  0.2859  0.2140  1.5974
 4038SOL    HW223751   3.240   4.444   6.874  0.9104  1.1696 -0.7003
 4039SOL     OW23752   3.292   4.259   0.891  0.1805  0.7206  0.4986
 4039SOL    HW123753   3.263   4.191   0.830  0.4428  0.9563  0.1112
 4039SOL    HW223754   3.216   4.276   0.948  0.2678  2.4230  0.1052
 4040SOL     OW23755   1.751   1.301   7.110  0.1603 -0.4360 -0.5010
 4040SOL    HW123756   1.847   1.298   7.118  0.1650 -2.5078 -1.3138
 4040SOL    HW223757   1.732   1.380   7.160 -1.1230 -0.1633 -1.4166
 4041SOL     OW23758   0.760   1.434  10.837  0.1176 -0.5715  0.1590
 4041SOL    HW123759   0.780   1.435  10.743 -2.6864  0.8713 -0.4132
 4041SOL    HW223760   0.705   1.512  10.847  1.7788  0.5372  0.7588
 4042SOL     OW23761   1.302   0.541   1.477 -0.0987  0.3238 -0.2285
 4042SOL    HW123762   1.213   0.511   1.494 -1.1446  1.9581 -2.7790
 4042SOL    HW223763   1.292   0.636   1.487  0.9098  0.6943 -2.5810
 4043SOL     OW23764   1.243   1.098  11.548 -0.6498 -0.1854 -0.4089
 4043SOL    HW123765   1.237   1.130  11.638 -0.8875  0.7566 -0.7611
 4043SOL    HW223766   1.331   1.061  11.553 -1.0274 -0.6693  2.3747
 4044SOL     OW23767   2.516   1.418   3.719  0.0274 -0.3447 -0.3651
 4044SOL    HW123768   2.515   1.502   3.673 -0.2866  0.5906  1.3574
 4044SOL    HW223769   2.593   1.420   3.775 -0.6540 -0.1695  0.5493
 4045SOL     OW23770   0.357   2.319   3.285  0.2493  0.0708 -0.7077
 4045SOL    HW123771   0.400   2.308   3.200  0.0929 -0.6294 -0.6913
 4045SOL    HW223772   0.288   2.380   3.257  0.4937  0.5681 -0.2317
 4046SOL     OW23773   2.902   2.994   6.636  0.7466 -0.2847 -0.1428
 4046SOL    HW123774   2.882   3.045   6.558 -0.5033 -1.9939 -0.9438
 4046SOL    HW223775   2.921   3.062   6.701  3.5980 -1.2731  0.0826
 4047SOL     OW23776   3.660   1.356   8.446  0.4469 -0.6095  0.5976
 4047SOL    HW123777   3.704   1.436   8.418  0.4751 -0.6817  0.4330
 4047SOL    HW223778   3.713   1.332   8.522  0.0730 -2.2250  0.3602
 4048SOL     OW23779   2.504   0.845   8.755  0.0297 -0.0068  0.7739
 4048SOL    HW123780   2.489   0.859   8.848 -1.4896 -1.7997  0.7921
 4048SOL    HW223781   2.467   0.758   8.739  1.5866 -0.2651 -1.5695
 4049SOL     OW23782   1.543   1.282  13.941  1.1633  0.1257 -0.1342
 4049SOL    HW123783   1.500   1.197  13.951  0.2973  0.4656 -1.0356
 4049SOL    HW223784   1.507   1.332  14.015  2.2044  2.1897 -1.0225
 4050SOL     OW23785   0.827   0.404  11.373 -0.0935  0.6266 -0.2825
 4050SOL    HW123786   0.817   0.309  11.374 -2.1513  0.8191 -1.5203
 4050SOL    HW223787   0.827   0.424  11.466  0.5494 -1.2538  0.1086
 4051SOL     OW23788   1.699   4.582   8.775 -0.3796  0.0546  0.2930
 4051SOL    HW123789   1.649   4.659   8.803  0.6558  1.1507 -0.8283
 4051SOL    HW223790   1.635   4.511   8.769 -0.3682  0.0180  0.6141
 4052SOL     OW23791   1.435   0.506  14.630 -0.1053  0.0279  0.7608
 4052SOL    HW123792   1.378   0.521  14.705 -1.6593 -0.8354 -0.2472
 4052SOL    HW223793   1.402   0.419  14.611 -3.1503  1.1273  0.9929
 4053SOL     OW23794   0.407   1.576   2.077 -0.3775 -0.0217 -0.5305
 4053SOL    HW123795   0.409   1.481   2.067 -2.7846 -0.3538  1.8619
 4053SOL    HW223796   0.451   1.604   1.997 -2.7132 -0.4803 -1.9952
 4054SOL     OW23797   1.727   0.713   5.663  0.0058 -0.9792  0.1098
 4054SOL    HW123798   1.672   0.656   5.609  1.3375 -1.5235 -0.6766
 4054SOL    HW223799   1.679   0.697   5.744 -1.4309  0.2306 -0.5157
 4055SOL     OW23800   4.273   0.148   5.426 -0.0180  0.4706  0.2208
 4055SOL    HW123801   4.310   0.068   5.465  0.2290  0.4732 -0.0046
 4055SOL    HW223802   4.260   0.108   5.340  0.5071  0.7698  0.0042
 4056SOL     OW23803   1.547   2.204   3.958  0.3619  0.2190  0.0580
 4056SOL    HW123804   1.558   2.114   3.987 -1.3900  0.0762  0.2742
 4056SOL    HW223805   1.451   2.210   3.956  0.3880  0.7963  0.7246
 4057SOL     OW23806   1.768   3.655   5.464 -0.6197  0.4254 -0.1524
 4057SOL    HW123807   1.857   3.650   5.428 -0.1519 -0.4183  1.1368
 4057SOL    HW223808   1.775   3.708   5.543  0.6430 -0.0573  0.0622
 4058SOL     OW23809   0.746   0.354   5.991  0.2905 -0.0934  0.0755
 4058SOL    HW123810   0.689   0.416   5.945  1.1523 -1.0357 -2.2428
 4058SOL    HW223811   0.686   0.284   6.016  1.3512 -1.0241 -0.0075
 4059SOL     OW23812   3.113   0.484   1.838  0.0514  0.2671  0.3233
 4059SOL    HW123813   3.114   0.541   1.915 -2.2090  2.4674 -1.3086
 4059SOL    HW223814   3.021   0.481   1.815 -0.4143 -1.7085  2.4493
 4060SOL     OW23815   1.582   0.130   7.826 -0.0358 -0.7958 -0.1337
 4060SOL    HW123816   1.567   0.045   7.783 -0.5464 -1.1428  0.7328
 4060SOL    HW223817   1.645   0.100   7.891  0.1203  2.3120  1.1223
 4061SOL     OW23818   3.384   0.684   9.345  0.7715  0.6073  0.3123
 4061SOL    HW123819   3.348   0.679   9.257  0.3211  1.2426  0.4587
 4061SOL    HW223820   3.399   0.591   9.361 -4.1140 -0.3306 -0.7116
 4062SOL     OW23821   4.680   2.707   5.826  0.1036  0.4598 -0.0834
 4062SOL    HW123822   0.032   2.677   5.841  0.0782  0.5807  0.3003
 4062SOL    HW223823   4.691   2.751   5.742  0.1393  0.9297  0.1693
 4063SOL     OW23824   3.431   0.323   4.580 -0.2916 -0.5579  0.0690
 4063SOL    HW123825   3.422   0.282   4.494 -2.1411 -0.1442  0.0609
 4063SOL    HW223826   3.338   0.333   4.600 -0.0416  2.8226 -0.3994
 4064SOL     OW23827   4.546   3.706   6.959  0.7380  0.3339 -0.2963
 4064SOL    HW123828   4.502   3.652   6.893  2.4815 -1.2361 -0.1622
 4064SOL    HW223829   4.584   3.640   7.017 -0.6944  1.0609  1.5060
 4065SOL     OW23830   4.424   3.939  10.468  0.6461 -0.4717  0.7907
 4065SOL    HW123831   4.464   3.863  10.426  1.2718  0.4918 -0.3579
 4065SOL    HW223832   4.488   3.959  10.536 -0.0399  1.8226  0.7578
 4066SOL     OW23833   2.204   2.193   2.689 -0.3956  0.0542  0.1614
 4066SOL    HW123834   2.120   2.153   2.665  1.0830 -2.3324 -1.0633
 4066SOL    HW223835   2.197   2.275   2.641 -2.3440  1.1205  2.2732
 4067SOL     OW23836   2.689   2.123   9.531 -0.0141 -0.6053 -0.1717
 4067SOL    HW123837   2.606   2.161   9.561 -0.2627  0.2817 -1.9445
 4067SOL    HW223838   2.725   2.173   9.458  0.0370 -0.8899 -0.3417
 4068SOL     OW23839   2.551   0.110   4.143  0.2158  0.0992  0.2776
 4068SOL    HW123840   2.603   0.181   4.105  0.1969  0.5762  1.1316
 4068SOL    HW223841   2.569   0.120   4.237 -1.3916  1.1296  0.4839
 4069SOL     OW23842   1.303   1.360  15.207  0.8423  0.2670  0.0013
 4069SOL    HW123843   1.344   1.275  15.193 -2.2156 -0.9983 -1.1711
 4069SOL    HW223844   1.226   1.360  15.150  0.4073  0.9037  0.5807
 4070SOL     OW23845   3.077   0.754   4.827  0.3940  0.5596 -0.4977
 4070SOL    HW123846   3.114   0.729   4.743  2.1097 -0.2754  0.5036
 4070SOL    HW223847   3.141   0.714   4.886 -0.6994  0.9746  0.9899
 4071SOL     OW23848   0.548   4.571  12.013 -0.3347  0.1051 -0.0150
 4071SOL    HW123849   0.597   4.555  11.933  0.8329 -1.4835  1.0130
 4071SOL    HW223850   0.557   4.667  12.017  1.0720 -0.0833  1.2688
 4072SOL     OW23851   0.464   0.217   7.972  0.3008  0.2344 -0.0592
 4072SOL    HW123852   0.373   0.246   7.976  0.4705  0.6646  0.7768
 4072SOL    HW223853   0.487   0.214   8.065 -0.6672  1.9264  0.2431
 4073SOL     OW23854   3.419   0.898   0.942 -0.8857  0.2109  0.2124
 4073SOL    HW123855   3.401   0.944   0.860  0.5481  1.9705  0.8809
 4073SOL    HW223856   3.434   0.807   0.915  3.8245  0.8377  0.7888
 4074SOL     OW23857   0.976   1.780  14.773  0.2286 -0.7218 -0.1944
 4074SOL    HW123858   1.016   1.760  14.858  2.1878 -0.6982 -1.1238
 4074SOL    HW223859   0.952   1.701  14.724  2.5936 -2.0414  0.7624
 4075SOL     OW23860   0.176   0.384   2.913  0.0145  0.1009  0.4259
 4075SOL    HW123861   0.203   0.447   2.980  0.7066  0.1001  0.1468
 4075SOL    HW223862   0.178   0.302   2.962  0.3426 -0.6743 -0.8885
 4076SOL     OW23863   2.003   3.424   5.079  0.0889  0.0676  0.1896
 4076SOL    HW123864   1.917   3.391   5.106  0.5082 -1.3116 -0.1749
 4076SOL    HW223865   1.997   3.519   5.082 -0.7555  0.0530 -0.9312
 4077SOL     OW23866   4.243   2.596   1.668  0.6604 -0.2432  0.0109
 4077SOL    HW123867   4.326   2.551   1.681  0.4903 -0.1019  1.6012
 4077SOL    HW223868   4.234   2.575   1.575  0.1158 -0.3944  0.0938
 4078SOL     OW23869   0.862   1.836   2.463  0.0437  0.2496 -0.6435
 4078SOL    HW123870   0.844   1.915   2.514  1.2559  0.3514 -0.3835
 4078SOL    HW223871   0.785   1.819   2.408 -2.1596  0.3752  2.3732
 4079SOL     OW23872   3.312   3.674  14.720 -0.0881  0.3503  0.2252
 4079SOL    HW123873   3.260   3.677  14.801  2.4336 -0.1803  1.8489
 4079SOL    HW223874   3.349   3.586  14.716 -0.9332  0.2298 -4.5905
 4080SOL     OW23875   0.856   0.273   8.131  0.5430 -0.3845  0.1075
 4080SOL    HW123876   0.881   0.205   8.193 -0.4502 -1.3592 -0.5557
 4080SOL    HW223877   0.860   0.238   8.042  0.6110 -1.9619  0.7272
 4081SOL     OW23878   3.389   4.326   4.411 -0.1187 -0.1087  0.0058
 4081SOL    HW123879   3.321   4.279   4.460 -1.2182  0.2591 -1.1641
 4081SOL    HW223880   3.433   4.245   4.385 -3.1633 -1.5600 -0.6081
 4082SOL     OW23881   3.046   1.447   4.557  0.4553 -0.4418 -0.4287
 4082SOL    HW123882   3.029   1.515   4.622  0.5083  0.8862 -1.8065
 4082SOL    HW223883   3.013   1.368   4.600 -2.9596  1.4976  0.5100
 4083SOL     OW23884   3.625   3.685   1.170  0.3767 -0.2036 -0.5001
 4083SOL    HW123885   3.639   3.591   1.187 -1.3809 -0.5922 -1.2605
 4083SOL    HW223886   3.697   3.733   1.211 -0.0299  0.0276 -0.0660
 4084SOL     OW23887   0.074   2.882  10.643  0.4493 -0.0191  0.1012
 4084SOL    HW123888   0.057   2.941  10.570 -2.5330 -1.9841 -0.8110
 4084SOL    HW223889   4.719   2.881  10.666  0.1860  0.4026 -0.9564
 4085SOL     OW23890   2.831   3.117   2.853 -0.0114  0.4084  0.2062
 4085SOL    HW123891   2.864   3.028   2.842  0.9915  0.5882  1.7666
 4085SOL    HW223892   2.743   3.096   2.886 -0.2485 -0.9115 -1.2665
 4086SOL     OW23893   2.160   4.615   4.940 -0.6851  0.0061  0.0638
 4086SOL    HW123894   2.198   4.614   5.028 -1.3889  0.3564  0.3730
 4086SOL    HW223895   2.212   4.680   4.893 -0.3913  1.4941  2.4060
 4087SOL     OW23896   4.057   1.315   4.660 -0.2229  0.3310  0.1234
 4087SOL    HW123897   4.065   1.237   4.606  0.4787  1.0904 -0.8760
 4087SOL    HW223898   4.100   1.387   4.614 -0.1681  0.2893  0.1104
 4088SOL     OW23899   3.699   3.979   1.346 -0.3205  0.1878  0.1100
 4088SOL    HW123900   3.651   3.965   1.428  0.6502 -1.2673  0.4365
 4088SOL    HW223901   3.656   4.052   1.302 -1.9933 -0.4473  0.6901
 4089SOL     OW23902   0.018   1.372   7.003 -0.3562  0.0964  1.0079
 4089SOL    HW123903   4.697   1.371   7.079 -1.8560 -2.9733 -0.1905
 4089SOL    HW223904   0.038   1.465   6.995  3.2813 -0.6219  1.7232
 4090SOL     OW23905   3.072   1.989   5.186  0.0710  0.7765 -0.0131
 4090SOL    HW123906   3.048   1.969   5.095 -1.4408  2.4759  0.0103
 4090SOL    HW223907   2.986   2.018   5.216 -0.6537  2.8044 -4.0615
 4091SOL     OW23908   2.070   2.954  12.252  0.7557  0.5216 -0.5707
 4091SOL    HW123909   2.044   2.866  12.279 -1.7193  1.1865 -0.7967
 4091SOL    HW223910   2.158   2.937  12.219  1.0824 -0.7093  0.9123
 4092SOL     OW23911   0.951   0.466   9.181  0.3940 -0.0319 -0.4664
 4092SOL    HW123912   0.910   0.472   9.267 -2.2086  1.6928 -1.8270
 4092SOL    HW223913   0.944   0.372   9.167  0.3614 -0.1560  0.3705
 4093SOL     OW23914   3.346   4.455   4.798  0.3700 -0.1181  0.0323
 4093SOL    HW123915   3.324   4.416   4.882 -1.1526  1.3663  0.3445
 4093SOL    HW223916   3.438   4.430   4.789  0.4233  0.5950 -1.4131
 4094SOL     OW23917   0.230   2.547   8.379  0.0802 -0.9026 -0.0797
 4094SOL    HW123918   0.220   2.626   8.327  0.3334 -1.5656 -1.1264
 4094SOL    HW223919   0.325   2.544   8.391 -0.0632 -1.5020  0.9449
 4095SOL     OW23920   4.347   3.683   2.613 -0.2038  0.1174 -0.1103
 4095SOL    HW123921   4.435   3.720   2.606 -0.6723  1.5842  1.7352
 4095SOL    HW223922   4.315   3.752   2.671 -1.3881 -0.7756  0.3254
 4096SOL     OW23923   2.361   2.561   5.746  0.3667  0.3644  0.2685
 4096SOL    HW123924   2.308   2.548   5.668 -0.2118  2.7999  0.2464
 4096SOL    HW223925   2.304   2.535   5.818  0.4069  1.5699  0.7482
 4097SOL     OW23926   3.190   3.059  13.150  0.0119  0.5631  0.2358
 4097SOL    HW123927   3.239   3.122  13.097  0.1019  1.6913  1.6495
 4097SOL    HW223928   3.166   3.126  13.214  0.5604  0.0290  1.0030
 4098SOL     OW23929   2.033   1.491   2.720 -0.2695 -0.3644 -0.0469
 4098SOL    HW123930   2.065   1.499   2.810  0.6640 -0.5389 -0.3602
 4098SOL    HW223931   2.100   1.439   2.675  0.2273  0.2037  0.0272
 4099SOL     OW23932   2.635   2.715   4.493  0.3013  0.1458  0.0343
 4099SOL    HW123933   2.658   2.622   4.490  2.8775  0.8248 -1.4656
 4099SOL    HW223934   2.638   2.734   4.587  3.4011 -3.4819  0.7022
 4100SOL     OW23935   2.949   3.815  15.885 -0.3141 -0.5917  0.3419
 4100SOL    HW123936   2.898   3.808  15.805  0.8279 -0.7410 -0.3757
 4100SOL    HW223937   3.036   3.783  15.862 -0.6513 -1.5202  0.3829
 4101SOL     OW23938   0.554   1.691   1.822 -0.6111  0.1801 -0.3837
 4101SOL    HW123939   0.555   1.605   1.780 -0.7087 -0.5988  1.2170
 4101SOL    HW223940   0.645   1.720   1.818 -0.0151 -1.5346  0.5219
 4102SOL     OW23941   1.059   2.870   0.475 -0.3609  0.1728 -0.2699
 4102SOL    HW123942   1.125   2.939   0.465 -0.0641  0.2800  2.4413
 4102SOL    HW223943   1.110   2.793   0.447 -0.5689  0.4355 -1.3878
 4103SOL     OW23944   0.482   0.283   4.413  0.3421  0.0900  0.4360
 4103SOL    HW123945   0.486   0.188   4.408 -0.7043 -0.1379  3.8411
 4103SOL    HW223946   0.402   0.298   4.363 -0.3383  0.0285  1.4930
 4104SOL     OW23947   4.205   4.137  16.412 -0.4479 -0.1763  0.0531
 4104SOL    HW123948   4.230   4.178  16.329  1.1763 -2.1136 -0.4119
 4104SOL    HW223949   4.149   4.204  16.452 -2.2039 -1.5524 -0.0939
 4105SOL     OW23950   3.176   2.334   3.631  0.5450 -0.5400  0.0227
 4105SOL    HW123951   3.245   2.286   3.678 -0.4528  1.8998  3.9917
 4105SOL    HW223952   3.210   2.333   3.541  0.9748 -2.4908  0.2118
 4106SOL     OW23953   4.240   4.342   6.476 -0.2766  0.6822  0.8143
 4106SOL    HW123954   4.161   4.397   6.477 -0.0449  1.0035  1.5247
 4106SOL    HW223955   4.248   4.300   6.561 -3.5210  0.2006  0.8912
 4107SOL     OW23956   4.147   4.701   6.567  0.0808  0.6677  0.4195
 4107SOL    HW123957   4.082   4.640   6.533 -0.3488 -0.9753  4.2304
 4107SOL    HW223958   4.166   0.005   6.483 -0.0012 -0.3063 -0.0834
 4108SOL     OW23959   3.388   4.582   8.944  0.3232  0.6653 -0.1554
 4108SOL    HW123960   3.374   4.490   8.964 -0.4227  0.6929 -0.5551
 4108SOL    HW223961   3.474   4.603   8.979 -0.0554  0.7147  0.7655
 4109SOL     OW23962   1.573   4.076  11.919 -0.4476 -0.4963  0.2976
 4109SOL    HW123963   1.486   4.041  11.939  0.1640 -2.8475 -1.1477
 4109SOL    HW223964   1.553   4.167  11.900 -2.0796 -0.6544  1.2258
 4110SOL     OW23965   2.159   3.755  10.853 -0.0116 -0.0526  0.1117
 4110SOL    HW123966   2.181   3.787  10.941  2.3201  0.4742 -0.6428
 4110SOL    HW223967   2.166   3.660  10.855 -0.4113 -0.1041 -1.0660
 4111SOL     OW23968   0.380   1.761   8.671  0.4318 -0.2139  0.2059
 4111SOL    HW123969   0.353   1.683   8.720  0.8439  0.1494  1.0026
 4111SOL    HW223970   0.363   1.731   8.582 -2.8121  1.9106  0.1143
 4112SOL     OW23971   1.051   0.693   4.567  0.0557 -0.9465 -1.2067
 4112SOL    HW123972   1.024   0.674   4.657 -1.4805  3.0083 -0.8322
 4112SOL    HW223973   0.970   0.676   4.518  0.6815 -3.1791 -1.4521
 4113SOL     OW23974   0.797   2.558   6.791 -0.2850  0.4788 -0.0138
 4113SOL    HW123975   0.772   2.472   6.826  0.0583  0.4142  0.0750
 4113SOL    HW223976   0.892   2.543   6.786 -0.2593  1.0986 -1.4985
 4114SOL     OW23977   3.846   1.826   2.362  0.0100 -0.1059  0.0744
 4114SOL    HW123978   3.918   1.766   2.383 -0.4526 -0.3175  1.0440
 4114SOL    HW223979   3.843   1.818   2.267 -0.0541  0.0602  0.0624
 4115SOL     OW23980   4.512   3.474   2.228 -0.3491 -0.0779 -0.1353
 4115SOL    HW123981   4.466   3.535   2.286  1.3288  1.4512 -0.4346
 4115SOL    HW223982   4.600   3.511   2.226 -1.0539  1.5665 -0.5301
 4116SOL     OW23983   0.585   4.356   1.383 -0.0608  0.3515  0.3266
 4116SOL    HW123984   0.646   4.398   1.322  1.1912 -0.5364  0.9594
 4116SOL    HW223985   0.626   4.379   1.467  2.8366  1.0916 -1.2727
 4117SOL     OW23986   0.595   2.528  12.035 -0.4583 -0.4707 -0.3040
 4117SOL    HW123987   0.616   2.513  12.127  1.3728  1.0518 -0.4705
 4117SOL    HW223988   0.512   2.576  12.044  0.7093  1.4809  0.1687
 4118SOL     OW23989   0.365   2.871   4.348  0.1358 -0.3759 -0.2952
 4118SOL    HW123990   0.461   2.880   4.348  0.3654 -2.8163  0.1731
 4118SOL    HW223991   0.350   2.852   4.255  3.6079 -1.0073 -0.7290
 4119SOL     OW23992   3.420   1.979   6.350 -0.5778  0.6573 -0.3662
 4119SOL    HW123993   3.484   1.994   6.419 -0.6307 -1.0210  0.0347
 4119SOL    HW223994   3.401   1.885   6.355  0.0155  0.5548 -0.0844
 4120SOL     OW23995   3.175   3.117  16.411  0.6627 -0.6530 -0.6423
 4120SOL    HW123996   3.180   3.212  16.411  1.2973 -0.6921  1.9363
 4120SOL    HW223997   3.105   3.107  16.347  0.6046 -2.4570 -0.2954
 4121SOL     OW23998   1.193   3.277   0.977 -0.0227  0.3351 -0.1514
 4121SOL    HW123999   1.272   3.224   0.965 -0.4883 -0.1043 -1.2277
 4121SOL    HW224000   1.123   3.239   0.924 -2.1517  2.1308  1.3490
 4122SOL     OW24001   0.699   1.995   3.508 -0.1546  0.0021  0.1122
 4122SOL    HW124002   0.613   2.035   3.496 -0.8423 -1.0512  1.4031
 4122SOL    HW224003   0.757   2.071   3.506 -0.9305  0.6706  2.5977
 4123SOL     OW24004   0.525   3.586   7.974  0.0793  0.4294 -0.0545
 4123SOL    HW124005   0.526   3.681   7.984  1.5109  0.7404 -3.4195
 4123SOL    HW224006   0.620   3.576   7.971  0.2052  1.9768 -1.1230
 4124SOL     OW24007   4.439   1.101   8.279 -0.9156  0.0505  0.0635
 4124SOL    HW124008   4.509   1.122   8.341 -1.6586 -1.0905  1.2800
 4124SOL    HW224009   4.471   1.016   8.250  1.3819  1.1893 -0.7792
 4125SOL     OW24010   0.114   0.210   4.654 -0.3810 -0.0068  0.4050
 4125SOL    HW124011   0.060   0.264   4.711 -2.2161 -2.6820  1.2015
 4125SOL    HW224012   0.183   0.275   4.644  0.0552 -0.8207 -1.8624
 4126SOL     OW24013   3.765   3.480   0.326  0.6648 -0.3069 -0.5332
 4126SOL    HW124014   3.845   3.521   0.296  1.4205 -1.9842 -0.7969
 4126SOL    HW224015   3.810   3.409   0.372 -0.7208 -0.7596  0.1351
 4127SOL     OW24016   4.632   3.545  16.555 -0.2320  0.3009 -0.8834
 4127SOL    HW124017   4.586   3.620  16.590 -0.1764 -0.1359  0.1231
 4127SOL    HW224018   4.574   3.471  16.575  1.5706 -1.3582 -1.7195
 4128SOL     OW24019   4.484   1.835   6.912  0.4741 -0.4757  0.1438
 4128SOL    HW124020   4.496   1.795   6.826  0.2444  0.5929 -0.3928
 4128SOL    HW224021   4.544   1.782   6.964 -0.7281 -0.0493  1.9536
 4129SOL     OW24022   3.302   0.640   3.768 -0.2211  0.0224 -0.2442
 4129SOL    HW124023   3.383   0.651   3.819 -0.4555  1.0720 -0.1085
 4129SOL    HW224024   3.331   0.630   3.677  1.7785 -0.0177  0.3902
 4130SOL     OW24025   3.917   0.331  17.165 -0.1816 -0.1488 -0.6889
 4130SOL    HW124026   3.891   0.416  17.201  0.0031 -1.3570  2.3167
 4130SOL    HW224027   3.912   0.350  17.072  0.3062 -0.9066 -0.8704
 4131SOL     OW24028   1.220   3.237   6.772  0.3784 -0.1425  0.4199
 4131SOL    HW124029   1.306   3.221   6.733  0.7998  1.3767  0.7539
 4131SOL    HW224030   1.157   3.207   6.706  1.6841 -1.8027 -0.0818
 4132SOL     OW24031   0.049   3.736   3.197 -0.7100 -0.0313  0.1887
 4132SOL    HW124032   0.041   3.691   3.113  0.3181  0.0598  0.0373
 4132SOL    HW224033   0.053   3.827   3.167  0.4302  0.0101  0.4516
 4133SOL     OW24034   4.734   3.620   2.137 -0.5598 -0.5417  0.8516
 4133SOL    HW124035   0.048   3.691   2.100 -1.3306  0.1729  1.1366
 4133SOL    HW224036   0.006   3.547   2.076  3.0309 -1.4806  2.5651
 4134SOL     OW24037   3.307   3.387   8.244 -0.1205 -0.2791  0.0599
 4134SOL    HW124038   3.256   3.467   8.253 -0.8292 -0.6677 -0.5432
 4134SOL    HW224039   3.391   3.426   8.269 -0.6089  0.6748  0.2135
 4135SOL     OW24040   1.131   1.789  11.750 -0.7269  0.2420 -0.1966
 4135SOL    HW124041   1.125   1.701  11.788 -4.0084  1.2384  1.5763
 4135SOL    HW224042   1.188   1.779  11.673  1.6224  1.3647  1.3973
 4136SOL     OW24043   0.562   4.266   5.335 -0.1345  0.0808  0.2995
 4136SOL    HW124044   0.545   4.358   5.315 -1.2639 -0.2805 -0.4260
 4136SOL    HW224045   0.605   4.279   5.419  0.0883  1.3005 -0.0076
 4137SOL     OW24046   1.178   3.548  12.429 -0.2905 -0.4272  0.0013
 4137SOL    HW124047   1.090   3.579  12.407 -0.2108  0.0486  0.3586
 4137SOL    HW224048   1.175   3.462  12.386 -0.6664 -0.3643 -0.0996
 4138SOL     OW24049   3.481   1.768   7.328 -0.2992 -0.1596 -0.3551
 4138SOL    HW124050   3.518   1.826   7.394 -0.0515 -0.7103 -0.0037
 4138SOL    HW224051   3.496   1.824   7.252 -0.7613 -0.9002 -0.9972
 4139SOL     OW24052   3.841   3.967   9.231  0.1401  0.3489  0.2866
 4139SOL    HW124053   3.779   3.952   9.303  2.6567 -0.9730  2.1933
 4139SOL    HW224054   3.888   4.039   9.273 -0.4560 -1.0594  3.4252
 4140SOL     OW24055   4.505   3.117   3.661 -0.1106  0.4450 -0.2233
 4140SOL    HW124056   4.571   3.051   3.683 -1.5227 -0.4980  1.2126
 4140SOL    HW224057   4.541   3.189   3.714 -0.5013  1.1301 -0.8847
 4141SOL     OW24058   0.073   4.146   0.975  0.0632  0.1905  0.1077
 4141SOL    HW124059   4.733   4.192   1.005  0.0065 -0.4745  0.9646
 4141SOL    HW224060   0.113   4.218   0.925 -0.9999 -0.6436 -1.9404
 4142SOL     OW24061   3.337   0.240   6.012  0.7107  0.6625 -0.1151
 4142SOL    HW124062   3.285   0.314   5.980  0.3496  0.3340 -0.2899
 4142SOL    HW224063   3.271   0.183   6.052  0.0855 -0.4623 -2.7508
 4143SOL     OW24064   1.241   0.336   5.033 -0.2374  0.2179 -0.4112
 4143SOL    HW124065   1.323   0.303   5.071 -1.1295 -1.6952 -0.1558
 4143SOL    HW224066   1.208   0.406   5.089  2.2786  0.2546  1.0134
 4144SOL     OW24067   1.137   1.808   6.184 -0.0378 -0.5470  0.1888
 4144SOL    HW124068   1.174   1.794   6.271  0.1171  1.0446  0.3706
 4144SOL    HW224069   1.057   1.758   6.194 -1.0464  1.2888  1.2198
 4145SOL     OW24070   0.200   4.088  17.275  0.0616 -0.3105  0.4274
 4145SOL    HW124071   0.211   4.049  17.188  2.2285 -0.1357  0.6088
 4145SOL    HW224072   0.179   4.177  17.247  0.4781 -0.7471 -1.2820
 4146SOL     OW24073   3.423   2.962   1.488 -0.6904  0.2331  0.6046
 4146SOL    HW124074   3.331   2.955   1.461  0.2131 -1.2405 -2.1054
 4146SOL    HW224075   3.420   3.036   1.548 -1.0768  0.5219  0.2324
 4147SOL     OW24076   0.583   3.267  17.265  0.1657  0.5550  0.1343
 4147SOL    HW124077   0.620   3.229  17.345  0.4904 -0.4616 -0.5016
 4147SOL    HW224078   0.651   3.251  17.199  0.7546 -0.2663  0.9455
 4148SOL     OW24079   4.553   2.393  11.299 -0.3125 -0.1030  0.4019
 4148SOL    HW124080   4.537   2.395  11.205 -1.8591  0.3571  0.6831
 4148SOL    HW224081   4.536   2.300  11.311 -0.5713 -0.4254 -2.5628
 4149SOL     OW24082   0.230   3.712   7.385  0.2524 -0.6762  0.1679
 4149SOL    HW124083   0.281   3.687   7.307 -0.6045  0.4413 -0.7582
 4149SOL    HW224084   0.198   3.632   7.425  0.1658 -0.4423  0.5679
 4150SOL     OW24085   1.623   2.737   4.258 -0.0257 -0.5636 -0.2655
 4150SOL    HW124086   1.629   2.691   4.342 -0.8136  2.8706  1.6369
 4150SOL    HW224087   1.552   2.689   4.216 -3.1338  1.2101  3.0122
 4151SOL     OW24088   4.704   2.700   8.465  0.3411  0.2572  0.5323
 4151SOL    HW124089   4.719   2.772   8.404 -0.5927  0.7637  0.9023
 4151SOL    HW224090   4.730   2.739   8.548 -0.0722  0.9026  0.3574
 4152SOL     OW24091   3.424   0.441   2.380 -0.0394  0.0273  0.0846
 4152SOL    HW124092   3.337   0.445   2.420  0.5075  1.2242  1.1509
 4152SOL    HW224093   3.477   0.437   2.460  0.2610 -0.0674 -0.1207
 4153SOL     OW24094   3.601   3.318   4.503  0.3598  0.1092  0.0533
 4153SOL    HW124095   3.595   3.388   4.437 -1.2728  0.7337  0.8839
 4153SOL    HW224096   3.516   3.277   4.494  0.7224 -0.5839 -0.1957
 4154SOL     OW24097   4.490   4.572   6.881  0.0616  0.4698  0.1585
 4154SOL    HW124098   4.456   4.541   6.965 -1.5217 -0.6299 -0.8841
 4154SOL    HW224099   4.570   4.615   6.913  1.3506 -0.4253 -1.8666
 4155SOL     OW24100   1.231   1.866   4.793  0.2194  0.5223  0.0886
 4155SOL    HW124101   1.178   1.933   4.835  2.1048  1.7430  0.5197
 4155SOL    HW224102   1.166   1.824   4.736 -1.5806  1.8355  1.1696
 4156SOL     OW24103   0.750   0.589   4.856 -0.3946 -0.1188 -0.1710
 4156SOL    HW124104   0.702   0.558   4.933  0.1897 -2.2480 -0.6728
 4156SOL    HW224105   0.800   0.512   4.829  0.3559  0.2251  0.2574
 4157SOL     OW24106   4.576   4.331   3.947  0.1005  0.3789  0.6345
 4157SOL    HW124107   4.504   4.310   3.887  0.2819  0.7934  0.2776
 4157SOL    HW224108   4.531   4.362   4.026  0.8791 -1.2602  1.7392
 4158SOL     OW24109   2.999   2.032  13.848 -0.4602 -0.2762  0.4251
 4158SOL    HW124110   3.057   2.075  13.786  0.3963 -1.5803  0.3211
 4158SOL    HW224111   2.931   1.991  13.795 -1.2789  1.5652  0.0546
 4159SOL     OW24112   2.852   1.425   5.857  0.1510  0.3463  0.4510
 4159SOL    HW124113   2.825   1.491   5.922  1.8514 -1.1236  2.6718
 4159SOL    HW224114   2.869   1.350   5.914 -3.6696  0.1329  1.3415
 4160SOL     OW24115   1.057   2.618   6.894 -0.4383 -0.1930  0.2916
 4160SOL    HW124116   0.995   2.689   6.907 -1.8035 -1.3451  0.0649
 4160SOL    HW224117   1.084   2.644   6.806  2.3839  0.2043  1.2583
 4161SOL     OW24118   4.237   4.539   3.666  0.3971  0.7265 -0.4885
 4161SOL    HW124119   4.225   4.617   3.611 -3.2616  0.1757 -0.4646
 4161SOL    HW224120   4.197   4.562   3.750  1.4971  0.2180  0.1793
 4162SOL     OW24121   3.740   0.580   2.804  0.2587  0.2203 -0.3627
 4162SOL    HW124122   3.733   0.502   2.860 -1.6173  1.1215  0.6490
 4162SOL    HW224123   3.691   0.546   2.730  0.6611  1.2810 -1.1184
 4163SOL     OW24124   0.619   1.286  11.027 -0.1118  0.1247 -0.5744
 4163SOL    HW124125   0.585   1.199  11.006  1.2293 -0.6425  0.4319
 4163SOL    HW224126   0.664   1.302  10.944 -0.9216  0.7765 -0.8889
 4164SOL     OW24127   0.916   3.039   3.170  0.0776 -0.3571 -0.2434
 4164SOL    HW124128   0.936   3.049   3.077  0.8122 -0.4155 -0.0891
 4164SOL    HW224129   0.874   2.954   3.161  0.4490 -0.3373 -2.1526
 4165SOL     OW24130   1.555   4.269   2.313 -0.4067  0.0352 -0.3339
 4165SOL    HW124131   1.532   4.338   2.251  2.8921  1.2374 -0.1996
 4165SOL    HW224132   1.620   4.221   2.262 -0.2756 -0.6584  0.4822
 4166SOL     OW24133   4.085   2.194   8.185  0.1465 -0.0952  0.0540
 4166SOL    HW124134   4.061   2.152   8.268  1.4425  0.8924  0.9277
 4166SOL    HW224135   4.180   2.194   8.187  0.0864 -1.2380  3.0749
 4167SOL     OW24136   3.101   3.407  15.950  0.0942 -0.2187 -0.1578
 4167SOL    HW124137   3.164   3.337  15.963  0.3697 -0.1076 -0.8866
 4167SOL    HW224138   3.110   3.429  15.857  0.2163 -1.4951 -0.4383
 4168SOL     OW24139   4.029   1.814   5.487 -0.3687  0.3017  0.2851
 4168SOL    HW124140   4.072   1.899   5.492  1.3957 -0.5606 -0.2126
 4168SOL    HW224141   3.936   1.836   5.479 -1.3939 -4.1400  0.0666
 4169SOL     OW24142   4.216   0.127  15.011 -0.1239  0.3310 -0.6052
 4169SOL    HW124143   4.123   0.118  15.035  1.2663 -0.1997  4.6723
 4169SOL    HW224144   4.259   0.139  15.096 -0.3830  1.0739 -0.5733
 4170SOL     OW24145   2.697   2.446   4.506 -0.6344 -0.4943 -0.1754
 4170SOL    HW124146   2.711   2.386   4.432 -1.1814 -2.0721  0.9804
 4170SOL    HW224147   2.615   2.401   4.527 -0.2101  0.5421  3.6649
 4171SOL     OW24148   3.707   1.984   2.864 -0.0500 -0.3786  0.1124
 4171SOL    HW124149   3.720   1.970   2.771 -1.3305  1.5820 -0.3600
 4171SOL    HW224150   3.621   2.026   2.869 -0.9039 -2.3380  1.8707
 4172SOL     OW24151   3.002   2.194  14.064  0.5377  0.5460  0.5554
 4172SOL    HW124152   3.023   2.121  14.006 -2.4915 -0.7278  1.0703
 4172SOL    HW224153   3.013   2.266  14.002 -0.3968  0.8684  0.7755
 4173SOL     OW24154   4.363   3.359   9.556 -0.1082  0.4072  0.6533
 4173SOL    HW124155   4.450   3.371   9.518 -0.2450  0.5809  0.3995
 4173SOL    HW224156   4.383   3.288   9.617 -4.2516 -1.6143 -0.3067
 4174SOL     OW24157   2.524   3.313  13.467  0.0723  0.2244 -0.2749
 4174SOL    HW124158   2.588   3.338  13.400 -2.2973 -0.1097 -2.6768
 4174SOL    HW224159   2.524   3.218  13.469  0.6316  0.2083 -1.1038
 4175SOL     OW24160   4.702   3.586   9.150 -0.3393  0.1175  0.0326
 4175SOL    HW124161   4.642   3.640   9.202  1.0932  0.4316  1.3445
 4175SOL    HW224162   0.037   3.594   9.210 -0.2658  1.1695 -0.1864
 4176SOL     OW24163   4.512   2.724   9.007 -0.3446 -0.4022  0.0252
 4176SOL    HW124164   4.544   2.814   9.019 -0.7344 -0.4235  1.2357
 4176SOL    HW224165   4.440   2.728   8.944  0.1692  1.0607 -0.4624
 4177SOL     OW24166   3.797   4.062   4.049 -0.2541  0.1869 -0.2433
 4177SOL    HW124167   3.757   3.994   4.103 -0.5686 -0.5974 -1.4619
 4177SOL    HW224168   3.730   4.085   3.985  0.6993 -0.6684 -1.5765
 4178SOL     OW24169   1.476   2.473  14.742  0.3005 -0.0363  1.0240
 4178SOL    HW124170   1.545   2.407  14.737 -0.7780 -0.9687 -1.1786
 4178SOL    HW224171   1.474   2.501  14.834  1.5564  1.2585  0.6604
 4179SOL     OW24172   4.554   1.761   3.202  0.0196 -0.1926 -0.0510
 4179SOL    HW124173   4.585   1.691   3.260 -0.9685 -0.1281  0.5422
 4179SOL    HW224174   4.475   1.714   3.174  0.1797  0.1059 -1.0246
 4180SOL     OW24175   4.268   1.263   7.662 -0.1324 -0.2251 -0.0251
 4180SOL    HW124176   4.246   1.185   7.612  0.0833  0.1833 -0.7690
 4180SOL    HW224177   4.215   1.330   7.620  1.2465  0.8269 -0.1085
 4181SOL     OW24178   1.677   0.108  14.696 -0.3127 -0.1044  0.2957
 4181SOL    HW124179   1.695   0.195  14.660 -0.3042 -0.7483 -1.2697
 4181SOL    HW224180   1.623   0.072  14.625 -0.4346  0.7230 -0.0441
 4182SOL     OW24181   0.269   1.008  12.548 -0.6194  0.1676 -0.3212
 4182SOL    HW124182   0.189   1.008  12.601 -0.2828 -0.6215  0.1817
 4182SOL    HW224183   0.257   1.087  12.496  1.1285  0.8554  0.3243
 4183SOL     OW24184   0.500   3.499  11.767 -0.7371 -0.4190 -0.0421
 4183SOL    HW124185   0.550   3.483  11.847 -0.5757  1.0149  0.1329
 4183SOL    HW224186   0.472   3.590  11.767 -2.1675 -0.8638 -0.1063
 4184SOL     OW24187   3.075   2.410   8.600  0.1168 -0.3391  0.7393
 4184SOL    HW124188   3.005   2.418   8.535  0.6284 -2.3945 -0.0601
 4184SOL    HW224189   3.125   2.487   8.573  1.2277 -1.1920  0.3660
 4185SOL     OW24190   3.539   1.101   3.512 -0.1640 -0.0979 -0.7439
 4185SOL    HW124191   3.465   1.042   3.496 -0.5305  0.5281 -1.4099
 4185SOL    HW224192   3.505   1.183   3.475 -0.4993  0.0518 -0.1040
 4186SOL     OW24193   3.674   0.259   3.604  0.0236  0.3931  0.3126
 4186SOL    HW124194   3.769   0.256   3.606  0.0562  1.3504  0.1112
 4186SOL    HW224195   3.653   0.232   3.694  1.9175 -1.9202  0.0599
 4187SOL     OW24196   3.932   1.208   5.207  0.4321 -0.6846 -0.2263
 4187SOL    HW124197   3.872   1.168   5.269  1.5282  0.8336  1.8327
 4187SOL    HW224198   4.012   1.159   5.227  0.7724  0.2785  0.7471
 4188SOL     OW24199   3.119   3.289  13.280 -0.7869 -0.3243  0.2759
 4188SOL    HW124200   3.185   3.344  13.321 -0.0802  0.7098 -2.2204
 4188SOL    HW224201   3.072   3.361  13.238  2.3325  0.1116 -2.4554
 4189SOL     OW24202   0.291   4.337   7.756  0.0772 -0.3372  0.4729
 4189SOL    HW124203   0.246   4.254   7.738 -1.2238  0.9104 -1.9527
 4189SOL    HW224204   0.291   4.380   7.671  3.5880 -1.3163 -0.0438
 4190SOL     OW24205   4.201   3.878  16.267 -0.6157 -0.7638 -0.0360
 4190SOL    HW124206   4.134   3.891  16.200  0.1275  0.6574 -0.5058
 4190SOL    HW224207   4.166   3.934  16.337  1.1546 -0.7933  0.8708
 4191SOL     OW24208   3.550   0.996  16.659 -0.0311  0.2086  0.9275
 4191SOL    HW124209   3.558   0.902  16.675 -1.7000  0.2848  2.1895
 4191SOL    HW224210   3.640   1.018  16.635 -0.2967  0.7115  0.3849
 4192SOL     OW24211   3.753   0.404  16.679 -0.1668  0.3083  0.0571
 4192SOL    HW124212   3.774   0.475  16.618  2.6647 -0.8063 -0.2490
 4192SOL    HW224213   3.705   0.344  16.621  0.0990  1.9917 -1.9018
 4193SOL     OW24214   0.961   2.970   3.507 -0.6043 -0.5002 -0.2823
 4193SOL    HW124215   0.873   3.002   3.485 -0.8278 -0.5408  0.5458
 4193SOL    HW224216   0.977   2.918   3.429  0.8308 -1.5703  0.7233
 4194SOL     OW24217   4.186   4.515  13.762  0.0851  0.4820  0.2677
 4194SOL    HW124218   4.148   4.602  13.755 -0.4920  0.3367  1.7144
 4194SOL    HW224219   4.113   4.457  13.738 -0.0911  0.1660  1.5511
 4195SOL     OW24220   1.262   1.110   4.436 -0.2102  0.1280 -0.0940
 4195SOL    HW124221   1.335   1.079   4.384  0.3630  1.4255 -0.0771
 4195SOL    HW224222   1.290   1.198   4.464 -1.4485  0.7715 -0.8862
 4196SOL     OW24223   1.731   4.010   1.138  0.2937  0.2809 -0.2305
 4196SOL    HW124224   1.788   4.086   1.146 -0.0725  0.3429  1.8595
 4196SOL    HW224225   1.649   4.050   1.108  0.4156 -0.0816 -1.0353
 4197SOL     OW24226   0.131   3.119   3.644  0.3150  0.4596 -0.3594
 4197SOL    HW124227   0.110   3.207   3.612  2.3866  0.4006 -1.8803
 4197SOL    HW224228   0.172   3.084   3.565 -1.6009  1.2738 -1.7369
 4198SOL     OW24229   1.569   3.440   3.695 -0.7598  0.1936  0.9230
 4198SOL    HW124230   1.487   3.405   3.658  0.3557 -1.5768  0.1245
 4198SOL    HW224231   1.621   3.360   3.705 -1.1245 -0.3531 -1.3928
 4199SOL     OW24232   0.815   4.176   0.625  0.5833  0.0844 -0.2021
 4199SOL    HW124233   0.882   4.109   0.645 -0.1618 -0.2961  1.0038
 4199SOL    HW224234   0.864   4.256   0.607 -2.9703  1.7168 -2.3878
 4200SOL     OW24235   2.455   3.304   8.048 -0.5699  0.2332 -0.2667
 4200SOL    HW124236   2.505   3.326   7.970 -0.1005 -2.9671 -0.8886
 4200SOL    HW224237   2.466   3.209   8.049  1.8173  0.5651  2.2737
 4201SOL     OW24238   0.514   0.521  14.314 -0.4860 -0.4347  0.1431
 4201SOL    HW124239   0.597   0.490  14.277 -1.1378  0.3778 -2.0302
 4201SOL    HW224240   0.519   0.490  14.404 -0.1913  2.5036  1.1114
 4202SOL     OW24241   1.464   3.604   6.261  0.1055 -0.0898 -0.6836
 4202SOL    HW124242   1.544   3.562   6.292 -1.6296 -2.8149  0.1373
 4202SOL    HW224243   1.420   3.530   6.218  1.1930  0.1573 -2.2151
 4203SOL     OW24244   2.509   2.493   2.535 -0.6369  0.0907  0.5475
 4203SOL    HW124245   2.465   2.556   2.592 -2.9033 -0.0239 -1.0889
 4203SOL    HW224246   2.578   2.466   2.596  0.0758  1.3459  0.3050
 4204SOL     OW24247   3.972   1.510  14.488  0.0396  0.2112 -0.1486
 4204SOL    HW124248   4.057   1.488  14.525  0.2639  0.7030 -0.3735
 4204SOL    HW224249   3.915   1.490  14.562 -0.5855 -1.8734 -1.1831
 4205SOL     OW24250   2.921   2.594   1.238 -0.1535 -0.4530  0.2559
 4205SOL    HW124251   2.946   2.626   1.152 -2.8637 -1.1662 -0.8000
 4205SOL    HW224252   2.964   2.508   1.231  0.7729 -0.0633  1.1837
 4206SOL     OW24253   4.713   0.676   5.198 -0.3869 -0.4253  0.4299
 4206SOL    HW124254   4.662   0.675   5.279  1.0357  0.1924  1.3524
 4206SOL    HW224255   4.718   0.581   5.188  2.5778 -0.3288  0.9441
 4207SOL     OW24256   4.030   2.943   7.944 -0.3020 -0.3009 -0.2133
 4207SOL    HW124257   4.085   2.865   7.935 -1.1565 -1.0862  1.3722
 4207SOL    HW224258   4.016   2.980   7.857 -0.6404  0.3817  0.1392
 4208SOL     OW24259   1.425   0.824   6.088  0.2940  1.0047 -0.7441
 4208SOL    HW124260   1.345   0.771   6.086  0.8570  0.0665  1.2457
 4208SOL    HW224261   1.402   0.903   6.039  0.6147  1.8048  0.4179
 4209SOL     OW24262   4.454   4.044  16.480 -0.5086 -0.1462 -0.4653
 4209SOL    HW124263   4.518   4.063  16.411  0.4772  0.3240  0.5860
 4209SOL    HW224264   4.370   4.073  16.444 -0.4543  0.4984 -0.0639
 4210SOL     OW24265   1.478   4.531   6.206 -0.2442  0.4159 -0.0055
 4210SOL    HW124266   1.407   4.582   6.245 -0.5370 -0.9054  1.1745
 4210SOL    HW224267   1.553   4.553   6.262  0.3061 -0.6797 -0.3079
 4211SOL     OW24268   3.840   4.738   1.238 -0.5937 -0.4058  0.3503
 4211SOL    HW124269   3.829   4.689   1.320  1.8932 -2.1118 -0.3455
 4211SOL    HW224270   3.934   0.018   1.235 -1.4222  3.6244 -0.7044
 4212SOL     OW24271   2.633   0.317  13.137  0.4187  0.2205 -0.2974
 4212SOL    HW124272   2.708   0.372  13.115  0.9011 -0.0453  0.6592
 4212SOL    HW224273   2.592   0.317  13.051 -1.6714  1.8991  0.6974
 4213SOL     OW24274   2.711   0.279   2.288  0.1907 -0.3522  0.2254
 4213SOL    HW124275   2.803   0.254   2.282 -0.0792 -0.5916 -3.3548
 4213SOL    HW224276   2.695   0.225   2.365 -1.3027  0.2266  0.3138
 4214SOL     OW24277   3.912   2.300   9.068  0.3489 -0.5066  0.2505
 4214SOL    HW124278   3.982   2.236   9.055  1.9905  1.2711  0.2589
 4214SOL    HW224279   3.839   2.265   9.017  1.7570  1.4097 -3.1543
 4215SOL     OW24280   2.102   2.198  17.321 -0.4853  0.4563  0.3067
 4215SOL    HW124281   2.179   2.141  17.312 -0.1142  1.2306 -1.3352
 4215SOL    HW224282   2.135   2.279  17.360  0.8262 -0.4530  1.1009
 4216SOL     OW24283   0.507   0.359   8.735 -0.1566 -0.1559 -0.1234
 4216SOL    HW124284   0.468   0.274   8.755  1.2385 -1.0001 -0.9458
 4216SOL    HW224285   0.595   0.339   8.767  0.1058 -1.4160 -1.6132
 4217SOL     OW24286   3.497   4.659   0.948 -0.2606  0.1305 -0.2269
 4217SOL    HW124287   3.495   4.680   1.041  2.3942  2.0322 -0.5983
 4217SOL    HW224288   3.568   4.715   0.916 -0.7603  1.2969  0.7031
 4218SOL     OW24289   1.961   4.598   2.788  0.0365  0.4614 -0.0945
 4218SOL    HW124290   1.963   4.579   2.694  3.3385  2.6477 -0.4575
 4218SOL    HW224291   1.885   4.544   2.811  0.7827 -0.6152 -0.1499
 4219SOL     OW24292   0.842   1.410   1.354 -0.6202 -0.2569  0.1564
 4219SOL    HW124293   0.861   1.320   1.380 -0.2654  0.2392  1.6569
 4219SOL    HW224294   0.747   1.414   1.370 -0.2843  3.0509  1.4961
 4220SOL     OW24295   1.051   3.486   9.227 -0.3450 -0.0017 -0.3715
 4220SOL    HW124296   0.999   3.490   9.307  0.8893  0.8924  0.3889
 4220SOL    HW224297   1.010   3.563   9.188  0.7891  0.1799 -1.2078
 4221SOL     OW24298   0.915   3.744   3.957 -0.9083 -0.2776  0.0215
 4221SOL    HW124299   0.864   3.680   3.908 -1.2401 -0.0430  0.0554
 4221SOL    HW224300   0.888   3.830   3.923  0.0179  0.9068  2.2661
 4222SOL     OW24301   2.839   1.209  13.185  0.8553 -0.5535  0.0291
 4222SOL    HW124302   2.916   1.256  13.154  0.0175  2.2222  2.1468
 4222SOL    HW224303   2.796   1.281  13.232  1.5670  0.5512 -1.0433
 4223SOL     OW24304   2.626   1.080   2.868 -0.0013  0.0428  0.0941
 4223SOL    HW124305   2.712   1.085   2.909  0.0090 -0.7696  0.1757
 4223SOL    HW224306   2.585   1.005   2.912  0.8842 -0.5655 -0.1208
 4224SOL     OW24307   2.945   1.508   5.020 -0.4504  0.3273  0.0572
 4224SOL    HW124308   3.023   1.453   5.031 -1.4758 -1.0722  0.2347
 4224SOL    HW224309   2.878   1.441   5.007 -1.8734  1.3036  2.3483
 4225SOL     OW24310   0.882   4.177   5.432  0.3730 -0.1505  0.3692
 4225SOL    HW124311   0.800   4.169   5.482  1.4115 -1.6413  1.8634
 4225SOL    HW224312   0.908   4.267   5.453  0.7990  0.0913 -1.2639
 4226SOL     OW24313   2.955   4.073   9.112 -0.0454  0.0748 -0.1247
 4226SOL    HW124314   3.031   4.058   9.168  0.1385  1.3249 -0.0249
 4226SOL    HW224315   2.998   4.074   9.026 -2.3485  2.8027 -1.2607
 4227SOL     OW24316   1.733   2.402  17.448 -0.6697 -0.0600 -0.0611
 4227SOL    HW124317   1.775   2.395  17.534  0.3335  1.2823 -0.4454
 4227SOL    HW224318   1.710   2.312  17.425  1.2408 -0.8342  1.0723
 4228SOL     OW24319   1.265   0.131  12.581 -0.0407 -0.4948  0.0928
 4228SOL    HW124320   1.222   0.107  12.499  0.0734  0.7411 -0.3276
 4228SOL    HW224321   1.325   0.058  12.598  1.3817  0.7491  0.4234
 4229SOL     OW24322   4.560   4.059  16.239  0.4541  0.2374 -0.3572
 4229SOL    HW124323   4.638   4.107  16.211  1.6848 -1.5749 -0.0383
 4229SOL    HW224324   4.587   3.967  16.239  2.0576  0.7109  2.0992
 4230SOL     OW24325   2.985   1.041  16.295  0.0063 -0.6370  0.6496
 4230SOL    HW124326   3.074   1.073  16.311  0.2849 -1.1154  0.0637
 4230SOL    HW224327   2.993   0.960  16.244 -0.7013  0.7721 -1.7125
 4231SOL     OW24328   1.382   1.485  15.416  0.3303 -0.1576  0.1346
 4231SOL    HW124329   1.356   1.462  15.327  1.0753  0.9235 -0.3627
 4231SOL    HW224330   1.434   1.407  15.433  0.8354  0.3152  0.7829
 4232SOL     OW24331   1.680   0.056  12.840  0.2342 -0.0222  0.1770
 4232SOL    HW124332   1.666   0.039  12.747 -3.8757  2.9147  0.2597
 4232SOL    HW224333   1.653   0.145  12.861  0.8310 -0.0896  1.2049
 4233SOL     OW24334   1.534   2.547   9.759 -0.1367 -0.3490  0.3131
 4233SOL    HW124335   1.613   2.496   9.773 -0.5833 -1.0983  0.1337
 4233SOL    HW224336   1.562   2.635   9.783  2.4051 -1.2410  0.6155
 4234SOL     OW24337   3.550   0.602  14.243 -0.5581 -0.3115 -0.2968
 4234SOL    HW124338   3.630   0.653  14.227 -1.0789  1.1613  1.7612
 4234SOL    HW224339   3.522   0.627  14.331 -0.4871 -0.6988 -0.1634
 4235SOL     OW24340   2.864   4.466  11.324  0.3415 -0.2072  0.3679
 4235SOL    HW124341   2.847   4.398  11.259 -1.2440  1.3622 -0.8751
 4235SOL    HW224342   2.950   4.437  11.356  0.5348 -0.1982 -0.1427
 4236SOL     OW24343   1.184   0.393  14.733  0.2815  0.4162 -0.3483
 4236SOL    HW124344   1.241   0.341  14.790  0.7591 -1.1659 -2.2862
 4236SOL    HW224345   1.110   0.335  14.717  0.8186 -1.5241  4.2540
 4237SOL     OW24346   1.870   2.154  17.157 -0.4891  0.5972 -0.2138
 4237SOL    HW124347   1.900   2.145  17.067 -1.9131  0.3593 -0.6625
 4237SOL    HW224348   1.944   2.198  17.199  1.2931 -0.2380 -2.4912
 4238SOL     OW24349   1.781   3.331   4.842 -0.2235 -0.4192  0.0473
 4238SOL    HW124350   1.799   3.243   4.811 -1.7483 -0.8960  0.5402
 4238SOL    HW224351   1.826   3.384   4.776  0.0499  0.5039  0.9718
 4239SOL     OW24352   2.165   1.484   4.733  0.4149  0.2708 -0.3504
 4239SOL    HW124353   2.098   1.534   4.779 -1.1949 -0.6612 -1.6772
 4239SOL    HW224354   2.162   1.391   4.754  2.4222  0.3227  0.2333
 4240SOL     OW24355   1.519   4.635  17.400  0.2517  0.3118  0.0402
 4240SOL    HW124356   1.595   4.591  17.362  0.4874 -2.1086  3.2839
 4240SOL    HW224357   1.480   4.571  17.460  0.0372  0.3788 -0.0280
 4241SOL     OW24358   3.329   1.382  11.555  0.1915 -0.4043  0.6642
 4241SOL    HW124359   3.239   1.396  11.524 -0.0602 -0.7996  1.2105
 4241SOL    HW224360   3.327   1.421  11.643  0.3117  0.2684  0.3650
 4242SOL     OW24361   0.664   3.751  16.963  0.4153 -0.0546  0.2132
 4242SOL    HW124362   0.654   3.829  17.018 -1.1277 -0.7449  0.9140
 4242SOL    HW224363   0.668   3.683  17.030 -1.3006  2.7193  3.1531
 4243SOL     OW24364   3.092   1.288   7.549  1.4082  0.2223 -0.2879
 4243SOL    HW124365   3.150   1.237   7.606 -0.7404  0.5921  2.2555
 4243SOL    HW224366   3.037   1.329   7.616  0.3558  2.1793 -2.3670
 4244SOL     OW24367   3.945   1.453   3.918  0.0149  0.9052 -0.2627
 4244SOL    HW124368   4.017   1.450   3.980 -0.3359 -0.0472  0.1004
 4244SOL    HW224369   3.976   1.405   3.841 -2.3541 -2.3279  0.7958
 4245SOL     OW24370   2.458   0.533  15.816 -0.1222 -0.1604 -0.6475
 4245SOL    HW124371   2.406   0.470  15.867 -0.8730  0.7439 -0.2733
 4245SOL    HW224372   2.474   0.601  15.882  0.9659 -2.0909  1.0870
 4246SOL     OW24373   0.039   2.303  15.042 -0.8405 -0.6143 -0.4305
 4246SOL    HW124374   0.008   2.394  15.041 -0.8478 -0.6156 -0.3292
 4246SOL    HW224375   0.108   2.304  15.108 -1.5827  0.4773  0.3228
 4247SOL     OW24376   2.429   4.149   8.006  0.0886 -0.2247  0.0965
 4247SOL    HW124377   2.471   4.099   8.077 -1.2586  1.4048  2.0435
 4247SOL    HW224378   2.356   4.180   8.059  0.9035  3.1496 -0.8110
 4248SOL     OW24379   3.345   2.195  11.840  0.2904  0.1382 -0.1130
 4248SOL    HW124380   3.423   2.216  11.892  0.3281 -3.2839  1.1940
 4248SOL    HW224381   3.361   2.101  11.833  1.4364  0.2081  1.3986
 4249SOL     OW24382   1.257   4.569   6.765 -0.0122  0.6883  1.2798
 4249SOL    HW124383   1.254   4.551   6.859  1.7790 -2.1249  0.7783
 4249SOL    HW224384   1.319   4.502   6.736 -1.1188  0.5548 -0.7636
 4250SOL     OW24385   2.811   0.850   7.992  0.2607 -0.3088 -0.0425
 4250SOL    HW124386   2.761   0.792   8.050 -1.2180  1.1283  0.1165
 4250SOL    HW224387   2.755   0.872   7.918  0.1972  0.1153  0.1332
 4251SOL     OW24388   1.089   4.416   8.434 -0.3057 -0.0776  0.1189
 4251SOL    HW124389   1.151   4.350   8.404 -0.5036 -0.2529  0.1054
 4251SOL    HW224390   1.055   4.375   8.513 -2.9118 -0.0452 -1.0048
 4252SOL     OW24391   4.603   0.075   5.796 -0.1462  0.2559 -0.6648
 4252SOL    HW124392   4.556   0.008   5.748 -1.8767  1.0931 -0.1121
 4252SOL    HW224393   4.592   0.036   5.883  0.9549  0.8460 -0.2435
 4253SOL     OW24394   1.781   2.481   9.818 -0.2624  0.0508  0.3835
 4253SOL    HW124395   1.832   2.489   9.738  0.0808 -1.8333  0.4160
 4253SOL    HW224396   1.835   2.528   9.881 -0.6930  0.1164  0.7058
 4254SOL     OW24397   3.368   3.672   7.005  0.9497 -0.2299 -0.4406
 4254SOL    HW124398   3.424   3.745   6.979  0.8917  0.0098  0.1015
 4254SOL    HW224399   3.434   3.603   7.000  0.2635 -1.0357  1.5975
 4255SOL     OW24400   3.120   0.222   1.880  0.0808  0.0021  0.2399
 4255SOL    HW124401   3.114   0.193   1.789  4.0280  0.2797 -0.1308
 4255SOL    HW224402   3.105   0.315   1.866 -0.1346  0.4083  3.2034
 4256SOL     OW24403   2.275   3.719   2.474  0.4832 -0.3757 -0.2084
 4256SOL    HW124404   2.319   3.796   2.509 -1.7703  0.1775  1.4665
 4256SOL    HW224405   2.184   3.732   2.502  0.4342 -0.8647 -0.1368
 4257SOL     OW24406   0.984   0.004   6.189  0.0356 -0.6162 -0.0320
 4257SOL    HW124407   0.960   0.093   6.214  1.4311 -0.3190  0.2367
 4257SOL    HW224408   1.053   0.036   6.131  0.7360 -0.0124  1.1380
 4258SOL     OW24409   2.131   0.640   5.337 -0.0369  0.5265 -0.5123
 4258SOL    HW124410   2.139   0.717   5.281 -1.8982  1.6241  0.7233
 4258SOL    HW224411   2.050   0.666   5.382  0.6640 -0.0834  1.0864
 4259SOL     OW24412   2.262   3.644  11.117  0.0970  0.0617  0.1363
 4259SOL    HW124413   2.182   3.593  11.111 -0.0657  0.5411 -1.7347
 4259SOL    HW224414   2.230   3.731  11.139  0.3320 -0.1871  1.4807
 4260SOL     OW24415   3.137   4.393  15.102  0.1592  0.4197 -0.2816
 4260SOL    HW124416   3.183   4.443  15.034  0.1208  1.2924  0.3282
 4260SOL    HW224417   3.111   4.463  15.163 -0.3445 -1.8837  2.1412
 4261SOL     OW24418   0.700   3.118  17.452  0.0311  0.0599  0.5507
 4261SOL    HW124419   0.777   3.115  17.509  1.4605  1.2750 -1.3358
 4261SOL    HW224420   0.671   3.027  17.452 -0.7545  0.3262 -1.1277
 4262SOL     OW24421   0.512   4.013   5.894  0.3192 -0.3214  0.3834
 4262SOL    HW124422   0.433   4.062   5.873  1.0159  0.5087 -0.2869
 4262SOL    HW224423   0.574   4.084   5.878 -3.6736  3.1349  0.1297
 4263SOL     OW24424   2.581   1.960  13.500 -0.3711 -0.3023 -1.0568
 4263SOL    HW124425   2.556   1.935  13.589  0.0300 -0.2189 -0.9207
 4263SOL    HW224426   2.527   2.038  13.488 -1.3441 -0.8233 -0.0516
 4264SOL     OW24427   2.105   1.810  13.819 -0.5819 -0.7891 -0.3029
 4264SOL    HW124428   2.022   1.857  13.825  0.6669  1.7043 -2.4094
 4264SOL    HW224429   2.166   1.879  13.846  0.2896 -0.8752 -2.0114
 4265SOL     OW24430   3.135   1.551   6.377 -0.0616 -0.0652  0.3641
 4265SOL    HW124431   3.085   1.511   6.448  1.8269 -0.7944  1.3014
 4265SOL    HW224432   3.135   1.644   6.400 -0.4517  0.3645 -1.4223
 4266SOL     OW24433   3.518   2.776   1.786 -0.2099  0.0135 -0.0993
 4266SOL    HW124434   3.462   2.844   1.747  0.3805 -0.0411 -1.0411
 4266SOL    HW224435   3.463   2.737   1.854 -0.7238  0.5165 -0.2255
 4267SOL     OW24436   0.181   2.208  12.669  0.3790  0.4003  0.0420
 4267SOL    HW124437   0.181   2.273  12.599  1.2919  0.2356 -0.1156
 4267SOL    HW224438   0.189   2.126  12.621 -0.3056  0.7270 -0.6380
 4268SOL     OW24439   1.881   4.063   4.559  0.1903  0.2328 -0.0852
 4268SOL    HW124440   1.792   4.080   4.527 -0.3639  2.4368  2.5779
 4268SOL    HW224441   1.865   4.024   4.644  1.9545  1.5982  0.8773
 4269SOL     OW24442   3.124   1.593  15.035  0.2273 -0.4798  0.3331
 4269SOL    HW124443   3.113   1.685  15.013  1.6098 -0.4801 -0.3294
 4269SOL    HW224444   3.136   1.589  15.130  1.9762  1.2559  0.1737
 4270SOL     OW24445   3.212   2.901  14.944 -0.0573  0.2202 -0.6311
 4270SOL    HW124446   3.126   2.872  14.913 -0.0182 -1.0788  0.4733
 4270SOL    HW224447   3.267   2.851  14.885  1.8552  1.0369  0.4679
 4271SOL     OW24448   3.440   0.879   8.127  0.1209  0.0917  0.2600
 4271SOL    HW124449   3.400   0.964   8.109  0.3206  0.8339  3.3176
 4271SOL    HW224450   3.449   0.844   8.038  0.2508  1.0714 -0.1060
 4272SOL     OW24451   3.381   0.661   8.321 -0.5873 -0.6011  0.0181
 4272SOL    HW124452   3.379   0.738   8.265  0.2109 -0.9594 -0.4987
 4272SOL    HW224453   3.418   0.697   8.402 -2.3061 -0.0825  0.5806
 4273SOL     OW24454   0.705   3.529   1.707  0.6135 -0.1913 -0.5489
 4273SOL    HW124455   0.688   3.549   1.615  0.6436 -1.5714 -0.8545
 4273SOL    HW224456   0.768   3.595   1.737 -0.2176  0.3204  0.0837
 4274SOL     OW24457   0.079   3.084   6.873 -0.6358 -0.6737 -0.8046
 4274SOL    HW124458   0.024   3.139   6.929  1.0884  2.0909 -1.8327
 4274SOL    HW224459   0.025   3.009   6.848 -0.0620 -1.3904  0.0675
 4275SOL     OW24460   2.340   3.122  13.286 -0.2081  0.0050  0.7274
 4275SOL    HW124461   2.294   3.140  13.368  0.0315 -0.3784  0.9466
 4275SOL    HW224462   2.327   3.211  13.253 -0.9474 -0.0319  0.9036
 4276SOL     OW24463   4.279   0.514   7.788 -1.0662  0.7669  0.1265
 4276SOL    HW124464   4.261   0.524   7.881 -1.0555 -0.8258  0.2981
 4276SOL    HW224465   4.374   0.508   7.777 -0.9972  0.7826  0.7315
 4277SOL     OW24466   4.160   1.007   5.517 -0.7432  0.3935 -0.3605
 4277SOL    HW124467   4.113   0.927   5.540  0.4793 -0.4709 -0.8365
 4277SOL    HW224468   4.129   1.021   5.428 -1.0055 -0.9011 -0.4796
 4278SOL     OW24469   1.179   0.400   5.915 -0.4066  0.0815  1.1693
 4278SOL    HW124470   1.091   0.434   5.902  0.3460  1.4394 -0.4554
 4278SOL    HW224471   1.210   0.388   5.825  1.5893  0.6732  1.7618
 4279SOL     OW24472   1.840   2.841   2.130 -0.5388  0.1739 -0.0309
 4279SOL    HW124473   1.884   2.843   2.215 -0.0806 -1.5626 -0.2344
 4279SOL    HW224474   1.748   2.827   2.154 -0.2597 -0.0308  0.9251
 4280SOL     OW24475   3.223   1.837  16.552  0.1136  0.2400  0.1259
 4280SOL    HW124476   3.134   1.870  16.562 -0.9570 -2.2307 -1.1370
 4280SOL    HW224477   3.208   1.749  16.586 -1.2450  0.5284  0.2611
 4281SOL     OW24478   2.712   2.071   2.383 -0.0239  1.1416 -0.0680
 4281SOL    HW124479   2.663   2.152   2.368 -0.9601  1.0225  2.2581
 4281SOL    HW224480   2.642   2.005   2.388  2.0716 -1.0177  0.6966
 4282SOL     OW24481   1.930   0.906  16.754 -0.1670 -0.1423  0.2085
 4282SOL    HW124482   1.945   0.812  16.746 -1.5389 -0.3726  0.2851
 4282SOL    HW224483   1.940   0.932  16.662 -1.7869 -0.2152  0.0076
 4283SOL     OW24484   1.179   2.839   7.317  0.2221 -0.1006 -0.2792
 4283SOL    HW124485   1.143   2.774   7.378  1.4094 -0.4315  0.0674
 4283SOL    HW224486   1.264   2.843   7.360  0.6336 -2.0260 -0.9086
 4284SOL     OW24487   3.231   2.607   6.948 -0.1234  0.1461  0.2265
 4284SOL    HW124488   3.157   2.665   6.938  0.4922  0.8644 -0.1475
 4284SOL    HW224489   3.273   2.639   7.028  2.2902  0.1441 -1.0286
 4285SOL     OW24490   3.910   4.453  13.746 -0.1854 -0.3456  0.6815
 4285SOL    HW124491   3.884   4.531  13.796 -2.6205  0.6484 -2.1193
 4285SOL    HW224492   3.828   4.426  13.706  0.2767 -0.7309  0.0036
 4286SOL     OW24493   2.134   3.907   8.166  0.2417 -0.0257  0.7186
 4286SOL    HW124494   2.064   3.843   8.155  1.0117 -1.3353  3.5041
 4286SOL    HW224495   2.203   3.842   8.171 -0.2860 -0.8890 -3.0015
 4287SOL     OW24496   1.267   1.279   5.524  0.0940 -0.1391  0.2818
 4287SOL    HW124497   1.336   1.270   5.589  1.3363 -0.4320 -1.0761
 4287SOL    HW224498   1.242   1.371   5.525  1.8836  0.3533 -0.7241
 4288SOL     OW24499   0.307   4.655   7.152 -0.4246  0.1383 -0.2646
 4288SOL    HW124500   0.386   4.706   7.166  0.2742 -0.3332 -2.3750
 4288SOL    HW224501   0.340   4.582   7.099 -0.7303 -1.4156  1.6771
 4289SOL     OW24502   3.750   1.873   2.049 -0.1222 -0.0358  0.2046
 4289SOL    HW124503   3.749   1.780   2.025 -1.9672 -0.5670  2.3119
 4289SOL    HW224504   3.655   1.880   2.056 -0.2160 -0.2254 -0.9238
 4290SOL     OW24505   4.270   4.047   2.569  0.1701 -0.0400  0.7695
 4290SOL    HW124506   4.281   4.128   2.620  0.2968 -0.5944  1.6367
 4290SOL    HW224507   4.257   3.977   2.633 -0.4916  1.1158  1.9110
 4291SOL     OW24508   1.538   1.538   4.347  0.1229 -0.0307 -0.3740
 4291SOL    HW124509   1.565   1.532   4.255  0.6389  0.5924 -0.2630
 4291SOL    HW224510   1.614   1.516   4.400  0.7066  0.9223 -0.8226
 4292SOL     OW24511   3.101   3.277   2.526  0.4407 -0.3881  0.3341
 4292SOL    HW124512   3.035   3.333   2.564  0.0758  0.4339 -1.5158
 4292SOL    HW224513   3.062   3.190   2.524  1.2467 -0.7907  1.7066
 4293SOL     OW24514   2.789   3.571   6.594 -0.1008 -0.3550 -0.4001
 4293SOL    HW124515   2.815   3.584   6.503 -0.2048  1.8286 -0.1018
 4293SOL    HW224516   2.693   3.579   6.594 -0.1921 -1.3259  0.2656
 4294SOL     OW24517   2.857   0.750  16.098  0.3054  0.5105 -0.5368
 4294SOL    HW124518   2.838   0.656  16.091 -0.7357  0.7831 -1.2721
 4294SOL    HW224519   2.945   0.748  16.135  1.1224  0.2924 -2.5012
 4295SOL     OW24520   1.380   3.960   8.994 -0.1584  0.2546  0.1555
 4295SOL    HW124521   1.389   3.901   9.069  0.9437  0.2656  0.0276
 4295SOL    HW224522   1.424   4.035   9.033 -1.2129  0.2309  1.3582
 4296SOL     OW24523   3.776   0.319   3.293 -0.2077  0.1605  0.6119
 4296SOL    HW124524   3.821   0.326   3.378 -0.0289 -1.0203  0.6201
 4296SOL    HW224525   3.755   0.407   3.263  1.5936  0.0650 -0.8976
 4297SOL     OW24526   2.163   0.442   7.839  0.4241  0.4490 -0.1070
 4297SOL    HW124527   2.082   0.484   7.812 -0.0836 -1.0764 -0.9960
 4297SOL    HW224528   2.200   0.506   7.899  0.7498 -1.3611  1.6404
 4298SOL     OW24529   1.705   2.820   6.609  0.0710  0.3773  0.0668
 4298SOL    HW124530   1.748   2.887   6.663  0.2990 -1.2337  1.9051
 4298SOL    HW224531   1.624   2.866   6.587 -0.0161  0.6806  1.0087
 4299SOL     OW24532   3.296   0.983   9.052  0.5684 -0.0336 -0.2989
 4299SOL    HW124533   3.225   1.044   9.034  1.0079  0.0448 -1.7698
 4299SOL    HW224534   3.302   0.995   9.147 -2.4489 -0.9869 -0.0066
 4300SOL     OW24535   2.855   1.709  17.630 -0.0970 -0.2658 -0.1350
 4300SOL    HW124536   2.925   1.718  17.695 -0.9442  2.2035  0.4261
 4300SOL    HW224537   2.812   1.794  17.636  0.2132 -0.0602 -0.9056
 4301SOL     OW24538   4.684   2.898   8.262 -0.6324 -0.3346 -0.7435
 4301SOL    HW124539   4.596   2.921   8.291 -0.4114 -1.7665  1.0670
 4301SOL    HW224540   4.676   2.901   8.167 -2.1177  2.2435 -0.5273
 4302SOL     OW24541   0.481   4.553   2.599  0.1464 -0.2534  0.8966
 4302SOL    HW124542   0.440   4.595   2.674 -1.6328  0.8415 -0.6915
 4302SOL    HW224543   0.564   4.533   2.643 -0.2357 -0.1928  1.6310
 4303SOL     OW24544   2.915   0.135   3.808 -0.2933  0.0331 -0.5162
 4303SOL    HW124545   2.900   0.052   3.762  2.1491 -1.6620  1.7017
 4303SOL    HW224546   3.002   0.122   3.847  0.1978  1.1160 -1.2455
 4304SOL     OW24547   0.479   1.115   2.807 -0.0189 -0.1005 -0.6257
 4304SOL    HW124548   0.572   1.134   2.795 -0.0158  0.9576  1.0992
 4304SOL    HW224549   0.438   1.193   2.769 -1.2441 -0.8070 -0.7788
 4305SOL     OW24550   3.565   3.982   5.700  0.2711 -0.1906 -0.6990
 4305SOL    HW124551   3.602   4.071   5.701 -1.4514  0.4971  1.1641
 4305SOL    HW224552   3.575   3.939   5.785  0.5036  0.7581 -0.2394
 4306SOL     OW24553   0.525   3.672   2.350  0.2469  0.1000  0.1470
 4306SOL    HW124554   0.520   3.577   2.358  0.8396  0.2000  1.7741
 4306SOL    HW224555   0.594   3.687   2.415 -0.0668 -1.4191  0.8256
 4307SOL     OW24556   0.521   3.279   7.865  0.2575  0.1371 -1.0490
 4307SOL    HW124557   0.517   3.358   7.812 -2.0067  0.6738 -0.0818
 4307SOL    HW224558   0.544   3.221   7.793 -0.3058 -2.1323  0.6213
 4308SOL     OW24559   2.141   2.527  14.286 -0.1303  0.0260 -0.1078
 4308SOL    HW124560   2.174   2.565  14.205 -1.5932  2.5452  0.4755
 4308SOL    HW224561   2.217   2.487  14.328 -1.1368 -1.0513  0.6838
 4309SOL     OW24562   4.181   1.537   4.540  0.1526  0.0762  0.0700
 4309SOL    HW124563   4.225   1.534   4.455 -0.2851 -1.1019 -0.1191
 4309SOL    HW224564   4.247   1.580   4.594 -2.1555  0.1525  2.7758
 4310SOL     OW24565   2.790   1.423  14.537  0.3809 -0.1808 -0.6115
 4310SOL    HW124566   2.789   1.470  14.454  0.9987 -0.7146 -0.9161
 4310SOL    HW224567   2.723   1.357  14.519 -1.5075  1.2047  1.2719
 4311SOL     OW24568   3.152   4.339  15.854  0.2098 -0.8503  0.0157
 4311SOL    HW124569   3.108   4.255  15.844  3.1684 -2.7037  2.3657
 4311SOL    HW224570   3.242   4.312  15.873  0.1695  0.1848  1.7595
 4312SOL     OW24571   3.316   4.066  16.514  0.1912 -0.4271  0.4169
 4312SOL    HW124572   3.260   4.093  16.441  0.1057 -0.6661  0.3934
 4312SOL    HW224573   3.286   3.976  16.522 -1.0903  0.1051  1.6152
 4313SOL     OW24574   3.467   2.651   9.650 -0.8301  0.3768  0.0595
 4313SOL    HW124575   3.513   2.712   9.592 -0.6273  0.8677  0.7453
 4313SOL    HW224576   3.499   2.676   9.736  0.3204 -0.1487 -0.2033
 4314SOL     OW24577   1.356   1.845   8.345  0.0229  0.0416 -0.3410
 4314SOL    HW124578   1.319   1.896   8.273  0.9443  1.8706  0.4665
 4314SOL    HW224579   1.348   1.898   8.424  2.1255  2.2840 -1.6180
 4315SOL     OW24580   2.142   3.860   9.394 -0.2277 -0.0605  0.1581
 4315SOL    HW124581   2.060   3.856   9.346  0.2627 -1.7600 -0.5189
 4315SOL    HW224582   2.138   3.771   9.428  1.5526  1.0985  3.4246
 4316SOL     OW24583   2.695   0.108   9.045 -0.1817 -0.4351 -0.6211
 4316SOL    HW124584   2.714   0.017   9.066  2.1110  0.6761  2.1219
 4316SOL    HW224585   2.777   0.132   9.003 -0.4083  1.3671 -0.0561
 4317SOL     OW24586   4.282   3.288  10.143  0.5944 -0.7854 -0.2112
 4317SOL    HW124587   4.289   3.382  10.156  0.6317 -0.6565 -1.2234
 4317SOL    HW224588   4.290   3.283  10.048 -3.3056  1.2208 -0.6251
 4318SOL     OW24589   3.029   0.524   9.137 -0.1874 -0.0209 -0.0780
 4318SOL    HW124590   3.028   0.619   9.121 -0.9480  0.1877  1.1440
 4318SOL    HW224591   2.933   0.522   9.146 -0.2370  0.1265 -0.5985
 4319SOL     OW24592   1.562   3.920   6.832  0.1780 -0.6615 -0.3102
 4319SOL    HW124593   1.546   3.938   6.740  0.2959  0.0037 -0.1972
 4319SOL    HW224594   1.639   3.972   6.856 -0.1712 -0.8100  1.1067
 4320SOL     OW24595   1.301   3.221   1.703 -0.6804 -0.4467  0.7229
 4320SOL    HW124596   1.212   3.220   1.737 -0.8200 -0.6488  0.3512
 4320SOL    HW224597   1.325   3.310   1.729  1.6046 -0.7252 -0.3586
 4321SOL     OW24598   3.231   2.175   8.627  0.0712  0.2606  0.2718
 4321SOL    HW124599   3.312   2.224   8.611  0.1479  0.0413 -0.0167
 4321SOL    HW224600   3.174   2.250   8.610 -1.4764 -0.4496  2.3489
 4322SOL     OW24601   3.590   0.755   5.103  0.4801 -0.0292  0.3588
 4322SOL    HW124602   3.498   0.737   5.086  0.6260 -0.6488  0.1854
 4322SOL    HW224603   3.636   0.713   5.030  0.6762 -0.1243  0.5360
 4323SOL     OW24604   1.819   4.699  13.286  0.5972  0.7078 -0.0540
 4323SOL    HW124605   1.835   0.027  13.354 -0.7854  1.1065 -0.1104
 4323SOL    HW224606   1.903   4.666  13.254  0.2178  0.5565 -0.9071
 4324SOL     OW24607   2.596   1.584   9.207  0.1764 -0.2654  0.0911
 4324SOL    HW124608   2.672   1.565   9.262 -2.0276 -1.1818  2.8686
 4324SOL    HW224609   2.532   1.528   9.253 -0.6633  0.1427 -0.5911
 4325SOL     OW24610   4.248   1.232   3.821  0.5531  0.2193  0.6868
 4325SOL    HW124611   4.163   1.239   3.779 -0.4005  0.4143  2.6705
 4325SOL    HW224612   4.310   1.219   3.749 -0.7888  1.3202 -0.6356
 4326SOL     OW24613   1.957   3.061   3.565  0.2528 -0.5165  0.5068
 4326SOL    HW124614   1.884   3.009   3.531 -0.0027  0.0727  0.1710
 4326SOL    HW224615   2.025   3.001   3.597 -0.6396 -2.5233 -1.3198
 4327SOL     OW24616   1.527   1.708   3.014  0.6693  0.6199  0.2275
 4327SOL    HW124617   1.530   1.803   3.008 -2.3365  0.7297  0.5217
 4327SOL    HW224618   1.476   1.693   3.094 -1.7341  2.3236 -1.0329
 4328SOL     OW24619   4.129   4.276   9.127 -0.9006  0.1381  0.5560
 4328SOL    HW124620   4.080   4.280   9.045 -2.2115 -0.6156  1.2894
 4328SOL    HW224621   4.207   4.237   9.089  0.6860  0.7135  3.1975
 4329SOL     OW24622   1.369   1.163  16.970  0.2293  0.4401  0.0676
 4329SOL    HW124623   1.345   1.255  16.965 -1.3994  0.0523  0.6926
 4329SOL    HW224624   1.456   1.162  17.010 -0.0402  0.4642  0.6528
 4330SOL     OW24625   2.144   1.585  15.144 -0.1859 -0.0427 -0.7273
 4330SOL    HW124626   2.236   1.576  15.119  0.4758  1.1609  1.2787
 4330SOL    HW224627   2.129   1.501  15.188 -1.2685 -0.6171 -2.1881
 4331SOL     OW24628   3.350   4.539  10.675 -0.0074  0.1115 -0.7892
 4331SOL    HW124629   3.397   4.481  10.615  1.2609  0.5529 -0.2081
 4331SOL    HW224630   3.414   4.581  10.731 -1.7883 -0.2371  1.5162
 4332SOL     OW24631   0.287   3.989  13.207 -0.1472 -0.4566  0.8364
 4332SOL    HW124632   0.373   4.020  13.238 -0.4566  0.2987  0.9275
 4332SOL    HW224633   0.298   3.897  13.230 -0.1911 -0.4997  0.6818
 4333SOL     OW24634   4.665   3.249   2.883 -0.1111  0.0974  0.4201
 4333SOL    HW124635   0.000   3.309   2.898  0.1741 -0.4962  1.4580
 4333SOL    HW224636   4.682   3.219   2.794  0.2518  0.4820  0.3593
 4334SOL     OW24637   1.352   0.452   5.401 -0.0661  0.4789  0.2949
 4334SOL    HW124638   1.301   0.492   5.332 -0.2301 -0.5244 -0.1730
 4334SOL    HW224639   1.302   0.374   5.424 -2.7614  2.0094 -0.4854
 4335SOL     OW24640   1.182   1.687  14.958  0.0015 -0.0388  0.7031
 4335SOL    HW124641   1.172   1.742  15.036  0.1433 -0.5385  1.0753
 4335SOL    HW224642   1.277   1.683  14.948 -0.1197 -0.1212 -0.3840
 4336SOL     OW24643   3.032   3.902   1.949 -0.5474  0.2217 -0.3806
 4336SOL    HW124644   3.122   3.933   1.963 -0.9284 -0.4494  3.6659
 4336SOL    HW224645   3.025   3.824   2.005 -1.7226  0.0957 -0.7012
 4337SOL     OW24646   0.281   3.045   7.198  0.2132 -0.3586  0.1362
 4337SOL    HW124647   0.236   3.021   7.279  0.6462 -4.1413 -0.7449
 4337SOL    HW224648   0.259   2.967   7.147 -0.2772 -0.0683 -0.0934
 4338SOL     OW24649   2.547   4.452   3.912  0.2657 -0.0065  0.3064
 4338SOL    HW124650   2.524   4.517   3.846 -2.6898 -0.8335  0.4972
 4338SOL    HW224651   2.629   4.409   3.889  2.0336  2.5283  1.8457
 4339SOL     OW24652   1.498   1.033   3.008  0.1534 -0.4044 -1.1670
 4339SOL    HW124653   1.491   0.999   2.918 -0.2887 -1.5331 -0.7047
 4339SOL    HW224654   1.531   0.959   3.059 -0.8865  0.0120  0.1086
 4340SOL     OW24655   3.061   0.193   6.576  0.3487 -0.5509 -0.1881
 4340SOL    HW124656   3.140   0.211   6.627  0.6468  1.8346 -1.5031
 4340SOL    HW224657   3.058   0.272   6.523  1.1537  0.1506  0.8232
 4341SOL     OW24658   1.469   2.551  12.585  0.1186  0.2885 -0.6882
 4341SOL    HW124659   1.443   2.642  12.574 -1.1551 -0.2270 -1.9940
 4341SOL    HW224660   1.396   2.509  12.630  1.6029 -2.0042 -0.3892
 4342SOL     OW24661   0.232   2.616   0.275  0.2383  0.6014  0.9015
 4342SOL    HW124662   0.305   2.669   0.245 -1.5524  1.3990 -2.0801
 4342SOL    HW224663   0.263   2.530   0.247  0.1393 -0.3426  3.6620
 4343SOL     OW24664   2.658   2.103   7.864 -0.5013  0.6168 -0.3503
 4343SOL    HW124665   2.590   2.058   7.914  2.6786 -4.4804 -0.6628
 4343SOL    HW224666   2.675   2.044   7.790  0.0061 -1.0999  1.1605
 4344SOL     OW24667   1.040   1.652   3.890 -0.1567 -0.3018 -0.4314
 4344SOL    HW124668   0.974   1.721   3.900 -0.6589 -0.6423 -1.3703
 4344SOL    HW224669   1.012   1.600   3.815 -0.9437 -0.5994  0.0669
 4345SOL     OW24670   4.415   3.744   2.924  0.3651 -0.2260 -0.0248
 4345SOL    HW124671   4.456   3.712   3.004 -0.2246  1.3647  0.9119
 4345SOL    HW224672   4.430   3.669   2.867  1.4144 -0.7379  0.9245
 4346SOL     OW24673   0.557   1.170   1.666 -0.3600 -0.3399  0.5066
 4346SOL    HW124674   0.649   1.151   1.680  0.3192  1.3892 -1.6903
 4346SOL    HW224675   0.563   1.264   1.645 -1.2918 -0.4200 -0.1297
 4347SOL     OW24676   3.195   3.670   6.770  0.2602 -0.1838 -0.1588
 4347SOL    HW124677   3.199   3.663   6.865  0.6384  0.9724 -0.0973
 4347SOL    HW224678   3.174   3.762   6.757  4.4935  0.4611 -2.4072
 4348SOL     OW24679   4.627   4.351   5.055  0.4035  0.2935  0.1537
 4348SOL    HW124680   4.601   4.418   5.117 -5.1632  0.0596 -1.9862
 4348SOL    HW224681   4.631   4.407   4.977  1.3561  0.2227  0.1408
 4349SOL     OW24682   2.194   2.452   2.607  0.5525 -0.0663  0.5528
 4349SOL    HW124683   2.280   2.479   2.576  1.6792 -2.3286  1.7121
 4349SOL    HW224684   2.193   2.497   2.691 -1.0656 -1.6280  1.3749
 4350SOL     OW24685   1.420   2.796   3.663  0.2426  0.2178  0.4573
 4350SOL    HW124686   1.461   2.879   3.687 -1.6090  1.4128 -0.5020
 4350SOL    HW224687   1.443   2.748   3.742 -0.4089  0.1222  0.5881
 4351SOL     OW24688   1.725   0.758   2.801  0.0799  0.2506  0.5480
 4351SOL    HW124689   1.762   0.820   2.863  0.1186  1.6475 -0.8550
 4351SOL    HW224690   1.744   0.677   2.848 -1.2649  0.9445  2.2653
 4352SOL     OW24691   0.904   1.819  12.103  0.4812 -0.0567  0.3887
 4352SOL    HW124692   0.870   1.813  12.014  0.6510  0.1154  0.3107
 4352SOL    HW224693   0.831   1.770  12.142  0.7241  0.1882  1.1392
 4353SOL     OW24694   0.955   1.213  15.739  0.4648 -0.3303  0.2150
 4353SOL    HW124695   0.883   1.166  15.782 -1.3998  2.3862  0.0250
 4353SOL    HW224696   1.020   1.142  15.735  1.7220  0.8004  0.7284
 4354SOL     OW24697   2.721   3.321   2.692 -0.0474  0.3100 -0.6189
 4354SOL    HW124698   2.770   3.252   2.736  1.0215 -0.9303 -3.7449
 4354SOL    HW224699   2.631   3.320   2.726 -0.1248  0.6609 -0.8125
 4355SOL     OW24700   3.465   3.855   5.929 -0.2829 -0.5835  0.0785
 4355SOL    HW124701   3.509   3.899   6.001  1.6095 -1.4304 -0.5734
 4355SOL    HW224702   3.465   3.762   5.951 -0.7619 -0.2879  1.3478
 4356SOL     OW24703   0.803   2.871  13.644 -0.2768  0.3676  0.5906
 4356SOL    HW124704   0.778   2.802  13.705 -1.3328  2.0477  2.0529
 4356SOL    HW224705   0.741   2.937  13.676 -0.9145  0.6372 -1.1958
 4357SOL     OW24706   1.743   3.521   2.149 -0.1235 -0.4437  0.3094
 4357SOL    HW124707   1.828   3.540   2.109 -0.2573  1.7019  1.0394
 4357SOL    HW224708   1.701   3.493   2.068  1.2534  0.2222 -0.6428
 4358SOL     OW24709   3.611   2.992   4.328  0.0190  0.1492 -0.4874
 4358SOL    HW124710   3.693   3.031   4.360 -0.4308  0.2660  0.5141
 4358SOL    HW224711   3.642   2.959   4.244  0.2918  0.8639 -0.6751
 4359SOL     OW24712   3.255   2.855   8.426  0.3576 -0.6067 -0.1124
 4359SOL    HW124713   3.259   2.846   8.330  1.0146  1.9907 -0.3585
 4359SOL    HW224714   3.288   2.945   8.431 -1.7779  0.1912 -0.4034
 4360SOL     OW24715   4.512   4.664   8.662  0.2123 -0.6373  0.3032
 4360SOL    HW124716   4.490   4.705   8.577  0.2885 -1.3335 -0.0512
 4360SOL    HW224717   4.585   4.715   8.695  1.2370 -1.4411 -0.7299
 4361SOL     OW24718   2.647   4.334  16.743 -0.0541 -0.5355  0.2287
 4361SOL    HW124719   2.725   4.315  16.690  0.3421  0.2049  0.5411
 4361SOL    HW224720   2.636   4.247  16.780  0.7833 -0.7013  0.0969
 4362SOL     OW24721   3.800   2.802   1.831  0.4414 -0.0853 -0.2343
 4362SOL    HW124722   3.812   2.896   1.824 -0.3147 -0.0179 -0.5558
 4362SOL    HW224723   3.714   2.796   1.790  1.6952  0.8891 -2.9950
 4363SOL     OW24724   1.757   1.681   7.028 -0.4420 -0.3851  0.3804
 4363SOL    HW124725   1.756   1.600   7.080  0.9667 -0.6457 -0.0054
 4363SOL    HW224726   1.665   1.705   7.024  0.5182  3.0190 -0.8619
 4364SOL     OW24727   2.136   3.829   7.482 -0.5133  0.4420 -0.1468
 4364SOL    HW124728   2.128   3.877   7.399 -1.0752  2.9491  1.3532
 4364SOL    HW224729   2.206   3.883   7.520  0.2307  0.6784 -1.8646
 4365SOL     OW24730   4.019   4.001   5.312  0.5645 -0.2950 -0.2938
 4365SOL    HW124731   4.034   3.990   5.406 -0.9021  0.3859  0.0248
 4365SOL    HW224732   3.932   3.964   5.297  0.4158 -0.6994  1.5484
 4366SOL     OW24733   2.782   1.777   3.330 -0.4192 -0.0963  0.6109
 4366SOL    HW124734   2.694   1.778   3.292  0.3974  0.0519 -1.2910
 4366SOL    HW224735   2.813   1.698   3.284 -1.7882 -0.7146  0.7428
 4367SOL     OW24736   2.045   2.691   3.153 -0.5049  0.4305  0.2627
 4367SOL    HW124737   2.094   2.729   3.226 -2.1691  0.5951  1.3145
 4367SOL    HW224738   2.024   2.603   3.184 -0.8766  0.1124 -0.8778
 4368SOL     OW24739   2.585   2.854   3.209 -0.6661 -0.3640  0.2018
 4368SOL    HW124740   2.508   2.798   3.213 -1.1843  0.2554 -1.1852
 4368SOL    HW224741   2.546   2.941   3.207 -0.7742 -0.4232 -0.2216
 4369SOL     OW24742   1.904   4.172   2.687  0.0827 -0.3459  0.2492
 4369SOL    HW124743   1.901   4.233   2.613 -2.0353 -0.5865  0.1459
 4369SOL    HW224744   1.971   4.111   2.654  0.0380  0.4172 -1.2580
 4370SOL     OW24745   4.037   4.518   6.240 -0.0398  0.3634 -0.3254
 4370SOL    HW124746   4.009   4.427   6.233  0.4451  0.1382  0.5824
 4370SOL    HW224747   4.023   4.523   6.335 -1.4574 -3.8251 -0.3342
 4371SOL     OW24748   4.680   2.411  15.597 -0.1754  0.1658 -0.5802
 4371SOL    HW124749   4.601   2.456  15.566 -0.6984 -0.3938 -0.0677
 4371SOL    HW224750   0.011   2.477  15.595 -1.2439  1.2455 -1.4752
 4372SOL     OW24751   4.526   1.237   3.424 -0.0965 -0.3988 -0.6351
 4372SOL    HW124752   4.554   1.245   3.515 -1.2178  0.5621 -0.3807
 4372SOL    HW224753   4.441   1.194   3.430  0.0942 -0.8350 -1.0308
 4373SOL     OW24754   1.029   2.425   4.806 -0.3062 -0.4640 -0.8868
 4373SOL    HW124755   1.000   2.493   4.745 -0.6384 -0.1408 -0.3645
 4373SOL    HW224756   0.948   2.414   4.856 -0.7509 -3.9856 -2.3664
 4374SOL     OW24757   1.619   1.016  10.106  0.1597  0.0322 -0.2617
 4374SOL    HW124758   1.667   0.951  10.055 -0.7554 -1.6186  0.9633
 4374SOL    HW224759   1.531   0.989  10.078 -0.3002  1.0247  0.2202
 4375SOL     OW24760   4.567   0.202   3.364  0.0832 -0.5122  0.2477
 4375SOL    HW124761   4.659   0.226   3.379 -0.8083  1.8006  2.1102
 4375SOL    HW224762   4.571   0.111   3.391  1.1818 -0.8786 -1.1886
 4376SOL     OW24763   4.426   1.859   5.508  0.1749  0.2743  0.2248
 4376SOL    HW124764   4.346   1.844   5.558  0.5865 -1.2768  0.4180
 4376SOL    HW224765   4.474   1.927   5.556  2.8295 -0.4260 -1.3933
 4377SOL     OW24766   4.023   0.780   5.589 -0.4567 -0.0468 -0.4684
 4377SOL    HW124767   3.984   0.829   5.661  0.1195  0.2400 -0.3546
 4377SOL    HW224768   4.014   0.691   5.625  2.3595 -0.1920 -0.0925
 4378SOL     OW24769   4.269   1.086   3.531  0.0562  0.4858 -0.3889
 4378SOL    HW124770   4.182   1.051   3.509  0.4782  0.0004 -1.2691
 4378SOL    HW224771   4.301   1.020   3.593 -2.3478 -0.8842 -0.5707
 4379SOL     OW24772   1.526   4.612   3.925 -0.1274 -0.2223 -0.5868
 4379SOL    HW124773   1.500   4.533   3.971  1.2834 -0.3185  0.0586
 4379SOL    HW224774   1.468   4.678   3.961 -1.6047 -1.0324 -1.4988
 4380SOL     OW24775   1.882   2.781   3.752 -0.1319 -0.1266 -0.2263
 4380SOL    HW124776   1.946   2.850   3.770  0.2233  0.0869 -2.3952
 4380SOL    HW224777   1.873   2.744   3.840  3.0438 -3.4273 -1.3270
 4381SOL     OW24778   4.568   1.505   4.438  0.0051  0.1452  0.0899
 4381SOL    HW124779   4.492   1.468   4.482 -0.3884 -0.5843 -1.2062
 4381SOL    HW224780   4.636   1.477   4.499 -1.6071 -0.9031  1.4190
 4382SOL     OW24781   3.390   0.951   2.666  0.1206 -0.0845  0.7685
 4382SOL    HW124782   3.424   0.881   2.722  0.1568 -0.3406  0.4275
 4382SOL    HW224783   3.379   0.899   2.586 -0.0698  0.2745  0.5609
 4383SOL     OW24784   2.181   1.558   5.420 -0.2146 -0.3065 -0.2162
 4383SOL    HW124785   2.216   1.645   5.432 -0.1057 -0.2090 -1.2865
 4383SOL    HW224786   2.116   1.582   5.354  2.0960  2.2138 -1.5571
 4384SOL     OW24787   1.126   0.049   2.573  0.1839 -0.6562 -0.3056
 4384SOL    HW124788   1.177   4.721   2.526  0.0775 -2.7343  2.5096
 4384SOL    HW224789   1.172   0.056   2.657 -0.2051 -1.1778 -0.0458
 4385SOL     OW24790   0.360   4.152   6.669 -0.1724  0.3221  0.3609
 4385SOL    HW124791   0.409   4.192   6.597  0.6021 -0.4599  0.4565
 4385SOL    HW224792   0.276   4.132   6.627 -0.9309  1.4123  1.3717
 4386SOL     OW24793   3.089   4.644   3.251 -0.5214 -0.4868 -0.2438
 4386SOL    HW124794   3.073   4.685   3.336 -3.2677  2.2516 -2.0496
 4386SOL    HW224795   3.183   4.660   3.246 -0.7954  1.4618  0.9036
 4387SOL     OW24796   0.655   0.412   3.345 -0.3280  0.3909  0.2757
 4387SOL    HW124797   0.701   0.328   3.343 -0.9609  0.0517 -0.1581
 4387SOL    HW224798   0.563   0.388   3.346 -0.0515 -0.6597  0.3027
 4388SOL     OW24799   1.216   0.107   8.926 -0.1130 -0.4617 -0.1540
 4388SOL    HW124800   1.156   0.055   8.873 -0.3425 -0.5129  0.1545
 4388SOL    HW224801   1.262   0.157   8.858 -1.5485  0.1414 -0.6849
 4389SOL     OW24802   2.381   2.380  14.375 -0.5324 -0.4525  0.3580
 4389SOL    HW124803   2.361   2.308  14.435  1.1964  2.1956  4.1487
 4389SOL    HW224804   2.433   2.337  14.307 -1.1926  1.9935 -1.6970
 4390SOL     OW24805   1.032   4.696   8.772  1.1112 -0.7481 -0.0954
 4390SOL    HW124806   0.970   0.029   8.786  0.5559 -1.1934 -0.3056
 4390SOL    HW224807   0.981   4.630   8.725 -1.7942  1.8627 -0.5977
 4391SOL     OW24808   4.523   1.421   1.591 -0.4375  0.0242 -0.1137
 4391SOL    HW124809   4.430   1.417   1.613 -0.5496  0.9959 -0.4414
 4391SOL    HW224810   4.538   1.514   1.578  1.4626 -0.1088  1.0788
 4392SOL     OW24811   0.654   0.135   5.345  0.2003 -0.0689 -0.0058
 4392SOL    HW124812   0.645   0.066   5.411  1.6468 -1.0779 -0.8666
 4392SOL    HW224813   0.586   0.192   5.380 -0.8128 -1.4308  0.2569
 4393SOL     OW24814   2.023   2.528   7.830  0.6314  0.2263 -0.0322
 4393SOL    HW124815   2.117   2.511   7.839  0.6981  1.3902  1.4989
 4393SOL    HW224816   2.003   2.458   7.893  0.2709 -2.2035 -2.8662
 4394SOL     OW24817   0.081   1.322   9.656  0.4277 -0.1894  0.7088
 4394SOL    HW124818   0.102   1.408   9.620  2.0223 -0.9849 -0.2385
 4394SOL    HW224819   0.015   1.291   9.594 -0.4734 -2.0162  2.5959
 4395SOL     OW24820   3.655   0.203   6.669  0.1664  0.2444  0.0081
 4395SOL    HW124821   3.594   0.276   6.681  1.8566  1.5961  0.3981
 4395SOL    HW224822   3.636   0.161   6.585  0.4608  1.3511 -0.6158
 4396SOL     OW24823   2.185   1.706   6.226 -0.7268 -0.0273  0.0521
 4396SOL    HW124824   2.237   1.627   6.239 -2.4375 -1.1635  0.0070
 4396SOL    HW224825   2.118   1.704   6.294 -0.1042  2.1384  0.7142
 4397SOL     OW24826   1.979   0.968  16.479 -0.0052  0.3821 -0.4009
 4397SOL    HW124827   2.061   0.939  16.438 -1.7584 -0.4941 -3.2501
 4397SOL    HW224828   1.956   1.040  16.420 -1.1667  0.2814 -0.0623
 4398SOL     OW24829   2.042   4.253   0.043  0.0011 -0.3052 -0.3918
 4398SOL    HW124830   2.074   4.291  17.712 -0.9512  0.5250 -0.3740
 4398SOL    HW224831   2.027   4.170  17.749  0.5513 -0.8927  0.5060
 4399SOL     OW24832   1.349   0.479   7.468  0.0284  0.3794  0.4355
 4399SOL    HW124833   1.257   0.506   7.466 -0.8889 -2.6932  0.8234
 4399SOL    HW224834   1.372   0.501   7.558  1.1246  0.9248  0.0225
 4400SOL     OW24835   1.348   0.862  15.553 -0.3669 -0.3380 -0.7132
 4400SOL    HW124836   1.300   0.924  15.497 -2.1678  0.5753  1.8061
 4400SOL    HW224837   1.301   0.787  15.517 -0.4966 -1.2022  1.2696
 4401SOL     OW24838   0.252   0.736   8.806  0.3573  0.2554  0.4234
 4401SOL    HW124839   0.225   0.659   8.856 -0.1715 -1.3795 -2.3995
 4401SOL    HW224840   0.214   0.813   8.849 -1.0883  1.3582 -2.8623
 4402SOL     OW24841   0.792   4.682  16.739  0.0246 -0.1532 -0.1157
 4402SOL    HW124842   0.810   0.030  16.777 -1.8218  0.7551 -1.3277
 4402SOL    HW224843   0.698   4.674  16.755  0.6199 -4.7904  0.9079
 4403SOL     OW24844   0.426   0.674   1.726 -0.0686  0.2689  0.2273
 4403SOL    HW124845   0.447   0.677   1.632  0.8262  0.3874  0.4292
 4403SOL    HW224846   0.418   0.768   1.740 -0.6967  0.3711 -0.7869
 4404SOL     OW24847   4.598   0.483   6.040  0.9568 -0.0813  0.5190
 4404SOL    HW124848   4.505   0.459   6.050  0.6873 -0.0995 -2.1000
 4404SOL    HW224849   4.590   0.572   6.005  0.7375 -0.6521 -0.8927
 4405SOL     OW24850   1.492   2.930   4.560 -0.4433  0.0105 -0.4961
 4405SOL    HW124851   1.512   3.017   4.594 -1.9316  0.8459 -1.7578
 4405SOL    HW224852   1.530   2.934   4.473  1.5324 -0.2256  0.3598
 4406SOL     OW24853   3.643   3.964   2.473 -0.3777  0.2763 -0.1931
 4406SOL    HW124854   3.677   3.888   2.521  0.5540  0.8846  0.1071
 4406SOL    HW224855   3.566   3.982   2.527  0.3643 -1.3383  1.4044
 4407SOL     OW24856   3.615   1.060  17.696 -0.7164  0.4562 -0.1626
 4407SOL    HW124857   3.579   1.132  17.644 -1.6925 -0.4038 -0.6776
 4407SOL    HW224858   3.701   1.046  17.657 -0.8726 -1.7288  0.2665
 4408SOL     OW24859   2.842   4.643   2.312 -1.2824 -0.3676 -0.9086
 4408SOL    HW124860   2.882   4.589   2.381  1.4202  1.9032 -0.7201
 4408SOL    HW224861   2.819   4.724   2.357  0.8038 -0.5884  0.5585
 4409SOL     OW24862   0.781   2.875   5.150  0.0819 -0.7269 -0.7830
 4409SOL    HW124863   0.875   2.881   5.167 -0.2101 -1.5605  1.0845
 4409SOL    HW224864   0.756   2.807   5.213 -1.7139 -1.5047 -2.3304
 4410SOL     OW24865   2.094   3.002  10.638 -0.4786  0.6359 -0.0698
 4410SOL    HW124866   2.165   2.952  10.679  0.4935  1.0155 -1.2881
 4410SOL    HW224867   2.023   2.940  10.654 -1.0626  0.5220 -3.1073
 4411SOL     OW24868   3.580   1.255   5.757  0.1016 -0.4730 -0.6355
 4411SOL    HW124869   3.576   1.350   5.757 -1.1259 -0.5273  0.6028
 4411SOL    HW224870   3.572   1.242   5.662  1.6306 -0.8051 -0.7240
 4412SOL     OW24871   2.030   2.091   5.876  0.5737 -0.0351 -0.0859
 4412SOL    HW124872   2.020   2.123   5.966 -1.9430 -1.2117  0.0658
 4412SOL    HW224873   2.041   1.997   5.887 -0.8223 -0.0678  0.9911
 4413SOL     OW24874   4.195   2.121   5.895 -0.0803  0.0859 -0.6338
 4413SOL    HW124875   4.157   2.051   5.948 -1.0538 -0.2055 -1.7240
 4413SOL    HW224876   4.285   2.088   5.885 -0.5750 -1.3751 -0.2617
 4414SOL     OW24877   1.758   4.216   6.222  0.3212 -0.2289 -0.4421
 4414SOL    HW124878   1.753   4.298   6.173  0.3955  0.4538  0.6704
 4414SOL    HW224879   1.841   4.178   6.194 -0.3440 -1.0428 -1.3205
 4415SOL     OW24880   1.434   0.968   5.267 -0.1218  0.3057 -0.4893
 4415SOL    HW124881   1.420   1.063   5.260 -0.2195  0.2308 -1.3287
 4415SOL    HW224882   1.523   0.963   5.301 -1.2685 -2.6980  1.9813
 4416SOL     OW24883   2.863   2.628  13.699  0.3491  0.0820  0.0309
 4416SOL    HW124884   2.792   2.570  13.672  0.8695 -1.1367  1.3032
 4416SOL    HW224885   2.935   2.582  13.657  1.1732  0.5515  0.9308
 4417SOL     OW24886   4.691   2.180  15.407 -0.0428 -0.2783  0.3205
 4417SOL    HW124887   0.018   2.141  15.465 -0.9098  2.1109  2.9262
 4417SOL    HW224888   4.683   2.266  15.449 -1.7320 -0.5597  0.5916
 4418SOL     OW24889   4.183   1.397   3.403  0.0048 -0.1189  0.1501
 4418SOL    HW124890   4.180   1.306   3.434  1.8018 -0.6981 -1.3773
 4418SOL    HW224891   4.121   1.404   3.331  0.5319  2.3076 -0.0693
 4419SOL     OW24892   4.598   0.389   5.477 -0.3900  0.0246 -0.0737
 4419SOL    HW124893   4.616   0.483   5.468 -0.9360  0.0756 -0.5941
 4419SOL    HW224894   4.650   0.363   5.554  0.5938  0.6280 -0.5359
 4420SOL     OW24895   1.507   0.423   2.634  0.3062 -0.0965  0.1391
 4420SOL    HW124896   1.478   0.508   2.601  0.3709 -0.4591 -0.8513
 4420SOL    HW224897   1.429   0.371   2.613 -0.1226  0.4677  0.3279
 4421SOL     OW24898   1.663   3.217   2.772  0.3647  0.2088  0.3052
 4421SOL    HW124899   1.639   3.307   2.797  1.2907  0.0356  1.8172
 4421SOL    HW224900   1.745   3.239   2.728 -0.1826  2.1522  0.2544
 4422SOL     OW24901   1.529   2.223   7.345  0.1430 -0.2130  0.1139
 4422SOL    HW124902   1.529   2.316   7.321 -0.5019 -0.0996  0.5440
 4422SOL    HW224903   1.454   2.222   7.405 -0.2981 -1.7888 -0.4682
 4423SOL     OW24904   2.998   2.843   4.001  0.2455  0.8093 -0.4567
 4423SOL    HW124905   2.964   2.820   4.087 -2.8682 -1.1743 -2.2153
 4423SOL    HW224906   2.917   2.816   3.958  0.1561 -0.3528  0.4439
 4424SOL     OW24907   2.609   4.523  10.356 -0.1237  0.0757  0.0539
 4424SOL    HW124908   2.604   4.430  10.335 -0.6314 -0.2967  1.8691
 4424SOL    HW224909   2.703   4.532  10.374 -0.1966  1.8020 -0.3695
 4425SOL     OW24910   2.663   2.200   0.494  0.0412 -0.5654  0.3614
 4425SOL    HW124911   2.645   2.108   0.511  0.3553 -0.5172  0.9833
 4425SOL    HW224912   2.747   2.210   0.540  0.5493 -2.7570 -0.0771
 4426SOL     OW24913   2.856   0.433   6.128  0.6690 -0.0360  0.1351
 4426SOL    HW124914   2.816   0.432   6.041  1.4390 -3.3081 -0.1776
 4426SOL    HW224915   2.815   0.352   6.158 -2.1009  2.4098  2.9839
 4427SOL     OW24916   2.388   2.589  17.104  0.0432 -0.4216  0.0891
 4427SOL    HW124917   2.400   2.503  17.145  0.2633 -0.2685  0.3426
 4427SOL    HW224918   2.304   2.623  17.133 -0.6357 -1.8526 -0.2058
 4428SOL     OW24919   1.704   0.614   8.117 -0.6578  0.2452  0.1258
 4428SOL    HW124920   1.734   0.532   8.078  0.1624  0.1814  0.8831
 4428SOL    HW224921   1.677   0.666   8.041  0.4558  0.8979  0.1717
 4429SOL     OW24922   3.011   4.188   6.892 -0.6277 -0.1385 -0.3733
 4429SOL    HW124923   3.000   4.152   6.804  1.4829 -1.2771 -0.1569
 4429SOL    HW224924   3.021   4.282   6.878 -0.6409 -0.0688  0.0652
 4430SOL     OW24925   2.092   3.574   7.810 -0.3132 -0.5809  0.0023
 4430SOL    HW124926   2.041   3.628   7.750  0.5064 -0.2705 -0.4112
 4430SOL    HW224927   2.138   3.650   7.846  1.3082 -2.1459  1.2214
 4431SOL     OW24928   3.589   3.442   6.288  0.2061 -0.3342 -0.7117
 4431SOL    HW124929   3.661   3.482   6.337 -0.0212 -0.1851 -0.4923
 4431SOL    HW224930   3.530   3.411   6.358 -0.3628 -2.3688 -2.1112
 4432SOL     OW24931   0.641   2.716  17.563 -0.2654 -0.5105 -0.0260
 4432SOL    HW124932   0.568   2.777  17.558  2.2857  2.7533  2.5879
 4432SOL    HW224933   0.616   2.654  17.495  0.0356  2.8156 -3.1377
 4433SOL     OW24934   3.629   0.168   9.508 -0.2668  0.3433 -0.3514
 4433SOL    HW124935   3.704   0.165   9.567  0.5161  3.1721 -1.2181
 4433SOL    HW224936   3.557   0.157   9.570 -1.2990  0.7173 -1.4830
 4434SOL     OW24937   0.844   4.316   8.829 -0.1508 -0.0102  0.0496
 4434SOL    HW124938   0.895   4.301   8.749 -0.0301  2.2566 -0.3160
 4434SOL    HW224939   0.752   4.302   8.806  0.0198 -2.7111  1.0778
 4435SOL     OW24940   1.329   4.025   4.179  0.1827  0.2160 -0.5768
 4435SOL    HW124941   1.321   3.949   4.121 -0.3298 -0.6816  0.6671
 4435SOL    HW224942   1.422   4.038   4.164  0.5929 -0.7896  1.1518
 4436SOL     OW24943   2.356   1.288   3.901 -0.5462  0.5066  0.3412
 4436SOL    HW124944   2.385   1.341   3.827  0.0636 -2.2554 -1.3523
 4436SOL    HW224945   2.263   1.309   3.893 -0.0637  2.3414 -0.5291
 4437SOL     OW24946   4.646   4.515  13.032 -0.1729  0.5168  0.5857
 4437SOL    HW124947   4.601   4.434  13.010  1.1493 -0.2624  0.7464
 4437SOL    HW224948   4.703   4.519  12.955  0.1607 -0.4887  0.7849
 4438SOL     OW24949   2.210   0.846   5.707  0.1138  0.1973 -0.0375
 4438SOL    HW124950   2.294   0.836   5.662 -0.0438  3.3038 -0.9763
 4438SOL    HW224951   2.210   0.773   5.769  3.1027 -1.4318 -1.9295
 4439SOL     OW24952   3.166   2.450   3.217  0.5843  0.6025  0.4725
 4439SOL    HW124953   3.182   2.541   3.244  0.2405  0.4813  1.0826
 4439SOL    HW224954   3.084   2.468   3.172  1.5116 -1.0856 -1.8885
 4440SOL     OW24955   4.719   0.667   2.871  0.1696 -0.1867  1.0291
 4440SOL    HW124956   4.695   0.647   2.780 -0.0930  0.6747  0.9071
 4440SOL    HW224957   0.058   0.723   2.877  0.2213 -0.1302 -0.0662
 4441SOL     OW24958   4.185   0.498   6.641  1.0829  0.0980  0.3791
 4441SOL    HW124959   4.158   0.437   6.573  1.0782  1.3781 -0.7643
 4441SOL    HW224960   4.196   0.440   6.716 -1.0879 -2.9285 -1.6293
 4442SOL     OW24961   1.330   2.829   4.773  0.4194  0.5296 -0.3244
 4442SOL    HW124962   1.263   2.896   4.781 -0.4503 -0.4621  0.7127
 4442SOL    HW224963   1.380   2.859   4.697 -1.1307  3.1933 -0.2851
 4443SOL     OW24964   4.108   1.170   0.879 -0.3902  0.0234 -0.2531
 4443SOL    HW124965   4.039   1.233   0.898  1.4534  2.0554 -0.3348
 4443SOL    HW224966   4.076   1.150   0.791 -0.9409  0.3715 -0.1307
 4444SOL     OW24967   1.896   0.907   1.327  0.8217 -0.1486 -0.4814
 4444SOL    HW124968   1.958   0.952   1.269 -1.8815 -1.0728 -4.1124
 4444SOL    HW224969   1.842   0.860   1.263  0.1700 -2.3907  1.7284
 4445SOL     OW24970   2.828   3.732   1.721 -0.1958  0.1974 -0.3553
 4445SOL    HW124971   2.734   3.751   1.710 -0.3883 -0.4123  0.2856
 4445SOL    HW224972   2.847   3.793   1.792  1.3914 -2.4435  1.4499
 4446SOL     OW24973   0.065   0.276   9.139 -0.4917  0.2024  0.7868
 4446SOL    HW124974   0.140   0.247   9.190  0.7814 -0.6508 -1.5629
 4446SOL    HW224975   4.737   0.309   9.201  0.6867 -0.1998  2.2585
 4447SOL     OW24976   1.040   4.197   4.563  0.3813  0.0966  0.3195
 4447SOL    HW124977   1.035   4.133   4.634 -2.1344 -1.4993 -1.2767
 4447SOL    HW224978   1.131   4.181   4.540  0.5388  2.1116 -0.4320
 4448SOL     OW24979   2.503   2.446   3.737 -0.1194  0.0263  1.1585
 4448SOL    HW124980   2.504   2.367   3.791 -0.7698 -1.0411 -0.3668
 4448SOL    HW224981   2.514   2.517   3.799 -2.6918  0.3553  1.2346
 4449SOL     OW24982   2.047   2.199   7.405  0.3076 -0.1386  0.2817
 4449SOL    HW124983   1.952   2.210   7.402  0.5820  1.2621 -3.2775
 4449SOL    HW224984   2.078   2.283   7.439 -0.6502  0.5797 -0.6455
 4450SOL     OW24985   1.503   0.388   9.456  0.3384  0.4201  0.1865
 4450SOL    HW124986   1.556   0.463   9.483  0.5163  0.3861 -0.0659
 4450SOL    HW224987   1.439   0.375   9.526 -0.0818 -1.5980 -0.5788
 4451SOL     OW24988   2.563   0.180   5.596  0.6597  0.3884  0.0402
 4451SOL    HW124989   2.551   0.239   5.521  0.3286 -2.6642 -2.2799
 4451SOL    HW224990   2.523   0.101   5.558  2.8705 -1.0289  0.7075
 4452SOL     OW24991   1.638   4.092   3.238  0.9485  0.1357 -0.2770
 4452SOL    HW124992   1.645   4.068   3.330  2.7312 -1.7300 -0.9009
 4452SOL    HW224993   1.592   4.176   3.244  2.3701  0.9229 -0.2807
 4453SOL     OW24994   2.873   4.235  12.112  0.1797 -0.7864  0.1216
 4453SOL    HW124995   2.939   4.256  12.179  1.4373 -1.7927 -0.8108
 4453SOL    HW224996   2.806   4.185  12.158 -0.3201 -2.7032 -2.6764
 4454SOL     OW24997   0.145   3.619  16.511 -0.4330 -0.5154  0.1780
 4454SOL    HW124998   0.070   3.582  16.557 -0.3554 -0.3017  0.4782
 4454SOL    HW224999   0.223   3.605  16.565  0.8120  0.4335 -1.3884
 4455SOL     OW25000   0.427   0.494  16.903 -0.2234  0.3443 -0.0091
 4455SOL    HW125001   0.486   0.473  16.831 -1.7734  1.4564 -1.6109
 4455SOL    HW225002   0.424   0.413  16.954 -0.2077 -1.5688 -3.0342
 4456SOL     OW25003   1.876   0.136   2.987 -0.0446  0.3565  0.4353
 4456SOL    HW125004   1.934   0.121   2.913 -0.1076 -0.2255  0.5084
 4456SOL    HW225005   1.915   0.217   3.021 -1.2615  0.8318  0.7021
 4457SOL     OW25006   2.207   4.734   2.840  0.2590  0.2947  0.7968
 4457SOL    HW125007   2.129   4.724   2.786  0.0070 -0.3854  1.2827
 4457SOL    HW225008   2.166   4.693   2.916  3.2057 -0.6659  1.8886
 4458SOL     OW25009   2.565   3.939  16.444 -0.3183 -0.1338  0.4907
 4458SOL    HW125010   2.537   3.887  16.369  3.4056 -1.4673  0.0283
 4458SOL    HW225011   2.489   3.996  16.455 -0.1039  0.3158 -0.3977
 4459SOL     OW25012   0.213   1.860   6.932 -0.7755 -0.4834  0.9298
 4459SOL    HW125013   0.206   1.767   6.911 -0.1022 -0.4227  0.4324
 4459SOL    HW225014   0.309   1.858   6.938 -0.5444  0.7287 -2.8795
 4460SOL     OW25015   1.078   0.436   3.031 -0.5761 -0.1328 -0.2622
 4460SOL    HW125016   1.076   0.344   3.007  2.8590  0.0468 -1.2416
 4460SOL    HW225017   1.162   0.448   3.074  0.0426 -1.8697 -1.0147
 4461SOL     OW25018   4.678   0.927   7.944 -0.2771 -0.1655 -0.1524
 4461SOL    HW125019   0.002   0.996   7.967 -0.2761  0.1967 -1.2328
 4461SOL    HW225020   4.664   0.891   8.032  1.9945  1.0240  0.6862
 4462SOL     OW25021   1.856   0.356  16.325  0.2548  0.2301 -0.2243
 4462SOL    HW125022   1.806   0.396  16.396  0.0413  1.2807 -0.9526
 4462SOL    HW225023   1.886   0.431  16.273  0.9306  0.2533  0.1991
 4463SOL     OW25024   2.804   3.378   6.155  0.1229 -0.1158  0.8286
 4463SOL    HW125025   2.817   3.298   6.106 -0.7968  0.7215 -0.7669
 4463SOL    HW225026   2.745   3.353   6.227  0.3743 -0.5295  0.8862
 4464SOL     OW25027   2.190   1.393   8.267  0.2305  0.0860  0.1783
 4464SOL    HW125028   2.211   1.442   8.347  0.2395  1.1724 -0.4808
 4464SOL    HW225029   2.097   1.414   8.259  0.1991  1.0574  2.8490
 4465SOL     OW25030   1.028   4.225   8.658 -0.3787 -0.3806 -0.5701
 4465SOL    HW125031   1.101   4.212   8.718 -1.2264  0.2173  0.5896
 4465SOL    HW225032   1.040   4.143   8.609  1.4137 -1.2046  1.2802
 4466SOL     OW25033   0.875   1.190   3.778 -0.3014  0.3679  0.6218
 4466SOL    HW125034   0.791   1.150   3.800 -0.2983 -0.0782 -0.1918
 4466SOL    HW225035   0.883   1.162   3.687 -2.1986  0.5197  0.3919
 4467SOL     OW25036   0.164   2.050   3.714 -0.1034 -0.1536  0.5157
 4467SOL    HW125037   0.140   2.108   3.786 -0.1937 -1.4379  1.5344
 4467SOL    HW225038   0.085   2.039   3.661 -0.1915 -2.3238  1.0798
 4468SOL     OW25039   1.758   4.050   5.715  0.0060  0.2502 -0.4245
 4468SOL    HW125040   1.786   4.092   5.634 -0.6556 -0.7206 -1.1629
 4468SOL    HW225041   1.807   4.101   5.779  0.5717 -0.1741 -0.5150
 4469SOL     OW25042   4.661   2.430   7.597 -0.2079  0.1555  0.0004
 4469SOL    HW125043   4.634   2.522   7.604  1.4414  0.7002 -0.5990
 4469SOL    HW225044   4.673   2.430   7.502 -2.8164 -0.1075 -0.3093
 4470SOL     OW25045   3.827   1.079   5.447 -0.3558  0.0317 -0.5082
 4470SOL    HW125046   3.747   1.030   5.428 -1.4004  0.7037  2.2226
 4470SOL    HW225047   3.847   1.049   5.535 -0.0366  0.0228 -0.5830
 4471SOL     OW25048   3.714   1.876   1.664  0.0336 -0.1866  0.2709
 4471SOL    HW125049   3.629   1.921   1.666 -0.3887 -0.9233 -1.9701
 4471SOL    HW225050   3.689   1.784   1.675  0.1163 -0.0890  1.3290
 4472SOL     OW25051   4.621   0.461   4.223  0.0172  0.0320  0.6598
 4472SOL    HW125052   4.671   0.419   4.153 -0.0247 -0.9064  1.1942
 4472SOL    HW225053   4.550   0.401   4.246 -1.3467  1.3576 -0.1203
 4473SOL     OW25054   3.955   1.264   6.397 -0.0051  0.7839 -0.1558
 4473SOL    HW125055   3.936   1.306   6.481  0.4399  1.3798 -0.3534
 4473SOL    HW225056   3.869   1.250   6.359 -0.0510  1.6500 -0.3699
 4474SOL     OW25057   1.629   2.146   1.858 -0.0528 -0.1639 -0.0073
 4474SOL    HW125058   1.659   2.140   1.767  0.6816  1.3719  0.1234
 4474SOL    HW225059   1.703   2.106   1.903 -0.7482 -1.7365 -0.2508
 4475SOL     OW25060   1.144   3.007   9.595  0.1510  0.4427 -0.0728
 4475SOL    HW125061   1.222   2.992   9.647 -1.3043  0.9969  2.2805
 4475SOL    HW225062   1.178   3.044   9.513 -0.1152 -0.0690 -0.4172
 4476SOL     OW25063   1.248   3.656   4.322 -0.7444 -0.0332  0.1204
 4476SOL    HW125064   1.177   3.720   4.310 -0.4129  0.4200  0.5769
 4476SOL    HW225065   1.197   3.580   4.294  0.0757  0.0671 -1.6280
 4477SOL     OW25066   2.627   3.025  15.340  0.3120 -0.0141 -0.1933
 4477SOL    HW125067   2.649   3.102  15.287 -0.8599  2.1322  2.4279
 4477SOL    HW225068   2.542   3.007  15.299  1.4733 -0.6511 -2.3400
 4478SOL     OW25069   2.029   4.385   3.670  0.2798  0.6746 -0.0247
 4478SOL    HW125070   2.037   4.373   3.575  0.1899 -0.0116  0.0483
 4478SOL    HW225071   2.096   4.449   3.692  0.7650  0.2389 -0.2204
 4479SOL     OW25072   1.163   4.127   9.917 -0.3832 -0.2292 -0.6143
 4479SOL    HW125073   1.240   4.183   9.904 -0.1329 -0.4486 -0.0927
 4479SOL    HW225074   1.101   4.199   9.923 -0.6475 -0.5217  0.2021
 4480SOL     OW25075   1.612   2.798  12.791  0.1608  0.6017 -0.1689
 4480SOL    HW125076   1.584   2.745  12.866  4.1541 -4.4012 -2.2281
 4480SOL    HW225077   1.545   2.770  12.729 -0.7317  1.2176  0.5057
 4481SOL     OW25078   2.273   3.547  13.092  0.7312 -0.1032 -0.0544
 4481SOL    HW125079   2.248   3.480  13.029  1.4937  0.4066 -0.9031
 4481SOL    HW225080   2.273   3.626  13.037  0.4145  0.7218  1.1220
 4482SOL     OW25081   0.658   2.531   4.369  0.4398 -0.2089 -0.2615
 4482SOL    HW125082   0.572   2.539   4.410  0.0488 -0.9082 -0.9457
 4482SOL    HW225083   0.623   2.550   4.281 -0.3778  1.0301  0.3168
 4483SOL     OW25084   0.405   1.498   5.712  0.3141 -0.0175  0.3238
 4483SOL    HW125085   0.377   1.407   5.714 -1.5511  0.4782 -2.0999
 4483SOL    HW225086   0.387   1.525   5.621  1.4335  1.7265  0.6168
 4484SOL     OW25087   4.585   1.381   3.956  0.1220  0.2420 -0.0616
 4484SOL    HW125088   4.546   1.467   3.940  0.6574  0.5343  0.2214
 4484SOL    HW225089   4.663   1.377   3.901  0.3272  2.4796  0.0573
 4485SOL     OW25090   1.221   2.487  15.563 -0.1977 -0.2265 -0.3621
 4485SOL    HW125091   1.296   2.526  15.519  1.6179 -3.6472 -0.3323
 4485SOL    HW225092   1.197   2.409  15.514 -1.3015 -0.7832  1.0393
 4486SOL     OW25093   2.439   4.662  14.885 -0.2678  0.4713  0.4448
 4486SOL    HW125094   2.460   4.736  14.942  1.1448  1.8571 -1.8737
 4486SOL    HW225095   2.357   4.641  14.929 -1.3503 -1.2348 -2.4131
 4487SOL     OW25096   1.012   4.012   4.807  0.2237  0.9402 -0.3523
 4487SOL    HW125097   1.028   3.943   4.871 -1.6150  0.3256 -0.5755
 4487SOL    HW225098   0.925   4.045   4.829  0.1331  1.3928 -1.4189
 4488SOL     OW25099   2.747   1.482   4.631  0.5158 -0.5464  0.8925
 4488SOL    HW125100   2.788   1.406   4.675 -3.0058 -2.9647 -0.0175
 4488SOL    HW225101   2.812   1.548   4.657  0.2745 -0.2717  0.7905
 4489SOL     OW25102   4.362   2.399   2.491 -0.2771  0.0995  0.2867
 4489SOL    HW125103   4.351   2.483   2.535 -0.0450 -1.5245  3.4275
 4489SOL    HW225104   4.426   2.422   2.423 -3.1887 -1.2640 -2.8822
 4490SOL     OW25105   3.000   1.550   7.239 -0.2295 -0.6289 -0.1734
 4490SOL    HW125106   3.035   1.635   7.267  0.8536 -1.0626 -0.1913
 4490SOL    HW225107   2.976   1.515   7.325  0.0146 -3.0739 -1.0972
 4491SOL     OW25108   1.559   0.345   8.472 -0.1434 -0.0135 -0.0629
 4491SOL    HW125109   1.627   0.321   8.534 -1.2646 -0.0805  1.1361
 4491SOL    HW225110   1.592   0.433   8.457  0.7903 -0.5823 -1.3730
 4492SOL     OW25111   3.614   2.658   5.709 -0.3718 -0.2438 -0.0365
 4492SOL    HW125112   3.606   2.742   5.754  2.4234  0.8279 -1.5643
 4492SOL    HW225113   3.529   2.653   5.664 -0.7757 -0.7513  0.7687
 4493SOL     OW25114   3.161   4.314   4.682  0.2804 -0.0412  0.1971
 4493SOL    HW125115   3.242   4.364   4.690  0.5742 -0.5160  0.2080
 4493SOL    HW225116   3.175   4.247   4.749 -0.1934  0.3314  0.6677
 4494SOL     OW25117   3.219   1.048   5.829 -0.3398 -0.1335  0.5756
 4494SOL    HW125118   3.222   1.119   5.894 -1.5344  0.3599  0.0889
 4494SOL    HW225119   3.238   1.094   5.747 -1.5781 -0.1821  0.2635
 4495SOL     OW25120   4.520   0.257   4.663  0.3742 -0.4017  0.1781
 4495SOL    HW125121   4.448   0.292   4.716 -1.1657 -3.9216  0.3567
 4495SOL    HW225122   4.594   0.297   4.709 -1.4480  1.6000  1.3683
 4496SOL     OW25123   4.194   3.884   6.313  0.6277 -0.3450  0.0993
 4496SOL    HW125124   4.207   3.841   6.229 -0.1744 -0.9336  0.2701
 4496SOL    HW225125   4.286   3.884   6.341 -0.0418  0.9425  2.3124
 4497SOL     OW25126   3.599   2.247   7.262  0.0820 -0.3967  0.3434
 4497SOL    HW125127   3.641   2.328   7.291  0.6002 -0.7504  0.5739
 4497SOL    HW225128   3.661   2.175   7.257 -0.3045 -0.6443 -0.8476
 4498SOL     OW25129   4.457   0.210   2.861  0.3287  0.5161  0.0625
 4498SOL    HW125130   4.480   0.239   2.949 -0.1220 -1.1365  0.7132
 4498SOL    HW225131   4.546   0.204   2.825 -0.5785 -1.1861 -1.9189
 4499SOL     OW25132   0.418   2.147  10.327  0.0581 -0.0196  0.1714
 4499SOL    HW125133   0.369   2.190  10.396  2.4712  2.2169  0.4911
 4499SOL    HW225134   0.385   2.199  10.253 -0.3091  0.3012  0.5601
 4500SOL     OW25135   3.735   3.551   1.882  0.6678  0.2385  0.3728
 4500SOL    HW125136   3.822   3.591   1.882  0.5022  0.5710  2.6515
 4500SOL    HW225137   3.678   3.623   1.855 -1.2543 -1.1487  0.7123
 4501SOL     OW25138   1.649   0.359   6.446  0.3262  0.0449 -0.9213
 4501SOL    HW125139   1.640   0.406   6.529 -1.7366  1.8301 -2.1760
 4501SOL    HW225140   1.557   0.367   6.422  0.2456 -0.1990 -0.6962
 4502SOL     OW25141   0.879   2.863  14.272  0.2147 -0.4294  0.6081
 4502SOL    HW125142   0.871   2.889  14.180  2.2295 -1.7706  0.0470
 4502SOL    HW225143   0.941   2.922  14.316 -0.0466  0.2158  0.1147
 4503SOL     OW25144   3.173   0.453   3.979  0.3983 -0.1511  0.5723
 4503SOL    HW125145   3.262   0.483   3.994  0.4101 -0.6069  1.3562
 4503SOL    HW225146   3.168   0.490   3.890  0.3109 -0.9085  0.2609
 4504SOL     OW25147   2.637   3.139   5.484  0.5028 -0.4382  0.4587
 4504SOL    HW125148   2.676   3.177   5.562 -2.0814 -1.2511  2.1389
 4504SOL    HW225149   2.591   3.064   5.521  0.2735  0.1949  1.4559
 4505SOL     OW25150   2.138   3.992   7.269  0.0380  0.5373 -0.4769
 4505SOL    HW125151   2.086   3.987   7.189  0.9341  0.7111 -1.0732
 4505SOL    HW225152   2.202   4.051   7.229  0.9893 -0.1833 -0.0191
 4506SOL     OW25153   2.934   2.742  15.552  0.0942  0.1388  0.1360
 4506SOL    HW125154   2.976   2.667  15.510 -0.7577 -1.3008  1.8583
 4506SOL    HW225155   2.873   2.763  15.482 -0.4085 -0.4980  0.3877
 4507SOL     OW25156   1.244   2.415   6.691  0.0550  0.0295 -0.3139
 4507SOL    HW125157   1.166   2.398   6.638 -0.9818 -0.2105  1.2985
 4507SOL    HW225158   1.274   2.492   6.644  0.3594  0.8981  1.3119
 4508SOL     OW25159   2.563   3.774   9.110 -0.6179 -0.2740  0.2996
 4508SOL    HW125160   2.473   3.774   9.145 -0.3089 -1.8355  1.0931
 4508SOL    HW225161   2.600   3.710   9.171  0.5073  1.5103  1.5046
 4509SOL     OW25162   1.065   2.562  14.053  0.1450 -0.0415 -0.1493
 4509SOL    HW125163   1.121   2.597  13.984 -0.3384  2.7550  0.8921
 4509SOL    HW225164   0.983   2.549  14.005  1.3911  1.2761 -2.5938
 4510SOL     OW25165   2.200   2.375   6.236 -0.0617 -0.2957  0.1879
 4510SOL    HW125166   2.106   2.384   6.252  0.2572  2.7264  0.3012
 4510SOL    HW225167   2.235   2.386   6.324  2.3327 -0.1277 -0.7647
 4511SOL     OW25168   1.760   2.676   7.837  0.1128 -0.1865 -0.0857
 4511SOL    HW125169   1.817   2.604   7.811  0.0628 -0.6049  0.9574
 4511SOL    HW225170   1.717   2.639   7.914  1.7745 -0.8239  0.5315
 4512SOL     OW25171   1.779   4.194   1.741  0.1834  0.1364  0.2739
 4512SOL    HW125172   1.696   4.168   1.701 -0.0447  0.4322  0.5546
 4512SOL    HW225173   1.827   4.236   1.669 -0.5831 -0.2588 -0.4740
 4513SOL     OW25174   4.476   1.996   9.583  0.3874  0.0550 -0.4254
 4513SOL    HW125175   4.482   1.974   9.676  1.8418  3.2334  0.2135
 4513SOL    HW225176   4.451   2.088   9.579  0.9954  0.2246 -0.3275
 4514SOL     OW25177   4.732   3.219   7.865  0.4104 -0.5380 -0.1184
 4514SOL    HW125178   0.082   3.219   7.827  0.4638  1.4772  0.0313
 4514SOL    HW225179   4.708   3.129   7.844  0.3058 -0.9877  1.9957
 4515SOL     OW25180   4.309   2.553   6.841 -0.0197  0.2833 -0.3766
 4515SOL    HW125181   4.274   2.466   6.822  2.6398 -0.5463 -1.4390
 4515SOL    HW225182   4.394   2.537   6.881 -0.8750  2.4420  2.2997
 4516SOL     OW25183   4.016   3.623   5.482  0.0568 -0.3332  0.2821
 4516SOL    HW125184   3.966   3.544   5.462 -0.0579 -0.0757 -0.4421
 4516SOL    HW225185   3.970   3.679   5.420 -1.0601 -0.4167  1.0452
 4517SOL     OW25186   3.753   2.114   4.900 -0.2481 -0.1301 -0.1357
 4517SOL    HW125187   3.774   2.025   4.929  1.5845  0.3442 -0.0009
 4517SOL    HW225188   3.693   2.144   4.968  0.4316 -1.0873  0.8731
 4518SOL     OW25189   2.009   1.398   7.149  0.2289  0.1556 -0.0029
 4518SOL    HW125190   2.091   1.364   7.114  0.4612  0.1457  0.5538
 4518SOL    HW225191   2.024   1.469   7.212 -0.4611  1.3579 -1.1878
 4519SOL     OW25192   0.558   2.673  17.287  0.1814  0.4824  0.5601
 4519SOL    HW125193   0.608   2.718  17.220 -0.0324  1.6729  1.1980
 4519SOL    HW225194   0.473   2.717  17.280  0.3439  0.1595 -3.2279
 4520SOL     OW25195   4.466   3.713   4.153 -0.0583 -0.6290 -0.0084
 4520SOL    HW125196   4.464   3.809   4.154  0.0242 -0.6392  1.0044
 4520SOL    HW225197   4.381   3.687   4.189 -1.3485  2.3398 -0.9117
 4521SOL     OW25198   4.514   1.291  12.128 -0.2344 -0.6931 -0.3360
 4521SOL    HW125199   4.553   1.231  12.064  1.0663  0.2983 -0.4604
 4521SOL    HW225200   4.431   1.252  12.157 -0.4431 -0.0437 -0.0585
 4522SOL     OW25201   0.546   4.109  13.903  0.2894 -0.0693  0.5966
 4522SOL    HW125202   0.462   4.142  13.873 -0.0540  1.6693  3.3988
 4522SOL    HW225203   0.554   4.179  13.969  2.4967  0.5032 -0.2816
 4523SOL     OW25204   1.029   2.787   5.457  0.5940 -0.6176 -0.0981
 4523SOL    HW125205   1.016   2.753   5.546  3.5804 -3.5124 -0.7853
 4523SOL    HW225206   1.055   2.711   5.405  3.1811  0.8483 -0.9040
 4524SOL     OW25207   1.470   0.917   5.595 -0.2777  0.2042 -0.0218
 4524SOL    HW125208   1.527   0.991   5.576 -0.7744  0.4321 -0.6119
 4524SOL    HW225209   1.531   0.852   5.630 -0.1010  0.7745  0.7210
 4525SOL     OW25210   3.173   2.462   5.352 -0.0022  0.3167  0.1333
 4525SOL    HW125211   3.102   2.474   5.415  1.1616 -0.6002  1.6081
 4525SOL    HW225212   3.113   2.432   5.284 -1.8876  3.5658  0.3855
 4526SOL     OW25213   2.077   0.865   7.436 -0.1157  0.4684  0.2068
 4526SOL    HW125214   2.044   0.843   7.349  1.5756 -0.0370 -0.3083
 4526SOL    HW225215   2.073   0.960   7.439  0.0711  0.4242  1.8436
 4527SOL     OW25216   1.735   2.701   2.816  0.3526  0.5868 -0.1248
 4527SOL    HW125217   1.659   2.745   2.855 -0.2910 -0.2918 -0.3881
 4527SOL    HW225218   1.740   2.630   2.881 -1.7126  0.0786 -0.5354
 4528SOL     OW25219   2.945   2.869   2.133  0.2955  0.3093 -0.1992
 4528SOL    HW125220   2.879   2.799   2.130 -0.0226  0.6809 -2.1379
 4528SOL    HW225221   2.992   2.849   2.052 -1.6190  0.3155 -1.3067
 4529SOL     OW25222   3.811   2.181   5.496 -0.3321 -0.1122 -0.1921
 4529SOL    HW125223   3.852   2.190   5.582 -2.0873  0.2421  0.5985
 4529SOL    HW225224   3.732   2.232   5.512  0.2887  1.3500 -1.8117
 4530SOL     OW25225   0.645   4.486   3.001  0.1896  0.1043  0.0364
 4530SOL    HW125226   0.733   4.516   3.024  1.1397 -2.5840 -0.1618
 4530SOL    HW225227   0.609   4.479   3.089  0.2439  1.2949  0.1602
 4531SOL     OW25228   0.360   3.513   3.638 -0.3998 -0.1123 -0.2862
 4531SOL    HW125229   0.424   3.578   3.608  0.4508  0.1902  2.2111
 4531SOL    HW225230   0.402   3.501   3.723 -0.7438 -0.7030 -0.1968
 4532SOL     OW25231   4.079   0.649   8.475  0.0895  0.0177 -0.5298
 4532SOL    HW125232   4.088   0.602   8.557 -0.7475  1.1977  0.2378
 4532SOL    HW225233   4.147   0.716   8.484 -0.5799  0.7110 -0.6638
 4533SOL     OW25234   1.279   3.812   9.835 -0.1562  0.4451 -0.1434
 4533SOL    HW125235   1.245   3.764   9.759  2.5696 -0.0696 -1.0448
 4533SOL    HW225236   1.262   3.903   9.813  0.8688  0.2228 -1.8600
 4534SOL     OW25237   2.795   0.864  13.714  0.0632 -0.2199  0.4506
 4534SOL    HW125238   2.742   0.789  13.738 -0.6865  0.5416  1.1891
 4534SOL    HW225239   2.779   0.918  13.791 -1.5342 -1.0652  0.7048
 4535SOL     OW25240   0.297   4.626  16.035 -0.0423 -0.5321  0.0321
 4535SOL    HW125241   0.323   4.562  15.969 -1.2510  1.0844 -2.0169
 4535SOL    HW225242   0.345   4.589  16.109  1.1666  0.0404 -0.4663
 4536SOL     OW25243   1.960   2.570  17.569  0.0657 -0.2576 -0.1184
 4536SOL    HW125244   2.052   2.546  17.554  0.3914  0.2107  1.0850
 4536SOL    HW225245   1.913   2.539  17.491 -1.0815 -0.4263  0.6376
 4537SOL     OW25246   4.369   2.321  11.048  0.0382  0.7894 -0.0259
 4537SOL    HW125247   4.296   2.377  11.021  0.9231  1.3075 -1.2915
 4537SOL    HW225248   4.413   2.323  10.963 -1.8129  0.5499 -0.9841
 4538SOL     OW25249   4.527   4.426   2.891 -0.8373 -0.9899  0.1421
 4538SOL    HW125250   4.511   4.521   2.893 -2.1343 -1.2479  1.4994
 4538SOL    HW225251   4.489   4.398   2.973 -2.5960 -1.6860 -0.9209
 4539SOL     OW25252   2.359   1.434  15.255 -0.6063  0.1685 -0.3469
 4539SOL    HW125253   2.445   1.444  15.214  0.3429  0.9809  1.8379
 4539SOL    HW225254   2.385   1.439  15.347  1.8269 -1.2831 -0.9430
 4540SOL     OW25255   2.603   2.931   6.748 -0.6589 -0.1469  0.5881
 4540SOL    HW125256   2.606   2.840   6.777  0.8134  0.1681  1.4085
 4540SOL    HW225257   2.688   2.935   6.704  0.1563  5.0085  2.6062
 4541SOL     OW25258   0.381   2.337   4.775  0.4917 -0.5549  0.4704
 4541SOL    HW125259   0.375   2.422   4.733  0.5916 -0.5505  0.4651
 4541SOL    HW225260   0.289   2.310   4.776  0.7150 -1.4041 -0.8841
 4542SOL     OW25261   1.457   2.169   4.733 -0.0308  0.0742 -0.1571
 4542SOL    HW125262   1.431   2.098   4.674 -0.5368 -0.3533  0.5783
 4542SOL    HW225263   1.383   2.179   4.793  0.3660 -1.9037  0.6825
 4543SOL     OW25264   3.565   0.767   2.027 -0.1027  0.0977 -0.5200
 4543SOL    HW125265   3.594   0.734   2.112 -0.5858 -0.7827 -0.6993
 4543SOL    HW225266   3.487   0.712   2.018  0.3603 -0.3327 -1.9344
 4544SOL     OW25267   4.676   0.408   5.208 -0.0195 -0.4425  0.2361
 4544SOL    HW125268   4.674   0.354   5.287 -0.3843 -0.7793 -0.0042
 4544SOL    HW225269   4.608   0.364   5.158 -1.9396  0.6062  1.9293
 4545SOL     OW25270   1.083   0.244  11.694 -0.3711 -0.0794  0.0605
 4545SOL    HW125271   0.998   0.269  11.730 -1.2901  0.0566 -2.2024
 4545SOL    HW225272   1.062   0.166  11.643 -2.5876 -0.0749  0.9669
 4546SOL     OW25273   0.589   4.651   5.897  0.4043 -0.6124 -0.1071
 4546SOL    HW125274   0.513   4.622   5.847  2.0179 -1.8120 -1.8551
 4546SOL    HW225275   0.568   4.616   5.983 -1.1392  0.0247 -0.2202
 4547SOL     OW25276   1.970   2.239   6.849 -0.3861 -0.4244  0.7687
 4547SOL    HW125277   1.985   2.313   6.909 -0.0582  0.2218 -0.1077
 4547SOL    HW225278   1.934   2.285   6.773  2.3626  1.3571  0.5392
 4548SOL     OW25279   1.403   1.619  11.753 -0.3639 -0.3499  0.3532
 4548SOL    HW125280   1.447   1.696  11.789  0.7718 -0.5823 -0.5662
 4548SOL    HW225281   1.385   1.561  11.828 -1.3897 -1.5120 -0.7858
 4549SOL     OW25282   3.508   0.088   2.416 -0.5405 -0.2094 -0.0122
 4549SOL    HW125283   3.536   0.113   2.504 -1.8834  0.1500  0.3092
 4549SOL    HW225284   3.456   0.012   2.443 -1.1027 -0.3897 -1.6463
 4550SOL     OW25285   2.558   1.343  11.477 -0.9353 -0.4543  0.5107
 4550SOL    HW125286   2.652   1.334  11.462 -1.1345 -1.7543  0.0163
 4550SOL    HW225287   2.548   1.427  11.522  2.3141 -1.3088  2.8302
 4551SOL     OW25288   2.564   2.931   1.625  0.3623  0.3345  0.4077
 4551SOL    HW125289   2.473   2.958   1.626  0.5096  0.8973 -1.1043
 4551SOL    HW225290   2.591   2.936   1.533  1.5729 -2.1368  0.6216
 4552SOL     OW25291   3.196   3.876  17.311 -0.1452 -0.5615 -0.3086
 4552SOL    HW125292   3.141   3.912  17.242 -1.6160  0.0095  1.1592
 4552SOL    HW225293   3.193   3.959  17.359  1.7479 -1.2758  1.0341
 4553SOL     OW25294   0.286   4.418   4.778 -0.1505  0.0771  0.5798
 4553SOL    HW125295   0.381   4.410   4.792 -0.1947 -0.8465  0.3608
 4553SOL    HW225296   0.274   4.492   4.836  1.7975  2.3545 -1.9248
 4554SOL     OW25297   2.721   2.533   8.649  0.0743  0.2330 -0.3213
 4554SOL    HW125298   2.783   2.598   8.684 -0.2357  0.3427  0.0211
 4554SOL    HW225299   2.662   2.520   8.723 -0.3475 -1.3173 -0.9490
 4555SOL     OW25300   0.049   3.660   3.740 -0.3292 -0.6342  0.3547
 4555SOL    HW125301   0.063   3.617   3.656 -3.6015  0.0454 -0.5295
 4555SOL    HW225302   4.733   3.599   3.792  2.2687 -1.9674  1.5077
 4556SOL     OW25303   2.731   1.993   2.068  0.0376 -0.7882  0.6683
 4556SOL    HW125304   2.765   2.078   2.095  2.0037 -1.9387  1.8177
 4556SOL    HW225305   2.810   1.953   2.032 -0.0952  0.1269 -0.6605
 4557SOL     OW25306   1.948   2.972   1.928 -0.7660  0.0421  0.7642
 4557SOL    HW125307   1.917   2.906   1.990 -0.4766 -1.7125 -0.9418
 4557SOL    HW225308   1.893   3.049   1.941 -1.6986 -0.6491  0.9489
 4558SOL     OW25309   1.564   3.571  17.149 -0.0244 -0.2914  0.2265
 4558SOL    HW125310   1.536   3.496  17.097 -0.1830  0.6824 -1.0875
 4558SOL    HW225311   1.595   3.524  17.226  0.5581 -2.9298 -1.6132
 4559SOL     OW25312   3.326   0.011  13.173  0.1563 -0.1804 -0.4128
 4559SOL    HW125313   3.338   0.054  13.089  1.7620 -3.3395 -1.8298
 4559SOL    HW225314   3.330   0.084  13.234  0.4647 -0.3578 -0.2158
 4560SOL     OW25315   4.282   0.150   7.191 -0.5246  0.2130  0.2421
 4560SOL    HW125316   4.191   0.173   7.175 -1.0981 -1.9426  0.4328
 4560SOL    HW225317   4.280   0.081   7.257 -0.0311 -0.5594 -0.5573
 4561SOL     OW25318   0.603   1.463  15.433 -0.6619  0.4910 -0.3844
 4561SOL    HW125319   0.656   1.457  15.353 -0.4160  0.2205 -0.2027
 4561SOL    HW225320   0.520   1.477  15.388 -0.7187  0.9222 -0.1411
 4562SOL     OW25321   3.928   3.349  10.717  0.2226 -0.0087 -0.1694
 4562SOL    HW125322   3.960   3.331  10.805  0.2517  1.0861  0.0484
 4562SOL    HW225323   4.010   3.375  10.676 -0.7732  1.8473 -1.0024
 4563SOL     OW25324   2.256   3.071   9.174 -0.2721  0.1988  0.0886
 4563SOL    HW125325   2.248   3.005   9.105  4.4817 -1.1611  0.8471
 4563SOL    HW225326   2.345   3.093   9.146  0.3157 -3.8900 -1.3299
 4564SOL     OW25327   0.038   0.171   2.133 -0.0937  0.2465  0.0575
 4564SOL    HW125328   0.126   0.202   2.115 -0.4021  0.2206 -1.5086
 4564SOL    HW225329   0.033   0.078   2.112  1.7150  0.0512  0.5523
 4565SOL     OW25330   1.366   1.474   3.545  0.2966  0.1816  0.4723
 4565SOL    HW125331   1.405   1.475   3.633 -2.3627  1.1164  1.6364
 4565SOL    HW225332   1.439   1.482   3.483 -0.2946  0.2497 -0.2109
 4566SOL     OW25333   1.038   3.403   3.533  0.3019 -0.3482 -0.0327
 4566SOL    HW125334   0.984   3.479   3.514 -0.9087 -1.8418 -2.5076
 4566SOL    HW225335   0.980   3.353   3.590  0.8530 -0.0207  0.8183
 4567SOL     OW25336   1.303   2.491   5.147 -0.5197  0.1925  0.0737
 4567SOL    HW125337   1.398   2.496   5.132 -0.3679 -1.6065  0.4331
 4567SOL    HW225338   1.281   2.581   5.123  2.1334  0.5685 -1.0283
 4568SOL     OW25339   3.835   1.183   5.727  0.1301 -0.4586 -0.2441
 4568SOL    HW125340   3.754   1.218   5.763 -0.2260 -1.1711 -0.3515
 4568SOL    HW225341   3.822   1.092   5.753  0.1454 -0.1829  0.7381
 4569SOL     OW25342   4.444   2.995   4.171 -0.8750 -0.2044  0.1188
 4569SOL    HW125343   4.371   3.049   4.141  0.9287  2.0765 -0.2154
 4569SOL    HW225344   4.405   2.908   4.164 -0.5266 -0.2526 -1.1036
 4570SOL     OW25345   3.695   3.579   2.288  0.2140 -0.1627 -0.4462
 4570SOL    HW125346   3.613   3.607   2.329  0.0007 -1.7485  0.2399
 4570SOL    HW225347   3.727   3.532   2.366  2.7760  0.6996 -1.0072
 4571SOL     OW25348   2.500   4.549   2.244  0.4712 -0.4737  0.6230
 4571SOL    HW125349   2.549   4.539   2.325  1.7735  3.4143  0.3017
 4571SOL    HW225350   2.519   4.462   2.210  0.5600 -1.9329  4.3951
 4572SOL     OW25351   0.625   3.347   3.892  0.1313  0.9070  0.2560
 4572SOL    HW125352   0.629   3.305   3.806  0.1465  3.2081 -0.8802
 4572SOL    HW225353   0.533   3.372   3.900  0.0317  0.3943  0.6666
 4573SOL     OW25354   4.683   4.715   2.619  0.5884  0.4590 -0.0840
 4573SOL    HW125355   0.030   4.703   2.578  0.0158  1.4845 -1.5647
 4573SOL    HW225356   4.618   4.703   2.550  0.2001  2.2491 -0.0341
 4574SOL     OW25357   3.570   4.399   5.928 -0.0278 -0.4650  0.5435
 4574SOL    HW125358   3.478   4.407   5.904  0.4140 -0.4785 -1.1184
 4574SOL    HW225359   3.608   4.346   5.859 -3.3452  0.2065 -1.8137
 4575SOL     OW25360   2.580   0.184  14.398 -0.2550  0.5163 -0.4481
 4575SOL    HW125361   2.597   0.229  14.481  1.6288 -0.2745 -0.3955
 4575SOL    HW225362   2.601   0.092  14.413  0.0841  0.9013  1.3829
 4576SOL     OW25363   2.662   4.562  11.593  0.3859 -0.2798 -0.2558
 4576SOL    HW125364   2.742   4.592  11.550  0.4230 -0.5567 -0.3747
 4576SOL    HW225365   2.679   4.602  11.679 -0.0465 -0.6356 -0.0064
 4577SOL     OW25366   4.134   3.686   5.724  0.4977  0.3279 -0.0077
 4577SOL    HW125367   4.081   3.631   5.781  0.9764  0.3711  0.4792
 4577SOL    HW225368   4.100   3.667   5.636  3.5782 -2.2332 -0.6535
 4578SOL     OW25369   4.650   2.969   7.821  0.0516 -0.0930 -0.1698
 4578SOL    HW125370   4.711   2.895   7.828 -0.8447 -1.0503 -2.6398
 4578SOL    HW225371   4.588   2.924   7.878  0.8455  1.3454  1.8350
 4579SOL     OW25372   1.090   1.695   0.115 -0.9512  0.7800  0.3190
 4579SOL    HW125373   1.153   1.740   0.172 -1.8055  3.1789 -0.6320
 4579SOL    HW225374   1.096   1.761   0.046  2.6626 -2.4715 -2.5036
 4580SOL     OW25375   3.195   3.018  15.187 -0.1450  0.1131 -0.6525
 4580SOL    HW125376   3.159   2.945  15.236 -3.5623  0.6602 -2.4010
 4580SOL    HW225377   3.191   2.985  15.097 -2.2155  2.6852 -1.4896
 4581SOL     OW25378   3.599   1.123   7.683 -0.4234 -0.4202 -0.3371
 4581SOL    HW125379   3.587   1.086   7.596 -2.6790 -0.7644  0.1117
 4581SOL    HW225380   3.589   1.218   7.671 -2.4609 -0.9598 -3.0129
 4582SOL     OW25381   2.717   4.256   5.977  0.6735 -0.3122 -0.8680
 4582SOL    HW125382   2.746   4.330   5.923  1.3260  0.2909  0.2865
 4582SOL    HW225383   2.727   4.181   5.919  2.5298 -0.5461 -0.2433
 4583SOL     OW25384   3.033   4.255   6.030  0.3130  0.4943  0.6664
 4583SOL    HW125385   3.063   4.343   6.007 -0.9549  0.2756 -1.7567
 4583SOL    HW225386   2.943   4.258   6.064 -0.0000 -0.3332 -0.1089
 4584SOL     OW25387   3.086   1.114   8.306  0.4655  0.5860  0.1737
 4584SOL    HW125388   3.113   1.050   8.240 -0.6054  1.9196 -1.5685
 4584SOL    HW225389   3.123   1.194   8.268 -0.6600  0.1696 -1.7952
 4585SOL     OW25390   4.046   1.399   6.989  0.3461  0.0455  0.5675
 4585SOL    HW125391   4.119   1.369   6.935  1.1338  1.0377  1.0693
 4585SOL    HW225392   3.978   1.331   6.990 -0.3943  0.8451  3.8460
 4586SOL     OW25393   2.541   3.511  13.207  0.1934  0.2489 -0.5108
 4586SOL    HW125394   2.554   3.567  13.283 -3.1705  0.7834 -0.3599
 4586SOL    HW225395   2.459   3.534  13.166  0.6639 -1.0186 -2.1728
 4587SOL     OW25396   4.586   3.020   3.184 -0.2124  0.2803 -0.2763
 4587SOL    HW125397   4.623   2.987   3.102  2.2438  0.0824  0.9210
 4587SOL    HW225398   4.598   2.940   3.234  0.4164 -1.3568 -3.0074
 4588SOL     OW25399   0.462   1.814   2.611 -0.2307  0.1891 -0.1671
 4588SOL    HW125400   0.440   1.889   2.666  1.3343  0.6391 -0.1449
 4588SOL    HW225401   0.494   1.854   2.529 -0.6573 -0.9740 -0.9049
 4589SOL     OW25402   0.569   1.337   4.275  0.3141 -0.1378 -0.2604
 4589SOL    HW125403   0.486   1.357   4.319  0.2741  2.4200 -1.5215
 4589SOL    HW225404   0.623   1.414   4.293  0.9213 -0.3880 -1.0079
 4590SOL     OW25405   4.433   0.923   1.536 -0.3682  0.5780  0.0113
 4590SOL    HW125406   4.482   0.994   1.495 -0.0185  0.3934  0.1038
 4590SOL    HW225407   4.398   0.977   1.606 -1.5463 -0.0193 -0.1253
 4591SOL     OW25408   3.600   3.964  16.524 -0.1230 -0.4357 -0.3529
 4591SOL    HW125409   3.531   4.026  16.499  0.0263  0.0697  0.4831
 4591SOL    HW225410   3.676   4.015  16.495  0.1970  0.1920  1.5863
 4592SOL     OW25411   2.145   4.203  14.903  0.0887  0.0097 -0.0220
 4592SOL    HW125412   2.214   4.259  14.867  1.7499 -1.6645  0.5648
 4592SOL    HW225413   2.177   4.189  14.992  1.5863 -0.1976 -0.5915
 4593SOL     OW25414   0.215   1.654   4.793  0.5619 -0.0821  0.4106
 4593SOL    HW125415   0.119   1.653   4.786  0.5488  1.5750  0.3844
 4593SOL    HW225416   0.232   1.729   4.737  0.1968 -0.8090 -0.6749
 4594SOL     OW25417   3.557   1.182   4.906  0.3520  0.1896 -0.0937
 4594SOL    HW125418   3.520   1.263   4.872 -0.1706  0.0315  0.0867
 4594SOL    HW225419   3.648   1.199   4.882  0.3125  0.2987 -0.1620
 4595SOL     OW25420   3.298   2.490  15.430  0.1318 -0.2196 -0.2338
 4595SOL    HW125421   3.314   2.429  15.502 -1.2021  0.6835  0.8173
 4595SOL    HW225422   3.366   2.554  15.452  0.0954 -0.0496 -0.6063
 4596SOL     OW25423   3.527   0.368   8.095 -0.3989 -0.0282  0.5953
 4596SOL    HW125424   3.619   0.393   8.089 -0.4932 -0.0111 -0.7697
 4596SOL    HW225425   3.507   0.345   8.004  0.5993 -1.1764  0.6657
 4597SOL     OW25426   4.601   0.390   8.991  0.0662 -0.4154  0.3136
 4597SOL    HW125427   4.529   0.387   9.054 -0.4770 -1.3093 -0.3447
 4597SOL    HW225428   4.679   0.372   9.044 -0.2871 -1.0921  0.5957
 4598SOL     OW25429   1.607   1.281   3.513  0.0020 -0.5400  0.0499
 4598SOL    HW125430   1.696   1.276   3.478  1.0379  0.5114  2.5272
 4598SOL    HW225431   1.608   1.281   3.609  1.8544  1.7155  0.0298
 4599SOL     OW25432   2.370   1.341   5.358  0.0061  0.3924  0.2735
 4599SOL    HW125433   2.291   1.289   5.369 -0.1723  0.6657  0.2867
 4599SOL    HW225434   2.342   1.414   5.413 -1.5016 -0.7985  1.0642
 4600SOL     OW25435   3.084   0.435   7.748  0.2852  0.2072 -0.2863
 4600SOL    HW125436   3.023   0.509   7.754 -1.5407 -1.2587 -1.0324
 4600SOL    HW225437   3.065   0.378   7.823 -2.0010  0.2828 -0.8115
 4601SOL     OW25438   3.316   1.976   3.096  0.6423 -0.3256  0.5792
 4601SOL    HW125439   3.250   1.975   3.165  1.1307  0.6639  1.0718
 4601SOL    HW225440   3.322   1.881   3.094 -0.5229 -0.3586 -1.2189
 4602SOL     OW25441   4.277   2.006   7.750  0.5755 -0.5794 -0.3636
 4602SOL    HW125442   4.183   2.001   7.771  1.2559 -0.6726  2.6733
 4602SOL    HW225443   4.312   1.939   7.807 -1.0339 -0.9808  0.1697
 4603SOL     OW25444   1.379   2.483  13.841 -1.1036  0.1688  0.8683
 4603SOL    HW125445   1.318   2.442  13.780 -2.3419  0.0418  2.1712
 4603SOL    HW225446   1.353   2.574  13.822  1.7604  0.5577 -1.1494
 4604SOL     OW25447   0.913   0.532   4.323  0.2012  0.1119  0.0972
 4604SOL    HW125448   0.994   0.481   4.317 -0.5420 -1.3164  2.3195
 4604SOL    HW225449   0.879   0.500   4.407 -1.6233  1.3946 -0.1407
 4605SOL     OW25450   1.104   1.430   5.741 -0.2232 -0.1268  0.3785
 4605SOL    HW125451   1.055   1.511   5.734 -0.3816 -0.2873 -0.3915
 4605SOL    HW225452   1.056   1.380   5.676  0.9554 -2.6729  1.4498
 4606SOL     OW25453   3.773   4.094   1.699  0.4718 -0.0230 -0.7066
 4606SOL    HW125454   3.767   4.179   1.744 -2.4939 -0.9060  0.5367
 4606SOL    HW225455   3.849   4.104   1.642  0.7714  0.6315 -0.1928
 4607SOL     OW25456   1.898   4.139  15.668  0.3834  0.3266  0.3806
 4607SOL    HW125457   1.854   4.189  15.600  1.4156  2.2840  1.1837
 4607SOL    HW225458   1.908   4.199  15.742 -0.2939  1.0977 -0.1533
 4608SOL     OW25459   4.539   0.833   3.451 -0.1806  0.1776  0.1201
 4608SOL    HW125460   4.559   0.872   3.536 -0.6496 -1.6289  1.0547
 4608SOL    HW225461   4.511   0.912   3.405 -0.1684 -0.4314 -0.9521
 4609SOL     OW25462   1.280   4.163   4.460  0.4062 -0.3906 -0.3799
 4609SOL    HW125463   1.322   4.248   4.455  0.3398 -0.2281  1.6930
 4609SOL    HW225464   1.294   4.121   4.375  1.1515 -0.4024 -0.2553
 4610SOL     OW25465   3.706   4.257   8.555 -0.3359  0.2170 -0.0816
 4610SOL    HW125466   3.676   4.166   8.563 -1.4801  0.7034  1.1881
 4610SOL    HW225467   3.693   4.279   8.463 -3.2480 -0.7761  0.0760
 4611SOL     OW25468   0.517   3.017   3.246 -0.3513 -0.2561  0.2887
 4611SOL    HW125469   0.469   2.945   3.206  0.6008  0.4121 -2.0572
 4611SOL    HW225470   0.507   3.087   3.181 -0.0231  0.9465  1.5207
 4612SOL     OW25471   2.338   1.069   2.919 -0.2056  0.0628 -0.9199
 4612SOL    HW125472   2.394   1.096   2.846  0.0128 -0.1101 -0.8178
 4612SOL    HW225473   2.363   1.131   2.987 -3.0116 -1.3876  1.4572
 4613SOL     OW25474   4.232   3.053   9.694  0.5611 -0.3568  0.2747
 4613SOL    HW125475   4.229   3.008   9.779 -0.0181  0.6504  0.7796
 4613SOL    HW225476   4.282   3.125   9.733  1.0582 -1.5199  1.7947
 4614SOL     OW25477   0.542   2.030   4.665 -0.8728  0.5122  0.1295
 4614SOL    HW125478   0.613   1.966   4.654 -1.5824 -0.4584  1.1657
 4614SOL    HW225479   0.526   2.030   4.760 -0.0151 -0.2987  0.2764
 4615SOL     OW25480   2.061   0.448   8.282  0.0794  0.3248  0.0267
 4615SOL    HW125481   2.120   0.458   8.356  0.2686  0.3003 -0.1204
 4615SOL    HW225482   2.044   0.541   8.268  0.7880  0.5386  0.6580
 4616SOL     OW25483   1.661   1.056   5.424 -0.2998  0.3783  0.4213
 4616SOL    HW125484   1.670   1.143   5.385  0.5110  0.5438  0.9962
 4616SOL    HW225485   1.723   1.072   5.495 -0.3566  0.5920  0.4243
 4617SOL     OW25486   0.409   2.932  13.839  0.3304  0.3556  0.4461
 4617SOL    HW125487   0.339   2.923  13.904 -0.0171  2.3793  0.3596
 4617SOL    HW225488   0.357   2.942  13.759  1.3659  2.5066  0.0308
 4618SOL     OW25489   1.938   3.749   7.645  0.2424  0.1876 -0.2491
 4618SOL    HW125490   1.929   3.833   7.691 -2.3578  0.8060 -1.8447
 4618SOL    HW225491   2.012   3.769   7.589 -0.6979  1.8252 -0.9106
 4619SOL     OW25492   4.624   2.494   2.033 -0.0961 -0.0474  0.5046
 4619SOL    HW125493   4.692   2.550   2.071  2.4975 -2.5182 -0.5186
 4619SOL    HW225494   4.587   2.537   1.955  2.5743  1.8944  0.2970
 4620SOL     OW25495   3.625   2.423   3.575  0.1604  0.4071 -0.0985
 4620SOL    HW125496   3.667   2.390   3.496  0.5894 -2.8491  1.4800
 4620SOL    HW225497   3.637   2.516   3.556  1.3669  0.3619  0.4402
 4621SOL     OW25498   1.859   4.091  10.672 -0.3603 -0.2263 -0.4943
 4621SOL    HW125499   1.926   4.072  10.738  1.3221 -0.3839 -2.2315
 4621SOL    HW225500   1.915   4.108  10.595  0.4217 -1.5225 -0.1937
 4622SOL     OW25501   1.421   0.261   0.548 -0.1182  0.1241  0.6167
 4622SOL    HW125502   1.375   0.185   0.583  0.2615  0.3581  1.6411
 4622SOL    HW225503   1.355   0.312   0.502  0.2575  0.3239  0.2996
 4623SOL     OW25504   3.723   3.249   3.926  0.2363  0.3269 -0.9066
 4623SOL    HW125505   3.687   3.329   3.888 -0.3562  1.1208  1.3310
 4623SOL    HW225506   3.644   3.198   3.943  1.1140 -1.4148 -2.0773
 4624SOL     OW25507   2.194   3.658   7.169 -0.0932  0.3974  0.1777
 4624SOL    HW125508   2.265   3.651   7.105  0.4739  2.1429  0.6000
 4624SOL    HW225509   2.240   3.671   7.252  1.2968 -0.1388 -0.5013
 4625SOL     OW25510   2.015   2.567  10.472  0.3515 -0.0915  0.0669
 4625SOL    HW125511   2.096   2.574  10.522  0.7234  1.5298 -0.7579
 4625SOL    HW225512   1.986   2.657  10.487  0.3613  0.2968 -2.2561
 4626SOL     OW25513   4.282   4.443   1.489  0.1682  0.0650  0.4944
 4626SOL    HW125514   4.303   4.526   1.445  0.8712 -0.9883 -1.1438
 4626SOL    HW225515   4.214   4.478   1.547 -0.5007 -0.2587 -0.0992
 4627SOL     OW25516   2.108   1.260   4.320 -0.1924 -0.1694 -0.0706
 4627SOL    HW125517   2.095   1.322   4.392 -0.7563  1.8249 -1.8848
 4627SOL    HW225518   2.177   1.291   4.262  0.9579  3.6133  3.2970
 4628SOL     OW25519   1.385   0.554   5.659 -0.2000  0.3949  0.3518
 4628SOL    HW125520   1.336   0.472   5.661  3.1295 -1.5916  0.6228
 4628SOL    HW225521   1.341   0.584   5.579  1.5481  0.6193 -0.5273
 4629SOL     OW25522   0.542   4.718   2.384 -0.0280 -0.4088 -0.8501
 4629SOL    HW125523   0.540   4.674   2.470  0.5785  0.4759 -0.3790
 4629SOL    HW225524   0.494   4.656   2.328  0.1272 -0.3451 -1.0517
 4630SOL     OW25525   0.674   3.182   0.388  0.5062 -0.0113 -0.7512
 4630SOL    HW125526   0.754   3.136   0.417  0.4042  0.9639  1.0722
 4630SOL    HW225527   0.681   3.262   0.440  0.6214  1.0301 -2.3748
 4631SOL     OW25528   3.634   0.444  15.256 -0.2081 -0.2306  0.2431
 4631SOL    HW125529   3.678   0.465  15.174 -1.3458  1.2227 -0.0163
 4631SOL    HW225530   3.590   0.363  15.231 -2.0310  0.5276  0.9552
 4632SOL     OW25531   1.615   4.468   9.078  0.5492  0.2934 -0.3923
 4632SOL    HW125532   1.549   4.504   9.019  0.3647 -0.2677 -0.5267
 4632SOL    HW225533   1.663   4.550   9.092  0.7982 -0.7030  4.2789
 4633SOL     OW25534   3.576   4.554   6.163 -0.2969 -0.3615  0.1845
 4633SOL    HW125535   3.492   4.592   6.138 -0.3742  0.3200  1.4294
 4633SOL    HW225536   3.579   4.490   6.092 -0.1837 -0.3137  0.1454
 4634SOL     OW25537   2.999   3.518   8.105  0.1856 -0.1367  0.2628
 4634SOL    HW125538   2.979   3.518   8.199 -2.6215  1.4857 -0.3425
 4634SOL    HW225539   2.918   3.531   8.056 -0.2125  1.7695  1.4212
 4635SOL     OW25540   0.867   3.673   9.567  0.6029 -0.0466  0.4130
 4635SOL    HW125541   0.774   3.685   9.585  0.5905 -1.4617  1.3638
 4635SOL    HW225542   0.866   3.597   9.509  1.3078  1.2402 -1.2865
 4636SOL     OW25543   1.828   3.568   6.606  0.3600 -0.0106  0.2760
 4636SOL    HW125544   1.878   3.488   6.594 -1.2228 -0.8600 -0.5600
 4636SOL    HW225545   1.892   3.622   6.653  0.2107 -1.8549  2.5742
 4637SOL     OW25546   0.283   1.866   4.613  0.6674 -0.0541 -0.4779
 4637SOL    HW125547   0.269   1.841   4.522 -0.8074  0.0330 -0.2792
 4637SOL    HW225548   0.335   1.944   4.592  2.1916 -1.4753 -1.9319
 4638SOL     OW25549   3.768   1.487   9.755 -0.2881 -0.5219 -0.2260
 4638SOL    HW125550   3.724   1.521   9.832 -0.1612  0.3218 -0.5239
 4638SOL    HW225551   3.859   1.488   9.785 -0.9278  1.6889  1.6047
 4639SOL     OW25552   0.066   3.808   6.701 -0.0060 -0.4964  0.0449
 4639SOL    HW125553   0.095   3.774   6.616  1.4780 -1.3087  0.8618
 4639SOL    HW225554   4.715   3.775   6.708 -0.2702  0.3406  0.6182
 4640SOL     OW25555   2.155   3.817   1.868 -0.0507  1.0234  0.2366
 4640SOL    HW125556   2.146   3.725   1.893 -1.1882  0.6581 -1.5333
 4640SOL    HW225557   2.231   3.823   1.810  0.5470  2.3712  1.1656
 4641SOL     OW25558   4.538   2.088   3.899 -0.0635 -0.0882 -0.1789
 4641SOL    HW125559   4.567   1.997   3.895  1.0221  0.3125 -1.5082
 4641SOL    HW225560   4.449   2.072   3.930  1.4583 -2.2072  3.1068
 4642SOL     OW25561   2.299   4.457  10.362  0.0177 -0.0435  0.3401
 4642SOL    HW125562   2.333   4.467  10.274 -0.8994 -2.6709 -0.3137
 4642SOL    HW225563   2.365   4.488  10.424 -0.3918  0.1948  0.6582
 4643SOL     OW25564   3.796   3.856   2.916 -0.3256 -0.2665 -0.4562
 4643SOL    HW125565   3.714   3.849   2.965 -0.0173  2.6988  0.5115
 4643SOL    HW225566   3.817   3.949   2.925  0.5727 -0.4670 -0.4517
 4644SOL     OW25567   1.569   1.749   5.539  0.1224 -0.1225 -0.1191
 4644SOL    HW125568   1.522   1.688   5.482 -0.7845  1.1006 -0.6791
 4644SOL    HW225569   1.505   1.819   5.546  2.2632  2.0656 -2.2371
 4645SOL     OW25570   0.798   1.548   0.851 -0.2479  0.4908  0.6056
 4645SOL    HW125571   0.747   1.613   0.805 -0.8671  0.8066  1.7330
 4645SOL    HW225572   0.751   1.551   0.935  0.7900  1.0309  1.1753
 4646SOL     OW25573   2.458   3.364   6.562 -0.1501  0.2899  0.0280
 4646SOL    HW125574   2.451   3.444   6.615  0.5026 -0.8445  1.8122
 4646SOL    HW225575   2.367   3.364   6.532 -1.5444  0.7552  4.2356
 4647SOL     OW25576   0.076   3.186   4.574  0.3246 -0.5519 -0.6481
 4647SOL    HW125577   0.131   3.158   4.500 -0.8061 -2.0559 -0.9214
 4647SOL    HW225578   0.136   3.161   4.644  0.4250 -1.5331 -1.0861
 4648SOL     OW25579   0.213   0.923   4.138 -1.1907 -0.3693  0.1782
 4648SOL    HW125580   0.253   0.978   4.071 -2.3543  0.7011  0.3708
 4648SOL    HW225581   0.203   0.843   4.087  0.3674 -0.3040 -0.2236
 4649SOL     OW25582   4.685   2.079   1.652 -0.0821  0.0765 -0.1424
 4649SOL    HW125583   4.734   2.082   1.734  0.1682  3.3061 -0.4061
 4649SOL    HW225584   4.619   2.013   1.674  0.7879 -0.6542  0.2717
 4650SOL     OW25585   0.467   4.480  16.181  0.3355 -0.2466 -0.3624
 4650SOL    HW125586   0.508   4.394  16.179  1.2124  0.1951 -1.0328
 4650SOL    HW225587   0.540   4.538  16.203  0.0456 -0.8339  2.2243
 4651SOL     OW25588   2.707   0.011  14.091 -0.6798  0.1416 -0.0983
 4651SOL    HW125589   2.702   0.030  14.184 -0.0071 -0.3099  0.0279
 4651SOL    HW225590   2.764   4.672  14.090 -0.8703 -0.0071  1.5651
 4652SOL     OW25591   2.177   3.248   8.458 -0.7951 -0.0774  0.6174
 4652SOL    HW125592   2.184   3.273   8.366  1.3805 -2.8989 -0.0070
 4652SOL    HW225593   2.092   3.291   8.468 -0.4039  1.0269 -0.7714
 4653SOL     OW25594   1.347   4.675   7.765 -0.0832 -0.1591  0.4185
 4653SOL    HW125595   1.411   4.666   7.695 -0.9931  0.5766 -0.5162
 4653SOL    HW225596   1.344   0.030   7.788  1.8836 -0.2567  1.0388
 4654SOL     OW25597   3.808   1.102   8.892 -0.0435  0.4742  0.0512
 4654SOL    HW125598   3.752   1.046   8.946  0.2765 -0.4250 -0.5456
 4654SOL    HW225599   3.883   1.117   8.949  1.2440  0.6902 -1.6943
 4655SOL     OW25600   2.064   3.372  13.435 -0.3236  0.1895 -0.0985
 4655SOL    HW125601   2.145   3.361  13.386 -1.1543  1.5105 -1.7975
 4655SOL    HW225602   2.072   3.465  13.458  0.1724 -0.4927  2.4232
 4656SOL     OW25603   0.569   2.607   9.307 -0.8898  0.2207  0.4156
 4656SOL    HW125604   0.569   2.526   9.256 -1.7127  0.9285 -0.6978
 4656SOL    HW225605   0.652   2.598   9.355 -0.6389  0.5378  0.0411
 4657SOL     OW25606   4.722   1.563   7.995  0.4710 -0.2615 -0.6667
 4657SOL    HW125607   4.725   1.507   8.072 -0.1001  0.9112  0.1894
 4657SOL    HW225608   0.069   1.607   8.004  1.8245 -2.7490 -1.1672
 4658SOL     OW25609   0.860   0.280  16.855  1.0724  0.1955  0.5289
 4658SOL    HW125610   0.889   0.255  16.768 -0.3004  0.6584 -0.0556
 4658SOL    HW225611   0.838   0.371  16.838  0.0750 -0.1582 -0.0478
 4659SOL     OW25612   1.453   2.766   1.204 -0.2991 -0.0010  0.1886
 4659SOL    HW125613   1.479   2.674   1.200  2.5517  0.7628  1.0504
 4659SOL    HW225614   1.490   2.799   1.286 -1.3267  1.5883  0.0096
 4660SOL     OW25615   1.967   4.008  10.940  0.0661  0.5168 -0.3324
 4660SOL    HW125616   2.032   3.964  10.995 -0.1607 -1.1667 -1.4135
 4660SOL    HW225617   1.913   3.934  10.914  1.1502 -0.0856 -0.8802
 4661SOL     OW25618   0.182   4.292   1.822  0.2350  0.1976 -0.4760
 4661SOL    HW125619   0.241   4.334   1.759  0.7341  2.9298  1.7775
 4661SOL    HW225620   0.132   4.372   1.840  1.0674  0.7633 -0.6077
 4662SOL     OW25621   0.872   0.392  13.073  0.2822  0.1289  0.1524
 4662SOL    HW125622   0.905   0.321  13.127 -0.8846 -1.6507 -1.4515
 4662SOL    HW225623   0.787   0.422  13.107  0.9778  2.2882 -0.0337
 4663SOL     OW25624   3.364   0.607   4.235 -0.1224  0.3461 -0.0748
 4663SOL    HW125625   3.393   0.551   4.163  1.4036  0.0038  0.8060
 4663SOL    HW225626   3.300   0.653   4.181  1.5778  0.4287 -2.0476
 4664SOL     OW25627   1.836   0.727   0.252  0.8351  0.4422 -0.1951
 4664SOL    HW125628   1.813   0.812   0.214  0.0115 -1.0176 -2.9518
 4664SOL    HW225629   1.753   0.692   0.283  0.8805 -1.4518 -2.2889
 4665SOL     OW25630   0.799   0.838  10.963 -0.6717 -0.0008  0.4826
 4665SOL    HW125631   0.825   0.790  11.042 -0.1516 -1.1575 -0.3917
 4665SOL    HW225632   0.803   0.927  10.997  1.2667 -0.1697  0.7497
 4666SOL     OW25633   0.540   1.872   0.147 -0.2302  0.1416 -0.3452
 4666SOL    HW125634   0.493   1.937   0.198 -0.1379  0.3031 -0.4642
 4666SOL    HW225635   0.575   1.922   0.073 -1.6259 -0.2948 -1.2992
 4667SOL     OW25636   1.338   4.266   5.096  0.0569 -0.1681 -0.1161
 4667SOL    HW125637   1.384   4.216   5.028 -0.5592 -0.6932 -0.1355
 4667SOL    HW225638   1.371   4.356   5.090 -2.0831  0.5603 -0.8227
 4668SOL     OW25639   4.244   2.567  13.043 -0.0156  0.5303 -0.7017
 4668SOL    HW125640   4.165   2.516  13.062 -0.4455  0.3889 -2.8794
 4668SOL    HW225641   4.210   2.651  13.014  1.4991  1.3848  0.0154
 4669SOL     OW25642   2.190   3.128  14.776 -0.9078 -0.5869  0.0577
 4669SOL    HW125643   2.264   3.082  14.736 -0.4040 -1.5528  2.1019
 4669SOL    HW225644   2.227   3.180  14.847  0.1429 -0.2588 -0.7261
 4670SOL     OW25645   0.207   1.535   7.758 -0.1460 -1.0826  0.3508
 4670SOL    HW125646   0.186   1.464   7.698  1.8313  2.0828 -4.0915
 4670SOL    HW225647   0.131   1.592   7.748  0.4440 -0.8458 -2.6278
 4671SOL     OW25648   4.145   0.272   3.071 -0.3590 -0.3727  0.0268
 4671SOL    HW125649   4.111   0.359   3.051  0.0504 -0.4983 -1.1811
 4671SOL    HW225650   4.188   0.260   2.986 -0.3343 -0.8424  0.1029
 4672SOL     OW25651   2.484   3.887   3.963  0.3493  0.2336  0.2849
 4672SOL    HW125652   2.423   3.849   3.899  0.8513 -0.0580 -0.0237
 4672SOL    HW225653   2.554   3.822   3.963  0.1034 -0.0282  1.2661
 4673SOL     OW25654   1.557   2.149   5.629  0.2129 -0.4994 -0.2794
 4673SOL    HW125655   1.549   2.229   5.578 -3.4437 -1.8506 -1.8293
 4673SOL    HW225656   1.641   2.165   5.672  0.0999 -1.4856  0.3049
 4674SOL     OW25657   2.571   1.441   5.210 -0.0585  0.0602  0.1035
 4674SOL    HW125658   2.485   1.415   5.243 -0.5844 -0.1278 -1.3981
 4674SOL    HW225659   2.626   1.397   5.274 -0.6835  0.9512  1.2472
 4675SOL     OW25660   2.471   0.570   1.648  0.0607 -0.3076  0.4210
 4675SOL    HW125661   2.379   0.549   1.660 -0.1759  0.6098  0.2080
 4675SOL    HW225662   2.496   0.589   1.738  0.0525  2.5241 -0.1649
 4676SOL     OW25663   4.338   0.994   8.951 -0.4325  0.2469 -0.2124
 4676SOL    HW125664   4.326   1.053   8.877  1.6985  1.9593  0.7836
 4676SOL    HW225665   4.274   0.925   8.933  0.3884 -0.6631  0.3686
 4677SOL     OW25666   1.007   3.537  11.327 -0.1586  0.1250 -0.3082
 4677SOL    HW125667   1.026   3.444  11.316 -0.1806  0.1144 -0.2543
 4677SOL    HW225668   1.053   3.576  11.253  1.2671 -0.6740  0.1553
 4678SOL     OW25669   4.401   0.297   4.238  0.5338  0.2861  0.0762
 4678SOL    HW125670   4.323   0.252   4.203  0.7005  1.5162 -1.8557
 4678SOL    HW225671   4.431   0.242   4.311 -1.9192 -1.0857  0.0613
 4679SOL     OW25672   0.573   3.794   5.306 -0.1365 -0.0535 -0.1634
 4679SOL    HW125673   0.638   3.827   5.244  0.9403  1.1757  1.6619
 4679SOL    HW225674   0.496   3.835   5.266 -1.6538 -1.6320  1.1505
 4680SOL     OW25675   1.171   3.793  16.449  0.1099 -0.1941  0.5620
 4680SOL    HW125676   1.093   3.756  16.490  0.7081 -0.5390  1.4077
 4680SOL    HW225677   1.171   3.874  16.500 -1.4814 -0.1479  0.4724
 4681SOL     OW25678   1.999   0.206   8.209 -0.2590 -0.1894 -0.6778
 4681SOL    HW125679   2.011   0.301   8.212 -2.3200  0.0505  0.0529
 4681SOL    HW225680   2.081   0.188   8.164  0.1144 -2.1741  0.7888
 4682SOL     OW25681   3.801   1.746  16.664 -0.2810 -0.5158  0.2036
 4682SOL    HW125682   3.709   1.719  16.671 -0.6012  1.0140  1.8638
 4682SOL    HW225683   3.823   1.773  16.753  5.0867  0.0532 -1.2865
 4683SOL     OW25684   1.444   1.094  16.002  0.3477  0.4349  0.2592
 4683SOL    HW125685   1.531   1.133  16.013  0.1237  0.6086  1.4526
 4683SOL    HW225686   1.439   1.088  15.907  0.4055  0.9748  0.2240
 4684SOL     OW25687   3.098   3.449   2.846 -0.4136  0.0486 -0.4248
 4684SOL    HW125688   3.116   3.543   2.834 -0.4298 -0.1957 -2.2831
 4684SOL    HW225689   3.058   3.444   2.760  0.9468 -0.7048 -1.0154
 4685SOL     OW25690   4.349   1.610   4.917  0.6361  0.5088  0.1167
 4685SOL    HW125691   4.381   1.523   4.941 -0.6685 -0.4644 -1.6562
 4685SOL    HW225692   4.262   1.618   4.956  0.9219  1.0690  0.6510
 4686SOL     OW25693   1.719   2.201  11.792 -0.0008  0.0750  0.5007
 4686SOL    HW125694   1.771   2.198  11.712  0.3377 -0.2485  0.7312
 4686SOL    HW225695   1.745   2.117  11.830 -3.1029 -0.6914  0.9402
 4687SOL     OW25696   2.166   2.476   7.403 -0.3910  0.1475 -0.5585
 4687SOL    HW125697   2.201   2.565   7.407 -1.1896  0.4099  0.7214
 4687SOL    HW225698   2.212   2.437   7.477 -0.5227  0.4041 -0.3384
 4688SOL     OW25699   2.277   0.076   4.137  0.5531  0.0020 -0.6605
 4688SOL    HW125700   2.369   0.063   4.114  0.8170  0.4207  0.1571
 4688SOL    HW225701   2.247   0.142   4.075  2.3793  1.3981 -0.0696
 4689SOL     OW25702   4.657   0.060   3.727  0.4873  0.5920 -0.1242
 4689SOL    HW125703   4.738   0.011   3.709  0.1528 -0.4056  1.1230
 4689SOL    HW225704   4.681   0.148   3.754  2.1329  0.6780 -1.8614
 4690SOL     OW25705   3.986   0.933   2.989 -0.6111 -0.1955 -0.6442
 4690SOL    HW125706   3.906   0.881   2.998 -1.6300  0.9988 -2.7120
 4690SOL    HW225707   3.948   1.016   3.018  0.7536  1.3384 -3.2354
 4691SOL     OW25708   0.158   3.584   8.686 -0.2365  0.1892  0.2875
 4691SOL    HW125709   0.193   3.495   8.687  1.2410  0.7686 -0.1730
 4691SOL    HW225710   0.087   3.575   8.749 -1.9754  1.1357 -1.5674
 4692SOL     OW25711   1.983   2.698   1.364 -0.2778  0.2155 -0.4452
 4692SOL    HW125712   2.020   2.781   1.393 -0.1528 -1.0483  3.0408
 4692SOL    HW225713   1.934   2.675   1.443  0.8149  2.1019  0.7935
 4693SOL     OW25714   4.542   3.428  11.843  0.0969  0.4253  0.1397
 4693SOL    HW125715   4.520   3.342  11.807  1.0111  0.6633 -0.9930
 4693SOL    HW225716   4.632   3.427  11.812  0.4595 -0.5072  1.2227
 4694SOL     OW25717   2.407   1.325   4.928  0.8443 -0.1262 -0.7086
 4694SOL    HW125718   2.400   1.240   4.972 -0.6929 -0.3451 -1.3945
 4694SOL    HW225719   2.337   1.315   4.864  0.1856  1.2707 -0.1881
 4695SOL     OW25720   2.114   0.616  14.417  0.3587 -0.5437 -0.3547
 4695SOL    HW125721   2.037   0.560  14.430 -0.0889  0.1932  0.1517
 4695SOL    HW225722   2.077   0.701  14.393 -0.0127 -0.7825 -0.6225
 4696SOL     OW25723   1.666   2.928   8.595 -0.1061 -0.0767 -0.3462
 4696SOL    HW125724   1.691   2.862   8.660 -2.1362  2.1442  2.6890
 4696SOL    HW225725   1.703   2.887   8.516  1.7343 -2.4875  1.7470
 4697SOL     OW25726   1.008   0.498   4.008  0.2244  0.4986 -0.1137
 4697SOL    HW125727   1.009   0.537   4.095 -0.8073 -1.0526  0.5846
 4697SOL    HW225728   1.093   0.522   3.970 -0.5592  0.4581 -1.9035
 4698SOL     OW25729   1.008   0.367   8.838 -0.7438  0.1442  0.0513
 4698SOL    HW125730   1.095   0.352   8.801 -0.9051 -0.7690  0.0516
 4698SOL    HW225731   1.011   0.453   8.880  1.6643 -0.1186  0.3770
 4699SOL     OW25732   4.550   4.080   6.467  0.5035  0.3080  0.2431
 4699SOL    HW125733   4.573   4.058   6.376  0.5107 -0.4421  0.4238
 4699SOL    HW225734   4.642   4.081   6.494  0.5153 -1.4190  0.2795
 4700SOL     OW25735   1.178   0.090   1.278 -0.4645 -0.3302 -0.2514
 4700SOL    HW125736   1.216   0.041   1.205 -1.1929  2.0708 -2.2688
 4700SOL    HW225737   1.101   0.133   1.242 -0.9513  0.9828  2.3414
 4701SOL     OW25738   0.517   4.320   6.524  0.0049  0.0323  0.1239
 4701SOL    HW125739   0.556   4.373   6.593  0.9612  1.2412 -1.3256
 4701SOL    HW225740   0.597   4.290   6.480  0.1333 -0.3467  0.6241
 4702SOL     OW25741   0.632   2.372   8.007 -0.0839  0.4160 -0.5025
 4702SOL    HW125742   0.708   2.421   8.040 -0.5207  0.3016  0.6768
 4702SOL    HW225743   0.588   2.443   7.960  1.4270  1.1779 -0.8044
 4703SOL     OW25744   0.688   3.730   8.212 -0.7024  0.5465 -0.0542
 4703SOL    HW125745   0.712   3.653   8.161 -0.5024 -0.4291  1.5210
 4703SOL    HW225746   0.631   3.694   8.280  0.1937 -0.4124  0.1802
 4704SOL     OW25747   1.343   2.054   3.618 -0.2394  0.1506 -0.1773
 4704SOL    HW125748   1.305   1.970   3.639  1.3576 -0.7361 -0.7964
 4704SOL    HW225749   1.436   2.034   3.602 -0.2227  0.3494 -0.3461
 4705SOL     OW25750   2.596   0.713   7.014 -0.6285 -0.4103  0.3799
 4705SOL    HW125751   2.516   0.665   7.034 -0.9961  0.7648  1.7488
 4705SOL    HW225752   2.626   0.662   6.939  0.6824  0.2259  0.4716
 4706SOL     OW25753   1.099   3.073  11.769 -0.6512  0.5285  0.4466
 4706SOL    HW125754   1.073   3.018  11.843 -2.3494  0.8139  0.0704
 4706SOL    HW225755   1.040   3.148  11.775 -1.5052 -0.1340  0.3507
 4707SOL     OW25756   1.186   4.724   3.533  0.1879 -0.2104 -0.7074
 4707SOL    HW125757   1.102   4.687   3.560  0.5546 -0.9925 -0.6385
 4707SOL    HW225758   1.174   4.691   3.444  0.2146 -0.6161 -0.5612
 4708SOL     OW25759   3.129   4.064   9.686 -0.1010 -0.5756  0.0470
 4708SOL    HW125760   3.097   4.128   9.623  0.4835 -1.0919 -0.7825
 4708SOL    HW225761   3.167   3.988   9.642 -3.2442  0.2889 -4.1189
 4709SOL     OW25762   1.580   0.230   9.231 -0.0459 -0.0354  0.4120
 4709SOL    HW125763   1.547   0.301   9.176  0.8564  0.2798  0.2897
 4709SOL    HW225764   1.565   0.271   9.316  1.0493  3.7718 -1.2315
 4710SOL     OW25765   4.449   2.165   5.686  0.1476 -0.3059 -0.2885
 4710SOL    HW125766   4.456   2.199   5.775  1.7261  0.4892 -0.7029
 4710SOL    HW225767   4.355   2.177   5.674  0.3752  0.5218 -1.1900
 4711SOL     OW25768   0.016   2.856  15.949 -0.4115  0.7546  0.1745
 4711SOL    HW125769   0.040   2.948  15.935  2.7668 -0.2665 -1.0852
 4711SOL    HW225770   4.667   2.859  15.909 -0.1112  3.5792 -0.3127
 4712SOL     OW25771   1.278   3.808   8.656  0.6375  0.6125  0.3097
 4712SOL    HW125772   1.287   3.714   8.670 -0.7323  0.3846 -0.3203
 4712SOL    HW225773   1.340   3.822   8.584  1.0694  2.8304  1.1073
 4713SOL     OW25774   0.796   2.323   2.562  0.3101 -0.0149  0.0909
 4713SOL    HW125775   0.742   2.249   2.534  0.1782  1.0151 -2.3052
 4713SOL    HW225776   0.886   2.291   2.561  1.0182  1.9174  2.0158
 4714SOL     OW25777   3.886   4.060   6.864 -0.2119 -0.7954 -0.0602
 4714SOL    HW125778   3.946   4.120   6.908 -0.1747 -0.5081 -0.5117
 4714SOL    HW225779   3.923   3.976   6.892 -1.4246 -1.1731  0.4384
 4715SOL     OW25780   1.761   2.407   2.074 -0.4966 -0.1618  0.5824
 4715SOL    HW125781   1.769   2.463   2.152 -0.5696  0.9459 -0.2083
 4715SOL    HW225782   1.753   2.317   2.106 -0.1152 -0.2651  0.3856
 4716SOL     OW25783   2.455   0.306  10.932  0.4074  0.2291 -0.4303
 4716SOL    HW125784   2.528   0.367  10.934  0.7456 -0.1492 -1.7374
 4716SOL    HW225785   2.469   0.278  10.842  1.1750  2.2963 -0.9601
 4717SOL     OW25786   1.467   4.234   4.844 -0.0588 -0.4533  0.0924
 4717SOL    HW125787   1.433   4.158   4.796  3.4577 -1.7800 -0.2604
 4717SOL    HW225788   1.415   4.312   4.827  0.3987 -0.4790 -1.3871
 4718SOL     OW25789   1.923   1.247   5.905 -0.0152  0.0185 -0.1320
 4718SOL    HW125790   2.001   1.242   5.850 -0.9640  0.8062 -1.5365
 4718SOL    HW225791   1.887   1.328   5.869  1.3798  1.6291  2.0624
 4719SOL     OW25792   4.327   0.117   6.730 -0.5444  0.3419  0.1820
 4719SOL    HW125793   4.279   0.165   6.797  0.3059  1.5929 -0.1074
 4719SOL    HW225794   4.264   0.049   6.706 -2.5234  1.6008  1.8665
 4720SOL     OW25795   2.361   1.528   7.420  0.1980 -0.2777  0.1501
 4720SOL    HW125796   2.436   1.566   7.375  1.1844  0.1814  2.1947
 4720SOL    HW225797   2.400   1.476   7.490  0.0911  0.9279  1.0890
 4721SOL     OW25798   3.774   1.982   6.430  0.0423  0.1468 -0.0994
 4721SOL    HW125799   3.859   1.969   6.472  0.0905  0.3607 -0.1342
 4721SOL    HW225800   3.752   2.073   6.450  0.2573  0.0328  0.6518
 4722SOL     OW25801   0.745   0.773   4.199  0.2858 -0.5939 -0.0332
 4722SOL    HW125802   0.683   0.773   4.272  1.0368  0.3802  0.6068
 4722SOL    HW225803   0.818   0.731   4.245  1.9340  0.4140 -1.7732
 4723SOL     OW25804   3.755   2.712   8.728 -0.5016 -0.0388 -0.6002
 4723SOL    HW125805   3.833   2.731   8.780 -0.4889 -0.2407 -0.5457
 4723SOL    HW225806   3.719   2.643   8.785 -2.2410  1.4422  0.0911
 4724SOL     OW25807   0.494   1.591   7.586 -0.2397  0.5201  0.0919
 4724SOL    HW125808   0.534   1.665   7.541 -0.0054  0.8735  0.8843
 4724SOL    HW225809   0.426   1.626   7.644 -1.7711 -1.0637 -0.7448
 4725SOL     OW25810   4.488   0.283   0.458 -0.3430 -0.6583  0.0956
 4725SOL    HW125811   4.580   0.292   0.483 -0.0027  1.0551 -1.7047
 4725SOL    HW225812   4.446   0.356   0.502  2.9946  0.2206  1.8388
 4726SOL     OW25813   1.460   2.922   6.593 -0.2197  0.0825  0.1491
 4726SOL    HW125814   1.397   2.953   6.528  0.7542  2.2061  0.2049
 4726SOL    HW225815   1.405   2.901   6.669 -1.4687  3.1030  0.0980
 4727SOL     OW25816   0.381   1.224   4.690 -0.1398  0.5857 -0.4473
 4727SOL    HW125817   0.428   1.256   4.767  0.7053 -0.6327 -0.4531
 4727SOL    HW225818   0.426   1.139   4.683 -0.6361  0.2758  0.0414
 4728SOL     OW25819   0.112   4.598   3.433  0.0197 -0.3918 -0.5672
 4728SOL    HW125820   0.120   4.528   3.368  0.0760 -1.0215  0.1294
 4728SOL    HW225821   0.081   4.557   3.514 -1.8036 -0.8774 -1.4989
 4729SOL     OW25822   0.785   0.743   1.879 -0.1842  0.2012 -0.3869
 4729SOL    HW125823   0.770   0.821   1.931 -1.9886  0.0351 -0.6649
 4729SOL    HW225824   0.787   0.767   1.786 -2.3357 -1.3549 -0.8333
 4730SOL     OW25825   2.928   2.439   5.759  0.2555 -0.4308  0.0943
 4730SOL    HW125826   3.003   2.433   5.818 -0.1500  0.0657  0.6607
 4730SOL    HW225827   2.965   2.405   5.678 -1.9179 -0.9457 -0.6716
 4731SOL     OW25828   2.981   4.550  11.823  0.0237  0.2303  0.6342
 4731SOL    HW125829   2.960   4.630  11.871  0.1081  0.6073  0.0415
 4731SOL    HW225830   3.064   4.519  11.859 -0.2296  1.2094  2.0772
 4732SOL     OW25831   2.283   1.015   2.389 -0.2193  0.3011  0.3471
 4732SOL    HW125832   2.239   1.048   2.467  0.1700  1.2196  0.1797
 4732SOL    HW225833   2.307   1.096   2.343 -0.5305  0.6749  0.8431
 4733SOL     OW25834   0.071   0.757   6.472 -0.0447 -0.0979 -0.4261
 4733SOL    HW125835   0.088   0.781   6.381 -0.3522 -0.3389 -0.5496
 4733SOL    HW225836   0.152   0.754   6.522  0.2337 -1.8851 -0.9860
 4734SOL     OW25837   2.202   3.906   5.759  0.1343  0.0943  0.0904
 4734SOL    HW125838   2.267   3.968   5.793  0.2906  0.1487 -0.3037
 4734SOL    HW225839   2.127   3.930   5.813 -0.4408  1.7315 -1.4186
 4735SOL     OW25840   1.331   4.180  14.420  0.1607  0.1616 -0.2839
 4735SOL    HW125841   1.237   4.181  14.437  0.5393 -2.1132  1.8941
 4735SOL    HW225842   1.357   4.271  14.416 -1.5992  0.7008  0.3315
 4736SOL     OW25843   3.667   3.354   8.595 -0.5193  0.0977 -0.8987
 4736SOL    HW125844   3.647   3.282   8.655  2.3316 -0.2099 -0.3214
 4736SOL    HW225845   3.678   3.428   8.653 -0.9323 -0.3303 -0.2723
 4737SOL     OW25846   2.171   0.364   6.861 -0.5306 -0.2191  0.8474
 4737SOL    HW125847   2.234   0.352   6.790 -0.8887  0.7158  0.3675
 4737SOL    HW225848   2.166   0.459   6.871 -0.7120 -0.0822 -0.5790
 4738SOL     OW25849   0.654   3.577  17.176 -0.6015  0.6990  0.1476
 4738SOL    HW125850   0.664   3.637  17.250  0.2130  1.3239 -0.4599
 4738SOL    HW225851   0.655   3.494  17.223 -1.1373  0.3498 -0.4604
 4739SOL     OW25852   2.171   0.498   0.675  0.3109  0.3351  0.3554
 4739SOL    HW125853   2.236   0.431   0.694 -0.5445 -0.8140 -0.7911
 4739SOL    HW225854   2.202   0.537   0.594  0.5960  1.5190  1.0339
 4740SOL     OW25855   0.684   0.948   2.266 -0.0464 -0.4818 -0.3169
 4740SOL    HW125856   0.620   0.922   2.331 -0.0732  1.5443  0.4641
 4740SOL    HW225857   0.658   0.895   2.191  2.9238  0.3798 -1.9706
 4741SOL     OW25858   4.320   2.281   6.338 -1.1645  0.3716 -0.2505
 4741SOL    HW125859   4.367   2.338   6.277 -0.2525 -0.6013 -0.4688
 4741SOL    HW225860   4.254   2.348   6.358 -0.3848  0.7400  1.0626
 4742SOL     OW25861   0.828   1.211   1.691  0.1434  0.5923 -0.5431
 4742SOL    HW125862   0.896   1.144   1.685 -0.9813 -0.6963  0.8946
 4742SOL    HW225863   0.881   1.291   1.690 -3.0238  2.7081 -0.5344
 4743SOL     OW25864   4.170   2.779   7.228 -0.3035 -0.0708  0.5179
 4743SOL    HW125865   4.134   2.803   7.142  0.9732  0.1214  0.0285
 4743SOL    HW225866   4.214   2.699   7.198  0.7619  0.4609  0.6502
 4744SOL     OW25867   4.089   3.942   5.552 -0.4946 -0.2709 -0.3167
 4744SOL    HW125868   4.160   3.882   5.574 -0.3643  0.2793  0.7322
 4744SOL    HW225869   4.028   3.908   5.618 -0.8154  0.1527 -0.3950
 4745SOL     OW25870   0.201   3.615  13.564  0.1392  0.1071  0.0381
 4745SOL    HW125871   0.147   3.538  13.547 -2.4419  1.6641  1.2086
 4745SOL    HW225872   0.164   3.679  13.504  1.6627 -1.0027 -2.1146
 4746SOL     OW25873   3.498   2.785   5.204  0.7072  0.5468  0.3110
 4746SOL    HW125874   3.506   2.857   5.141 -0.3144  1.7118  1.5119
 4746SOL    HW225875   3.587   2.782   5.239 -0.1017  1.7293  2.4779
 4747SOL     OW25876   3.121   0.449   6.006 -0.5529  0.4947 -0.3384
 4747SOL    HW125877   3.068   0.507   6.061 -0.9792 -0.8585  0.6675
 4747SOL    HW225878   3.179   0.511   5.961  1.0976 -0.1899  0.8259
 4748SOL     OW25879   2.395   2.289   2.386 -1.0861  0.5535  0.6284
 4748SOL    HW125880   2.306   2.258   2.403 -1.1215 -0.6342 -1.6895
 4748SOL    HW225881   2.430   2.340   2.458 -1.4114  1.1355  0.3720
 4749SOL     OW25882   3.202   0.046   7.503  0.1997 -0.2038 -0.0052
 4749SOL    HW125883   3.192   4.689   7.497 -0.2976  0.0565 -3.4239
 4749SOL    HW225884   3.109   0.064   7.507  0.0617 -0.7643 -0.7270
 4750SOL     OW25885   3.743   2.991   6.723  0.3732 -0.0277  0.0423
 4750SOL    HW125886   3.763   2.926   6.790  0.1798  1.7982  1.9025
 4750SOL    HW225887   3.742   2.936   6.645 -0.4030 -1.8398  1.3527
 4751SOL     OW25888   1.335   2.380   2.676  0.3056 -0.0144 -0.1392
 4751SOL    HW125889   1.313   2.287   2.674 -1.0517  0.3413 -2.1078
 4751SOL    HW225890   1.431   2.382   2.670  0.4473 -0.6880  1.9203
 4752SOL     OW25891   3.549   3.109   8.063  0.3845 -0.4054  0.1506
 4752SOL    HW125892   3.589   3.067   8.139 -0.3275  0.7433  1.1466
 4752SOL    HW225893   3.556   3.201   8.089 -2.2198  0.1666 -1.1897
 4753SOL     OW25894   3.304   2.606   2.618  0.0209 -0.1689 -0.4114
 4753SOL    HW125895   3.345   2.520   2.609 -1.8240 -1.0273 -0.5856
 4753SOL    HW225896   3.352   2.646   2.691  1.8677  0.3419 -1.8975
 4754SOL     OW25897   1.790   1.645   1.767 -0.2104 -0.0768 -0.0234
 4754SOL    HW125898   1.728   1.663   1.697 -0.1558  0.1398 -0.0172
 4754SOL    HW225899   1.870   1.610   1.727 -0.8883  1.9634 -3.1699
 4755SOL     OW25900   1.977   3.819  10.614  0.0570  0.0781  0.2543
 4755SOL    HW125901   2.040   3.772  10.669  0.5424  0.8593  0.3586
 4755SOL    HW225902   1.905   3.828  10.676  1.5586  1.4460  1.7836
 4756SOL     OW25903   1.559   4.445   4.484 -0.0475 -0.1989  0.2765
 4756SOL    HW125904   1.550   4.532   4.522 -1.4707  0.6783 -2.0507
 4756SOL    HW225905   1.654   4.431   4.476 -0.0215  1.2665 -2.0199
 4757SOL     OW25906   3.172   2.243   2.775  0.3298  0.4637  0.6828
 4757SOL    HW125907   3.146   2.243   2.867 -1.6488 -1.4198  0.1376
 4757SOL    HW225908   3.232   2.317   2.765  2.5471 -1.8389 -2.9520
 4758SOL     OW25909   3.630   3.404   1.181  0.1461 -0.3646 -0.3532
 4758SOL    HW125910   3.675   3.319   1.186  0.6334 -0.1847 -1.6888
 4758SOL    HW225911   3.555   3.389   1.122 -0.6534 -0.5122  0.7099
 4759SOL     OW25912   0.829   0.435   2.115  0.2250 -0.0802  0.4984
 4759SOL    HW125913   0.917   0.466   2.137  1.4209 -3.1190  0.0834
 4759SOL    HW225914   0.793   0.428   2.203  1.8568 -1.4925  1.0528
 4760SOL     OW25915   3.019   0.496  15.883  0.2718 -0.2163 -0.0814
 4760SOL    HW125916   2.939   0.485  15.935  1.4397  0.4895  1.8785
 4760SOL    HW225917   3.001   0.435  15.811  3.1536 -0.0274 -0.9488
 4761SOL     OW25918   1.979   1.829  14.460 -0.4548  0.2294  0.6168
 4761SOL    HW125919   1.954   1.879  14.382  1.6275 -0.1468 -0.2991
 4761SOL    HW225920   1.985   1.894  14.529  0.8565  1.6449 -0.8330
 4762SOL     OW25921   2.437   0.072   8.958  0.0647  0.1016  0.0805
 4762SOL    HW125922   2.523   0.086   8.997  0.0502  1.9166 -0.5047
 4762SOL    HW225923   2.451   0.114   8.873 -0.8882 -1.1206 -0.6668
 4763SOL     OW25924   3.129   4.110  16.297  0.6922 -0.0552 -0.0305
 4763SOL    HW125925   3.080   4.178  16.344  0.5353  1.0952 -1.8645
 4763SOL    HW225926   3.083   4.091  16.216  1.5730 -0.8303 -0.3567
 4764SOL     OW25927   1.911   3.209  14.815  0.2816 -0.0592 -0.6806
 4764SOL    HW125928   1.900   3.185  14.907 -1.0767  0.0838 -0.8022
 4764SOL    HW225929   2.005   3.201  14.798  0.4249 -2.6421  1.2250
 4765SOL     OW25930   0.951   3.146   8.794  0.0456 -0.2587  0.0483
 4765SOL    HW125931   0.882   3.081   8.782 -0.0819 -0.8320  3.9449
 4765SOL    HW225932   1.022   3.097   8.752 -1.2307 -2.3395  0.3432
 4766SOL     OW25933   2.941   2.006   7.774 -0.4690  0.4720 -0.2945
 4766SOL    HW125934   2.865   1.960   7.739 -0.2882  0.6765 -0.9524
 4766SOL    HW225935   2.899   2.091   7.787  0.5822  0.8745  0.4615
 4767SOL     OW25936   2.021   2.463   3.306  0.1974 -0.1653 -0.4405
 4767SOL    HW125937   2.028   2.460   3.401 -2.0625  0.2232 -0.2702
 4767SOL    HW225938   1.946   2.406   3.288  0.1693 -0.1089 -0.5019
 4768SOL     OW25939   0.798   1.523   6.352  0.2907 -0.1520 -0.0061
 4768SOL    HW125940   0.790   1.617   6.337 -0.0405 -0.3700 -1.1899
 4768SOL    HW225941   0.714   1.499   6.392  0.4196 -0.2836  0.1902
 4769SOL     OW25942   0.191   0.267  14.263 -0.2773 -0.3624  0.4531
 4769SOL    HW125943   0.266   0.207  14.256  0.3094  0.5005 -0.5713
 4769SOL    HW225944   0.121   0.224  14.213  0.1602  0.9352 -1.2836
 4770SOL     OW25945   2.002   2.284   1.509 -0.0825 -0.0914  0.2342
 4770SOL    HW125946   2.018   2.227   1.585 -0.0692 -0.8227 -0.3115
 4770SOL    HW225947   2.076   2.342   1.523  0.8318 -0.9128 -1.2226
 4771SOL     OW25948   1.577   0.708  11.458 -0.4487  0.3032  0.0485
 4771SOL    HW125949   1.552   0.628  11.412  0.7048  0.6537 -1.1812
 4771SOL    HW225950   1.673   0.718  11.460 -0.2837 -1.2634  0.3354
 4772SOL     OW25951   1.372   0.366   6.448 -0.5937 -0.0121 -0.2997
 4772SOL    HW125952   1.297   0.334   6.499 -0.7324 -0.1735 -0.6064
 4772SOL    HW225953   1.349   0.333   6.361 -0.1420 -0.8257 -0.1189
 4773SOL     OW25954   0.086   3.887  11.188 -0.6671  0.1142  0.3138
 4773SOL    HW125955   0.100   3.802  11.146  4.4527  1.7399 -1.2141
 4773SOL    HW225956   0.060   3.937  11.110 -1.5798 -0.2281  0.3900
 4774SOL     OW25957   4.269   2.010   6.301 -0.0293 -0.7047  0.0100
 4774SOL    HW125958   4.306   2.094   6.326 -0.6343 -1.0086  1.8722
 4774SOL    HW225959   4.347   1.954   6.309  0.0520 -0.1273  3.1749
 4775SOL     OW25960   4.341   2.169  17.464  0.6296 -0.3817  0.7031
 4775SOL    HW125961   4.413   2.157  17.526  2.6421  0.4098 -1.4739
 4775SOL    HW225962   4.378   2.146  17.378  0.5171  1.6304  0.1305
 4776SOL     OW25963   0.511   0.892   0.521 -0.5920  0.3557  0.7326
 4776SOL    HW125964   0.515   0.928   0.433  0.3898 -3.1940 -0.6926
 4776SOL    HW225965   0.419   0.905   0.544 -1.0568 -0.7535 -0.4656
 4777SOL     OW25966   2.173   0.759   3.006 -0.0604 -0.6888 -0.4223
 4777SOL    HW125967   2.235   0.781   3.076  1.1163 -3.5211 -0.5900
 4777SOL    HW225968   2.146   0.846   2.978  1.5485  0.7207  2.3785
 4778SOL     OW25969   3.289   1.154  15.167  0.2804  0.2158  0.1652
 4778SOL    HW125970   3.382   1.130  15.168 -0.0140 -0.9110  1.2933
 4778SOL    HW225971   3.282   1.249  15.178  0.6530 -0.0511  2.7596
 4779SOL     OW25972   0.728   2.538   3.139  0.3814 -0.4290  0.0689
 4779SOL    HW125973   0.821   2.560   3.146  0.3965 -0.2173 -0.8554
 4779SOL    HW225974   0.735   2.463   3.080  0.6601 -2.2904  2.4665
 4780SOL     OW25975   4.230   4.062   9.796 -0.5624  0.0315 -0.3773
 4780SOL    HW125976   4.247   4.066   9.891 -0.3541 -0.8011 -0.3814
 4780SOL    HW225977   4.232   4.151   9.762  1.3997  0.6053  1.2499
 4781SOL     OW25978   3.330   2.379   1.327 -0.2028  0.3562  0.3769
 4781SOL    HW125979   3.399   2.376   1.261 -1.4429 -0.1901 -0.9014
 4781SOL    HW225980   3.248   2.380   1.278  0.5546 -1.5191 -0.9528
 4782SOL     OW25981   1.321   2.142  14.296 -0.2318 -0.4164  0.2403
 4782SOL    HW125982   1.334   2.150  14.201  1.3311  1.2256  0.5867
 4782SOL    HW225983   1.403   2.179  14.329  1.0241 -2.6680 -0.3397
 4783SOL     OW25984   3.493   1.301   1.415 -0.2282 -0.0922  0.9723
 4783SOL    HW125985   3.418   1.264   1.461  1.0712 -2.5954  1.0746
 4783SOL    HW225986   3.533   1.218   1.389  3.1041  1.8904 -0.2773
 4784SOL     OW25987   2.940   4.525  14.352  0.5064 -0.0716  0.2407
 4784SOL    HW125988   2.922   4.545  14.260 -0.3879  1.4665  0.7502
 4784SOL    HW225989   2.881   4.586  14.396 -0.1210  0.2263 -1.0058
 4785SOL     OW25990   4.693   0.019   9.418 -0.2280 -0.4493  0.3307
 4785SOL    HW125991   0.013   0.093   9.404 -1.6090  0.3574 -1.1300
 4785SOL    HW225992   4.730   4.693   9.358  3.0468  0.4884  1.3644
 4786SOL     OW25993   4.711   1.117  11.024  0.8101  0.7027 -0.0357
 4786SOL    HW125994   4.710   1.197  11.076 -1.5513  0.6065  0.0536
 4786SOL    HW225995   0.039   1.144  10.960  1.1871  0.3539  0.2042
 4787SOL     OW25996   4.195   1.756   8.643  0.3077  0.4086  0.0005
 4787SOL    HW125997   4.101   1.752   8.624  0.1613  0.4862  0.7245
 4787SOL    HW225998   4.204   1.728   8.734  1.0246  2.7496  0.6461
 4788SOL     OW25999   1.357   2.615   7.060 -0.2774 -0.5778  0.5289
 4788SOL    HW126000   1.328   2.529   7.030  1.1183 -1.2215  1.0010
 4788SOL    HW226001   1.282   2.667   7.033  1.0880  0.5972 -1.0112
 4789SOL     OW26002   1.948   2.322   4.693 -0.9519  0.3428  0.3293
 4789SOL    HW126003   1.930   2.243   4.743 -0.7461 -1.4182 -2.3532
 4789SOL    HW226004   1.867   2.322   4.642 -1.0916  0.7475  0.5545
 4790SOL     OW26005   2.355   2.361   5.470 -0.3031 -0.3770 -0.2853
 4790SOL    HW126006   2.304   2.297   5.519  0.2844  0.6020  1.6270
 4790SOL    HW226007   2.290   2.431   5.462 -1.6163 -1.4468  0.9776
 4791SOL     OW26008   3.392   2.331  15.637  0.0650  0.2066  0.5418
 4791SOL    HW126009   3.384   2.261  15.701 -2.5288 -2.1070 -2.2971
 4791SOL    HW226010   3.476   2.305  15.599 -0.7345  0.1598 -1.2223
 4792SOL     OW26011   2.303   4.257   6.623  0.1757 -0.0913  0.4243
 4792SOL    HW126012   2.369   4.322   6.645  1.4464 -0.6902 -1.6696
 4792SOL    HW226013   2.267   4.246   6.711 -2.1260 -0.6473 -0.5861
 4793SOL     OW26014   0.195   2.659   3.002  0.3733 -0.3189  0.5553
 4793SOL    HW126015   0.168   2.620   2.918  0.0452  1.3286 -0.1013
 4793SOL    HW226016   0.205   2.584   3.061  1.9216  0.2493  1.0126
 4794SOL     OW26017   3.075   0.554  17.401  0.0291  0.2364  0.3269
 4794SOL    HW126018   3.115   0.483  17.350 -0.1632  1.4753 -1.5838
 4794SOL    HW226019   2.998   0.518  17.443  1.3004 -0.7902  1.7884
 4795SOL     OW26020   0.304   2.751   6.040 -0.4367 -0.0570  0.0681
 4795SOL    HW126021   0.279   2.825   6.095 -0.5518 -1.3232  1.7119
 4795SOL    HW226022   0.398   2.772   6.043 -0.4932  0.7168 -2.9236
 4796SOL     OW26023   3.240   1.326  12.250  0.2143 -0.0745  0.3133
 4796SOL    HW126024   3.144   1.326  12.246  0.1579  0.7669  1.7360
 4796SOL    HW226025   3.256   1.274  12.328  1.4870 -1.0380 -0.5820
 4797SOL     OW26026   3.162   3.623   0.119 -0.2340  0.0472 -0.0970
 4797SOL    HW126027   3.204   3.593   0.199  0.1612 -2.4409 -1.2079
 4797SOL    HW226028   3.115   3.545   0.089 -0.9260 -0.4254  2.2415
 4798SOL     OW26029   3.957   1.668   7.064  0.7564  0.3603  0.0124
 4798SOL    HW126030   4.039   1.718   7.054  0.6436  1.0857  2.5839
 4798SOL    HW226031   3.989   1.582   7.036 -0.1215  0.4350 -1.1998
 4799SOL     OW26032   3.397   0.296   4.911  0.2081 -0.5479 -0.5883
 4799SOL    HW126033   3.458   0.319   4.981  1.0901  0.6982 -1.7679
 4799SOL    HW226034   3.352   0.224   4.955  0.5623  1.0021  2.3440
 4800SOL     OW26035   1.370   3.789  14.125  0.1656  0.1504  0.5698
 4800SOL    HW126036   1.301   3.723  14.131 -0.3565  0.5126 -1.4587
 4800SOL    HW226037   1.342   3.846  14.197  1.0100 -1.1978  1.9559
 4801SOL     OW26038   1.978   4.056   9.654  0.3004  0.2763  0.1693
 4801SOL    HW126039   1.933   4.042   9.571  1.4666  3.0128 -0.9611
 4801SOL    HW226040   1.988   3.966   9.685 -0.3644  0.1156 -0.0755
 4802SOL     OW26041   2.088   2.312  15.074 -0.2420 -0.5338  0.0776
 4802SOL    HW126042   2.159   2.248  15.073 -0.0330 -0.3149  0.7087
 4802SOL    HW226043   2.118   2.366  15.147  1.2050  0.3879 -1.1996
 4803SOL     OW26044   0.158   2.503   2.455  0.2982  0.5446 -0.6254
 4803SOL    HW126045   0.100   2.572   2.487  2.3386  1.7339  0.4686
 4803SOL    HW226046   0.247   2.532   2.473  0.1510 -0.3995  1.7053
 4804SOL     OW26047   1.655   0.932   9.579 -0.0308 -0.9424 -0.1735
 4804SOL    HW126048   1.731   0.888   9.619  0.9359  1.1966  0.3606
 4804SOL    HW226049   1.628   0.865   9.516 -0.9862 -1.4548  0.7930
 4805SOL     OW26050   0.349   2.328   7.006  0.5284  0.3254  0.4592
 4805SOL    HW126051   0.327   2.319   6.913  0.1319 -1.2357  0.7004
 4805SOL    HW226052   0.306   2.252   7.046 -0.0347 -0.0467 -0.8726
 4806SOL     OW26053   1.879   4.734   8.381  0.2194 -0.0824 -0.1416
 4806SOL    HW126054   1.911   0.062   8.320  0.3347 -0.3119 -0.3321
 4806SOL    HW226055   1.847   0.047   8.455 -0.2600 -0.7862  0.1393
 4807SOL     OW26056   2.172   2.978   3.293  0.3611  0.2808  0.0911
 4807SOL    HW126057   2.233   3.007   3.361 -1.3570  0.5668  1.5009
 4807SOL    HW226058   2.186   2.884   3.299 -2.2869 -0.1741 -0.8162
 4808SOL     OW26059   2.320   3.908   2.091  0.0272  0.6541 -0.4180
 4808SOL    HW126060   2.287   3.985   2.138 -1.1539 -1.0647  1.5881
 4808SOL    HW226061   2.272   3.907   2.008 -0.5055 -0.8048 -0.0760
 4809SOL     OW26062   0.547   2.997   3.815 -0.3558 -0.2603  0.1606
 4809SOL    HW126063   0.564   3.052   3.739 -0.1038  1.6056  1.5546
 4809SOL    HW226064   0.632   2.959   3.836  1.3687  2.8216 -1.2818
 4810SOL     OW26065   1.983   3.180   2.247  0.8209  0.3844  0.6100
 4810SOL    HW126066   2.048   3.127   2.293  1.0797 -1.9376 -2.4010
 4810SOL    HW226067   1.990   3.160   2.154 -1.2829  1.9002  0.1331
 4811SOL     OW26068   2.442   4.638   2.733  0.1701  0.1445  0.1677
 4811SOL    HW126069   2.450   4.612   2.825 -0.3801  0.2977  0.2589
 4811SOL    HW226070   2.357   4.681   2.731 -0.4607 -0.9838  2.2240
 4812SOL     OW26071   0.468   4.120   4.413  0.3312  0.3304  0.3406
 4812SOL    HW126072   0.504   4.078   4.492 -1.7438 -0.6916  0.7380
 4812SOL    HW226073   0.406   4.054   4.382 -0.6362  1.6500 -0.5115
 4813SOL     OW26074   3.507   3.757   2.016 -0.3925  0.7487  0.0309
 4813SOL    HW126075   3.554   3.809   2.081 -0.7100 -1.6805  2.2106
 4813SOL    HW226076   3.561   3.763   1.938 -0.3385  1.6841  0.1432
 4814SOL     OW26077   3.425   2.378   5.796 -0.6805 -0.3443  0.4430
 4814SOL    HW126078   3.442   2.302   5.741 -0.6304 -0.4606  0.6196
 4814SOL    HW226079   3.504   2.426   5.773 -0.9412  0.9635  2.2668
 4815SOL     OW26080   0.675   1.616   3.981 -0.5328  0.4697 -0.1962
 4815SOL    HW126081   0.734   1.688   3.958  0.8791 -1.5219 -2.7846
 4815SOL    HW226082   0.662   1.608   4.076  0.1726 -1.9547 -0.3049
 4816SOL     OW26083   1.374   1.417   1.834  0.1909 -0.4090 -0.0411
 4816SOL    HW126084   1.407   1.478   1.900  2.6342 -1.8815  0.0691
 4816SOL    HW226085   1.359   1.474   1.759  3.3378 -1.0292 -1.1430
 4817SOL     OW26086   3.225   0.306   7.305  0.1263 -0.8525  0.4484
 4817SOL    HW126087   3.188   0.394   7.297  1.0503 -0.5210 -0.3523
 4817SOL    HW226088   3.240   0.300   7.399  0.9125  3.5573  0.6027
 4818SOL     OW26089   0.012   4.566  11.949 -0.4438  0.3178  0.1215
 4818SOL    HW126090   0.101   4.581  11.979 -0.8818  1.9267  0.6278
 4818SOL    HW226091   4.734   4.485  11.997 -0.7063 -0.3377 -1.0952
 4819SOL     OW26092   0.375   1.251   8.901  0.1265  0.0283 -0.3016
 4819SOL    HW126093   0.434   1.238   8.975  0.1726  2.3784  0.0770
 4819SOL    HW226094   0.289   1.234   8.941  0.4716 -0.1895  0.3395
 4820SOL     OW26095   1.962   0.827   6.322  0.0441  0.1632  0.8211
 4820SOL    HW126096   2.043   0.781   6.304 -1.5446 -1.2935 -2.5183
 4820SOL    HW226097   1.915   0.816   6.240  1.3513 -2.0429  0.3822
 4821SOL     OW26098   4.125   0.752   4.453 -0.4177  0.6016 -0.3731
 4821SOL    HW126099   4.093   0.785   4.369 -0.4235  1.2788 -0.1011
 4821SOL    HW226100   4.053   0.781   4.509 -0.1341  1.5581 -0.5159
 4822SOL     OW26101   4.303   1.600   4.301 -0.2219 -0.3529 -0.1008
 4822SOL    HW126102   4.372   1.538   4.278  0.9278  0.4055  1.3168
 4822SOL    HW226103   4.359   1.675   4.279 -0.5656 -0.3275 -0.8940
 4823SOL     OW26104   1.241   3.619  13.121 -0.2220 -0.2310  0.7679
 4823SOL    HW126105   1.199   3.682  13.178 -0.3415  0.4702 -0.0987
 4823SOL    HW226106   1.184   3.544  13.136 -0.5172 -0.4060 -1.2543
 4824SOL     OW26107   0.256   4.308   0.607 -0.0007 -0.0188 -0.1331
 4824SOL    HW126108   0.167   4.281   0.588 -0.1547  0.8667 -0.6441
 4824SOL    HW226109   0.242   4.342   0.696 -1.8396 -3.0076  0.7432
 4825SOL     OW26110   0.940   1.186   4.824  0.0875 -0.8026 -0.1981
 4825SOL    HW126111   0.966   1.166   4.733  1.5746 -1.1479  0.3058
 4825SOL    HW226112   0.862   1.238   4.809 -2.3132 -4.1886  0.4012
 4826SOL     OW26113   0.562   3.231   8.927  0.0847 -0.3531  0.2550
 4826SOL    HW126114   0.493   3.214   8.991  1.6255  2.3667  2.6211
 4826SOL    HW226115   0.518   3.282   8.860 -0.5104 -0.2536  0.7177
 4827SOL     OW26116   3.698   1.328  10.373  0.3299 -0.4130 -0.5918
 4827SOL    HW126117   3.682   1.234  10.387  0.8116 -0.3288  0.5484
 4827SOL    HW226118   3.613   1.353  10.336  1.6886  1.5045 -2.3594
 4828SOL     OW26119   3.487   3.636   6.137 -0.6687  0.9264 -0.2612
 4828SOL    HW126120   3.408   3.595   6.101 -0.7926 -0.5084  1.6606
 4828SOL    HW226121   3.515   3.561   6.190  2.8366  0.4193 -2.8796
 4829SOL     OW26122   1.772   3.738  14.755 -0.2292 -0.3431  0.0819
 4829SOL    HW126123   1.822   3.663  14.722 -0.1609 -0.1142 -0.3303
 4829SOL    HW226124   1.731   3.772  14.675 -0.8113 -0.0060  0.5228
 4830SOL     OW26125   0.581   2.863   8.272  0.0584 -0.2658  0.0311
 4830SOL    HW126126   0.520   2.791   8.255 -0.7382  0.7554 -1.4480
 4830SOL    HW226127   0.513   2.929   8.284  1.2125  0.9586 -0.2112
 4831SOL     OW26128   0.644   1.688  10.810  0.1221 -0.2508 -0.4488
 4831SOL    HW126129   0.578   1.697  10.879  0.7413 -0.6939  0.2079
 4831SOL    HW226130   0.714   1.752  10.824  0.7476 -1.0617  0.1226
 4832SOL     OW26131   0.256   3.640   4.845 -0.5550  0.0571 -0.4493
 4832SOL    HW126132   0.173   3.672   4.812 -1.1694  1.5229  2.5264
 4832SOL    HW226133   0.229   3.569   4.904 -0.5299  0.7952  0.4472
 4833SOL     OW26134   2.802   1.094   8.127  0.1674  0.2287 -0.3123
 4833SOL    HW126135   2.786   1.007   8.090  0.5327  0.5183 -1.1444
 4833SOL    HW226136   2.894   1.078   8.147  0.0483  1.3334  1.1998
 4834SOL     OW26137   4.662   3.200  17.223 -0.0380  0.0881 -1.0407
 4834SOL    HW126138   0.011   3.168  17.197 -0.2488 -0.2332 -1.3478
 4834SOL    HW226139   4.684   3.286  17.258  2.2222 -1.2716  0.9356
 4835SOL     OW26140   3.246   2.928   2.744 -0.8845  0.5623  0.3243
 4835SOL    HW126141   3.294   2.850   2.769  1.2343  2.0660  0.9449
 4835SOL    HW226142   3.302   2.977   2.683  0.8502 -0.7150  0.9118
 4836SOL     OW26143   0.547   0.435   7.209 -0.0767  0.2796  0.1419
 4836SOL    HW126144   0.540   0.498   7.280  0.4594 -0.5961  0.9801
 4836SOL    HW226145   0.621   0.462   7.154  0.1643  0.5819  0.6046
 4837SOL     OW26146   2.350   1.648   9.063  0.2458 -0.3924 -0.4091
 4837SOL    HW126147   2.405   1.699   9.123 -0.6426  0.7425 -0.5530
 4837SOL    HW226148   2.421   1.612   9.010 -1.7012 -2.0420 -1.8788
 4838SOL     OW26149   2.068   4.582   3.909  0.2231 -0.0101 -0.0465
 4838SOL    HW126150   2.143   4.548   3.862  0.4494 -0.1729  0.4288
 4838SOL    HW226151   2.053   4.667   3.868  0.6744 -0.4589 -1.1318
 4839SOL     OW26152   3.935   0.354   5.082 -0.1967  0.0106  0.0880
 4839SOL    HW126153   3.916   0.315   4.997  1.7793  0.6177 -0.6413
 4839SOL    HW226154   4.013   0.406   5.061 -0.2789 -0.4986 -1.4509
 4840SOL     OW26155   0.513   3.107  11.025  0.4419  0.3939 -0.2359
 4840SOL    HW126156   0.444   3.128  11.088 -0.0274  0.2788 -0.7147
 4840SOL    HW226157   0.589   3.156  11.057 -1.2134  1.8353  1.4653
 4841SOL     OW26158   0.681   0.687   5.221 -0.2048 -0.0526  0.0999
 4841SOL    HW126159   0.655   0.676   5.313 -0.1374  0.2844  0.1578
 4841SOL    HW226160   0.597   0.714   5.184 -0.0614  1.1426  0.6497
 4842SOL     OW26161   4.604   2.414   2.656 -0.0029  0.5297  0.1813
 4842SOL    HW126162   4.627   2.379   2.569  0.8218 -3.8645  2.1492
 4842SOL    HW226163   4.514   2.381   2.660  0.2737 -0.4415 -1.5210
 4843SOL     OW26164   1.529   2.421   3.440 -0.5302  0.2998  0.0352
 4843SOL    HW126165   1.461   2.370   3.396  0.5992 -2.3442  1.2953
 4843SOL    HW226166   1.510   2.406   3.533 -0.0590 -3.1572 -0.4299
 4844SOL     OW26167   3.462   4.097  13.605  0.4660  0.2726 -0.3041
 4844SOL    HW126168   3.441   4.147  13.526 -0.6017  0.2118 -0.0671
 4844SOL    HW226169   3.552   4.073  13.583  0.2842  0.4769 -1.2568
 4845SOL     OW26170   3.967   1.614  11.925  0.4032 -0.4036  0.0613
 4845SOL    HW126171   3.993   1.632  11.835 -0.3212 -2.2162 -0.5225
 4845SOL    HW226172   3.997   1.527  11.951  1.6427 -0.3200 -1.1126
 4846SOL     OW26173   0.515   4.673   8.010  0.2668 -0.4678 -0.2629
 4846SOL    HW126174   0.431   4.639   7.979  0.6650 -0.7967 -0.9773
 4846SOL    HW226175   0.506   0.029   7.994  0.9616 -0.2921  0.3453
 4847SOL     OW26176   4.459   1.438  13.937 -0.4547  0.3167 -0.4206
 4847SOL    HW126177   4.389   1.477  13.991 -1.2054  0.0367 -1.1941
 4847SOL    HW226178   4.527   1.453  14.002  1.9741  1.6115 -3.2992
 4848SOL     OW26179   0.179   0.611   5.555  0.2826  0.7614  0.1616
 4848SOL    HW126180   0.119   0.614   5.629 -1.3587 -0.9261 -1.1028
 4848SOL    HW226181   0.230   0.692   5.562  0.4145  0.5980  1.0257
 4849SOL     OW26182   2.322   4.197  14.073  0.2098 -0.3266 -0.3104
 4849SOL    HW126183   2.385   4.268  14.057  0.4782 -0.6454 -0.6767
 4849SOL    HW226184   2.254   4.234  14.018  0.7845  0.7158 -0.3169
 4850SOL     OW26185   1.096   4.358   2.381  0.0988 -0.4034 -0.4250
 4850SOL    HW126186   1.121   4.279   2.332  0.1888  0.4595 -1.7845
 4850SOL    HW226187   1.084   4.334   2.472  1.9467  0.7942  0.1407
 4851SOL     OW26188   0.217   3.027  12.302  0.0313  0.3358 -0.3954
 4851SOL    HW126189   0.284   2.959  12.294  0.5319  0.9724 -1.6572
 4851SOL    HW226190   0.158   2.984  12.364 -2.3933  3.1327 -0.7502
 4852SOL     OW26191   0.455   3.209   9.177  0.0671  0.0850  0.1852
 4852SOL    HW126192   0.521   3.188   9.243  0.5711 -0.3547 -0.4507
 4852SOL    HW226193   0.383   3.247   9.225  1.1747  0.5020  1.5028
 4853SOL     OW26194   0.902   0.848   3.112 -0.2105  0.4176 -0.2799
 4853SOL    HW126195   0.914   0.759   3.146  1.0801  0.5102 -0.5131
 4853SOL    HW226196   0.961   0.895   3.170  0.2784  1.4153 -1.5755
 4854SOL     OW26197   1.668   4.270   9.702  0.2595 -0.1698 -0.1412
 4854SOL    HW126198   1.749   4.296   9.746 -0.1532 -0.2188  0.6506
 4854SOL    HW226199   1.610   4.344   9.720  0.3061  0.0732 -1.0042
 4855SOL     OW26200   3.858   2.307   8.120 -0.0092  0.1878 -0.1359
 4855SOL    HW126201   3.824   2.324   8.208 -0.1875  3.1953 -0.7780
 4855SOL    HW226202   3.952   2.303   8.138  0.1607 -2.5248 -1.7007
 4856SOL     OW26203   0.961   1.913   7.899 -0.8269  0.0826 -0.5329
 4856SOL    HW126204   0.904   1.962   7.957  0.6180  0.2796  0.7201
 4856SOL    HW226205   1.046   1.947   7.928 -1.3804 -0.3614  1.6168
 4857SOL     OW26206   0.325   0.730   6.590  0.2619  0.4827 -0.0428
 4857SOL    HW126207   0.344   0.735   6.684 -1.7979 -1.7409  0.4871
 4857SOL    HW226208   0.349   0.639   6.572 -0.7750  0.3209 -0.5911
 4858SOL     OW26209   3.886   0.327  14.350 -0.2366 -0.1050 -0.4687
 4858SOL    HW126210   3.961   0.280  14.312  1.0154  0.8739  0.8000
 4858SOL    HW226211   3.818   0.333  14.282 -0.6039 -0.3233 -0.1224
 4859SOL     OW26212   3.822   4.288   7.792 -0.1079  0.0961  0.1165
 4859SOL    HW126213   3.849   4.273   7.883 -1.3684  0.0413  0.4791
 4859SOL    HW226214   3.773   4.210   7.767 -0.8355  0.2593  1.0547
 4860SOL     OW26215   4.463   2.891   8.774  0.4932  0.1726  0.2672
 4860SOL    HW126216   4.554   2.878   8.747  0.1611 -1.4822 -0.0581
 4860SOL    HW226217   4.470   2.983   8.797 -0.8958  0.6308 -1.1260
 4861SOL     OW26218   1.894   3.381  13.794 -0.7280 -0.1504  0.6956
 4861SOL    HW126219   1.982   3.417  13.803 -1.3001  0.8735  2.1796
 4861SOL    HW226220   1.830   3.452  13.789  0.1126  0.4629 -1.2296
 4862SOL     OW26221   1.407   0.972  11.227 -0.4751 -0.2840  0.3161
 4862SOL    HW126222   1.327   1.021  11.246 -1.4604 -0.7212 -2.7479
 4862SOL    HW226223   1.379   0.938  11.142 -0.4586 -3.0532  1.3944
 4863SOL     OW26224   0.264   4.451   4.058  0.0265 -0.0631  0.4935
 4863SOL    HW126225   0.179   4.490   4.038  0.7643 -0.1290 -2.8049
 4863SOL    HW226226   0.267   4.445   4.153  1.6103  1.2352  0.5284
 4864SOL     OW26227   4.057   0.863   4.225  0.8714  0.1753 -0.4768
 4864SOL    HW126228   4.085   0.955   4.227 -1.3437  0.8190  1.5007
 4864SOL    HW226229   4.068   0.861   4.130  3.2482  0.1381 -0.1975
 4865SOL     OW26230   3.822   0.274   4.440 -0.5641  0.1652  0.5422
 4865SOL    HW126231   3.829   0.347   4.502 -0.6147  1.8343 -1.4189
 4865SOL    HW226232   3.886   0.215   4.479  0.4230  1.0312  0.2150
 4866SOL     OW26233   0.514   2.049   7.115  0.7382  0.2396  0.2514
 4866SOL    HW126234   0.433   2.096   7.097  1.3771  1.4385  0.5499
 4866SOL    HW226235   0.525   2.068   7.209 -0.3141  1.3100  0.1596
 4867SOL     OW26236   1.986   1.332   3.286 -0.2101 -0.3000 -0.4602
 4867SOL    HW126237   2.076   1.315   3.256 -0.1763  0.0231 -0.5372
 4867SOL    HW226238   1.944   1.340   3.200 -0.3264 -1.4854 -0.5097
 4868SOL     OW26239   0.946   2.309  10.576 -0.1479  0.1186 -0.3328
 4868SOL    HW126240   0.862   2.283  10.613  1.1891 -2.1991  1.0557
 4868SOL    HW226241   0.928   2.306  10.482 -0.2232  4.0820 -0.4432
 4869SOL     OW26242   0.820   1.069  12.968 -0.7799 -0.8544 -0.0574
 4869SOL    HW126243   0.763   1.095  12.896 -1.0619  0.7558  0.7587
 4869SOL    HW226244   0.785   0.983  12.989  0.0766 -0.7849  1.6754
 4870SOL     OW26245   2.720   0.182   7.842  0.4221  0.0792 -0.2167
 4870SOL    HW126246   2.693   0.274   7.839  0.8288  0.1890 -0.5087
 4870SOL    HW226247   2.696   0.164   7.933 -1.6033  1.5066 -0.4537
 4871SOL     OW26248   2.087   2.925   4.907  0.2839 -0.3308 -0.0961
 4871SOL    HW126249   2.119   2.864   4.841  1.1448 -0.3534  0.3393
 4871SOL    HW226250   2.003   2.889   4.935  0.4872 -1.0607 -0.4260
 4872SOL     OW26251   3.530   3.225   3.472 -0.0303  0.3302 -0.0698
 4872SOL    HW126252   3.532   3.310   3.429  3.2434 -0.4866 -1.5159
 4872SOL    HW226253   3.475   3.192   3.401  0.0769 -0.6067  0.2801
 4873SOL     OW26254   4.336   3.109  16.596  0.2102  0.7226  0.7881
 4873SOL    HW126255   4.329   3.033  16.539 -1.4054  0.6875  1.0275
 4873SOL    HW226256   4.394   3.072  16.663 -0.7346 -1.0888  0.6015
 4874SOL     OW26257   1.570   2.190  17.373 -0.1718  0.0557 -0.4645
 4874SOL    HW126258   1.494   2.138  17.399  1.2413 -2.0858 -0.5412
 4874SOL    HW226259   1.607   2.129  17.308 -0.0145  2.5235 -2.6874
 4875SOL     OW26260   3.402   2.915  16.157  0.0951 -0.5093  0.1385
 4875SOL    HW126261   3.495   2.898  16.172  0.6182  1.1448 -1.2876
 4875SOL    HW226262   3.374   2.838  16.108 -1.7705  1.2803 -1.6003
 4876SOL     OW26263   4.603   0.615   2.100  0.6027  0.4871 -0.6464
 4876SOL    HW126264   4.600   0.534   2.050  0.5590  0.3494 -0.4222
 4876SOL    HW226265   4.690   0.646   2.075  0.8090  0.4230 -0.0017
 4877SOL     OW26266   3.715   1.285   0.337 -0.0354  0.0282 -0.1927
 4877SOL    HW126267   3.705   1.319   0.426 -1.1244 -0.2545 -0.2045
 4877SOL    HW226268   3.748   1.359   0.286 -0.6463  2.1161  2.3729
 4878SOL     OW26269   1.239   4.078   6.421 -0.1927  0.2213  0.2669
 4878SOL    HW126270   1.304   4.147   6.429  0.8121 -0.7006  0.1112
 4878SOL    HW226271   1.160   4.119   6.458  0.9448  2.3386  0.3244
 4879SOL     OW26272   1.468   3.985   1.377 -0.4209  0.0168  0.1997
 4879SOL    HW126273   1.403   3.980   1.307  1.6323  0.0147 -1.7212
 4879SOL    HW226274   1.468   4.078   1.400 -1.9891  0.7106 -2.6306
 4880SOL     OW26275   2.897   0.035   4.388  0.8230  0.1687  0.2974
 4880SOL    HW126276   2.908   0.034   4.293 -2.3024  1.6459 -0.0620
 4880SOL    HW226277   2.860   4.686   4.401  0.8851  0.1269  0.1909
 4881SOL     OW26278   0.013   0.432   6.290 -0.8193 -0.1433 -0.3632
 4881SOL    HW126279   4.718   0.440   6.380 -1.6439  0.1114 -0.6962
 4881SOL    HW226280   4.674   0.450   6.237  0.7966  0.9888 -2.3279
 4882SOL     OW26281   4.646   2.856  15.088 -0.1516  0.0060 -0.3758
 4882SOL    HW126282   4.658   2.884  14.997  0.0445  0.2032 -0.2893
 4882SOL    HW226283   4.564   2.897  15.116 -1.2411 -2.8881  0.6400
 4883SOL     OW26284   3.622   4.367   4.847  0.4352  0.1840 -0.2081
 4883SOL    HW126285   3.594   4.277   4.860  1.7705 -0.5359 -2.2093
 4883SOL    HW226286   3.626   4.411   4.932  3.0670 -1.4071  0.4908
 4884SOL     OW26287   4.576   3.123   5.202 -0.4058  0.4919 -0.0115
 4884SOL    HW126288   4.482   3.107   5.209 -0.1696 -0.7833  0.1290
 4884SOL    HW226289   4.576   3.173   5.120  0.6524  2.1940  1.0162
 4885SOL     OW26290   2.932   3.867   4.999  0.1318  0.4236  0.0736
 4885SOL    HW126291   2.888   3.871   5.083 -1.0183  2.2291 -0.6220
 4885SOL    HW226292   2.917   3.773   4.987  1.9251  0.0112  1.1482
 4886SOL     OW26293   3.059   1.425   6.983  0.2630  0.3247 -0.1125
 4886SOL    HW126294   3.035   1.453   7.071 -1.3184 -0.0432 -0.4337
 4886SOL    HW226295   3.141   1.380   7.003  0.4266  0.0994 -1.2919
 4887SOL     OW26296   2.445   1.186   5.724 -0.0562 -0.0082 -0.1749
 4887SOL    HW126297   2.517   1.243   5.699 -0.0443  0.0136 -0.0883
 4887SOL    HW226298   2.464   1.118   5.659 -0.2775  1.2995 -1.6017
 4888SOL     OW26299   1.108   2.159   7.957  0.3662 -0.0676 -0.0571
 4888SOL    HW126300   1.133   2.251   7.957  1.1920 -0.2921  0.2828
 4888SOL    HW226301   1.172   2.115   7.901 -0.5729  0.4873 -1.5301
 4889SOL     OW26302   4.194   1.246   0.248 -0.2288 -0.5258 -0.5675
 4889SOL    HW126303   4.146   1.295   0.316 -0.1434  1.2672 -1.7939
 4889SOL    HW226304   4.128   1.180   0.227 -2.1638  1.7223 -1.6420
 4890SOL     OW26305   1.238   1.788   1.759  0.0972  0.1606 -0.2463
 4890SOL    HW126306   1.173   1.853   1.730 -3.0498 -2.1691  1.5866
 4890SOL    HW226307   1.298   1.850   1.801 -0.4469 -0.2479  1.1173
 4891SOL     OW26308   2.317   2.877   3.038 -0.5235 -0.1128  0.7517
 4891SOL    HW126309   2.224   2.900   3.033 -0.0786  1.3911 -0.4136
 4891SOL    HW226310   2.345   2.930   3.112 -1.9915  1.4113  0.2148
 4892SOL     OW26311   0.716   2.283   8.950 -0.0181 -0.0967 -0.7755
 4892SOL    HW126312   0.788   2.230   8.985 -1.5097 -0.9597  1.0715
 4892SOL    HW226313   0.641   2.223   8.956  1.0293 -1.3861 -0.7173
 4893SOL     OW26314   2.856   1.057   3.427  0.3144  0.4469  0.0397
 4893SOL    HW126315   2.895   1.104   3.502  2.0967  0.4492 -0.8814
 4893SOL    HW226316   2.923   0.999   3.391  1.6110  1.8620  0.1718
 4894SOL     OW26317   1.588   4.544   3.395  0.5139 -0.7184  0.1166
 4894SOL    HW126318   1.637   4.472   3.434  1.5748  0.2629  0.6206
 4894SOL    HW226319   1.557   4.584   3.477  0.6186 -0.4996  0.0487
 4895SOL     OW26320   3.288   2.689   3.362 -0.3891 -0.4528  0.2700
 4895SOL    HW126321   3.246   2.758   3.311  2.1468  0.3880 -0.6726
 4895SOL    HW226322   3.371   2.728   3.389 -0.8499  1.1310 -0.6053
 4896SOL     OW26323   4.409   4.482   9.662  0.0286 -0.2316  0.3456
 4896SOL    HW126324   4.376   4.565   9.628  2.8058  0.9013  0.3282
 4896SOL    HW226325   4.475   4.508   9.726  0.2038 -0.3820  0.2281
 4897SOL     OW26326   3.015   0.405   4.852  0.1103  0.3947 -0.2882
 4897SOL    HW126327   3.030   0.345   4.780 -0.1702 -0.5825  0.4707
 4897SOL    HW226328   3.034   0.338   4.918 -0.9043  0.8081  0.4215
 4898SOL     OW26329   4.356   0.620   5.246  0.2818  0.3866  0.0557
 4898SOL    HW126330   4.425   0.635   5.181 -1.9706  0.9753 -2.1668
 4898SOL    HW226331   4.401   0.640   5.328  2.0317 -0.4541 -0.7004
 4899SOL     OW26332   1.373   4.350   2.655  0.2197 -0.2526 -0.0390
 4899SOL    HW126333   1.453   4.302   2.635  0.5392 -0.0851  0.8351
 4899SOL    HW226334   1.306   4.282   2.642 -0.8661  1.0066 -1.0072
 4900SOL     OW26335   1.121   2.541   3.981  0.2079 -0.0795 -0.0317
 4900SOL    HW126336   1.111   2.478   3.910 -0.0243 -1.8345  1.5708
 4900SOL    HW226337   1.118   2.623   3.932 -0.3024 -0.0321  0.0834
 4901SOL     OW26338   3.080   0.997   8.576  0.1348  0.1411  0.0877
 4901SOL    HW126339   3.164   1.041   8.589  0.0241  0.5936 -0.7710
 4901SOL    HW226340   3.062   1.041   8.493  1.4479 -2.7383 -1.7102
 4902SOL     OW26341   1.726   3.646   4.929  0.0838 -0.5667 -0.3162
 4902SOL    HW126342   1.712   3.668   5.020 -1.8260  2.8628 -1.4564
 4902SOL    HW226343   1.638   3.636   4.893  0.3410 -0.8835 -0.8834
 4903SOL     OW26344   2.669   2.694  12.080  0.2377  0.4923 -0.5566
 4903SOL    HW126345   2.743   2.649  12.121  0.4396  1.6242  0.3325
 4903SOL    HW226346   2.726   2.739  12.017  0.8218  2.4541  1.3303
 4904SOL     OW26347   0.709   3.211   8.595  0.3715  0.2194 -0.1366
 4904SOL    HW126348   0.713   3.133   8.539  5.4619  0.2910  0.0964
 4904SOL    HW226349   0.776   3.199   8.662  0.1989  0.5168  0.0885
 4905SOL     OW26350   4.527   4.664   3.536 -0.0700 -0.1433 -0.0141
 4905SOL    HW126351   4.578   4.583   3.549 -0.6726 -0.2084  1.8439
 4905SOL    HW226352   4.572   4.720   3.598  1.0914 -0.5598 -0.4829
 4906SOL     OW26353   1.191   1.120   2.816  0.2411  0.0449 -0.1516
 4906SOL    HW126354   1.205   1.158   2.729 -1.3500  0.7217 -0.1124
 4906SOL    HW226355   1.129   1.183   2.852 -1.2393 -0.8119 -1.2108
 4907SOL     OW26356   0.395   4.510   9.489 -0.2241 -0.2173  0.0291
 4907SOL    HW126357   0.312   4.478   9.454 -0.6392  0.7558  0.1341
 4907SOL    HW226358   0.362   4.517   9.579  0.1552  1.6378  0.0177
 4908SOL     OW26359   2.406   0.045  15.148 -0.4931  0.2359  0.3674
 4908SOL    HW126360   2.360   4.738  15.219  0.8188  1.1955  1.8131
 4908SOL    HW226361   2.497   0.043  15.176  0.0427 -1.2903 -1.4413
 4909SOL     OW26362   0.896   1.529   0.424 -0.1525  0.2286 -0.3207
 4909SOL    HW126363   0.964   1.472   0.388  2.7481  3.2355  0.3836
 4909SOL    HW226364   0.944   1.612   0.424 -3.3759  2.0874  0.2515
 4910SOL     OW26365   0.744   1.270   6.761 -0.0182  0.3081 -0.3745
 4910SOL    HW126366   0.829   1.227   6.747 -0.4154 -0.6200  0.0513
 4910SOL    HW226367   0.691   1.194   6.738  2.6207 -1.0016 -2.2023
 4911SOL     OW26368   1.376   3.970   3.214 -0.0187 -0.1636 -0.4252
 4911SOL    HW126369   1.392   3.942   3.305  1.2486  3.1103  0.3719
 4911SOL    HW226370   1.459   4.016   3.197  0.7764 -1.1346  0.7834
 4912SOL     OW26371   1.949   1.655   4.660 -0.0140  0.2310  0.3262
 4912SOL    HW126372   1.936   1.713   4.586 -0.0659 -0.6992 -0.3894
 4912SOL    HW226373   1.945   1.713   4.736  2.2008  2.2622 -1.1463
 4913SOL     OW26374   3.331   1.797  12.070 -0.4929 -0.5448  0.0025
 4913SOL    HW126375   3.257   1.856  12.088  2.6502  2.7258  2.0997
 4913SOL    HW226376   3.317   1.721  12.128  1.4106 -0.7823  0.1283
 4914SOL     OW26377   1.792   4.244  17.081  1.0918  0.5789 -1.0791
 4914SOL    HW126378   1.832   4.203  17.004  1.1472  0.6857 -1.1078
 4914SOL    HW226379   1.700   4.223  17.064  0.9005  0.0037  0.7369
 4915SOL     OW26380   0.678   3.813   6.194  0.8219  0.4568 -0.2765
 4915SOL    HW126381   0.771   3.831   6.207  0.8375  0.6551 -0.6662
 4915SOL    HW226382   0.649   3.845   6.280 -1.4082 -1.8661 -0.1582
 4916SOL     OW26383   2.639   3.364  16.152 -0.9720 -0.1498  1.0626
 4916SOL    HW126384   2.630   3.448  16.105  1.5461 -0.7278 -0.4227
 4916SOL    HW226385   2.721   3.384  16.196 -1.6829  2.1132  1.3689
 4917SOL     OW26386   0.468   0.509   8.157  0.5866  0.2079  0.1054
 4917SOL    HW126387   0.407   0.517   8.084 -4.2914 -1.2187  4.0476
 4917SOL    HW226388   0.508   0.596   8.159  0.6156  0.2257 -1.3975
 4918SOL     OW26389   4.434   2.433  14.950 -1.3389 -0.6076 -0.4899
 4918SOL    HW126390   4.400   2.515  14.914 -0.2542  0.3562  0.6745
 4918SOL    HW226391   4.516   2.468  14.985 -2.2407  0.1602  0.8699
 4919SOL     OW26392   2.326   0.596   2.055 -1.1191 -0.5242 -0.5675
 4919SOL    HW126393   2.358   0.555   2.135  1.3012  2.1520 -0.1491
 4919SOL    HW226394   2.407   0.617   2.009 -0.8660  0.5498  0.3845
 4920SOL     OW26395   0.911   4.452   0.605  0.1756 -0.5854 -0.1327
 4920SOL    HW126396   0.940   4.422   0.519 -1.2658 -1.5256 -0.2918
 4920SOL    HW226397   0.816   4.444   0.597 -0.3947  3.5768  2.7481
 4921SOL     OW26398   0.397   0.968  17.224  0.2609 -0.2242  0.1794
 4921SOL    HW126399   0.313   0.928  17.200  0.1137 -0.8024  1.6059
 4921SOL    HW226400   0.436   0.972  17.137  0.8266  2.6176  0.5715
 4922SOL     OW26401   0.360   2.021   4.380 -0.0698 -0.1172  0.2408
 4922SOL    HW126402   0.267   2.044   4.376 -0.0085  0.1924  0.5959
 4922SOL    HW226403   0.397   2.104   4.409  1.9264 -1.3380  1.2309
 4923SOL     OW26404   0.254   3.541   8.113  0.2439 -0.3537  0.3985
 4923SOL    HW126405   0.253   3.513   8.204  1.4954 -2.7014 -0.2988
 4923SOL    HW226406   0.341   3.517   8.081 -0.0499 -0.9516  0.0512
 4924SOL     OW26407   0.380   2.907   2.889 -0.3881  0.0269 -0.3206
 4924SOL    HW126408   0.415   2.851   2.820  0.8016 -0.1159  0.4024
 4924SOL    HW226409   0.396   2.854   2.967  0.0520  0.4680 -0.1082
 4925SOL     OW26410   1.667   3.954   6.236 -0.2993  0.9794 -0.2609
 4925SOL    HW126411   1.710   4.040   6.232 -0.8493  1.1299 -2.5930
 4925SOL    HW226412   1.740   3.898   6.263 -1.8152  0.0032  1.8495
 4926SOL     OW26413   3.583   1.899   5.669 -0.1009  0.2283 -0.3007
 4926SOL    HW126414   3.597   1.812   5.633  0.8021  0.1427  0.2428
 4926SOL    HW226415   3.498   1.885   5.711 -0.2940 -1.1978 -1.1806
 4927SOL     OW26416   4.558   0.738  13.126 -0.0869  0.3924  0.0620
 4927SOL    HW126417   4.541   0.786  13.208  1.1832 -1.6444  1.5142
 4927SOL    HW226418   4.472   0.710  13.095 -0.2587  0.6543  0.2983
 4928SOL     OW26419   2.857   3.787   8.733  0.3173 -0.0890  0.2266
 4928SOL    HW126420   2.923   3.796   8.801 -0.9830  2.1599  1.1962
 4928SOL    HW226421   2.781   3.811   8.786 -0.3263 -0.4361 -0.5392
 4929SOL     OW26422   1.999   0.217   2.735  0.0068  0.2978 -0.8336
 4929SOL    HW126423   1.913   0.260   2.740 -0.0198  0.2422 -0.8165
 4929SOL    HW226424   2.002   0.179   2.647  2.9195 -0.8012 -0.2407
 4930SOL     OW26425   0.201   2.999   9.855 -0.1050  0.0575  0.5097
 4930SOL    HW126426   0.269   3.060   9.824  1.4608 -2.1920 -0.4284
 4930SOL    HW226427   0.145   3.072   9.885 -0.7158  0.3634 -1.3965
 4931SOL     OW26428   1.301   1.091   6.831 -0.2816  0.4187  0.2758
 4931SOL    HW126429   1.349   1.039   6.766 -0.2014 -0.1725  0.8045
 4931SOL    HW226430   1.334   1.180   6.821 -1.2176  0.8207  0.8100
 4932SOL     OW26431   4.722   3.488   6.927 -0.6102 -0.3807  0.0072
 4932SOL    HW126432   0.071   3.520   6.901 -1.8997  3.0586 -0.0813
 4932SOL    HW226433   4.683   3.476   6.841 -0.7591  0.4416 -0.0438
 4933SOL     OW26434   3.107   3.919   6.799 -0.1891 -0.1396 -0.0998
 4933SOL    HW126435   3.111   3.983   6.727 -1.2251  2.7777  2.4444
 4933SOL    HW226436   3.104   3.974   6.877 -1.2728  0.4365 -0.5414
 4934SOL     OW26437   3.189   1.335   9.220 -0.4374 -0.1220 -0.3424
 4934SOL    HW126438   3.159   1.401   9.158  2.5198 -0.5625 -2.2560
 4934SOL    HW226439   3.106   1.294   9.246 -1.4484  0.8969 -2.0109
 4935SOL     OW26440   1.933   4.165  13.214 -0.3319  0.5272 -0.1018
 4935SOL    HW126441   2.007   4.194  13.161 -0.3663 -0.1330 -0.5061
 4935SOL    HW226442   1.856   4.197  13.167 -1.5375 -0.9922  0.8326
 4936SOL     OW26443   2.663   2.256   4.039 -0.2274  0.4194 -0.6990
 4936SOL    HW126444   2.686   2.240   3.947 -1.5877 -2.8762 -0.4621
 4936SOL    HW226445   2.651   2.169   4.079 -1.4294  0.9350  0.0577
 4937SOL     OW26446   1.063   4.084  11.482  0.2940  0.0191  0.4188
 4937SOL    HW126447   1.152   4.119  11.491 -0.0677  0.4418  2.3317
 4937SOL    HW226448   1.070   4.026  11.558 -0.3360  0.9459  1.1830
 4938SOL     OW26449   4.612   1.174   1.526  0.3714 -0.1401 -0.2581
 4938SOL    HW126450   4.567   1.258   1.524 -2.8095 -1.8844 -2.2534
 4938SOL    HW226451   4.703   1.205   1.523  0.2693 -0.0901 -2.4215
 4939SOL     OW26452   0.474   0.991   4.593 -0.0886 -0.0772 -0.3925
 4939SOL    HW126453   0.411   0.955   4.530  1.3586  0.8235 -2.3509
 4939SOL    HW226454   0.523   1.050   4.535 -1.4707  0.5520 -0.9447
 4940SOL     OW26455   3.647   3.295  14.019 -0.5310  0.6833 -0.5911
 4940SOL    HW126456   3.627   3.241  13.942  1.0445 -2.0100  0.8630
 4940SOL    HW226457   3.571   3.352  14.010 -1.7242 -0.4577  2.1124
 4941SOL     OW26458   2.677   2.106   5.531  0.2635 -1.1775 -0.0583
 4941SOL    HW126459   2.766   2.089   5.562  0.3230 -2.6616 -1.0580
 4941SOL    HW226460   2.650   2.167   5.600  2.4717 -0.0000 -0.2321
 4942SOL     OW26461   4.459   1.085   0.211  0.2472 -0.6075 -0.2220
 4942SOL    HW126462   4.508   1.139   0.149 -1.5938 -0.2311 -1.3540
 4942SOL    HW226463   4.382   1.139   0.230 -0.1096 -1.4654  0.7850
 4943SOL     OW26464   2.127   3.895  13.295  0.4626 -0.4107  0.5835
 4943SOL    HW126465   2.181   3.973  13.309 -0.4564  0.4368 -0.6205
 4943SOL    HW226466   2.049   3.948  13.278 -0.7078 -2.7991 -1.3580
 4944SOL     OW26467   4.629   1.760   4.994 -0.2997 -0.3983  0.2999
 4944SOL    HW126468   4.643   1.802   4.910 -1.9644 -0.0100  0.2129
 4944SOL    HW226469   4.545   1.795   5.023 -0.3570  0.3081 -0.7611
 4945SOL     OW26470   2.703   0.214  10.536 -0.1621 -0.6244 -0.0741
 4945SOL    HW126471   2.791   0.222  10.574 -0.6223 -1.2568  1.1178
 4945SOL    HW226472   2.730   0.236  10.446  1.9933  1.5138  1.0763
 4946SOL     OW26473   4.045   1.320  15.532 -0.4197 -0.5946  0.1179
 4946SOL    HW126474   4.051   1.240  15.481  1.9652  0.1814 -0.8259
 4946SOL    HW226475   4.090   1.290  15.611  1.3404  0.7088 -0.3977
 4947SOL     OW26476   3.305   1.325   7.025  0.4470 -0.9121 -0.4718
 4947SOL    HW126477   3.336   1.354   7.111 -0.2438 -0.6167 -0.3256
 4947SOL    HW226478   3.368   1.253   7.019 -0.0440 -1.3630 -0.1316
 4948SOL     OW26479   3.739   0.890   4.794  0.0210 -0.1625  0.3893
 4948SOL    HW126480   3.707   0.825   4.856 -1.4098  1.1513  1.0389
 4948SOL    HW226481   3.784   0.948   4.855 -1.1570 -0.6622  1.7447
 4949SOL     OW26482   4.683   3.591  13.115 -0.2926  0.1683 -0.0090
 4949SOL    HW126483   4.660   3.506  13.154 -1.5666  1.1247  1.3127
 4949SOL    HW226484   4.613   3.596  13.051  1.8206 -1.4158 -2.4296
 4950SOL     OW26485   2.974   3.884   3.902 -0.1315 -0.5570  0.1858
 4950SOL    HW126486   3.069   3.881   3.897 -0.2328 -1.8115 -1.2728
 4950SOL    HW226487   2.952   3.880   3.809  1.0247 -1.0403 -0.0659
 4951SOL     OW26488   3.716   3.940  11.849 -0.2436 -0.4503 -0.0801
 4951SOL    HW126489   3.645   3.877  11.863 -0.5022 -1.0994 -4.5162
 4951SOL    HW226490   3.782   3.899  11.905 -1.2592  1.2172  2.3555
 4952SOL     OW26491   1.396   1.298   7.692  0.5344  0.4022 -0.0314
 4952SOL    HW126492   1.368   1.214   7.729  0.5497  0.2698 -0.3152
 4952SOL    HW226493   1.490   1.277   7.682  0.5489  0.3323  0.2579
 4953SOL     OW26494   3.096   2.803   1.913 -0.3695  1.1632  0.2250
 4953SOL    HW126495   3.162   2.860   1.876  1.6910 -0.2878  1.6315
 4953SOL    HW226496   3.124   2.714   1.892 -2.1892  0.8456 -0.8536
 4954SOL     OW26497   4.283   3.042   3.526 -0.1827 -0.2993  0.1269
 4954SOL    HW126498   4.267   3.087   3.443 -3.4746 -1.4298  0.1272
 4954SOL    HW226499   4.339   3.105   3.571  0.7853  0.3376 -1.9757
 4955SOL     OW26500   1.491   2.458   0.743  0.3661  0.1999  0.5302
 4955SOL    HW126501   1.439   2.536   0.760  1.0056  0.4790  1.2037
 4955SOL    HW226502   1.559   2.466   0.809  0.0516 -1.1738  1.0152
 4956SOL     OW26503   2.141   0.856   1.530  0.1920 -0.5833  0.1731
 4956SOL    HW126504   2.073   0.871   1.464 -1.3971 -3.4657  1.1960
 4956SOL    HW226505   2.176   0.775   1.492 -0.9836 -0.5473 -0.9763
 4957SOL     OW26506   0.885   3.231  10.122  0.1454 -0.0659 -0.0704
 4957SOL    HW126507   0.919   3.160  10.176  2.1837 -0.6804 -2.1526
 4957SOL    HW226508   0.840   3.174  10.059 -0.6601  0.3438  0.1363
 4958SOL     OW26509   3.057   0.634   8.031 -0.0168 -0.0346 -0.1943
 4958SOL    HW126510   2.986   0.572   8.017  1.1756 -1.8037  1.5017
 4958SOL    HW226511   3.142   0.589   8.032  0.3413  0.6559  0.0559
 4959SOL     OW26512   4.615   0.428   6.555  0.1723  0.5395 -0.4870
 4959SOL    HW126513   4.576   0.342   6.539 -0.3982  0.6025  0.6124
 4959SOL    HW226514   4.627   0.422   6.650 -1.4322  1.1652 -0.2469
 4960SOL     OW26515   1.549   2.907   0.395  0.1686 -0.1382 -0.0777
 4960SOL    HW126516   1.612   2.943   0.458  0.8110  1.2883 -1.5425
 4960SOL    HW226517   1.608   2.851   0.346 -1.3785 -2.5649  0.8652
 4961SOL     OW26518   2.105   0.732   4.918  0.3645 -0.5207 -0.0024
 4961SOL    HW126519   2.121   0.659   4.859 -0.2954 -1.6850  1.2583
 4961SOL    HW226520   2.021   0.705   4.955 -0.3345 -1.4170 -2.2483
 4962SOL     OW26521   2.655   2.844   3.468  0.5648 -0.2026 -0.1655
 4962SOL    HW126522   2.575   2.791   3.474  0.5959 -0.2128  0.1486
 4962SOL    HW226523   2.672   2.838   3.374 -0.3098  1.4592 -0.4239
 4963SOL     OW26524   2.978   3.374   0.595  0.2977 -0.0463 -0.2397
 4963SOL    HW126525   2.942   3.315   0.528  1.0792 -3.6653  2.5557
 4963SOL    HW226526   2.976   3.311   0.666 -2.1906  0.1324 -0.1362
 4964SOL     OW26527   2.103   0.380   4.500  0.2396  0.1685 -0.2558
 4964SOL    HW126528   2.121   0.296   4.459 -0.5962 -1.0254  1.8536
 4964SOL    HW226529   2.113   0.444   4.430 -1.9812  1.9018  1.0048
 4965SOL     OW26530   3.637   4.691   3.261  0.0331 -0.3124 -0.2544
 4965SOL    HW126531   3.682   0.004   3.194  2.4156 -0.6347  1.0844
 4965SOL    HW226532   3.677   4.604   3.253  1.3376  0.2572  0.0313
 4966SOL     OW26533   2.767   0.528   4.106  0.2188  0.0786  0.6753
 4966SOL    HW126534   2.764   0.438   4.073 -2.5221  0.7635 -0.9595
 4966SOL    HW226535   2.798   0.584   4.035  3.2535 -1.2615  0.9620
 4967SOL     OW26536   0.687   3.972   8.345  0.1168  0.4368 -0.5007
 4967SOL    HW126537   0.647   3.888   8.321  0.5370  0.4095 -1.1131
 4967SOL    HW226538   0.778   3.944   8.347 -0.2043 -0.5164  0.6016
 4968SOL     OW26539   0.204   2.745  14.997 -0.0054  0.0659  0.1076
 4968SOL    HW126540   0.174   2.666  14.952  1.7158 -0.5339 -0.0061
 4968SOL    HW226541   0.142   2.803  14.953 -1.0416 -0.7986  0.4466
 4969SOL     OW26542   1.006   0.089   3.196  0.3477 -0.3854 -0.3782
 4969SOL    HW126543   0.942   0.138   3.248  1.0692  0.4071 -0.2315
 4969SOL    HW226544   1.030   0.146   3.123 -4.1292 -0.3287 -1.8164
 4970SOL     OW26545   0.936   3.328   1.291  0.5479  0.5922  0.0685
 4970SOL    HW126546   0.928   3.295   1.381  0.0216 -1.1789 -0.6380
 4970SOL    HW226547   1.030   3.316   1.278  0.6674 -1.8636  3.3062
 4971SOL     OW26548   0.605   2.762   6.849  0.0497 -0.2391  0.2200
 4971SOL    HW126549   0.532   2.716   6.890 -1.2808  2.3341  0.7364
 4971SOL    HW226550   0.653   2.682   6.832 -0.9433 -0.7418 -0.1986
 4972SOL     OW26551   1.325   4.099   9.576  0.2965 -0.4995  1.1436
 4972SOL    HW126552   1.320   4.177   9.521 -0.3724 -0.7239  0.8870
 4972SOL    HW226553   1.241   4.069   9.541 -0.0660  1.1207  0.6439
 4973SOL     OW26554   0.964   1.608   6.723  0.5881 -0.0439  0.6285
 4973SOL    HW126555   0.955   1.532   6.665  1.6006  0.8658 -0.7172
 4973SOL    HW226556   1.058   1.625   6.723  0.9058 -1.7620  0.5995
 4974SOL     OW26557   3.122   4.259   2.923 -0.0042  0.0120  0.3591
 4974SOL    HW126558   3.077   4.324   2.976  0.7006 -0.0596  1.0619
 4974SOL    HW226559   3.184   4.319   2.883 -1.8006  1.5529 -0.0726
 4975SOL     OW26560   0.645   3.292   6.647  0.8264  0.1825  0.4303
 4975SOL    HW126561   0.697   3.325   6.574 -0.6369 -0.3187 -0.8340
 4975SOL    HW226562   0.679   3.344   6.720  0.3706  1.0824  0.0015
 4976SOL     OW26563   2.640   0.602   8.868  0.1144 -0.3467 -0.1078
 4976SOL    HW126564   2.716   0.602   8.809 -0.4946 -1.7355 -0.9211
 4976SOL    HW226565   2.670   0.534   8.929  0.1624  0.1459  0.4132
 4977SOL     OW26566   1.839   1.499   6.569  0.2813 -0.5961 -0.3844
 4977SOL    HW126567   1.801   1.489   6.656  1.8481 -1.5316  0.2031
 4977SOL    HW226568   1.934   1.493   6.583  0.2273 -0.4114  0.0483
 4978SOL     OW26569   3.646   0.188   1.847 -0.2886 -0.3637  0.3350
 4978SOL    HW126570   3.656   0.108   1.795 -0.6372 -0.3886  0.3031
 4978SOL    HW226571   3.554   0.187   1.872  0.3477 -1.5548  2.6015
 4979SOL     OW26572   1.130   3.216   5.360  0.4882  0.0826  0.5112
 4979SOL    HW126573   1.136   3.293   5.304  0.2320  1.1734  1.9724
 4979SOL    HW226574   1.036   3.214   5.377  0.4280 -1.2709  0.0279
 4980SOL     OW26575   1.813   1.586   4.890 -0.4788 -0.2204 -0.0165
 4980SOL    HW126576   1.874   1.536   4.836  0.0516  0.4499 -0.0346
 4980SOL    HW226577   1.736   1.580   4.833  0.3683  0.4970 -1.2422
 4981SOL     OW26578   2.813   3.465   4.000 -1.0728  0.1939  0.2559
 4981SOL    HW126579   2.831   3.510   3.917  1.0602 -0.8647  0.1465
 4981SOL    HW226580   2.870   3.515   4.059 -0.3742  0.7215 -0.8629
 4982SOL     OW26581   2.016   1.466   9.851 -0.0233 -0.0114  0.0580
 4982SOL    HW126582   1.931   1.422   9.857 -0.0241 -0.0060  0.0872
 4982SOL    HW226583   2.069   1.399   9.807 -1.1345  0.0045 -1.2990
 4983SOL     OW26584   2.172   3.822   7.855  0.2156  0.4642 -0.0145
 4983SOL    HW126585   2.139   3.912   7.858  1.7495  1.0491 -0.7948
 4983SOL    HW226586   2.241   3.828   7.921 -0.0680 -2.1476  0.5111
 4984SOL     OW26587   2.179   2.669  11.682  0.2557  0.2395 -0.1886
 4984SOL    HW126588   2.265   2.667  11.640  0.9411  1.1117  1.1715
 4984SOL    HW226589   2.199   2.737  11.746  0.0808 -0.3345  0.4705
 4985SOL     OW26590   3.317   2.822   8.843  0.6799 -0.2721  0.0210
 4985SOL    HW126591   3.374   2.797   8.916  0.3120 -0.7914  0.1324
 4985SOL    HW226592   3.306   2.915   8.860 -2.4704 -0.2680 -2.0921
 4986SOL     OW26593   2.410   1.842   2.828 -0.0069 -0.2687  0.3965
 4986SOL    HW126594   2.424   1.907   2.759  1.8600 -1.1934 -0.0894
 4986SOL    HW226595   2.498   1.844   2.865 -0.3048 -1.6367  1.1901
 4987SOL     OW26596   4.686   4.163   1.906  0.0656 -0.2065  0.4582
 4987SOL    HW126597   4.632   4.225   1.857  0.7235  0.5514  0.6773
 4987SOL    HW226598   0.028   4.185   1.858 -0.4151 -1.5890 -0.9607
 4988SOL     OW26599   3.350   1.999   9.020 -0.1951 -0.2759  0.7157
 4988SOL    HW126600   3.384   1.984   8.931  1.0432 -0.8526  1.2757
 4988SOL    HW226601   3.364   2.093   9.026  0.6044 -0.1904 -2.1945
 4989SOL     OW26602   1.282   1.262   0.317  0.8205  0.3583  0.1661
 4989SOL    HW126603   1.273   1.183   0.370  2.1680  1.3439  1.8620
 4989SOL    HW226604   1.320   1.220   0.239  0.3643  0.1796  0.0341
 4990SOL     OW26605   2.433   3.314   6.143  0.1040 -0.0300 -0.2356
 4990SOL    HW126606   2.470   3.293   6.057 -0.6706  0.3351 -0.6546
 4990SOL    HW226607   2.355   3.259   6.149  1.2470 -1.8405 -1.6305
 4991SOL     OW26608   3.313   4.356   4.147 -0.1413 -0.0455  0.3608
 4991SOL    HW126609   3.274   4.274   4.177 -1.6914  0.1907 -1.0209
 4991SOL    HW226610   3.367   4.379   4.223  1.9236 -1.7494 -0.5816
 4992SOL     OW26611   2.907   2.743   1.483  0.6280 -0.1846 -0.4194
 4992SOL    HW126612   2.915   2.707   1.395 -0.4562 -3.0568  0.6853
 4992SOL    HW226613   2.968   2.679   1.519  1.5346  0.3941 -0.9258
 4993SOL     OW26614   3.939   2.185  11.384 -0.3141  0.1036 -0.1529
 4993SOL    HW126615   4.000   2.171  11.456 -0.3096 -1.3538 -0.4407
 4993SOL    HW226616   3.888   2.109  11.414  0.4363  0.3992  1.8699
 4994SOL     OW26617   0.354   3.393   6.564 -0.5255  0.2891 -0.3907
 4994SOL    HW126618   0.276   3.390   6.620 -0.1817  2.0219  0.1803
 4994SOL    HW226619   0.368   3.300   6.547  1.0361  0.3942  0.2853
 4995SOL     OW26620   0.349   4.513  11.533  0.0017  0.0909  0.0958
 4995SOL    HW126621   0.286   4.584  11.537  0.2981  0.4689 -1.9683
 4995SOL    HW226622   0.296   4.440  11.501 -1.4590  2.5642 -3.0933
 4996SOL     OW26623   0.425   3.820  16.339 -0.0522 -0.0943 -0.0779
 4996SOL    HW126624   0.473   3.825  16.421  1.3637 -2.4042 -0.7900
 4996SOL    HW226625   0.472   3.749  16.295 -1.2657  1.1315 -3.4260
 4997SOL     OW26626   3.787   1.054  16.536  0.7584 -0.2770  0.0456
 4997SOL    HW126627   3.778   1.146  16.514 -0.9224 -1.2003 -3.0957
 4997SOL    HW226628   3.852   1.022  16.473  1.8793  2.4911 -0.1765
 4998SOL     OW26629   2.302   3.649   9.204 -0.4429  0.0952  0.4195
 4998SOL    HW126630   2.347   3.641   9.288  1.8359 -2.3578 -1.0333
 4998SOL    HW226631   2.272   3.560   9.186  0.6438 -0.3029  0.5820
 4999SOL     OW26632   0.250   0.334   7.715 -0.6010 -1.0698  0.3867
 4999SOL    HW126633   0.332   0.328   7.667 -2.0388 -2.5260 -1.9374
 4999SOL    HW226634   0.220   0.416   7.675 -0.1769 -1.1227 -0.0337
 5000SOL     OW26635   2.895   3.526   9.068 -0.4209 -0.4808  0.2544
 5000SOL    HW126636   2.919   3.445   9.114  1.2149  0.7801  1.6204
 5000SOL    HW226637   2.814   3.498   9.024  0.1198 -1.2396 -0.2592
 5001SOL     OW26638   4.299   2.565   5.030 -0.1121 -0.4059  0.7896
 5001SOL    HW126639   4.298   2.603   4.942  1.1792  1.0252  1.3892
 5001SOL    HW226640   4.347   2.634   5.075  0.8406 -0.8016  0.3707
 5002SOL     OW26641   2.897   0.705  12.664 -0.2108  0.1344 -0.7576
 5002SOL    HW126642   2.907   0.642  12.592 -1.4271  2.3483 -2.8819
 5002SOL    HW226643   2.926   0.651  12.737  0.7158 -0.7829 -1.7890
 5003SOL     OW26644   1.366   3.038   0.909  0.6407  0.5070 -0.3234
 5003SOL    HW126645   1.402   2.991   0.834  1.7646  4.6753 -2.4303
 5003SOL    HW226646   1.444   3.089   0.932  0.6705  1.4709 -2.5563
 5004SOL     OW26647   0.734   1.249   1.954  0.0822  0.6920 -0.4571
 5004SOL    HW126648   0.805   1.312   1.969 -0.2147  0.1656  3.1051
 5004SOL    HW226649   0.770   1.207   1.875  0.2481  1.9323 -1.0420
 5005SOL     OW26650   3.616   0.887   7.815 -0.2498 -0.0408  0.1675
 5005SOL    HW126651   3.641   0.965   7.765 -0.8522 -0.3494 -0.6061
 5005SOL    HW226652   3.700   0.848   7.840 -1.0009 -2.4351 -1.0743
 5006SOL     OW26653   0.114   2.543   6.383 -0.6326 -0.4089  0.1961
 5006SOL    HW126654   0.035   2.594   6.400 -0.2095  0.8391 -1.5985
 5006SOL    HW226655   0.121   2.516   6.292 -0.5306  0.5567 -0.0781
 5007SOL     OW26656   1.169   0.547   5.208 -0.4050  0.0187  0.1035
 5007SOL    HW126657   1.082   0.543   5.168 -1.2763  1.5364  1.8491
 5007SOL    HW226658   1.170   0.639   5.234 -0.0985 -0.6247  2.4120
 5008SOL     OW26659   1.905   3.120   7.338  0.3138  0.1804 -0.6780
 5008SOL    HW126660   1.901   3.051   7.271 -0.3748 -0.9617  0.5413
 5008SOL    HW226661   1.816   3.141   7.367  1.3351  1.5319  1.4327
 5009SOL     OW26662   1.975   4.301  15.884  0.2164  0.4312 -0.1350
 5009SOL    HW126663   1.908   4.300  15.952 -0.2555  1.5358 -0.5924
 5009SOL    HW226664   2.051   4.278  15.938  1.2502 -0.8111 -2.0921
 5010SOL     OW26665   4.365   1.458   6.889 -0.0763  0.4504  0.0411
 5010SOL    HW126666   4.439   1.403   6.866 -0.3971  0.3029 -0.6377
 5010SOL    HW226667   4.301   1.431   6.823 -0.2360  0.7535  0.0708
 5011SOL     OW26668   2.197   2.301   4.162  0.2258  0.2439 -0.1489
 5011SOL    HW126669   2.235   2.286   4.248 -0.8139  1.0992  0.4664
 5011SOL    HW226670   2.222   2.217   4.125  0.1496  1.6938 -3.5933
 5012SOL     OW26671   2.435   2.645   5.150  0.0083  0.4951  0.6134
 5012SOL    HW126672   2.531   2.651   5.150  0.0047  0.6206  3.4091
 5012SOL    HW226673   2.426   2.555   5.182 -1.7729 -1.3170 -4.8502
 5013SOL     OW26674   0.120   2.677   3.493  0.1949  0.4921 -0.0011
 5013SOL    HW126675   0.161   2.604   3.539  1.6350 -0.3330 -2.6353
 5013SOL    HW226676   0.171   2.749   3.528  1.2876 -0.6903  0.8435
 5014SOL     OW26677   4.004   1.394   1.986  0.5283 -0.1986  0.4227
 5014SOL    HW126678   3.974   1.303   1.978 -2.2976  0.7598  0.2283
 5014SOL    HW226679   3.967   1.414   2.072 -2.0630 -0.5564 -0.6146
 5015SOL     OW26680   4.348   2.188   8.200  0.2040 -0.2478 -0.1677
 5015SOL    HW126681   4.423   2.177   8.258 -0.2982  1.1509  0.7471
 5015SOL    HW226682   4.388   2.146   8.124 -2.1340 -1.3821 -0.7612
 5016SOL     OW26683   2.147   1.178  13.661  0.1717  0.2791 -0.5506
 5016SOL    HW126684   2.078   1.211  13.604  0.1780  1.0555 -0.1037
 5016SOL    HW226685   2.171   1.258  13.708 -0.4056  1.2223 -1.8699
 5017SOL     OW26686   1.853   1.072   8.105 -0.0420  0.1783 -0.0602
 5017SOL    HW126687   1.921   1.027   8.054  1.1930 -0.4746  2.2017
 5017SOL    HW226688   1.830   1.144   8.046  0.5723  0.9903  0.6975
 5018SOL     OW26689   1.476   3.902   1.773 -0.3838  0.6027  0.7527
 5018SOL    HW126690   1.525   3.849   1.836 -1.3408 -0.7153  0.3929
 5018SOL    HW226691   1.524   3.887   1.691 -0.2714 -0.2360  0.9743
 5019SOL     OW26692   4.284   4.239   7.184 -0.3482  0.4890 -0.1542
 5019SOL    HW126693   4.377   4.261   7.190 -0.6002  1.2389  0.9067
 5019SOL    HW226694   4.262   4.280   7.267  1.8862  0.8331  0.2763
 5020SOL     OW26695   3.978   2.633   5.293 -0.0940  0.0530  0.2759
 5020SOL    HW126696   3.936   2.585   5.365 -3.0277  2.6470  0.2998
 5020SOL    HW226697   3.956   2.581   5.216  1.1320 -0.1694  0.0691
 5021SOL     OW26698   2.270   4.334  15.746 -0.5518 -0.8622 -0.7044
 5021SOL    HW126699   2.237   4.423  15.751 -1.0698 -1.1893  2.0771
 5021SOL    HW226700   2.283   4.305  15.837 -0.6610  2.3448  0.3141
 5022SOL     OW26701   3.815   0.476   6.041  0.2433 -0.1741  0.4074
 5022SOL    HW126702   3.739   0.533   6.040  0.6511  0.3541 -0.2952
 5022SOL    HW226703   3.817   0.434   5.955  1.6078 -1.1812  0.9105
 5023SOL     OW26704   1.763   2.315   6.319 -0.5268  0.5208  0.2250
 5023SOL    HW126705   1.688   2.320   6.260  0.2136 -0.4715 -0.8302
 5023SOL    HW226706   1.733   2.261   6.392 -2.3330 -0.6050 -1.3607
 5024SOL     OW26707   4.373   1.819   3.818  0.1573 -1.0427 -0.3147
 5024SOL    HW126708   4.336   1.902   3.847 -1.8053 -2.0607  0.0855
 5024SOL    HW226709   4.387   1.823   3.723  0.0975  0.7605 -0.2530
 5025SOL     OW26710   0.933   1.876   1.973 -0.1003 -0.2082  0.0813
 5025SOL    HW126711   0.931   1.857   2.066 -1.4457 -1.9692 -0.3111
 5025SOL    HW226712   0.978   1.960   1.962  0.9868 -0.9344 -1.1465
 5026SOL     OW26713   4.417   1.265   0.611  0.2709  0.5518 -0.1397
 5026SOL    HW126714   4.412   1.328   0.682 -1.4410 -0.6585  0.8129
 5026SOL    HW226715   4.486   1.306   0.559  0.9875 -0.2487  0.1905
 5027SOL     OW26716   1.204   2.923   6.142 -0.0835  0.1074 -0.2082
 5027SOL    HW126717   1.179   2.971   6.063 -2.0337 -0.2981  0.1847
 5027SOL    HW226718   1.275   2.864   6.116  0.3534  0.5334  0.0025
 5028SOL     OW26719   4.424   4.287   5.719  0.5082  0.2495 -0.3888
 5028SOL    HW126720   4.484   4.240   5.661  0.8181  1.8563 -1.3610
 5028SOL    HW226721   4.402   4.213   5.775 -1.0791  0.4311 -0.7853
 5029SOL     OW26722   2.392   4.225  10.116 -0.3752  0.1498  0.7981
 5029SOL    HW126723   2.465   4.236  10.177 -0.6647 -2.0944  1.5436
 5029SOL    HW226724   2.339   4.168  10.171  0.6455 -2.3740 -0.7837
 5030SOL     OW26725   1.923   3.525   8.988  0.1895  0.0970 -0.0474
 5030SOL    HW126726   2.012   3.523   9.022  0.0989  2.3119  0.3554
 5030SOL    HW226727   1.872   3.480   9.056  1.6380 -2.4630 -0.6643
 5031SOL     OW26728   0.361   2.600   2.600 -0.1320  0.0669 -0.2458
 5031SOL    HW126729   0.412   2.635   2.528 -1.2730 -0.5855 -1.3771
 5031SOL    HW226730   0.327   2.675   2.649  1.3507 -0.9502  2.3441
 5032SOL     OW26731   3.142   2.197  12.203  0.3650 -0.0427 -0.0860
 5032SOL    HW126732   3.106   2.225  12.287  0.4157  0.3999 -0.2130
 5032SOL    HW226733   3.208   2.131  12.225  0.5175  0.0070 -0.3945
 5033SOL     OW26734   0.338   0.938   5.845  0.7835  0.4100  0.6201
 5033SOL    HW126735   0.278   0.992   5.897 -2.4655 -0.8789 -1.7328
 5033SOL    HW226736   0.320   0.849   5.876  2.9062 -0.4508 -0.6600
 5034SOL     OW26737   4.512   2.489   2.301 -0.0272  0.0551 -0.2545
 5034SOL    HW126738   4.515   2.584   2.307  1.1191  0.0953 -1.4918
 5034SOL    HW226739   4.517   2.482   2.205  2.1148  0.3859 -0.1634
 5035SOL     OW26740   1.621   3.876  13.501  0.4164  0.4992 -0.0995
 5035SOL    HW126741   1.671   3.831  13.570  0.1725  0.3469 -0.0259
 5035SOL    HW226742   1.690   3.883  13.435 -1.1021 -0.2429 -1.7325
 5036SOL     OW26743   1.162   0.217   9.767 -0.6795 -0.5011 -0.1661
 5036SOL    HW126744   1.234   0.257   9.718 -0.7995 -2.2667 -1.7861
 5036SOL    HW226745   1.098   0.284   9.795  0.5850  0.9064 -0.6466
 5037SOL     OW26746   3.811   3.124   3.509  0.1129 -0.5329  0.1838
 5037SOL    HW126747   3.847   3.171   3.433 -0.7591 -1.1382 -0.6064
 5037SOL    HW226748   3.719   3.149   3.498  1.0829  3.5129  1.0886
 5038SOL     OW26749   3.760   4.725  16.587 -0.3532 -0.0591  0.3988
 5038SOL    HW126750   3.819   4.735  16.661  2.6204  0.2602 -2.0265
 5038SOL    HW226751   3.714   4.656  16.634  0.1741 -1.4860 -1.2047
 5039SOL     OW26752   1.353   4.617   5.759 -0.5074  0.3782  0.5090
 5039SOL    HW126753   1.410   4.580   5.827 -1.4105 -0.6823  0.6998
 5039SOL    HW226754   1.318   4.537   5.719 -2.6883  2.5322 -1.8847
 5040SOL     OW26755   2.968   3.302   7.333  0.5020  0.1699 -0.0675
 5040SOL    HW126756   3.017   3.371   7.377 -0.8421  1.2247 -0.2439
 5040SOL    HW226757   2.877   3.318   7.358  0.5824  0.8007 -0.1683
 5041SOL     OW26758   1.977   0.880   9.151 -0.2701 -0.0154 -0.4313
 5041SOL    HW126759   2.054   0.830   9.176  0.3196 -0.0665 -2.3901
 5041SOL    HW226760   2.009   0.968   9.169  1.5313 -0.7970  0.1964
 5042SOL     OW26761   1.768   4.376   0.861  0.0169  0.0312  0.6008
 5042SOL    HW126762   1.822   4.362   0.939  2.5760 -0.4666 -1.2493
 5042SOL    HW226763   1.677   4.366   0.889 -0.7021  2.3951 -0.8129
 5043SOL     OW26764   4.687   0.156  10.125 -0.3178 -0.6304  0.3416
 5043SOL    HW126765   0.010   0.224  10.156  1.2876 -2.1895  0.6193
 5043SOL    HW226766   4.654   0.132  10.212  1.0056 -0.8178  0.8012
 5044SOL     OW26767   3.837   1.326   4.812  0.0309 -0.4058 -0.0705
 5044SOL    HW126768   3.914   1.337   4.757  0.5913 -1.0322  0.6011
 5044SOL    HW226769   3.770   1.352   4.749  0.4398  0.1435 -0.2767
 5045SOL     OW26770   2.146   1.849  12.629 -0.2761 -0.2688  0.5031
 5045SOL    HW126771   2.218   1.826  12.571 -1.4868 -2.4445 -0.1381
 5045SOL    HW226772   2.198   1.863  12.707 -0.0321 -1.9495  0.6549
 5046SOL     OW26773   3.613   4.326  10.188  0.1905 -0.6883 -0.8353
 5046SOL    HW126774   3.530   4.281  10.174  0.0828 -0.8682  0.3587
 5046SOL    HW226775   3.640   4.302  10.277 -0.6239  2.5117  0.2881
 5047SOL     OW26776   0.186   0.658   3.549  0.4245  0.1073 -0.4878
 5047SOL    HW126777   0.251   0.723   3.521 -0.2955  1.1654  0.3230
 5047SOL    HW226778   0.174   0.674   3.642  2.0089 -0.3124 -0.2111
 5048SOL     OW26779   2.463   3.494   9.767 -0.0769 -0.1564  0.6046
 5048SOL    HW126780   2.422   3.410   9.790  2.0695 -1.3625  0.0397
 5048SOL    HW226781   2.507   3.473   9.685 -0.5515  0.5757  0.1652
 5049SOL     OW26782   4.452   3.467   1.937  0.4549  0.3197  0.1203
 5049SOL    HW126783   4.471   3.560   1.925  0.4366  0.3469  0.2972
 5049SOL    HW226784   4.481   3.457   2.028  0.0867  0.7324  0.2810
 5050SOL     OW26785   1.502   1.581   1.995  0.5988 -0.3046 -0.1314
 5050SOL    HW126786   1.554   1.661   2.007  0.9948 -0.4548 -0.8623
 5050SOL    HW226787   1.572   1.522   2.021  1.0664  0.0161 -0.6647
 5051SOL     OW26788   0.123   3.584   4.307  0.0326 -0.0915  0.1145
 5051SOL    HW126789   0.064   3.657   4.319 -1.5677 -1.7718  2.4029
 5051SOL    HW226790   0.137   3.545   4.394 -0.3582  1.8484  1.0437
 5052SOL     OW26791   1.988   2.849   5.647 -0.1431 -0.1263 -0.6208
 5052SOL    HW126792   2.031   2.813   5.569  0.0460  0.3622 -0.7467
 5052SOL    HW226793   1.982   2.942   5.622 -1.3643 -0.7086 -2.4988
 5053SOL     OW26794   0.212   2.646   3.850  0.0631 -0.2331  0.2163
 5053SOL    HW126795   0.293   2.596   3.842 -0.2726 -0.8618  0.7153
 5053SOL    HW226796   0.156   2.593   3.792 -1.1822 -0.0343  1.2440
 5054SOL     OW26797   1.083   2.901   2.114 -0.2408  0.2174  0.2933
 5054SOL    HW126798   0.998   2.943   2.124 -0.0683  0.4116  0.9092
 5054SOL    HW226799   1.105   2.914   2.021 -0.5528 -0.8811  0.0670
 5055SOL     OW26800   3.026   2.149  10.414  0.0501 -0.5142 -0.4476
 5055SOL    HW126801   2.965   2.208  10.456 -2.9836 -2.0838 -2.6354
 5055SOL    HW226802   3.053   2.082  10.478 -2.5567  0.3123  1.4970
 5056SOL     OW26803   2.686   2.597  12.980  0.1095 -0.5552 -0.0892
 5056SOL    HW126804   2.709   2.509  13.007  0.3641 -1.3164 -2.8682
 5056SOL    HW226805   2.773   2.636  12.979  0.1323 -0.6677 -3.1437
 5057SOL     OW26806   2.748   2.102   6.487  0.1680  0.1975  0.2140
 5057SOL    HW126807   2.690   2.169   6.524  0.6030  1.2418 -1.0132
 5057SOL    HW226808   2.817   2.102   6.553 -0.8449 -0.0088  1.2666
 5058SOL     OW26809   4.572   2.852  13.198 -0.0829 -0.0107 -0.0165
 5058SOL    HW126810   4.547   2.905  13.273  0.9377 -1.1262  1.1016
 5058SOL    HW226811   4.531   2.896  13.123 -0.0885 -1.5511 -0.9393
 5059SOL     OW26812   4.310   3.913   4.016  0.1517  0.6233  0.2876
 5059SOL    HW126813   4.339   3.995   4.056  0.0027  0.6903  0.2575
 5059SOL    HW226814   4.216   3.920   4.033 -0.2477  0.9409 -2.0582
 5060SOL     OW26815   3.622   0.513   4.647  0.9088 -0.1841 -0.7650
 5060SOL    HW126816   3.550   0.452   4.629 -1.6156  2.1596  1.5989
 5060SOL    HW226817   3.618   0.570   4.570 -1.9783  0.6615  0.0129
 5061SOL     OW26818   2.444   1.478  15.506 -0.2720  0.2209 -0.0988
 5061SOL    HW126819   2.530   1.473  15.547 -0.1228  3.1442 -0.0612
 5061SOL    HW226820   2.388   1.485  15.583  0.5344  3.8572  0.1610
 5062SOL     OW26821   1.806   0.933   6.079  0.8743  0.2036 -0.2908
 5062SOL    HW126822   1.753   0.880   6.139 -0.1732  0.6255 -0.8420
 5062SOL    HW226823   1.803   1.016   6.127 -0.4450 -0.8511  1.4318
 5063SOL     OW26824   1.335   4.320   9.859  0.0746  0.5834 -0.3490
 5063SOL    HW126825   1.339   4.358   9.947  2.0290 -2.0452  0.7223
 5063SOL    HW226826   1.392   4.384   9.817  1.3420  0.3285  0.9792
 5064SOL     OW26827   2.055   3.734  11.739 -0.0489  0.0354 -0.7961
 5064SOL    HW126828   2.050   3.688  11.655  0.7352 -1.3327 -0.0802
 5064SOL    HW226829   2.050   3.677  11.815  2.1209  0.6279 -0.2097
 5065SOL     OW26830   0.295   0.017  14.497 -0.4795 -0.0466 -0.1387
 5065SOL    HW126831   0.316   0.037  14.406 -1.1959  0.7818 -0.1202
 5065SOL    HW226832   0.284   0.098  14.547 -0.0267  0.3371 -0.6625
 5066SOL     OW26833   1.666   2.666   8.705  0.0639 -0.2329  0.5981
 5066SOL    HW126834   1.686   2.577   8.734  1.7908 -0.0158  0.0766
 5066SOL    HW226835   1.608   2.643   8.632  1.4038 -0.9857 -0.2272
 5067SOL     OW26836   3.959   0.103   9.465 -0.5250 -0.2350  0.2028
 5067SOL    HW126837   3.930   0.081   9.553  0.4101  0.4075  0.6689
 5067SOL    HW226838   4.053   0.081   9.464 -0.7115 -1.0633  0.8686
 5068SOL     OW26839   2.777   0.606   4.511  0.6573  0.7402 -0.1207
 5068SOL    HW126840   2.703   0.567   4.464  0.5937 -2.4951  2.6679
 5068SOL    HW226841   2.777   0.548   4.587  1.9355  1.9379  0.8079
 5069SOL     OW26842   2.804   3.545   5.699  0.5567 -0.0107  0.1874
 5069SOL    HW126843   2.754   3.522   5.778 -0.8490  0.6319 -0.5224
 5069SOL    HW226844   2.856   3.613   5.743  0.1155 -0.1862  0.9846
 5070SOL     OW26845   2.851   2.021   3.149  0.4560 -0.0348  0.2732
 5070SOL    HW126846   2.803   2.084   3.202 -0.5654 -0.8852  0.3499
 5070SOL    HW226847   2.839   1.946   3.208  0.5615 -0.3017 -0.0397
 5071SOL     OW26848   1.482   2.496   7.318 -0.2256  0.4300  0.2770
 5071SOL    HW126849   1.396   2.461   7.339 -0.1700  0.1192 -0.0104
 5071SOL    HW226850   1.458   2.553   7.244 -0.0789  1.6890  1.1967
 5072SOL     OW26851   4.063   4.267   4.113 -0.2873 -0.0041 -0.2958
 5072SOL    HW126852   3.978   4.310   4.123 -0.7606 -0.8800 -0.5922
 5072SOL    HW226853   4.112   4.322   4.176 -0.1901 -0.9172  0.4250
 5073SOL     OW26854   1.557   0.278  12.399  0.4714 -0.0018  0.0971
 5073SOL    HW126855   1.597   0.311  12.319 -0.2999 -0.7006 -0.5777
 5073SOL    HW226856   1.558   0.359  12.448 -0.9180 -0.5538  1.0311
 5074SOL     OW26857   4.348   2.972   0.473 -0.7153 -0.0222  0.6786
 5074SOL    HW126858   4.424   2.914   0.476 -0.3827  0.5092  2.1089
 5074SOL    HW226859   4.361   3.000   0.563  0.5417 -2.2637  1.2013
 5075SOL     OW26860   0.579   3.438   5.748 -0.4828 -0.0032  0.4880
 5075SOL    HW126861   0.576   3.499   5.822 -2.0651 -0.4431  0.7804
 5075SOL    HW226862   0.616   3.487   5.675 -1.9726  1.8173  0.9674
 5076SOL     OW26863   1.459   1.246   7.068 -0.2086 -0.5749 -0.6726
 5076SOL    HW126864   1.525   1.248   6.999 -0.8046  1.2138 -1.1947
 5076SOL    HW226865   1.500   1.276   7.148 -3.1346  1.2383  0.1756
 5077SOL     OW26866   4.033   0.453   4.273  0.0111 -0.2039  0.5880
 5077SOL    HW126867   4.012   0.368   4.233 -1.0082 -0.2941  1.3473
 5077SOL    HW226868   3.946   0.486   4.292 -0.6112 -1.9676  0.7887
 5078SOL     OW26869   1.002   0.611   7.916  0.3852 -0.1064 -0.6979
 5078SOL    HW126870   1.059   0.571   7.981 -0.3874 -0.7163 -0.3905
 5078SOL    HW226871   1.064   0.644   7.851  1.2204 -0.9586 -0.3294
 5079SOL     OW26872   0.453   3.867  16.013 -0.0858 -0.2892 -0.3295
 5079SOL    HW126873   0.412   3.818  15.942  0.1113 -0.7070 -0.1603
 5079SOL    HW226874   0.380   3.911  16.057  1.3044  2.0008 -0.3352
 5080SOL     OW26875   0.849   0.479   7.388 -0.0220  0.3988  0.0396
 5080SOL    HW126876   0.767   0.509   7.427  0.3593  0.2385  0.9621
 5080SOL    HW226877   0.831   0.386   7.398 -1.5936  0.3941 -2.7431
 5081SOL     OW26878   3.052   0.585   3.168  0.1266  0.3737 -0.7235
 5081SOL    HW126879   3.032   0.553   3.080  2.6153  1.5914 -1.7484
 5081SOL    HW226880   2.973   0.592   3.222  0.8012  2.1300  0.0237
 5082SOL     OW26881   0.866   2.942  14.005 -0.3068 -0.0282  0.4154
 5082SOL    HW126882   0.951   2.952  13.961  0.1778 -1.1625  1.0990
 5082SOL    HW226883   0.826   3.026  13.982 -0.1041 -0.0012  0.1623
 5083SOL     OW26884   2.348   3.103  13.805  0.1295 -0.8923  0.4524
 5083SOL    HW126885   2.328   3.022  13.758  0.2513 -1.1284  0.8115
 5083SOL    HW226886   2.283   3.115  13.873 -1.3761  3.3317 -1.7120
 5084SOL     OW26887   3.320   3.371   0.229  0.2824 -0.2187  0.7969
 5084SOL    HW126888   3.317   3.363   0.324 -0.7034  2.5009  0.9871
 5084SOL    HW226889   3.235   3.343   0.193  0.6880 -1.4613  0.8098
 5085SOL     OW26890   3.787   4.155   2.174  0.2399 -0.3571 -0.1153
 5085SOL    HW126891   3.830   4.142   2.259  2.0689 -1.2464 -1.1782
 5085SOL    HW226892   3.861   4.142   2.115 -0.4931 -1.6048 -0.7587
 5086SOL     OW26893   3.193   4.132   3.149 -0.2084 -0.4624  0.8226
 5086SOL    HW126894   3.191   4.176   3.064 -3.1945 -0.3517  0.9308
 5086SOL    HW226895   3.261   4.064   3.153 -0.7364 -1.0361  0.0002
 5087SOL     OW26896   2.841   3.648   0.691  0.2933  0.0060 -0.4181
 5087SOL    HW126897   2.893   3.722   0.722  1.0156 -0.8316  0.3541
 5087SOL    HW226898   2.848   3.594   0.769  1.3442  2.2136  1.0103
 5088SOL     OW26899   3.755   1.844   4.962  0.1233  0.5588  0.0855
 5088SOL    HW126900   3.707   1.763   4.983 -1.5751  1.7181  0.6229
 5088SOL    HW226901   3.816   1.839   5.036 -0.0997  0.2551  0.2492
 5089SOL     OW26902   2.024   3.461  10.543  0.1432  0.5426  0.3800
 5089SOL    HW126903   2.112   3.424  10.535  0.6269  1.7141  0.2582
 5089SOL    HW226904   1.978   3.378  10.552  0.9172 -0.2178 -2.5054
 5090SOL     OW26905   4.348   3.932   4.584  0.0358 -0.3641  0.2510
 5090SOL    HW126906   4.367   3.838   4.593  0.9701 -0.0723  1.2681
 5090SOL    HW226907   4.371   3.968   4.670  1.5864  2.0938 -1.2032
 5091SOL     OW26908   1.621   3.985   4.921  0.1013 -0.1253 -0.0424
 5091SOL    HW126909   1.573   4.066   4.904  2.5673  1.2566 -0.4404
 5091SOL    HW226910   1.587   3.950   5.003 -1.3818 -0.1950 -0.6925
 5092SOL     OW26911   3.627   0.247   8.383  0.0835 -0.1327 -0.3737
 5092SOL    HW126912   3.588   0.236   8.296 -1.2426 -0.8825  0.3134
 5092SOL    HW226913   3.563   0.302   8.429 -0.1364 -0.6525 -0.0570
 5093SOL     OW26914   3.934   0.244   8.375  0.4859 -0.1805 -0.0558
 5093SOL    HW126915   3.987   0.181   8.424 -0.1856 -2.0064 -1.6438
 5093SOL    HW226916   3.853   0.200   8.349  2.2833 -3.1245 -0.7059
 5094SOL     OW26917   1.626   0.816   6.279 -0.1879  0.1727  0.4206
 5094SOL    HW126918   1.628   0.885   6.345  0.4288 -1.3589  2.0068
 5094SOL    HW226919   1.550   0.839   6.226  0.8851 -1.3009 -1.7713
 5095SOL     OW26920   0.740   4.700   2.172  0.2717  0.0307  0.5508
 5095SOL    HW126921   0.741   4.606   2.156  0.1091  0.0116  0.6482
 5095SOL    HW226922   0.695   4.706   2.257  2.8086  0.6919  1.8297
 5096SOL     OW26923   4.698   0.633   8.176  1.0007  0.1893 -0.2173
 5096SOL    HW126924   4.699   0.590   8.262  2.0452 -0.9474 -0.7938
 5096SOL    HW226925   0.044   0.677   8.165  0.8949  0.8169  1.4327
 5097SOL     OW26926   1.497   1.715   6.184  0.4958  0.0818  0.3970
 5097SOL    HW126927   1.458   1.701   6.097 -1.1804 -1.2866  1.3749
 5097SOL    HW226928   1.574   1.663   6.162 -1.6598 -2.3544 -1.3460
 5098SOL     OW26929   1.110   2.079   6.173 -0.7366  0.0156  0.0311
 5098SOL    HW126930   1.135   2.080   6.081  3.3180  0.6486  1.1678
 5098SOL    HW226931   1.137   1.991   6.198 -0.3525  0.3858  0.9120
 5099SOL     OW26932   0.100   3.099   8.339 -0.2376 -0.0553  0.0040
 5099SOL    HW126933   0.053   3.149   8.272  1.6585 -1.3753 -2.2912
 5099SOL    HW226934   0.040   3.025   8.344 -1.0652  0.7187  1.5294
 5100SOL     OW26935   1.581   1.718   1.570  0.2007 -0.0328  0.1793
 5100SOL    HW126936   1.561   1.794   1.516 -1.8907 -1.9336 -1.7157
 5100SOL    HW226937   1.650   1.680   1.515  0.0323  0.2705 -0.2374
 5101SOL     OW26938   0.633   2.372  10.337  0.1636 -0.2129  0.1497
 5101SOL    HW126939   0.602   2.285  10.363 -1.6723  0.8450  1.4379
 5101SOL    HW226940   0.718   2.347  10.300 -0.3817 -2.1776  0.1806
 5102SOL     OW26941   3.296   2.265   3.350  0.0937  0.3285 -0.0625
 5102SOL    HW126942   3.254   2.345   3.320 -1.0937 -0.5963 -0.9007
 5102SOL    HW226943   3.271   2.218   3.270 -0.6403  1.1957 -0.3447
 5103SOL     OW26944   1.249   1.506  11.292 -0.0452  0.1656  0.1578
 5103SOL    HW126945   1.241   1.480  11.384  0.6900 -0.3222  0.0822
 5103SOL    HW226946   1.317   1.573  11.301  0.0628  0.4006 -2.7077
 5104SOL     OW26947   0.041   3.753  13.311  0.6141 -0.3606 -0.0716
 5104SOL    HW126948   4.699   3.797  13.340  0.6424  0.3365 -1.0256
 5104SOL    HW226949   4.733   3.714  13.237 -0.8380 -0.1567  0.7414
 5105SOL     OW26950   2.729   0.181  13.625  0.4265  0.1445  0.3948
 5105SOL    HW126951   2.732   0.099  13.675 -0.4715 -1.8794 -2.8716
 5105SOL    HW226952   2.637   0.175  13.600  0.5223  3.1332 -0.6298
 5106SOL     OW26953   4.471   2.071   4.877  0.2067 -0.0097  0.1854
 5106SOL    HW126954   4.479   2.153   4.926  0.7056 -2.2722  3.8991
 5106SOL    HW226955   4.449   2.015   4.952  1.3159 -1.1337 -0.3295
 5107SOL     OW26956   0.724   0.223   3.780  0.3035  0.5761  0.2092
 5107SOL    HW126957   0.683   0.276   3.847  2.7348  0.2997  1.9346
 5107SOL    HW226958   0.810   0.206   3.819  0.2932  0.9718  0.3993
 5108SOL     OW26959   2.502   4.398   7.153 -0.6064  0.2518 -0.0557
 5108SOL    HW126960   2.501   4.490   7.125  0.9941  1.1025  2.6726
 5108SOL    HW226961   2.597   4.387   7.141 -0.7621  0.6790 -1.7257
 5109SOL     OW26962   1.511   2.832   6.316  0.3249  0.3873  0.2521
 5109SOL    HW126963   1.509   2.745   6.356 -3.0901 -0.4820 -1.7572
 5109SOL    HW226964   1.429   2.864   6.354 -0.8848 -1.3125 -0.8827
 5110SOL     OW26965   3.579   3.337   1.802  0.5105  0.4039  0.0707
 5110SOL    HW126966   3.641   3.306   1.736  0.8897 -0.2990  0.7407
 5110SOL    HW226967   3.621   3.412   1.844  0.4047  0.0541  0.8198
 5111SOL     OW26968   1.910   0.979  11.398  0.3973 -0.6774  0.6436
 5111SOL    HW126969   1.839   1.021  11.349  0.2248 -0.9094  0.6885
 5111SOL    HW226970   1.987   1.031  11.376 -1.8330  1.5322 -2.0317
 5112SOL     OW26971   3.158   0.288   8.414 -0.1583 -0.1059 -0.2645
 5112SOL    HW126972   3.238   0.263   8.368  0.0295  1.9042 -1.0481
 5112SOL    HW226973   3.130   0.205   8.451 -1.0228  0.2402 -0.1462
 5113SOL     OW26974   4.585   1.316   6.792 -0.1856  0.1371  0.3860
 5113SOL    HW126975   4.659   1.326   6.852  2.0225  0.2996 -2.3798
 5113SOL    HW226976   4.634   1.311   6.710  0.2136  2.5900  0.4680
 5114SOL     OW26977   4.023   2.806   7.001 -0.2555  0.5691  0.3800
 5114SOL    HW126978   3.952   2.769   6.950  0.8348 -1.4678  0.3264
 5114SOL    HW226979   4.092   2.819   6.935 -0.6796 -1.6449 -0.5063
 5115SOL     OW26980   1.717   2.896   3.557 -0.7914  0.3178  0.3519
 5115SOL    HW126981   1.697   2.830   3.490 -1.4434  0.1532  0.7142
 5115SOL    HW226982   1.760   2.838   3.620 -0.6617 -1.4959 -1.3892
 5116SOL     OW26983   3.825   4.587   2.753 -0.1847  0.0282  0.4468
 5116SOL    HW126984   3.857   4.536   2.678 -0.4386 -0.2422  0.5233
 5116SOL    HW226985   3.915   4.607   2.778  0.2040 -1.3506  0.1560
 5117SOL     OW26986   1.350   3.731   2.676 -0.7494  0.1979  0.2343
 5117SOL    HW126987   1.409   3.738   2.752 -1.5175 -1.5277  0.9834
 5117SOL    HW226988   1.405   3.765   2.606 -0.8330  3.0046  1.4871
 5118SOL     OW26989   0.450   1.182  17.365  0.0571  0.4131 -0.7326
 5118SOL    HW126990   0.457   1.176  17.460  1.4122 -0.9683 -0.9148
 5118SOL    HW226991   0.418   1.094  17.342 -2.1723  0.8337  0.8088
 5119SOL     OW26992   1.968   3.873  14.150 -0.7664  0.0141 -0.3541
 5119SOL    HW126993   2.009   3.925  14.219  2.3237 -2.8476  0.0222
 5119SOL    HW226994   2.039   3.809  14.140 -0.9842 -0.0984 -1.1972
 5120SOL     OW26995   1.931   2.707  14.148  0.1133 -0.2513 -0.1486
 5120SOL    HW126996   1.968   2.645  14.210 -1.2117 -2.8479 -1.9323
 5120SOL    HW226997   2.009   2.753  14.118  0.2054 -0.3064  0.0121
 5121SOL     OW26998   0.220   4.279  11.979  0.0719 -0.4556 -0.2812
 5121SOL    HW126999   0.277   4.346  11.941  1.5935 -0.9226  1.1853
 5121SOL    HW227000   0.150   4.332  12.018  0.4175  0.7611 -1.2854
 5122SOL     OW27001   2.766   2.220   4.376 -0.0122  0.4656 -0.4463
 5122SOL    HW127002   2.802   2.203   4.290 -0.4470  0.5714 -0.6485
 5122SOL    HW227003   2.792   2.140   4.423 -0.3043  1.4312  1.3615
 5123SOL     OW27004   1.114   2.499   6.144 -0.8206 -0.7431  0.4120
 5123SOL    HW127005   1.061   2.550   6.083  1.2558  0.4078 -0.4378
 5123SOL    HW227006   1.122   2.560   6.217 -1.0718 -0.1578 -0.0564
 5124SOL     OW27007   3.958   4.287   4.420 -0.4309 -0.1027 -0.5759
 5124SOL    HW127008   3.901   4.310   4.493 -0.5531 -1.1432 -0.3493
 5124SOL    HW227009   3.921   4.343   4.351  1.6538 -3.0951 -4.1071
 5125SOL     OW27010   0.246   2.426   7.282  0.9149 -0.1492 -0.3807
 5125SOL    HW127011   0.305   2.360   7.245 -0.2298 -0.6160 -1.3547
 5125SOL    HW227012   0.283   2.421   7.370  1.4091  2.7025 -0.4202
 5126SOL     OW27013   1.885   0.140   7.487 -0.1191 -0.1989  0.7423
 5126SOL    HW127014   1.882   0.210   7.552 -0.9846  1.3497 -0.9584
 5126SOL    HW227015   1.807   0.146   7.431 -0.0397  2.0189  0.8767
 5127SOL     OW27016   1.683   0.101  11.785  0.1044  0.0739 -0.4719
 5127SOL    HW127017   1.635   0.141  11.857  1.5170  2.2297 -0.7131
 5127SOL    HW227018   1.744   0.170  11.757  0.5944  0.5531  1.7806
 5128SOL     OW27019   1.287   3.481   3.605 -0.6224  0.2309 -0.3503
 5128SOL    HW127020   1.202   3.462   3.566 -0.1252  0.3261 -1.4632
 5128SOL    HW227021   1.267   3.492   3.698 -1.1264  3.8484 -0.8970
 5129SOL     OW27022   2.580   3.610   8.604  0.1254 -0.2561 -0.6668
 5129SOL    HW127023   2.551   3.579   8.519  0.9813 -1.1383 -0.6363
 5129SOL    HW227024   2.639   3.684   8.586  0.5281 -0.8990 -1.9925
 5130SOL     OW27025   2.106   0.923   7.751  0.4020  0.1800  0.4907
 5130SOL    HW127026   2.136   0.965   7.670 -0.3617 -1.1149 -0.4596
 5130SOL    HW227027   2.130   0.831   7.737 -1.4608 -0.3234  0.5964
 5131SOL     OW27028   1.075   2.864   4.101  0.2168  0.1011  0.1234
 5131SOL    HW127029   1.078   2.815   4.183 -2.7640 -1.6532 -0.8117
 5131SOL    HW227030   1.133   2.935   4.128  1.0320  0.5341 -2.7750
 5132SOL     OW27031   0.124   3.914  16.657 -0.2176  0.1104 -0.4228
 5132SOL    HW127032   0.080   3.921  16.742 -0.0526  2.4952 -0.5245
 5132SOL    HW227033   0.207   3.870  16.678 -0.3449  0.1733  0.2009
 5133SOL     OW27034   3.691   1.706   5.940  0.6778  0.1883 -0.4395
 5133SOL    HW127035   3.738   1.754   5.872 -0.7582 -0.0570 -1.6072
 5133SOL    HW227036   3.637   1.648   5.885  0.7086 -0.0597 -0.2095
 5134SOL     OW27037   2.000   4.076   1.515  0.1564 -0.4443 -0.5865
 5134SOL    HW127038   2.003   3.987   1.550  2.4365 -0.7115 -1.4703
 5134SOL    HW227039   1.907   4.085   1.497 -0.4030  0.5311  2.8794
 5135SOL     OW27040   1.725   4.462   5.534  0.0523  0.0651 -0.1911
 5135SOL    HW127041   1.775   4.380   5.539 -1.6111 -0.8212  1.9335
 5135SOL    HW227042   1.687   4.463   5.446  0.1076  1.9869 -0.2012
 5136SOL     OW27043   4.733   0.423  16.553 -0.0129 -0.1615  0.3118
 5136SOL    HW127044   4.695   0.367  16.621 -1.1558  1.7242  1.2104
 5136SOL    HW227045   0.076   0.451  16.596 -0.6618 -0.7409  1.9220
 5137SOL     OW27046   0.915   2.449   7.811 -0.0297  0.3521  0.0620
 5137SOL    HW127047   0.828   2.487   7.823 -0.5770 -1.0420  0.4371
 5137SOL    HW227048   0.948   2.463   7.900  2.2392  0.9668 -0.8587
 5138SOL     OW27049   2.110   2.554  16.823 -0.0996 -0.4983 -0.3153
 5138SOL    HW127050   2.105   2.630  16.765  0.4991  0.0368  0.3421
 5138SOL    HW227051   2.017   2.541  16.843 -0.6711  1.3416 -1.7370
 5139SOL     OW27052   2.724   2.637   9.239  0.1806 -0.4153 -0.0354
 5139SOL    HW127053   2.720   2.692   9.160 -1.0168 -0.6591 -0.1475
 5139SOL    HW227054   2.687   2.561   9.195 -0.0754 -0.7393  0.7449
 5140SOL     OW27055   2.013   3.919   7.035  0.1195 -0.0867  0.1665
 5140SOL    HW127056   1.974   3.834   7.054 -0.7903  0.2159 -0.3329
 5140SOL    HW227057   2.082   3.896   6.974 -1.5785 -0.6350 -1.5475
 5141SOL     OW27058   0.656   2.262   1.968  0.2816  0.5226 -0.4410
 5141SOL    HW127059   0.655   2.324   2.041  1.0410  0.2116 -0.1703
 5141SOL    HW227060   0.606   2.187   2.001 -0.2132  0.5290 -1.1719
 5142SOL     OW27061   3.661   2.975   7.329  0.1855  0.4735  0.1705
 5142SOL    HW127062   3.743   2.957   7.283 -0.3890 -1.1970 -0.1717
 5142SOL    HW227063   3.676   3.063   7.364  1.5230  0.4580 -0.3579
 5143SOL     OW27064   1.753   1.575   2.937  0.1773  0.9540  0.3629
 5143SOL    HW127065   1.668   1.611   2.961  0.5435  3.4268 -2.1290
 5143SOL    HW227066   1.789   1.647   2.886 -3.7230  2.1531 -0.6122
 5144SOL     OW27067   4.081   4.422   5.228  0.0052 -0.5078 -0.3216
 5144SOL    HW127068   4.171   4.401   5.252  0.8864  1.8596 -1.4976
 5144SOL    HW227069   4.084   4.436   5.133  0.2491  2.7623  0.1530
 5145SOL     OW27070   0.784   3.230   4.256 -0.0742 -0.2460  0.2702
 5145SOL    HW127071   0.808   3.222   4.164  0.0063  1.6543  0.1175
 5145SOL    HW227072   0.853   3.178   4.296  0.9782 -0.0635 -1.3324
 5146SOL     OW27073   1.574   1.819  10.616 -0.2553 -0.0805 -0.6950
 5146SOL    HW127074   1.485   1.839  10.586 -0.2139  2.4685  0.9214
 5146SOL    HW227075   1.601   1.753  10.552  1.5214 -0.3898  0.3693
 5147SOL     OW27076   3.589   3.620   3.556 -0.0477 -0.3486  0.5093
 5147SOL    HW127077   3.632   3.594   3.638 -0.7776 -1.2144  0.6124
 5147SOL    HW227078   3.653   3.583   3.496 -2.9148 -0.0231 -2.7364
 5148SOL     OW27079   1.370   4.502   9.389 -0.8269  0.0660 -0.1733
 5148SOL    HW127080   1.457   4.462   9.392 -0.3478  1.1345  0.3001
 5148SOL    HW227081   1.384   4.582   9.339 -0.8762  1.2170  1.6621
 5149SOL     OW27082   2.866   3.178  14.512  0.1682  0.0159  0.8060
 5149SOL    HW127083   2.955   3.152  14.487 -0.7587 -2.7993  0.4451
 5149SOL    HW227084   2.846   3.099  14.562  0.4234  0.5661  1.7814
 5150SOL     OW27085   3.538   1.527   5.782  0.6712 -0.0643 -0.0211
 5150SOL    HW127086   3.591   1.581   5.722  2.7666  0.5388  2.3800
 5150SOL    HW227087   3.453   1.542   5.742  0.4599 -1.3556 -0.0393
 5151SOL     OW27088   4.654   2.460   7.343  0.7646  0.1580  0.0343
 5151SOL    HW127089   4.642   2.541   7.294  1.6110  0.7627  0.8257
 5151SOL    HW227090   4.729   2.420   7.300 -1.3611 -3.0051 -0.7547
 5152SOL     OW27091   3.770   0.596   7.594  0.0870 -0.2573  0.3531
 5152SOL    HW127092   3.692   0.615   7.543  0.1761 -0.0047  0.3141
 5152SOL    HW227093   3.749   0.504   7.611 -3.3665  0.3444 -0.6601
 5153SOL     OW27094   3.521   0.015   1.663 -0.5702 -0.1196  0.5199
 5153SOL    HW127095   3.556   4.670   1.631  1.2496  0.7840  0.1952
 5153SOL    HW227096   3.468   4.714   1.733 -0.0343 -1.6049  0.0921
 5154SOL     OW27097   1.536   1.089   1.253  0.1896  0.2406  0.0991
 5154SOL    HW127098   1.601   1.055   1.192 -0.4034  0.3465 -0.5963
 5154SOL    HW227099   1.550   1.023   1.321  1.3033 -0.1450 -0.5119
 5155SOL     OW27100   1.381   4.129   6.843  0.0718 -0.6118 -0.8013
 5155SOL    HW127101   1.427   4.056   6.884 -1.2986 -1.3866 -0.6226
 5155SOL    HW227102   1.293   4.097   6.821 -1.0405  1.2048  1.0302
 5156SOL     OW27103   1.171   2.424   7.671 -0.4888 -0.0165 -0.4647
 5156SOL    HW127104   1.197   2.417   7.763  0.2718 -1.6874 -0.8103
 5156SOL    HW227105   1.087   2.465   7.693 -0.9928 -0.6178 -1.2774
 5157SOL     OW27106   2.938   2.428   9.338  0.6858  0.0043  0.5771
 5157SOL    HW127107   2.878   2.501   9.354 -1.3007 -1.3117 -0.9836
 5157SOL    HW227108   2.884   2.374   9.281 -0.0467  0.6402  0.6557
 5158SOL     OW27109   2.833   2.363   7.505 -0.1612  0.1354 -0.1788
 5158SOL    HW127110   2.773   2.394   7.573 -0.3856 -1.8259  0.5219
 5158SOL    HW227111   2.905   2.416   7.538 -0.9155 -0.2444  2.0785
 5159SOL     OW27112   2.080   4.177  10.531 -0.2945 -0.2865  0.1104
 5159SOL    HW127113   2.123   4.180  10.445 -1.2928 -3.3985 -0.4869
 5159SOL    HW227114   2.140   4.220  10.592  2.3677 -3.4511 -0.2328
 5160SOL     OW27115   3.474   0.052   8.763 -0.0239 -0.4134 -0.0660
 5160SOL    HW127116   3.411   0.090   8.702  0.9370  2.1113  0.5178
 5160SOL    HW227117   3.561   0.076   8.733 -0.4235  1.0883 -0.0119
 5161SOL     OW27118   2.711   1.932   6.975 -0.3240 -0.3128  0.0850
 5161SOL    HW127119   2.685   1.995   7.042 -0.3569  0.8113 -0.9854
 5161SOL    HW227120   2.640   1.954   6.915 -0.1108  0.4078  0.1065
 5162SOL     OW27121   1.077   1.933  17.687 -0.0212 -0.0417 -0.1379
 5162SOL    HW127122   1.157   1.986  17.682 -0.2782  0.3827  0.1995
 5162SOL    HW227123   1.017   1.963  17.619 -0.8732 -1.5352 -0.0316
 5163SOL     OW27124   3.796   2.431   9.467 -0.0564 -0.1220 -0.1888
 5163SOL    HW127125   3.853   2.472   9.401 -0.0477  1.6762  0.9400
 5163SOL    HW227126   3.859   2.426   9.539  2.8536 -1.2893 -2.7692
 5164SOL     OW27127   4.405   4.171   1.514 -0.3572 -0.1353  0.2078
 5164SOL    HW127128   4.313   4.196   1.517 -1.0436 -2.0736 -3.5471
 5164SOL    HW227129   4.453   4.244   1.552 -1.6602  0.6993  0.2180
 5165SOL     OW27130   3.863   3.096   5.180 -0.3701  0.6534 -0.7792
 5165SOL    HW127131   3.850   3.160   5.111 -1.6756 -0.8874 -1.9738
 5165SOL    HW227132   3.815   3.020   5.146 -0.5377  0.6271 -0.4889
 5166SOL     OW27133   4.336   4.288   8.782  0.8646 -0.8268 -0.2218
 5166SOL    HW127134   4.244   4.317   8.786  1.1780  0.0630  0.6568
 5166SOL    HW227135   4.363   4.364   8.834  1.2697 -1.1947  0.0990
 5167SOL     OW27136   4.317   1.391  11.884 -0.0399  0.0357  0.2212
 5167SOL    HW127137   4.232   1.426  11.908  0.7818  1.8264  0.5581
 5167SOL    HW227138   4.361   1.431  11.960  0.8027  0.1823 -0.3490
 5168SOL     OW27139   0.331   3.028   1.191 -0.3537  1.1065 -0.2729
 5168SOL    HW127140   0.399   2.976   1.147 -0.3073  0.6039  0.3857
 5168SOL    HW227141   0.381   3.108   1.206 -0.3846  1.1403 -0.3488
 5169SOL     OW27142   1.623   4.560   7.218 -0.2275 -0.0743  0.6081
 5169SOL    HW127143   1.619   4.480   7.167 -0.8803 -0.6684  1.5757
 5169SOL    HW227144   1.605   4.633   7.159 -0.6751 -0.7074 -0.0274
 5170SOL     OW27145   2.001   3.643   5.345  0.1353  0.6013 -0.3821
 5170SOL    HW127146   1.994   3.665   5.253  0.1682 -0.2439 -0.5845
 5170SOL    HW227147   2.094   3.625   5.360  0.3325 -0.0678 -2.5017
 5171SOL     OW27148   2.206   4.418  10.032  0.3288 -0.2194  0.2102
 5171SOL    HW127149   2.283   4.474  10.040 -0.0561  0.3394 -0.0102
 5171SOL    HW227150   2.253   4.335  10.046 -0.7359 -0.7517  0.7073
 5172SOL     OW27151   3.496   1.617   9.453 -0.2144  0.3638 -0.0517
 5172SOL    HW127152   3.534   1.669   9.382  0.5752 -0.9978 -0.6429
 5172SOL    HW227153   3.407   1.652   9.452 -0.8343 -1.1848 -0.4751
 5173SOL     OW27154   1.707   0.473   2.120  0.4009  0.1744  0.1657
 5173SOL    HW127155   1.614   0.487   2.102  0.3451 -0.0921  0.2495
 5173SOL    HW227156   1.733   0.565   2.131 -0.4082  0.2923  1.0792
 5174SOL     OW27157   3.377   3.665   9.240  0.0005 -0.1655  0.3400
 5174SOL    HW127158   3.347   3.592   9.185 -0.6830 -1.5793  2.6017
 5174SOL    HW227159   3.348   3.745   9.196  1.1106 -0.1679 -0.4135
 5175SOL     OW27160   1.380   1.872  11.870 -0.2391  0.5883  0.1400
 5175SOL    HW127161   1.316   1.912  11.930 -0.0756  1.2876 -0.1563
 5175SOL    HW227162   1.306   1.843  11.816  1.2325  0.5958 -1.8775
 5176SOL     OW27163   0.636   0.077  16.235  0.2884  0.1451 -0.1356
 5176SOL    HW127164   0.670   0.052  16.321  1.1620  1.5003 -0.0752
 5176SOL    HW227165   0.569   0.140  16.261  0.9011  0.1825  1.3518
 5177SOL     OW27166   0.620   3.821   2.105 -0.3883 -0.0183  0.2251
 5177SOL    HW127167   0.573   3.797   2.185  0.9363 -1.7492  0.4889
 5177SOL    HW227168   0.649   3.732   2.086 -0.6758 -0.1600  0.4397
 5178SOL     OW27169   4.154   4.562   8.940 -0.2979  0.5093 -0.4173
 5178SOL    HW127170   4.125   4.529   8.854  0.7875  0.7689 -0.8761
 5178SOL    HW227171   4.244   4.530   8.936 -0.5462 -0.0135 -1.9314
 5179SOL     OW27172   2.237   4.707   5.211 -0.2738  0.3717 -0.3400
 5179SOL    HW127173   2.190   4.644   5.265  2.2034 -1.9772 -0.9572
 5179SOL    HW227174   2.328   4.683   5.226 -0.7192 -2.7064 -2.5009
 5180SOL     OW27175   4.421   0.224   6.508 -0.1896 -0.8447 -0.2156
 5180SOL    HW127176   4.366   0.185   6.576 -1.0024  1.3308  0.3924
 5180SOL    HW227177   4.355   0.261   6.450 -0.2558 -0.6484 -0.0143
 5181SOL     OW27178   0.682   4.440  14.250  0.1212 -0.0464 -0.2041
 5181SOL    HW127179   0.729   4.357  14.238 -2.6726 -1.4126 -1.9863
 5181SOL    HW227180   0.749   4.495  14.290 -2.5939  2.5142  0.8413
 5182SOL     OW27181   0.973   2.408   2.310 -0.2004 -0.0279 -0.0985
 5182SOL    HW127182   0.933   2.324   2.287 -0.0721 -0.9262  2.9554
 5182SOL    HW227183   1.039   2.421   2.242  0.6946 -0.5896  0.6572
 5183SOL     OW27184   1.935   4.217   5.863 -0.4847  0.5797  0.0292
 5183SOL    HW127185   1.945   4.291   5.803  0.1543  2.8041  2.8806
 5183SOL    HW227186   1.960   4.258   5.946 -0.8395  0.0957  0.3709
 5184SOL     OW27187   1.486   2.303  14.454 -0.2277  0.1818  0.1812
 5184SOL    HW127188   1.468   2.382  14.505 -1.9215 -0.7320  0.9873
 5184SOL    HW227189   1.552   2.320  14.387 -1.7285  2.6234 -0.6614
 5185SOL     OW27190   2.636   0.397  12.207 -0.4916 -0.4020 -0.1364
 5185SOL    HW127191   2.636   0.486  12.244 -1.8578 -1.3279  2.1116
 5185SOL    HW227192   2.715   0.397  12.154  1.5857  0.7895  2.9992
 5186SOL     OW27193   3.906   4.589  16.797 -0.3125 -0.1255 -0.5709
 5186SOL    HW127194   3.921   4.667  16.850  1.0278 -0.8511  0.1070
 5186SOL    HW227195   3.992   4.551  16.781 -0.0761 -0.6046  1.8913
 5187SOL     OW27196   0.987   0.805   7.309 -0.5744  0.0833  0.3452
 5187SOL    HW127197   0.892   0.794   7.313 -0.7380  1.3246  0.0684
 5187SOL    HW227198   0.997   0.863   7.385  3.2037  0.8020 -0.6954
 5188SOL     OW27199   2.590   1.491   6.661 -0.2595  0.3163  0.2650
 5188SOL    HW127200   2.647   1.433   6.711  0.5467  2.3717  1.7204
 5188SOL    HW227201   2.605   1.571   6.710 -0.6916 -0.3569  1.4986
 5189SOL     OW27202   3.218   0.881   5.417  0.4553  0.1435 -0.1060
 5189SOL    HW127203   3.212   0.795   5.374  2.2213  0.3245 -0.7078
 5189SOL    HW227204   3.309   0.908   5.406 -0.3528  1.2039 -4.4334
 5190SOL     OW27205   1.310   3.486  12.060  0.1341 -0.0519 -0.0662
 5190SOL    HW127206   1.307   3.422  11.989  0.3502 -1.3655  1.0935
 5190SOL    HW227207   1.401   3.479  12.088 -0.7260 -2.1113  2.2420
 5191SOL     OW27208   4.376   0.724   0.375 -0.0240 -0.0603 -0.3349
 5191SOL    HW127209   4.457   0.752   0.333  0.5103  0.3740  1.0028
 5191SOL    HW227210   4.323   0.801   0.353  0.1783 -0.5197 -2.4423
 5192SOL     OW27211   0.217   2.115  14.890  0.5911  0.3471  0.1328
 5192SOL    HW127212   0.141   2.158  14.929  1.6146  1.9136  0.3860
 5192SOL    HW227213   0.278   2.109  14.963  0.9680  0.0998 -0.2033
 5193SOL     OW27214   4.038   1.491  11.114  0.0231  0.4369 -0.3973
 5193SOL    HW127215   4.023   1.532  11.200  2.9428  0.2876  0.1614
 5193SOL    HW227216   4.116   1.440  11.135  0.8119  0.9008 -2.2648
 5194SOL     OW27217   2.460   1.579   4.755  0.5591 -0.6219 -0.0911
 5194SOL    HW127218   2.485   1.492   4.723 -1.4397 -1.5045  0.7519
 5194SOL    HW227219   2.369   1.571   4.726  0.0382  0.4786  1.2267
 5195SOL     OW27220   0.197   3.981   7.182 -0.1246 -0.0072  0.9700
 5195SOL    HW127221   0.208   4.001   7.088 -2.1056 -2.3615  0.2315
 5195SOL    HW227222   0.177   3.888   7.187  0.2089 -0.2594 -2.0757
 5196SOL     OW27223   4.404   2.488   6.214  0.2523  0.1598 -0.3054
 5196SOL    HW127224   4.452   2.556   6.262  0.9032 -1.7820  1.7838
 5196SOL    HW227225   4.402   2.523   6.125 -2.4403  0.6219 -0.0641
 5197SOL     OW27226   2.269   2.724   7.419  0.1352 -0.0786 -0.4911
 5197SOL    HW127227   2.228   2.783   7.355 -0.5521 -1.8562 -1.6874
 5197SOL    HW227228   2.258   2.772   7.502 -2.2324 -1.1283 -0.1967
 5198SOL     OW27229   3.400   1.686   3.034 -0.2586 -0.2307  0.3002
 5198SOL    HW127230   3.382   1.603   2.991 -0.2189  0.8732 -1.8400
 5198SOL    HW227231   3.434   1.655   3.119 -2.5456 -1.1608  0.8595
 5199SOL     OW27232   3.806   2.980   9.381 -0.4128  0.0189  0.0661
 5199SOL    HW127233   3.885   2.936   9.350 -1.8432 -2.0139 -0.6644
 5199SOL    HW227234   3.832   3.030   9.458  0.5099 -0.8482  0.3222
 5200SOL     OW27235   4.651   2.064   4.632  0.0646  0.0803  0.1740
 5200SOL    HW127236   4.600   2.137   4.598  3.2752  0.9341 -2.7563
 5200SOL    HW227237   4.643   2.085   4.725 -1.3944  1.2470 -0.2022
 5201SOL     OW27238   2.102   4.729  16.056  0.0964 -0.3700  0.2769
 5201SOL    HW127239   2.022   0.008  16.008 -0.7927 -0.9841  1.5502
 5201SOL    HW227240   2.099   0.058  16.124  0.9622 -0.7053  0.6535
 5202SOL     OW27241   3.226   1.650   4.131 -0.3476  0.0325 -0.5000
 5202SOL    HW127242   3.274   1.567   4.136  2.7476  1.9075  0.3012
 5202SOL    HW227243   3.254   1.679   4.218 -2.4175 -0.2429  0.2651
 5203SOL     OW27244   4.176   3.757   9.678  0.4925  0.4549 -0.2398
 5203SOL    HW127245   4.090   3.740   9.718  1.1535  0.2517  1.1031
 5203SOL    HW227246   4.150   3.826   9.617  0.0902  0.5203  0.0051
 5204SOL     OW27247   2.313   2.943   4.229  0.5435 -0.0478 -0.4464
 5204SOL    HW127248   2.399   2.976   4.204  0.7182  1.6341  2.4019
 5204SOL    HW227249   2.272   3.027   4.207  0.6259 -0.2726 -1.4489
 5205SOL     OW27250   1.176   1.331   8.689 -0.1461 -0.3200  0.2558
 5205SOL    HW127251   1.194   1.328   8.783  1.5512  0.3150 -0.0584
 5205SOL    HW227252   1.086   1.364   8.691  0.3124  1.1533 -2.9934
 5206SOL     OW27253   0.273   4.397   6.491 -0.3544 -0.3368 -0.0118
 5206SOL    HW127254   0.256   4.328   6.427 -2.1357  0.3311 -0.2547
 5206SOL    HW227255   0.363   4.372   6.513 -0.8771 -0.6820  1.6441
 5207SOL     OW27256   4.106   4.514   1.714 -0.2514  0.6215  0.5380
 5207SOL    HW127257   4.010   4.512   1.708 -0.1628 -0.0175 -0.6894
 5207SOL    HW227258   4.117   4.540   1.806 -0.4492  0.6042  0.5664
 5208SOL     OW27259   0.924   2.300  17.265  0.0848  0.6981 -0.1731
 5208SOL    HW127260   0.886   2.222  17.223  0.4766 -0.3526  1.4243
 5208SOL    HW227261   0.865   2.372  17.241  0.2259  1.4497  1.7614
 5209SOL     OW27262   3.220   3.862   4.250  0.3926  0.1850 -0.3924
 5209SOL    HW127263   3.126   3.842   4.254  0.4914 -0.0872  0.4125
 5209SOL    HW227264   3.225   3.958   4.249 -1.7994  0.3119  1.0091
 5210SOL     OW27265   0.247   1.340  10.422  0.0900  0.4632 -0.6940
 5210SOL    HW127266   0.225   1.432  10.410  0.0340  0.1635 -2.9327
 5210SOL    HW227267   0.329   1.356  10.468 -0.2550  0.1399  0.0395
 5211SOL     OW27268   3.000   2.844   8.801  0.2186  0.4546 -0.1326
 5211SOL    HW127269   2.985   2.921   8.745 -0.7391 -0.5301 -1.2111
 5211SOL    HW227270   3.071   2.800   8.754  1.5765 -1.2912  3.5868
 5212SOL     OW27271   1.228   3.290   4.912 -0.5222 -0.1175 -0.2170
 5212SOL    HW127272   1.281   3.361   4.949  0.0988 -1.5178  1.5603
 5212SOL    HW227273   1.143   3.333   4.905  0.6288  2.2053 -0.2139
 5213SOL     OW27274   3.579   4.093   9.297  0.0636 -0.9034 -0.0205
 5213SOL    HW127275   3.595   4.185   9.278 -1.0058 -1.0742 -1.8114
 5213SOL    HW227276   3.562   4.096   9.391  1.7146 -2.6885  0.3289
 5214SOL     OW27277   2.156   3.306  12.491  0.1352 -0.1800  0.3681
 5214SOL    HW127278   2.217   3.253  12.440 -0.5853 -1.4875  0.8728
 5214SOL    HW227279   2.159   3.255  12.572  0.2702  0.1396  0.5611
 5215SOL     OW27280   3.553   1.258   5.243 -0.2820  0.1681 -0.2071
 5215SOL    HW127281   3.482   1.307   5.202  0.6436  1.5165 -0.1954
 5215SOL    HW227282   3.628   1.279   5.188  0.5421  0.8725  1.1887
 5216SOL     OW27283   2.286   0.845  13.132 -0.3010  0.1193 -0.2727
 5216SOL    HW127284   2.328   0.828  13.217 -1.1952 -0.0964  0.1280
 5216SOL    HW227285   2.299   0.940  13.132  0.3372  0.0317 -0.9716
 5217SOL     OW27286   1.780   1.691  16.186 -0.4050 -0.6119  0.2978
 5217SOL    HW127287   1.860   1.722  16.228 -1.0427  0.4627  0.7349
 5217SOL    HW227288   1.791   1.726  16.098 -1.7980 -1.2313 -0.1214
 5218SOL     OW27289   0.514   0.843  14.282 -0.6058  0.4824 -0.1801
 5218SOL    HW127290   0.513   0.762  14.232  2.8015  1.5426 -1.9063
 5218SOL    HW227291   0.585   0.825  14.344 -1.8435 -2.5190  0.3547
 5219SOL     OW27292   0.995   1.931   8.248  0.4756  1.3966 -0.1101
 5219SOL    HW127293   0.910   1.931   8.203 -0.1053  3.2072  1.0143
 5219SOL    HW227294   0.985   1.856   8.307 -0.4096  0.4917 -1.3984
 5220SOL     OW27295   1.037   0.994  17.585  0.0448  0.2961 -0.0302
 5220SOL    HW127296   0.945   0.992  17.611 -0.6902  0.1056 -2.5700
 5220SOL    HW227297   1.043   0.914  17.533  0.9005 -0.3936  1.1391
 5221SOL     OW27298   3.259   4.076   5.648  0.5415  0.3092  0.4121
 5221SOL    HW127299   3.251   4.001   5.708  1.8579  0.9463  1.3907
 5221SOL    HW227300   3.189   4.067   5.583 -0.4206 -0.2195  1.5026
 5222SOL     OW27301   0.941   1.633   5.740 -0.8374  0.0204  0.3590
 5222SOL    HW127302   0.900   1.674   5.817 -0.7237 -1.3155  1.1446
 5222SOL    HW227303   0.862   1.616   5.689 -2.2605  0.1212  2.4974
 5223SOL     OW27304   1.440   2.727   5.566  0.1590  0.2058  0.5309
 5223SOL    HW127305   1.479   2.805   5.606  0.6245 -0.0271  0.5359
 5223SOL    HW227306   1.498   2.667   5.613  0.1712  0.7366  1.1888
 5224SOL     OW27307   2.610   4.350   2.723 -0.3990  0.0938  0.1146
 5224SOL    HW127308   2.567   4.321   2.803 -0.6932  0.0701 -0.0538
 5224SOL    HW227309   2.663   4.424   2.753 -1.1152  0.7624 -0.2756
 5225SOL     OW27310   1.358   1.563   5.174 -0.1061  0.8049  0.3326
 5225SOL    HW127311   1.305   1.641   5.162 -0.1847  0.5866 -0.8335
 5225SOL    HW227312   1.327   1.493   5.116  0.9534  0.2369  0.4426
 5226SOL     OW27313   2.320   0.952  13.652  0.2213 -0.6776  0.5915
 5226SOL    HW127314   2.361   0.995  13.727 -0.0012 -2.1288  1.5487
 5226SOL    HW227315   2.271   1.030  13.626 -0.9235 -1.3896  0.6214
 5227SOL     OW27316   4.051   1.606  11.375 -0.1680 -0.4209  0.7315
 5227SOL    HW127317   4.004   1.623  11.457  2.4991  2.1587  1.7426
 5227SOL    HW227318   4.112   1.679  11.381 -1.4024  0.5411  1.6019
 5228SOL     OW27319   4.307   3.252   3.353  0.3506  0.8276  0.0925
 5228SOL    HW127320   4.402   3.243   3.345  0.1244  0.3577 -2.0342
 5228SOL    HW227321   4.308   3.336   3.399 -1.5473  0.7913  0.1726
 5229SOL     OW27322   0.990   3.606   6.414  0.3623  0.2967  0.1035
 5229SOL    HW127323   1.062   3.665   6.437 -0.8337  2.0914 -0.8292
 5229SOL    HW227324   1.012   3.587   6.323  1.3383  0.5142  0.2940
 5230SOL     OW27325   1.856   2.825   4.939 -0.0820 -0.0315  0.4224
 5230SOL    HW127326   1.787   2.780   4.988 -1.0351  2.6650  1.5522
 5230SOL    HW227327   1.806   2.816   4.858 -0.1663 -2.0052  0.6831
 5231SOL     OW27328   1.369   1.265   1.508  0.0827  0.1542 -0.2188
 5231SOL    HW127329   1.295   1.315   1.543  1.2347  0.1517  2.2706
 5231SOL    HW227330   1.349   1.185   1.557  0.7397 -1.3679 -2.4416
 5232SOL     OW27331   4.525   1.750   3.577  0.0040  0.5177  0.0039
 5232SOL    HW127332   4.587   1.690   3.537 -1.2374 -0.1021 -0.9781
 5232SOL    HW227333   4.447   1.734   3.524  0.2147 -0.5190  0.0127
 5233SOL     OW27334   2.324   0.635   8.245 -0.0743  0.7367 -0.3484
 5233SOL    HW127335   2.245   0.688   8.234 -2.1418 -2.2048  0.3343
 5233SOL    HW227336   2.334   0.583   8.165 -1.3328 -0.7166  0.4438
 5234SOL     OW27337   0.266   0.528  14.187 -0.3246  0.0709 -0.7431
 5234SOL    HW127338   0.345   0.531  14.240 -1.6037 -0.5422  1.1763
 5234SOL    HW227339   0.232   0.445  14.219 -2.8697  1.4581  0.1836
 5235SOL     OW27340   0.347   1.580   3.957 -0.1441 -0.8541  0.0315
 5235SOL    HW127341   0.344   1.661   4.007  1.1725  0.0159 -1.3035
 5235SOL    HW227342   0.302   1.522   4.019 -0.2039 -0.7617  0.0745
 5236SOL     OW27343   0.105   1.477   8.466 -0.4326  0.1815 -0.3879
 5236SOL    HW127344   0.193   1.511   8.453 -0.5663  1.6346  2.5010
 5236SOL    HW227345   0.131   1.392   8.504  0.1806 -0.2865 -1.8679
 5237SOL     OW27346   1.345   0.605   8.363 -0.0717  0.3278 -0.0015
 5237SOL    HW127347   1.330   0.688   8.318  1.5897 -0.0370 -1.2167
 5237SOL    HW227348   1.439   0.594   8.371 -0.1622  0.9603  1.9988
 5238SOL     OW27349   1.442   2.975   7.584 -0.2672 -0.7256  0.8398
 5238SOL    HW127350   1.465   2.946   7.495 -0.6597  0.6780  0.2963
 5238SOL    HW227351   1.366   2.918   7.599 -1.5747  0.3282 -1.7982
 5239SOL     OW27352   4.016   3.900   0.473  0.0416 -0.5090  0.1445
 5239SOL    HW127353   3.954   3.830   0.492  1.8534 -1.7294  1.5263
 5239SOL    HW227354   4.095   3.846   0.478  0.6337  0.4658  1.2571
 5240SOL     OW27355   2.887   1.229   1.773  0.4686  0.8997 -0.2486
 5240SOL    HW127356   2.818   1.295   1.782 -0.5226 -0.1441 -0.0951
 5240SOL    HW227357   2.848   1.149   1.809 -0.3223  1.7541  0.7937
 5241SOL     OW27358   1.556   3.742  14.930  0.0011 -0.2410  0.0036
 5241SOL    HW127359   1.574   3.832  14.955 -1.2462 -0.1990  0.7423
 5241SOL    HW227360   1.630   3.722  14.872 -0.1150 -0.7766  0.0366
 5242SOL     OW27361   0.694   1.171   2.640 -0.1027 -0.7222 -0.1971
 5242SOL    HW127362   0.722   1.084   2.670  0.3299 -0.4200  0.2787
 5242SOL    HW227363   0.638   1.143   2.568  1.0294 -1.1187 -0.9125
 5243SOL     OW27364   1.220   1.775   3.699  0.2249  0.6414  0.1940
 5243SOL    HW127365   1.166   1.697   3.701  0.4128  0.5001 -0.1441
 5243SOL    HW227366   1.246   1.775   3.791 -0.0304 -0.1564  0.2600
 5244SOL     OW27367   1.752   4.672   2.461  0.2109 -0.7466 -1.0252
 5244SOL    HW127368   1.816   0.005   2.458 -0.4308 -0.1269 -0.0876
 5244SOL    HW227369   1.755   4.660   2.556  0.8813  0.3026 -0.9133
 5245SOL     OW27370   1.012   3.693  13.285 -0.1299  0.1975 -0.3659
 5245SOL    HW127371   1.098   3.725  13.313 -0.9841  2.3688 -0.2213
 5245SOL    HW227372   0.968   3.690  13.370 -1.3724 -0.8344 -1.0498
 5246SOL     OW27373   0.521   2.240   4.213 -0.0871 -1.0798  0.3660
 5246SOL    HW127374   0.534   2.235   4.307  0.1289 -0.3521  0.3726
 5246SOL    HW227375   0.527   2.336   4.211 -0.7730 -1.0396 -0.0158
 5247SOL     OW27376   1.770   0.639  16.548  0.8177  0.4313  0.0783
 5247SOL    HW127377   1.750   0.682  16.632 -1.1903  0.1051 -0.2316
 5247SOL    HW227378   1.756   0.548  16.571 -0.0346  0.0158 -2.1006
 5248SOL     OW27379   4.726   1.069   5.702  0.2780 -0.3833  0.0309
 5248SOL    HW127380   4.684   1.155   5.711 -4.0448 -2.4011 -0.9180
 5248SOL    HW227381   0.038   1.069   5.784  2.1363 -1.7566 -1.0948
 5249SOL     OW27382   2.711   2.958   7.660  0.4764  0.1184  0.3480
 5249SOL    HW127383   2.764   3.012   7.602  1.7564  1.2042  2.5416
 5249SOL    HW227384   2.643   2.932   7.598  0.2308 -1.5874  1.3386
 5250SOL     OW27385   1.190   2.840   5.759 -0.6817  0.7049  0.2861
 5250SOL    HW127386   1.197   2.745   5.768 -0.1917  0.6952 -0.1707
 5250SOL    HW227387   1.193   2.844   5.663 -0.8799 -1.1840  0.1989
 5251SOL     OW27388   0.569   4.573   7.724  0.2189  0.4260 -0.1430
 5251SOL    HW127389   0.474   4.580   7.739  0.3794  1.7083  0.2294
 5251SOL    HW227390   0.597   4.654   7.681 -1.3223  0.5743 -0.8768
 5252SOL     OW27391   0.634   3.281   4.494  0.4909 -0.5256 -0.5389
 5252SOL    HW127392   0.677   3.296   4.410  0.3672  3.4975  0.1221
 5252SOL    HW227393   0.705   3.250   4.550 -0.0943 -1.6333 -0.4003
 5253SOL     OW27394   2.819   3.921   0.948 -0.5423 -0.1220 -0.1618
 5253SOL    HW127395   2.882   3.905   0.878 -1.5401 -1.4057 -0.7525
 5253SOL    HW227396   2.866   3.990   0.997  2.3459 -1.3673 -1.1818
 5254SOL     OW27397   3.668   4.408   2.888 -0.2597 -0.3123 -0.7386
 5254SOL    HW127398   3.626   4.339   2.836 -3.8610  0.4723  1.0785
 5254SOL    HW227399   3.703   4.463   2.818 -0.0696  0.5407  0.0204
 5255SOL     OW27400   4.334   3.839   5.627 -0.1939 -0.1408 -0.0485
 5255SOL    HW127401   4.287   3.773   5.678 -0.4796 -0.2759 -0.4828
 5255SOL    HW227402   4.347   3.907   5.693  1.3620  0.6905 -1.2199
 5256SOL     OW27403   4.383   1.213   5.620 -0.5794 -0.4830  0.0298
 5256SOL    HW127404   4.331   1.199   5.541  2.1585  0.1446 -1.8808
 5256SOL    HW227405   4.355   1.145   5.681 -1.5584  0.5171  0.6873
 5257SOL     OW27406   0.230   0.137   6.987 -0.1403  0.0396 -0.0239
 5257SOL    HW127407   0.309   0.159   7.037 -0.0368 -1.0794  0.2999
 5257SOL    HW227408   0.201   0.056   7.030  2.5546 -0.4084  0.9705
 5258SOL     OW27409   2.032   1.997  11.577  0.2365  0.3577  0.5277
 5258SOL    HW127410   1.990   1.922  11.618  1.3793 -1.6454 -2.0075
 5258SOL    HW227411   2.120   1.990  11.615 -0.3164 -0.9278  1.5685
 5259SOL     OW27412   4.189   3.928   1.047 -0.0416  0.0709  0.2293
 5259SOL    HW127413   4.152   3.929   0.958  0.7581  3.2754 -0.0694
 5259SOL    HW227414   4.133   3.855   1.073 -0.9375  0.6241 -0.1439
 5260SOL     OW27415   2.466   3.237   9.922  0.0984  0.1986 -0.3164
 5260SOL    HW127416   2.513   3.307   9.968  0.8664  0.0468 -0.8581
 5260SOL    HW227417   2.396   3.226   9.987 -1.1754  1.4918 -1.4653
 5261SOL     OW27418   3.673   1.055  10.389  0.2700  0.1996  0.1676
 5261SOL    HW127419   3.687   0.976  10.335 -0.4249 -0.2702  0.6702
 5261SOL    HW227420   3.717   1.033  10.471 -1.7333 -0.5221  1.0373
 5262SOL     OW27421   3.587   4.520   2.189 -0.0288  0.3093  0.3374
 5262SOL    HW127422   3.618   4.602   2.151 -2.9066  1.2087 -0.1105
 5262SOL    HW227423   3.491   4.530   2.186  0.5493  4.9410 -2.3441
 5263SOL     OW27424   1.014   2.874   1.047 -0.2609 -0.4022  0.5883
 5263SOL    HW127425   1.090   2.906   1.095 -0.6228 -0.1563  0.9965
 5263SOL    HW227426   1.066   2.832   0.979  1.5165  3.2513 -0.2796
 5264SOL     OW27427   1.394   1.564   5.444 -0.4177 -0.1146  0.4175
 5264SOL    HW127428   1.300   1.549   5.458 -0.4994  1.1387  1.1964
 5264SOL    HW227429   1.396   1.559   5.348  0.9393  0.3214  0.4283
 5265SOL     OW27430   4.196   0.099  11.167 -0.0500  0.2930  0.5432
 5265SOL    HW127431   4.130   0.077  11.233 -0.2439 -1.3197 -0.1963
 5265SOL    HW227432   4.237   0.170  11.217  0.4930 -1.1212  2.0900
 5266SOL     OW27433   3.574   0.816  16.181 -0.2957 -0.0730  0.0731
 5266SOL    HW127434   3.528   0.848  16.259  3.2889  0.3111  2.0376
 5266SOL    HW227435   3.571   0.724  16.206 -0.8326 -0.1815 -0.3734
 5267SOL     OW27436   3.592   2.916   9.966  0.7875 -0.1356  0.1365
 5267SOL    HW127437   3.541   2.839   9.987  1.0958  0.1022  1.7680
 5267SOL    HW227438   3.586   2.968  10.047 -0.9509 -0.0712 -0.0438
 5268SOL     OW27439   4.197   2.818   4.473 -0.0802 -0.2130  0.0711
 5268SOL    HW127440   4.111   2.853   4.497  0.0554 -0.8242  1.4854
 5268SOL    HW227441   4.252   2.896   4.481  2.4755 -1.8176 -1.8198
 5269SOL     OW27442   1.278   4.075  12.489  0.3731  0.2521 -0.3155
 5269SOL    HW127443   1.286   3.982  12.469 -3.4499  0.1688 -1.3872
 5269SOL    HW227444   1.335   4.088  12.565 -1.2096 -1.2526  1.1240
 5270SOL     OW27445   3.925   2.335  10.771 -0.2484  0.6493  0.4793
 5270SOL    HW127446   3.909   2.246  10.804  1.2410  0.0442 -0.4400
 5270SOL    HW227447   3.920   2.320  10.677  0.1441 -0.4518  0.6365
 5271SOL     OW27448   3.813   1.379   2.871  0.0398  0.1679  0.5947
 5271SOL    HW127449   3.802   1.388   2.966 -1.2089  0.9586  0.3770
 5271SOL    HW227450   3.888   1.319   2.866 -0.9023 -1.0092  0.5818
 5272SOL     OW27451   2.966   0.905   2.297  0.1221 -0.1629 -0.3989
 5272SOL    HW127452   3.046   0.958   2.306 -0.8068  1.1044  0.3614
 5272SOL    HW227453   2.990   0.844   2.227 -0.8253 -2.4627  1.2918
 5273SOL     OW27454   2.714   2.707   2.198 -0.2190 -0.0407  0.1384
 5273SOL    HW127455   2.727   2.649   2.273 -1.4718  0.0816  0.4427
 5273SOL    HW227456   2.685   2.787   2.243  0.7227  0.7204 -0.6125
 5274SOL     OW27457   2.865   4.356   9.164 -0.1078 -0.2170 -0.2680
 5274SOL    HW127458   2.890   4.386   9.251 -2.9252  0.6931  0.2167
 5274SOL    HW227459   2.911   4.272   9.166  0.3892  0.0177 -2.4980
 5275SOL     OW27460   2.370   2.903   0.027 -0.8310 -0.4972 -0.7401
 5275SOL    HW127461   2.380   2.817  17.736 -1.5977 -1.4787  1.1487
 5275SOL    HW227462   2.332   2.956  17.707 -2.4534  0.0385  0.5527
 5276SOL     OW27463   2.631   0.918   7.813 -0.1251 -0.1427 -0.0515
 5276SOL    HW127464   2.677   0.955   7.738  2.2403 -1.2257  0.8619
 5276SOL    HW227465   2.594   0.999   7.846  3.0054  0.8530  1.0593
 5277SOL     OW27466   3.736   3.503   8.794  0.2473 -0.9784 -0.0894
 5277SOL    HW127467   3.798   3.448   8.841 -2.0695 -3.1535  0.4287
 5277SOL    HW227468   3.666   3.516   8.857  3.5884  0.8525  3.2184
 5278SOL     OW27469   2.496   2.848   8.573 -0.5799  0.0565 -0.4710
 5278SOL    HW127470   2.423   2.890   8.527 -0.6208  0.4996 -0.0023
 5278SOL    HW227471   2.510   2.774   8.514 -0.6138  1.1480 -1.8631
 5279SOL     OW27472   0.201   2.892   0.898  0.2639  0.1875 -0.1490
 5279SOL    HW127473   0.249   2.849   0.827 -2.0042 -2.8657  0.1253
 5279SOL    HW227474   0.250   2.863   0.975  2.0271  0.7571 -1.0717
 5280SOL     OW27475   1.388   4.371  12.725  0.1015 -0.1595  0.5469
 5280SOL    HW127476   1.298   4.341  12.721 -0.1006  0.3289  1.3813
 5280SOL    HW227477   1.426   4.284  12.711  2.8676  1.2053 -0.3590
 5281SOL     OW27478   0.009   3.550   5.011  0.5007  0.0844 -0.2021
 5281SOL    HW127479   4.712   3.461   5.016 -0.7270  0.6272  0.7945
 5281SOL    HW227480   0.079   3.541   5.076  0.9772 -0.7496 -0.8244
 5282SOL     OW27481   1.095   2.733   6.304  0.1964 -0.1491 -0.2123
 5282SOL    HW127482   1.030   2.769   6.363 -1.3628 -0.6002 -1.6372
 5282SOL    HW227483   1.105   2.793   6.230 -0.2578  1.0881  0.7301
 5283SOL     OW27484   2.025   0.720   8.281 -0.8072 -0.2081  0.6658
 5283SOL    HW127485   2.036   0.723   8.376  0.2446  1.4111  0.4903
 5283SOL    HW227486   1.947   0.772   8.264 -0.5439 -0.1487 -0.3729
 5284SOL     OW27487   3.144   2.764   0.741 -0.3085  0.0168 -0.6442
 5284SOL    HW127488   3.172   2.848   0.703 -1.2941  0.4473 -0.4149
 5284SOL    HW227489   3.109   2.718   0.664 -1.1015  1.4322 -1.1455
 5285SOL     OW27490   2.126   0.750   3.790 -0.4547  0.0608  0.6101
 5285SOL    HW127491   2.069   0.682   3.826 -0.2554  0.1184  1.0298
 5285SOL    HW227492   2.160   0.701   3.715  2.4210  1.6613  0.8863
 5286SOL     OW27493   4.600   0.924   3.946  0.6800 -0.1541  0.5248
 5286SOL    HW127494   4.599   0.830   3.964 -3.3596 -0.0696  0.8317
 5286SOL    HW227495   4.672   0.942   3.885  1.4578 -0.3494  1.3949
 5287SOL     OW27496   1.681   0.710   7.822 -0.4339 -0.2490 -0.3553
 5287SOL    HW127497   1.603   0.764   7.830  0.6212  0.9529  1.6980
 5287SOL    HW227498   1.712   0.733   7.734  0.4083  1.8185  0.5054
 5288SOL     OW27499   2.061   0.478  15.073  0.5216 -0.0086 -0.1249
 5288SOL    HW127500   1.983   0.436  15.035  1.0324 -0.6170 -0.5175
 5288SOL    HW227501   2.127   0.410  15.059 -0.4609 -0.5220 -2.4904
 5289SOL     OW27502   2.361   2.321   9.059 -0.3581  0.3552 -0.3093
 5289SOL    HW127503   2.386   2.231   9.082  1.2574  0.6903 -0.7429
 5289SOL    HW227504   2.279   2.301   9.013  0.3127  0.8068 -1.7036
 5290SOL     OW27505   1.351   4.419  10.113  0.1844 -0.0331 -0.9219
 5290SOL    HW127506   1.310   4.486  10.169  0.1372 -1.4942  0.7850
 5290SOL    HW227507   1.368   4.350  10.178 -1.1086  0.0150 -0.5329
 5291SOL     OW27508   4.046   3.933   1.517 -0.3563  0.5331 -0.0003
 5291SOL    HW127509   4.124   3.947   1.463 -0.5887 -0.4527 -0.6054
 5291SOL    HW227510   4.060   3.996   1.587  0.9364 -0.7981  0.9430
 5292SOL     OW27511   1.626   4.194   4.185 -0.4026  0.1187  0.1144
 5292SOL    HW127512   1.630   4.181   4.280  1.5854 -1.9718 -0.2575
 5292SOL    HW227513   1.705   4.246   4.168 -0.1972 -0.9517 -2.1929
 5293SOL     OW27514   3.903   4.217   9.720  1.2662 -0.2209  0.3216
 5293SOL    HW127515   3.900   4.215   9.815 -2.1406 -2.4033  0.1880
 5293SOL    HW227516   3.948   4.299   9.703  1.1394 -0.2686 -0.2603
 5294SOL     OW27517   3.286   4.023  14.852 -0.4833  0.6013  0.2129
 5294SOL    HW127518   3.291   3.932  14.883 -2.2122  1.3945  2.8186
 5294SOL    HW227519   3.236   4.059  14.925 -0.6587 -0.8141  0.7997
 5295SOL     OW27520   2.584   0.504   9.939 -0.0181  0.4335 -0.0538
 5295SOL    HW127521   2.515   0.438   9.931 -1.1866  1.4797  1.3599
 5295SOL    HW227522   2.625   0.485   9.855  0.9735  2.5777 -0.0638
 5296SOL     OW27523   4.144   3.651  12.887 -0.2557  0.2565 -0.2782
 5296SOL    HW127524   4.228   3.694  12.903 -0.7572  0.6474  1.2070
 5296SOL    HW227525   4.162   3.559  12.907  0.7650  0.3332 -0.8054
 5297SOL     OW27526   2.317   2.009   9.115 -0.3129  0.3065  0.2413
 5297SOL    HW127527   2.391   1.978   9.168  0.8044 -0.5244 -1.8024
 5297SOL    HW227528   2.341   1.987   9.025 -1.7185 -1.3477  0.2585
 5298SOL     OW27529   4.725   3.655   2.953 -0.3393 -0.4799 -0.1297
 5298SOL    HW127530   0.013   3.685   2.866 -0.3136  2.4166  0.8593
 5298SOL    HW227531   4.643   3.611   2.929 -0.6515  0.8964 -1.6020
 5299SOL     OW27532   1.690   0.248   5.407 -0.7037 -0.1355 -0.2645
 5299SOL    HW127533   1.597   0.239   5.388 -0.8531 -0.7307  0.7808
 5299SOL    HW227534   1.717   0.165   5.446  0.9958  0.7406  0.4059
 5300SOL     OW27535   2.636   2.517   8.185  0.2187 -0.1132 -0.0188
 5300SOL    HW127536   2.614   2.568   8.108 -0.5161 -1.3118 -0.6141
 5300SOL    HW227537   2.619   2.425   8.164  1.3884  0.7996 -4.7726
 5301SOL     OW27538   0.478   1.656   5.119  0.3007  0.0787  0.1589
 5301SOL    HW127539   0.396   1.607   5.111 -0.4704  1.1084  1.7628
 5301SOL    HW227540   0.524   1.583   5.078  0.0725 -0.4028  0.7541
 5302SOL     OW27541   2.761   3.078   1.773 -0.1768  0.1798  0.1877
 5302SOL    HW127542   2.849   3.070   1.736 -0.5268 -0.2513 -0.5514
 5302SOL    HW227543   2.710   3.010   1.730  0.1692  0.6880 -1.0371
 5303SOL     OW27544   0.430   2.218   3.771 -0.2615  0.3183  0.3755
 5303SOL    HW127545   0.402   2.159   3.841 -1.8275  1.2910  0.5570
 5303SOL    HW227546   0.407   2.163   3.695 -2.2948 -0.3399  1.4742
 5304SOL     OW27547   2.414   1.994   5.565 -0.4306 -0.2708  0.5076
 5304SOL    HW127548   2.392   2.080   5.601  1.2092  0.7458 -0.9493
 5304SOL    HW227549   2.508   2.000   5.550 -0.9180  2.6981 -1.4357
 5305SOL     OW27550   1.683   2.289  13.086  0.4870 -0.0636 -0.4507
 5305SOL    HW127551   1.762   2.240  13.110 -0.1123 -1.1598 -0.7326
 5305SOL    HW227552   1.718   2.335  13.009  0.6031 -2.0501 -1.5798
 5306SOL     OW27553   1.562   3.121   1.787  0.2541  0.2514 -0.2089
 5306SOL    HW127554   1.554   3.026   1.788  2.1777  0.0971  2.0007
 5306SOL    HW227555   1.471   3.148   1.800 -0.0738 -0.9101 -0.0874
 5307SOL     OW27556   3.764   2.709   0.950 -0.2685  0.2142  0.3094
 5307SOL    HW127557   3.738   2.747   1.033  2.0870  1.5650  0.4445
 5307SOL    HW227558   3.848   2.670   0.975  0.2152 -0.2338 -1.9525
 5308SOL     OW27559   2.126   0.321   5.992 -0.4881 -0.5033  1.0878
 5308SOL    HW127560   2.200   0.311   5.933 -1.5204  1.1904 -0.4734
 5308SOL    HW227561   2.051   0.333   5.933 -1.3642 -1.7575  1.9220
 5309SOL     OW27562   2.488   0.299   6.957 -0.0822  0.3784 -1.0120
 5309SOL    HW127563   2.438   0.377   6.978 -0.7299 -0.4254  0.4189
 5309SOL    HW227564   2.458   0.273   6.870 -0.8498 -0.5698 -0.4682
 5310SOL     OW27565   1.833   2.181   4.171  0.0016  0.4883 -0.1835
 5310SOL    HW127566   1.863   2.272   4.175 -4.1521  1.8545  0.0275
 5310SOL    HW227567   1.741   2.206   4.180  0.8911  3.5358  0.4658
 5311SOL     OW27568   2.417   3.469   3.816  0.1996 -0.0824 -0.1134
 5311SOL    HW127569   2.445   3.398   3.873  1.3070  0.8441  0.5196
 5311SOL    HW227570   2.326   3.466   3.846 -0.0875 -1.4751 -1.1416
 5312SOL     OW27571   3.555   0.197   2.812  0.1148 -0.6405 -0.0189
 5312SOL    HW127572   3.619   0.152   2.867 -1.4476 -1.2360  1.3144
 5312SOL    HW227573   3.506   0.242   2.881 -1.9522 -2.2595 -0.4374
 5313SOL     OW27574   4.105   3.446  15.459  0.2675  0.6149 -0.0847
 5313SOL    HW127575   4.056   3.515  15.505  2.1799  0.7505  1.7194
 5313SOL    HW227576   4.150   3.416  15.538 -0.4270 -0.5003 -0.1084
 5314SOL     OW27577   1.096   2.984   9.908 -0.1670 -0.0498  0.3524
 5314SOL    HW127578   1.111   2.894   9.879  0.5605 -0.0473  0.7074
 5314SOL    HW227579   1.011   2.979   9.951  0.2798  0.8904  1.3409
 5315SOL     OW27580   3.258   0.689   4.526 -0.2198 -0.4229 -0.1952
 5315SOL    HW127581   3.304   0.688   4.442  0.8712  0.5542  0.3859
 5315SOL    HW227582   3.245   0.597   4.548 -2.2389 -0.0647  0.1481
 5316SOL     OW27583   4.355   0.338   5.605 -0.2094  0.0928  0.8644
 5316SOL    HW127584   4.316   0.260   5.565  1.2231 -0.6330  0.8704
 5316SOL    HW227585   4.427   0.354   5.545 -2.9001 -0.1287 -2.3773
 5317SOL     OW27586   2.142   4.419  12.294 -0.4057  0.1921  0.3323
 5317SOL    HW127587   2.213   4.363  12.263 -0.6585 -0.0949  0.2668
 5317SOL    HW227588   2.181   4.475  12.361 -0.8622  0.2484  0.5478
 5318SOL     OW27589   1.728   3.328  14.637  0.3634 -0.5468 -0.3475
 5318SOL    HW127590   1.773   3.409  14.613 -0.0050 -0.3044 -0.2063
 5318SOL    HW227591   1.791   3.299  14.703  1.1459  0.4272 -0.6584
 5319SOL     OW27592   2.222   0.718   7.180 -0.3309  0.0106 -0.2595
 5319SOL    HW127593   2.191   0.778   7.112 -0.5648  1.1212  0.8343
 5319SOL    HW227594   2.177   0.639   7.150 -1.3193 -0.2883  2.0856
 5320SOL     OW27595   2.245   2.331   7.150 -0.2820 -0.3637 -0.0337
 5320SOL    HW127596   2.318   2.392   7.142 -0.7912  0.5179  2.1345
 5320SOL    HW227597   2.232   2.315   7.244  1.1748  2.4081  0.6406
 5321SOL     OW27598   3.469   4.675   1.248  0.0511 -0.0443  0.5589
 5321SOL    HW127599   3.476   0.028   1.277 -2.2202 -0.0002  0.9852
 5321SOL    HW227600   3.517   4.625   1.314 -0.7532  0.3444  1.4313
 5322SOL     OW27601   3.176   0.516  12.133 -0.6185  0.0273 -0.5699
 5322SOL    HW127602   3.220   0.441  12.092 -0.0646  0.5218 -0.8698
 5322SOL    HW227603   3.164   0.584  12.067  0.9417  1.3643  0.5568
 5323SOL     OW27604   4.602   0.959   3.678 -0.1774  0.2920  0.1807
 5323SOL    HW127605   4.697   0.964   3.688 -0.1332  0.0042 -0.0713
 5323SOL    HW227606   4.575   1.044   3.711  1.5063 -0.0667  2.4235
 5324SOL     OW27607   3.726   4.244   7.441  0.1053 -0.2016  0.4403
 5324SOL    HW127608   3.784   4.251   7.366 -0.8041 -0.3609 -0.2881
 5324SOL    HW227609   3.648   4.205   7.401  0.2896 -1.0675  0.9239
 5325SOL     OW27610   2.052   0.519   7.139  0.0355 -0.2010  0.3738
 5325SOL    HW127611   1.967   0.559   7.119 -0.0421  0.6285  2.3817
 5325SOL    HW227612   2.045   0.435   7.094  0.7959  0.2745 -0.6330
 5326SOL     OW27613   1.332   4.305   7.529 -0.0679  0.5882  0.2222
 5326SOL    HW127614   1.398   4.365   7.564  1.7560 -1.7920  0.8773
 5326SOL    HW227615   1.285   4.282   7.609 -2.4915  1.9817 -0.8109
 5327SOL     OW27616   0.236   3.024   1.825  0.4657 -0.1959 -0.1636
 5327SOL    HW127617   0.150   3.065   1.815  1.5915  1.9742 -0.6956
 5327SOL    HW227618   0.257   3.035   1.918  0.5168  0.8048 -0.3024
 5328SOL     OW27619   1.273   2.153   6.369 -0.0577 -0.4569 -0.3552
 5328SOL    HW127620   1.224   2.147   6.451 -0.3518  3.4412 -0.2209
 5328SOL    HW227621   1.204   2.144   6.304 -1.1568  0.2244  0.7053
 5329SOL     OW27622   4.276   0.220   8.828  0.3612 -0.2024 -0.3033
 5329SOL    HW127623   4.348   0.259   8.778  0.2321  0.2791 -0.1175
 5329SOL    HW227624   4.208   0.203   8.763  1.1324  1.5830 -1.5660
 5330SOL     OW27625   2.497   1.832  11.667 -0.1092 -0.4156  0.8843
 5330SOL    HW127626   2.485   1.911  11.613  0.6832 -0.0298  1.2820
 5330SOL    HW227627   2.580   1.829  11.714  0.1429 -3.0187  0.2583
 5331SOL     OW27628   1.121   4.546   7.644  0.0412 -0.2444 -0.0711
 5331SOL    HW127629   1.180   4.577   7.713  1.5894 -1.7733 -0.7164
 5331SOL    HW227630   1.052   4.609   7.666 -0.5454 -0.3466 -1.5882
 5332SOL     OW27631   2.805   1.857   6.335  0.4807 -0.3964 -0.7302
 5332SOL    HW127632   2.816   1.942   6.378 -0.2489  0.2072 -1.7084
 5332SOL    HW227633   2.823   1.794   6.405  1.1855  0.1519 -0.4250
 5333SOL     OW27634   0.033   1.263   7.833  0.1056 -0.0276 -0.0781
 5333SOL    HW127635   0.059   1.334   7.891 -1.4963 -1.3173  2.2326
 5333SOL    HW227636   4.675   1.262   7.840  0.1045  1.7595  0.1035
 5334SOL     OW27637   4.091   2.252   4.285 -0.2836 -0.1693  0.1427
 5334SOL    HW127638   4.177   2.222   4.315 -1.1694 -1.4292  1.3974
 5334SOL    HW227639   4.044   2.170   4.272 -0.6248 -0.0651  0.7440
 5335SOL     OW27640   1.016   2.131   2.554  0.0136  0.3435 -0.4644
 5335SOL    HW127641   1.048   2.128   2.464  0.0898 -1.2725 -0.3787
 5335SOL    HW227642   1.097   2.103   2.596 -2.3214 -1.4666  2.8541
 5336SOL     OW27643   1.453   4.299   3.648  0.4120 -0.1418 -0.1895
 5336SOL    HW127644   1.494   4.216   3.673 -1.9683 -0.4931  2.4764
 5336SOL    HW227645   1.536   4.343   3.630  0.1510  0.9843  1.3144
 5337SOL     OW27646   1.104   1.551   2.215 -0.0025 -0.6103 -0.7419
 5337SOL    HW127647   1.150   1.526   2.294  0.5871  3.6407  0.2873
 5337SOL    HW227648   1.014   1.553   2.246 -0.3682  1.4121 -1.9030
 5338SOL     OW27649   1.698   1.419   5.097  0.3829 -0.3668 -0.1563
 5338SOL    HW127650   1.752   1.474   5.040  0.8820  1.4973  2.1420
 5338SOL    HW227651   1.627   1.478   5.118 -1.4060 -2.3715 -0.5227
 5339SOL     OW27652   0.664   1.386   2.814 -0.0276 -0.1712 -0.3441
 5339SOL    HW127653   0.733   1.332   2.775 -0.8265  0.1803 -2.2368
 5339SOL    HW227654   0.644   1.426   2.729 -0.8182 -0.9027 -0.4984
 5340SOL     OW27655   1.991   0.744   1.781  0.2733 -0.1238 -0.1005
 5340SOL    HW127656   2.048   0.718   1.709  1.6002  1.0884  0.4994
 5340SOL    HW227657   2.039   0.754   1.863  1.1609  1.2686 -0.7990
 5341SOL     OW27658   0.021   1.451   3.047 -0.0097 -0.3575  0.0830
 5341SOL    HW127659   0.024   1.454   3.143  0.5213 -1.6133  0.1023
 5341SOL    HW227660   0.114   1.439   3.026 -0.5572 -2.8181 -0.8798
 5342SOL     OW27661   2.481   0.376   2.178  0.1397  0.3763  0.6745
 5342SOL    HW127662   2.559   0.362   2.231  0.4561 -0.0526  0.0925
 5342SOL    HW227663   2.424   0.307   2.213  0.0060  0.3772  0.4579
 5343SOL     OW27664   1.941   0.745   5.919 -0.3275  0.0644 -0.0029
 5343SOL    HW127665   1.932   0.770   5.827  1.0520  1.8875  0.3485
 5343SOL    HW227666   1.902   0.815   5.971 -1.3782  0.2633 -1.0698
 5344SOL     OW27667   0.827   4.447   7.282  0.4772  0.8305 -0.0127
 5344SOL    HW127668   0.873   4.367   7.260 -1.3556 -0.1236 -0.3819
 5344SOL    HW227669   0.738   4.428   7.252  0.9556 -0.2266 -0.7250
 5345SOL     OW27670   2.515   0.980   5.913 -0.4941 -0.0158 -0.5728
 5345SOL    HW127671   2.470   1.008   5.993 -0.2061  0.0548 -0.4368
 5345SOL    HW227672   2.472   1.033   5.846  1.0217  0.3382 -1.2632
 5346SOL     OW27673   4.524   0.411  11.991 -0.6280 -0.1418  0.1686
 5346SOL    HW127674   4.466   0.365  11.931 -0.4817  0.5178 -0.4848
 5346SOL    HW227675   4.550   0.352  12.062  1.6223  0.5968 -0.0186
 5347SOL     OW27676   1.317   1.710   2.160  0.1472  0.2884  0.2281
 5347SOL    HW127677   1.235   1.662   2.171  1.1931 -0.8917  2.8641
 5347SOL    HW227678   1.362   1.665   2.088  1.0155 -1.4981  1.8899
 5348SOL     OW27679   0.503   3.877  11.101 -0.1452 -0.1545  0.0204
 5348SOL    HW127680   0.548   3.946  11.151 -0.6866 -0.2289  0.6191
 5348SOL    HW227681   0.437   3.932  11.060  2.1089  1.9427 -0.7924
 5349SOL     OW27682   4.131   2.101   1.038  0.2337  0.0336 -0.1149
 5349SOL    HW127683   4.110   2.094   0.945 -0.5953 -0.9921  0.1495
 5349SOL    HW227684   4.226   2.101   1.041  0.2593 -0.0445 -0.7990
 5350SOL     OW27685   2.975   3.486   2.624 -0.4677  0.0691 -0.5163
 5350SOL    HW127686   2.995   3.560   2.568 -1.8854  0.1801 -0.8740
 5350SOL    HW227687   2.884   3.509   2.643 -0.1608  0.8579 -0.0267
 5351SOL     OW27688   3.245   2.053  15.503  0.1939 -0.0474  0.3387
 5351SOL    HW127689   3.170   2.000  15.527 -0.2603 -0.0379 -1.0931
 5351SOL    HW227690   3.322   2.013  15.544  0.0434 -0.6244  0.0542
 5352SOL     OW27691   1.881   1.664  15.065  0.0652 -0.1756 -0.1644
 5352SOL    HW127692   1.846   1.649  14.977 -1.7468 -1.1297  0.7213
 5352SOL    HW227693   1.967   1.623  15.064  0.7453  1.2209 -0.0413
 5353SOL     OW27694   4.271   1.398   1.622 -0.6184  0.1154  0.4980
 5353SOL    HW127695   4.188   1.400   1.670 -1.1919  0.5714 -0.5112
 5353SOL    HW227696   4.256   1.313   1.581  0.6717 -0.2979  0.8948
 5354SOL     OW27697   3.761   1.755   3.060 -0.5094  0.2071 -0.0774
 5354SOL    HW127698   3.802   1.711   2.985 -1.5530 -2.3619  0.8743
 5354SOL    HW227699   3.720   1.833   3.021 -2.1572 -0.8821 -0.5415
 5355SOL     OW27700   2.410   0.219   2.865 -0.3679  1.0021  0.2217
 5355SOL    HW127701   2.364   0.241   2.784 -0.6633  0.4598  0.2395
 5355SOL    HW227702   2.380   0.128   2.870  0.1828  0.7523 -1.0665
 5356SOL     OW27703   0.108   1.380  14.404  0.3914 -0.0197 -0.3339
 5356SOL    HW127704   0.031   1.429  14.433 -0.2827 -0.8673 -0.6971
 5356SOL    HW227705   0.098   1.377  14.309  0.3626  0.1137 -0.3355
 5357SOL     OW27706   4.441   0.779  16.159  0.1092 -0.3985 -0.3366
 5357SOL    HW127707   4.504   0.749  16.225 -0.4574 -0.9128 -0.0237
 5357SOL    HW227708   4.500   0.759  16.087  0.1483 -1.8057  0.0814
 5358SOL     OW27709   4.667   4.662  16.720 -0.1085 -0.1628  0.0697
 5358SOL    HW127710   4.661   4.691  16.629 -0.4542 -0.9430 -0.1645
 5358SOL    HW227711   4.590   4.706  16.755  0.4086 -0.2459  1.3215
 5359SOL     OW27712   1.803   0.205   4.279 -0.0408  0.2789 -0.4350
 5359SOL    HW127713   1.856   0.137   4.320 -0.1200  2.1614  2.8106
 5359SOL    HW227714   1.766   0.151   4.209  1.4197  0.2211 -1.1478
 5360SOL     OW27715   0.324   3.339  17.202  0.0154  0.0162  0.7412
 5360SOL    HW127716   0.417   3.317  17.196 -0.6761 -2.4032 -1.4664
 5360SOL    HW227717   0.332   3.387  17.284 -0.0733 -0.2158  0.8877
 5361SOL     OW27718   4.490   2.345   4.012  0.2612 -0.3490 -0.4878
 5361SOL    HW127719   4.407   2.392   4.025  0.6645  0.2456 -0.0640
 5361SOL    HW227720   4.473   2.297   3.931  0.5573 -0.6788 -0.3506
 5362SOL     OW27721   1.332   0.617   4.656  0.1245 -0.3964 -0.4781
 5362SOL    HW127722   1.361   0.688   4.715  1.8963 -0.7672 -0.8934
 5362SOL    HW227723   1.257   0.663   4.619  1.1020  0.3490 -1.5210
 5363SOL     OW27724   4.499   0.187  14.442 -0.2288 -0.2128  0.1855
 5363SOL    HW127725   4.438   0.242  14.491  2.1541  1.1001  1.6767
 5363SOL    HW227726   4.570   0.197  14.506 -1.1256 -0.3607  1.2210
 5364SOL     OW27727   0.847   0.098  17.442  0.1176  0.2687  0.2488
 5364SOL    HW127728   0.812   0.107  17.531 -3.1094 -1.2010 -0.8738
 5364SOL    HW227729   0.938   0.125  17.449  0.1496  0.2165  0.0313
 5365SOL     OW27730   1.196   2.506   4.475 -0.2835  0.2591 -0.0120
 5365SOL    HW127731   1.243   2.497   4.558 -1.0138  0.6740  0.4437
 5365SOL    HW227732   1.149   2.425   4.495  0.2749  0.1797  0.9977
 5366SOL     OW27733   2.171   3.996  14.269 -0.3446  0.2844  0.0923
 5366SOL    HW127734   2.236   3.964  14.331 -0.2662  0.7646  0.2588
 5366SOL    HW227735   2.219   4.064  14.221  0.9731 -1.8195 -1.5549
 5367SOL     OW27736   2.616   0.295   9.670 -0.3084 -0.1218 -0.0650
 5367SOL    HW127737   2.522   0.299   9.654 -0.6143  0.0401  1.7780
 5367SOL    HW227738   2.639   0.386   9.692 -0.1308 -0.5090  1.3886
 5368SOL     OW27739   3.859   1.826   3.700  0.3914  0.3580  0.8445
 5368SOL    HW127740   3.805   1.884   3.645 -0.3997 -1.1428  0.0282
 5368SOL    HW227741   3.798   1.763   3.736  0.7042  0.3098  1.2951
 5369SOL     OW27742   2.898   2.376   3.590  0.4418 -0.5504  0.0157
 5369SOL    HW127743   2.992   2.356   3.592  0.0689 -2.5091 -3.3543
 5369SOL    HW227744   2.892   2.467   3.561  0.2031 -0.2467  1.0104
 5370SOL     OW27745   4.272   2.566   7.141 -0.3425 -0.2217 -0.2033
 5370SOL    HW127746   4.277   2.494   7.204  0.4079 -0.9692 -1.0988
 5370SOL    HW227747   4.336   2.528   7.080 -1.2157 -0.0240 -1.2438
 5371SOL     OW27748   0.706   3.334   5.321 -0.4224 -0.1182 -0.5112
 5371SOL    HW127749   0.726   3.253   5.274 -0.3627 -0.1266 -0.4719
 5371SOL    HW227750   0.621   3.361   5.286 -0.8554  0.8296  1.2773
 5372SOL     OW27751   0.972   4.469   6.712  0.2253 -0.3244  0.2799
 5372SOL    HW127752   0.996   4.450   6.622  2.0147 -0.6721  0.8359
 5372SOL    HW227753   1.033   4.412   6.759  0.3586  0.6327  1.2704
 5373SOL     OW27754   0.453   0.229   3.234  0.3162  0.4588 -1.2922
 5373SOL    HW127755   0.391   0.276   3.289  0.3927 -1.9441  0.8790
 5373SOL    HW227756   0.461   0.143   3.276 -0.1038  0.6459 -0.8290
 5374SOL     OW27757   2.562   0.449   8.494  0.4806  0.0534  0.3897
 5374SOL    HW127758   2.593   0.378   8.549  2.2055  1.7164  1.5763
 5374SOL    HW227759   2.502   0.501   8.548 -0.4342  0.0009 -0.5815
 5375SOL     OW27760   2.651   0.191   4.392  0.2048  0.5398 -0.1312
 5375SOL    HW127761   2.745   0.205   4.377 -0.0360  1.6363 -0.6288
 5375SOL    HW227762   2.658   0.106   4.435  1.0850  0.2304 -0.8899
 5376SOL     OW27763   2.057   3.397   3.231  0.4713 -0.4854 -0.0967
 5376SOL    HW127764   2.004   3.319   3.249 -1.7592  0.4687 -2.5782
 5376SOL    HW227765   2.136   3.348   3.255  1.2810  1.1888  0.6619
 5377SOL     OW27766   1.271   3.761   1.583  0.6284 -0.3742 -0.4989
 5377SOL    HW127767   1.193   3.714   1.612 -0.9334  2.7412  0.2874
 5377SOL    HW227768   1.250   3.802   1.500 -1.4846 -0.2115  0.1194
 5378SOL     OW27769   1.099   4.293   6.873  0.2698  0.2595  0.5532
 5378SOL    HW127770   1.070   4.202   6.874 -1.3205  0.7762  0.7195
 5378SOL    HW227771   1.111   4.304   6.968  0.8049  2.3277  0.2389
 5379SOL     OW27772   0.234   1.708   8.053  0.3303 -0.4264  0.7538
 5379SOL    HW127773   0.274   1.766   7.987  0.2640 -0.3950  0.7413
 5379SOL    HW227774   0.297   1.636   8.043  0.6967 -0.0251  0.1388
 5380SOL     OW27775   4.046   1.358   4.271  0.2108  0.0603 -0.0081
 5380SOL    HW127776   4.093   1.421   4.216  3.7355 -0.3947  2.4889
 5380SOL    HW227777   4.021   1.416   4.343 -2.5075 -0.5973 -0.4096
 5381SOL     OW27778   2.695   2.169   5.265 -0.5902 -0.1070  0.4551
 5381SOL    HW127779   2.725   2.085   5.232 -0.2156  0.2756 -0.1976
 5381SOL    HW227780   2.690   2.154   5.359 -2.2087  1.5008  0.6220
 5382SOL     OW27781   1.143   2.952   1.850 -0.1927 -0.3182 -0.2007
 5382SOL    HW127782   1.130   3.047   1.851  2.6640  0.1252 -2.2296
 5382SOL    HW227783   1.164   2.934   1.758 -1.9199 -0.2398 -0.6116
 5383SOL     OW27784   1.503   3.181   5.249 -0.1140 -0.0740 -0.0944
 5383SOL    HW127785   1.465   3.268   5.265  0.1554  0.4600 -2.3476
 5383SOL    HW227786   1.517   3.153   5.340  0.9100  1.0272  0.0861
 5384SOL     OW27787   2.943   2.059   5.613  1.0029 -0.2690  0.2649
 5384SOL    HW127788   3.021   2.110   5.633 -1.1232  3.5005 -0.9285
 5384SOL    HW227789   2.958   1.974   5.653  0.2485 -0.9899 -0.9604
 5385SOL     OW27790   3.533   2.704   1.492  0.4480  0.8217  0.6644
 5385SOL    HW127791   3.448   2.662   1.488  2.4020 -3.1593  0.7946
 5385SOL    HW227792   3.510   2.796   1.502 -1.6384  0.4664 -0.7774
 5386SOL     OW27793   2.239   3.798   3.824 -0.1330 -0.2929 -0.2456
 5386SOL    HW127794   2.214   3.706   3.831  0.2478 -0.2438  1.7002
 5386SOL    HW227795   2.163   3.839   3.866  1.4272  1.7692  0.5376
 5387SOL     OW27796   2.949   2.639  12.650  0.2613  0.3953  0.0458
 5387SOL    HW127797   3.019   2.617  12.588 -1.5812  0.5047 -2.1009
 5387SOL    HW227798   2.987   2.606  12.732  0.4220  1.2715  0.3182
 5388SOL     OW27799   0.991   1.105  10.788 -0.5054 -0.2871  0.1858
 5388SOL    HW127800   0.962   1.075  10.874  2.6416 -0.8566  1.0243
 5388SOL    HW227801   1.046   1.178  10.816  0.2875 -0.7530 -0.1421
 5389SOL     OW27802   1.973   3.123   9.551 -0.4694 -0.0416  0.2315
 5389SOL    HW127803   1.916   3.102   9.625 -1.1354  0.9571 -0.0110
 5389SOL    HW227804   2.063   3.109   9.582  0.5661  1.7098 -1.9517
 5390SOL     OW27805   3.100   2.879   6.362  0.1136 -0.1899 -0.0936
 5390SOL    HW127806   3.051   2.827   6.299 -1.1879 -0.7931  1.4270
 5390SOL    HW227807   3.108   2.806   6.424 -1.0440 -0.6287 -0.4712
 5391SOL     OW27808   4.377   0.360   1.748 -0.2019 -0.1713 -0.1843
 5391SOL    HW127809   4.325   0.420   1.801 -0.6063 -0.9638  0.3192
 5391SOL    HW227810   4.455   0.414   1.735  0.1354 -0.7522 -0.5405
 5392SOL     OW27811   2.701   4.603   5.130 -0.1433  0.2741 -0.2859
 5392SOL    HW127812   2.784   4.568   5.098 -1.9505 -3.0277 -1.3082
 5392SOL    HW227813   2.655   4.602   5.046  0.7470  0.3384 -0.7772
 5393SOL     OW27814   0.313   0.724   3.788  0.8650 -0.5378 -0.2572
 5393SOL    HW127815   0.366   0.683   3.720  2.8317  3.0450 -0.8722
 5393SOL    HW227816   0.374   0.790   3.821  3.2329 -1.9282 -1.8415
 5394SOL     OW27817   1.177   4.465   6.494 -0.7114  0.0494  0.3125
 5394SOL    HW127818   1.230   4.385   6.500  1.0558  1.2708  0.5957
 5394SOL    HW227819   1.176   4.504   6.581  0.2669  1.8525 -0.4916
 5395SOL     OW27820   4.623   2.844  17.564  0.0425 -0.5308  0.1735
 5395SOL    HW127821   4.582   2.839  17.650 -1.7406  0.0388 -0.6579
 5395SOL    HW227822   4.607   2.935  17.541 -0.3168 -1.5271 -3.4441
 5396SOL     OW27823   2.677   0.448  10.813 -0.4511 -0.4755 -0.7391
 5396SOL    HW127824   2.711   0.420  10.729 -2.9133 -0.7275 -1.6583
 5396SOL    HW227825   2.752   0.500  10.841 -0.1142 -1.3500 -0.0320
 5397SOL     OW27826   4.586   3.051   5.648  0.2197 -0.1873  0.0491
 5397SOL    HW127827   4.571   3.103   5.727  1.7172  0.1732  0.0841
 5397SOL    HW227828   4.529   2.977   5.669 -0.1165  0.2129  0.5507
 5398SOL     OW27829   1.578   2.477   6.029 -0.0668  0.2781  0.1459
 5398SOL    HW127830   1.552   2.569   6.028  0.8193  0.5175 -0.7672
 5398SOL    HW227831   1.506   2.440   6.081  0.7226 -0.1589  0.9289
 5399SOL     OW27832   0.424   3.670  13.727 -0.0970 -0.4223 -0.7833
 5399SOL    HW127833   0.369   3.694  13.802 -2.1536  2.1446 -3.1172
 5399SOL    HW227834   0.354   3.631  13.674  0.7061 -0.6507 -1.6708
 5400SOL     OW27835   4.328   3.940   7.260  0.3768 -0.0248 -0.0391
 5400SOL    HW127836   4.318   4.014   7.199  1.8422  0.9999  0.9790
 5400SOL    HW227837   4.290   3.982   7.337  1.6267  0.4322  0.3175
 5401SOL     OW27838   3.286   3.468   9.071 -0.0722 -0.4082  0.1380
 5401SOL    HW127839   3.235   3.391   9.096 -0.7435 -0.4911 -1.5022
 5401SOL    HW227840   3.245   3.496   8.989 -1.8871 -2.1864  0.4476
 5402SOL     OW27841   3.432   1.340   9.303 -0.3212 -0.1799  0.1621
 5402SOL    HW127842   3.416   1.383   9.387  0.8507 -2.8125  1.6943
 5402SOL    HW227843   3.350   1.355   9.256 -0.5866  0.2198  0.7463
 5403SOL     OW27844   2.806   2.667   8.879 -0.3498 -0.3550 -0.0452
 5403SOL    HW127845   2.834   2.743   8.828 -0.6354  0.8290  1.5508
 5403SOL    HW227846   2.865   2.666   8.954  0.4906  0.0331 -0.7003
 5404SOL     OW27847   0.796   2.698  15.734 -0.1090  0.2753  0.2216
 5404SOL    HW127848   0.872   2.641  15.743  1.2904  2.1425  0.2112
 5404SOL    HW227849   0.824   2.788  15.719  2.7421 -0.4274  1.4473
 5405SOL     OW27850   1.467   0.870   7.864  0.1519  0.3693  0.3236
 5405SOL    HW127851   1.520   0.943   7.897 -0.5861  0.5724  1.0266
 5405SOL    HW227852   1.410   0.917   7.803  1.8115 -1.1058 -2.4190
 5406SOL     OW27853   1.692   2.443   0.959 -0.1739 -0.2195  0.1388
 5406SOL    HW127854   1.746   2.495   1.018  1.3127 -2.4481  0.7306
 5406SOL    HW227855   1.698   2.353   0.993  0.8892 -0.8064 -1.6055
 5407SOL     OW27856   3.547   4.368  12.958  0.0470 -0.0749  0.6406
 5407SOL    HW127857   3.490   4.300  12.922 -1.2118  1.1162  0.3905
 5407SOL    HW227858   3.479   4.432  12.977 -0.3391 -0.2418 -0.1720
 5408SOL     OW27859   0.883   3.757   6.975 -0.1683  0.1681 -0.4206
 5408SOL    HW127860   0.843   3.709   7.047  1.1429 -0.9598 -0.4427
 5408SOL    HW227861   0.932   3.819   7.029  0.7341 -0.7433 -0.1893
 5409SOL     OW27862   1.748   4.499   7.470  0.6960 -0.1846 -0.0457
 5409SOL    HW127863   1.742   4.499   7.374 -0.5325 -2.1012  0.0223
 5409SOL    HW227864   1.724   4.407   7.480  2.1676 -0.7494 -1.5504
 5410SOL     OW27865   0.262   4.485   8.219 -0.6617  0.0609 -0.2949
 5410SOL    HW127866   0.274   4.579   8.236  0.6167  0.1642 -1.7321
 5410SOL    HW227867   0.317   4.455   8.292 -0.7816 -0.0896 -0.2664
 5411SOL     OW27868   4.644   2.736   2.220 -0.7057 -0.3188  0.4693
 5411SOL    HW127869   4.727   2.719   2.176 -0.3697  3.3061 -0.2901
 5411SOL    HW227870   4.589   2.753   2.144  0.7027  0.3210 -0.3995
 5412SOL     OW27871   3.403   1.736   6.420  0.3648 -0.3192  0.4612
 5412SOL    HW127872   3.462   1.676   6.466 -0.2355 -2.9022 -2.1290
 5412SOL    HW227873   3.317   1.735   6.462  0.1621  0.8087  0.0754
 5413SOL     OW27874   4.683   0.248   2.383 -0.0029 -0.1641 -0.4289
 5413SOL    HW127875   0.029   0.220   2.419 -0.0345  0.9855  0.5214
 5413SOL    HW227876   4.690   0.210   2.295 -0.9151 -1.6289  0.1170
 5414SOL     OW27877   4.302   2.726   2.507 -0.0046 -0.0442 -1.0490
 5414SOL    HW127878   4.229   2.690   2.557 -0.0712  1.2027 -0.2724
 5414SOL    HW227879   4.251   2.758   2.432  1.4507  1.3425 -1.4506
 5415SOL     OW27880   1.698   2.731   0.270  0.6411 -0.3260  0.4664
 5415SOL    HW127881   1.724   2.657   0.326  2.3191 -1.1755 -1.4281
 5415SOL    HW227882   1.771   2.724   0.209 -1.4334 -2.0166 -1.8176
 5416SOL     OW27883   4.177   0.365   3.834  0.1037  0.0804 -0.0211
 5416SOL    HW127884   4.202   0.340   3.746  1.7146  0.7011  0.2740
 5416SOL    HW227885   4.257   0.367   3.887 -0.7572 -0.6937  1.3340
 5417SOL     OW27886   0.434   1.433  17.687 -0.1281  0.3480  0.0447
 5417SOL    HW127887   0.527   1.451  17.702  0.1676 -0.2874 -1.0205
 5417SOL    HW227888   0.446   1.343  17.655  1.2867  0.8954 -0.9608
 5418SOL     OW27889   1.885   2.072   8.793  0.1162 -0.1823 -0.2386
 5418SOL    HW127890   1.832   2.070   8.713  1.1364 -2.0098 -0.8636
 5418SOL    HW227891   1.929   1.987   8.793  1.1796  0.3662 -0.9064
 5419SOL     OW27892   0.717   4.175   1.950 -0.4276 -0.3799 -0.2290
 5419SOL    HW127893   0.742   4.267   1.945 -0.4262 -0.3684 -0.0142
 5419SOL    HW227894   0.632   4.182   1.908  0.9117  1.3614 -2.6628
 5420SOL     OW27895   1.435   3.806  16.520 -0.5967  0.7800  0.1576
 5420SOL    HW127896   1.345   3.790  16.491 -0.2021 -2.4238  0.7033
 5420SOL    HW227897   1.458   3.714  16.529 -0.2842  0.7672 -0.7716
 5421SOL     OW27898   2.820   4.341  13.941 -0.5288  0.5973  0.1176
 5421SOL    HW127899   2.858   4.264  13.897 -0.3559  0.9109 -0.2742
 5421SOL    HW227900   2.763   4.374  13.873 -0.4125 -2.0292 -1.2694
 5422SOL     OW27901   2.839   0.113   5.464 -0.4314  0.1526 -0.0153
 5422SOL    HW127902   2.786   0.121   5.384  1.2175  0.5154 -1.0758
 5422SOL    HW227903   2.779   0.145   5.531  0.5255  0.8904  0.4932
 5423SOL     OW27904   1.174   0.164   8.600 -0.2870 -0.0200  0.0314
 5423SOL    HW127905   1.188   0.070   8.596 -0.6592 -0.0906  0.3874
 5423SOL    HW227906   1.243   0.205   8.548 -0.0878 -1.8875 -1.1614
 5424SOL     OW27907   4.138   3.084  16.303 -0.2252 -0.4109 -0.1352
 5424SOL    HW127908   4.150   2.994  16.272  0.3945 -0.9774  1.7569
 5424SOL    HW227909   4.087   3.073  16.384  1.0315 -0.5096  0.6428
 5425SOL     OW27910   4.078   3.023   4.944 -0.6063 -0.1758  0.9404
 5425SOL    HW127911   4.167   3.021   4.979 -0.4785  2.5902  0.8129
 5425SOL    HW227912   4.045   2.933   4.941 -1.6683  0.2523 -0.2179
 5426SOL     OW27913   2.228   4.285   5.928 -0.5241 -0.1592 -0.4698
 5426SOL    HW127914   2.293   4.236   5.979 -1.6928 -1.5738 -0.2967
 5426SOL    HW227915   2.149   4.263   5.979  0.4124  0.2168  1.1413
 5427SOL     OW27916   1.071   2.244   4.527 -0.5911  0.3424 -0.7714
 5427SOL    HW127917   1.013   2.312   4.559  0.5660  0.7050  0.5507
 5427SOL    HW227918   1.035   2.167   4.572  1.5796  0.3379  0.9656
 5428SOL     OW27919   2.629   1.616  17.387  0.1293  0.4194  0.3424
 5428SOL    HW127920   2.616   1.648  17.476  2.7425  0.9422  0.5209
 5428SOL    HW227921   2.702   1.556  17.400  0.1093 -0.0061 -1.4830
 5429SOL     OW27922   0.841   3.258   7.764 -0.0304  0.3666 -0.2071
 5429SOL    HW127923   0.898   3.261   7.841  0.0441 -1.7120 -0.1788
 5429SOL    HW227924   0.820   3.351   7.758  0.6452  0.4467 -1.2279
 5430SOL     OW27925   4.294   1.208   8.786  0.0360 -0.2122 -0.3252
 5430SOL    HW127926   4.349   1.263   8.731 -2.6156  2.2488 -0.4774
 5430SOL    HW227927   4.215   1.192   8.735 -0.6869 -1.8808  1.2828
 5431SOL     OW27928   2.443   2.606   1.573 -0.2797  0.4621  0.1602
 5431SOL    HW127929   2.526   2.613   1.620 -0.4832  1.4212  0.3770
 5431SOL    HW227930   2.401   2.690   1.591 -0.0430  0.8230 -0.9657
 5432SOL     OW27931   3.790   3.586   8.498 -0.0618 -0.2430  0.2169
 5432SOL    HW127932   3.708   3.629   8.476 -1.1298 -1.5408  1.6489
 5432SOL    HW227933   3.750   3.502   8.522 -1.7300 -0.1940 -2.4801
 5433SOL     OW27934   2.847   3.737   4.153  0.2829  0.3562  0.6191
 5433SOL    HW127935   2.805   3.822   4.165  0.6801  0.6463 -0.1203
 5433SOL    HW227936   2.882   3.736   4.064  1.4776  2.0758  1.0643
 5434SOL     OW27937   0.854   0.689   2.816  0.5280 -0.3683  0.2606
 5434SOL    HW127938   0.942   0.654   2.806  0.7437  0.3979 -0.5322
 5434SOL    HW227939   0.817   0.639   2.889  0.5854  1.5778  1.6371
 5435SOL     OW27940   2.432   1.921  13.722 -0.2972 -0.3778 -0.6594
 5435SOL    HW127941   2.359   1.975  13.753  0.5741 -0.5089  1.6669
 5435SOL    HW227942   2.449   1.866  13.799  1.1816 -0.7664 -1.2764
 5436SOL     OW27943   1.333   3.698  15.343  0.2340 -0.4105 -0.3344
 5436SOL    HW127944   1.307   3.641  15.271 -0.5176 -0.4756 -0.0104
 5436SOL    HW227945   1.245   3.733  15.352  0.2861 -0.4778  0.4432
 5437SOL     OW27946   3.901   2.172   6.702 -0.2161 -0.2740 -0.4457
 5437SOL    HW127947   3.932   2.094   6.748  0.2889 -0.7060 -1.5153
 5437SOL    HW227948   3.936   2.155   6.614 -0.2157  1.5617 -0.7958
 5438SOL     OW27949   2.482   4.526   8.480 -0.2237  0.5750  0.1529
 5438SOL    HW127950   2.399   4.545   8.524 -0.8999  0.9684 -1.3011
 5438SOL    HW227951   2.477   4.431   8.474 -1.3620  0.6957 -0.7881
 5439SOL     OW27952   4.511   3.330  16.541 -0.0563  0.5919  0.5224
 5439SOL    HW127953   4.447   3.260  16.545 -0.6823  1.3128  3.0874
 5439SOL    HW227954   4.513   3.345  16.446 -0.1081 -2.2952  0.0677
 5440SOL     OW27955   0.516   1.929  12.966  0.3484  0.1764  0.3901
 5440SOL    HW127956   0.477   1.992  13.027  0.6754  1.8033 -1.0831
 5440SOL    HW227957   0.576   1.879  13.022 -0.3010 -0.7940  0.2288
 5441SOL     OW27958   2.262   4.275   2.495 -0.4048 -0.5806 -0.0709
 5441SOL    HW127959   2.296   4.269   2.584 -0.3863  3.1714  0.1908
 5441SOL    HW227960   2.272   4.367   2.470  0.7441 -0.1379  1.9686
 5442SOL     OW27961   2.394   3.661   3.355 -0.5207  0.6628 -1.1208
 5442SOL    HW127962   2.307   3.653   3.317 -0.5406  0.5993 -1.0627
 5442SOL    HW227963   2.367   3.693   3.441 -0.8280 -1.4442 -0.4165
 5443SOL     OW27964   2.925   2.934  17.749 -0.3147  0.2204  0.5214
 5443SOL    HW127965   2.957   3.016  17.712 -0.5428 -0.3249 -0.8667
 5443SOL    HW227966   2.829   2.945  17.750 -0.3863 -0.3008 -0.7973
 5444SOL     OW27967   0.558   2.669   1.321  0.0003 -0.2176  0.2074
 5444SOL    HW127968   0.577   2.681   1.414  0.1747 -0.3939  0.1934
 5444SOL    HW227969   0.628   2.709   1.270 -1.2311 -0.0533 -1.3506
 5445SOL     OW27970   3.212   2.683   8.622  0.2251  0.2835 -0.2791
 5445SOL    HW127971   3.238   2.747   8.555 -0.1802 -0.4911 -1.1760
 5445SOL    HW227972   3.255   2.726   8.696  0.1853 -1.5024  0.7736
 5446SOL     OW27973   2.267   2.192   6.922 -0.4648  0.1393 -0.6733
 5446SOL    HW127974   2.259   2.241   7.005  0.6330 -0.3591 -0.2736
 5446SOL    HW227975   2.176   2.206   6.897 -0.2960  0.0999 -1.2922
 5447SOL     OW27976   0.696   1.409   7.798  0.4255  0.3941 -0.3799
 5447SOL    HW127977   0.719   1.500   7.781  1.9688 -0.1301 -1.0873
 5447SOL    HW227978   0.752   1.385   7.871  0.3269 -0.3606 -0.5544
 5448SOL     OW27979   3.299   2.193  16.017 -0.6424 -0.1497 -0.1941
 5448SOL    HW127980   3.283   2.136  16.093  0.1426  0.9280  0.7910
 5448SOL    HW227981   3.299   2.134  15.942  1.6873  0.0888 -0.3613
 5449SOL     OW27982   0.381   2.120   0.210 -0.0840 -0.5861 -0.3926
 5449SOL    HW127983   0.391   2.132   0.304  0.9953 -0.4132 -0.5255
 5449SOL    HW227984   0.458   2.163   0.173  1.4687 -1.6179  1.5996
 5450SOL     OW27985   1.716   2.485   1.794 -0.4098  0.0169 -0.5185
 5450SOL    HW127986   1.690   2.576   1.808  1.9500  0.6441 -0.2188
 5450SOL    HW227987   1.733   2.453   1.882 -1.4919  0.2038 -0.2535
 5451SOL     OW27988   1.327   0.485   3.337 -0.1683  0.8548 -0.3266
 5451SOL    HW127989   1.421   0.500   3.335 -0.2580  1.5520  1.0868
 5451SOL    HW227990   1.309   0.458   3.247  1.6879 -3.3628  0.5411
 5452SOL     OW27991   0.395   4.350  16.421  0.5906 -0.0855 -0.6484
 5452SOL    HW127992   0.380   4.412  16.350  2.4864  0.9854 -0.1033
 5452SOL    HW227993   0.490   4.358  16.422  0.4611  1.1619  0.8280
 5453SOL     OW27994   1.026   1.384  10.847 -0.5932 -0.0375  0.4805
 5453SOL    HW127995   0.930   1.383  10.846 -0.5798 -1.2032  0.3325
 5453SOL    HW227996   1.045   1.402  10.939  2.0977  0.0125 -0.0907
 5454SOL     OW27997   3.572   2.011  16.016  0.2546 -0.6609  1.0587
 5454SOL    HW127998   3.599   1.975  16.100 -1.5719 -0.9089  1.5366
 5454SOL    HW227999   3.644   2.074  16.015 -0.2323 -0.1277 -0.7727
 5455SOL     OW28000   3.045   0.217   5.888  0.2480 -0.5143 -0.0190
 5455SOL    HW128001   3.018   0.246   5.801 -1.5075  1.2179  1.1031
 5455SOL    HW228002   3.061   0.301   5.931  3.0699 -1.1611  0.1569
 5456SOL     OW28003   0.301   2.932   1.465  0.2069 -0.0754 -0.3422
 5456SOL    HW128004   0.208   2.935   1.487  0.5106  0.3148  0.8615
 5456SOL    HW228005   0.284   2.960   1.375  0.2865 -0.6991 -0.5530
 5457SOL     OW28006   4.070   3.010  16.545 -0.2076  0.3547 -0.2573
 5457SOL    HW128007   3.997   3.003  16.606 -0.2857  0.5703 -0.3257
 5457SOL    HW228008   4.142   3.042  16.598  0.2297 -2.5025  0.8635
 5458SOL     OW28009   3.954   3.484   1.696  0.4855 -0.1998 -0.3121
 5458SOL    HW128010   3.933   3.574   1.721  2.4778  0.0380  0.5046
 5458SOL    HW228011   4.044   3.488   1.729  0.1407 -2.8730  0.9985
 5459SOL     OW28012   4.190   4.556   4.735 -0.0881  0.1477  0.4330
 5459SOL    HW128013   4.212   4.600   4.817 -1.1695 -0.1955  0.9067
 5459SOL    HW228014   4.216   4.465   4.752 -2.3325 -0.7350 -0.8327
 5460SOL     OW28015   2.953   2.911   8.189 -0.0035 -0.3209 -0.0184
 5460SOL    HW128016   2.982   2.959   8.112  0.0863  2.5252  1.7623
 5460SOL    HW228017   3.019   2.842   8.190 -0.4361 -0.7296  0.6812
 5461SOL     OW28018   0.564   4.273   8.748 -0.0593  0.6837 -0.3425
 5461SOL    HW128019   0.496   4.340   8.738  0.7096  1.1930 -2.1972
 5461SOL    HW228020   0.568   4.250   8.655 -1.4495  1.6724 -0.6374
 5462SOL     OW28021   2.154   0.353  12.329  0.6020  0.0556  0.3944
 5462SOL    HW128022   2.225   0.412  12.355 -0.0207  0.9987 -0.0409
 5462SOL    HW228023   2.162   0.288  12.399  0.6564 -0.8640 -0.4726
 5463SOL     OW28024   1.362   4.282   3.088  0.5664  0.0980 -0.4401
 5463SOL    HW128025   1.348   4.187   3.082 -0.3183  0.2228 -0.4452
 5463SOL    HW228026   1.397   4.288   3.177 -0.1565  0.9453 -0.2141
 5464SOL     OW28027   1.271   4.027   5.249 -0.2741  0.2472  0.6637
 5464SOL    HW128028   1.306   4.111   5.219 -1.8237 -0.4428 -3.0367
 5464SOL    HW228029   1.335   4.004   5.317 -0.8890  1.9201  1.8163
 5465SOL     OW28030   1.560   1.818   4.860  0.1566  0.1695 -0.0991
 5465SOL    HW128031   1.600   1.833   4.945 -0.5526 -0.4763  0.3502
 5465SOL    HW228032   1.466   1.835   4.865 -0.1926 -2.6314  2.8610
 5466SOL     OW28033   1.402   2.948   5.890 -0.3760 -0.5469  0.8093
 5466SOL    HW128034   1.462   2.963   5.817 -1.8797 -2.7382 -0.8711
 5466SOL    HW228035   1.321   2.930   5.842  0.7686 -0.1318 -1.2664
 5467SOL     OW28036   2.647   1.042   8.468 -0.1316  0.4614 -0.0591
 5467SOL    HW128037   2.630   0.962   8.417 -2.1346  1.7081 -1.3711
 5467SOL    HW228038   2.558   1.076   8.470  0.4128  1.7329  2.0563
 5468SOL     OW28039   2.746   1.885   5.127  0.2813 -0.6285  0.2468
 5468SOL    HW128040   2.733   1.817   5.193 -0.0195  0.0704  0.9069
 5468SOL    HW228041   2.656   1.887   5.095  0.5481 -0.3085 -0.4697
 5469SOL     OW28042   2.926   0.427  12.239 -0.1803  0.0427 -0.2578
 5469SOL    HW128043   3.008   0.474  12.224 -0.6106  0.7356 -0.4063
 5469SOL    HW228044   2.954   0.346  12.195  2.0225  0.2168  0.8266
 5470SOL     OW28045   3.488   0.926   6.192 -0.0462 -0.5525 -0.2594
 5470SOL    HW128046   3.420   0.872   6.151 -1.5472 -0.5782  2.2525
 5470SOL    HW228047   3.513   0.988   6.124  0.6634  1.2576  1.6328
 5471SOL     OW28048   3.171   1.835   6.959  0.7389 -0.5495  0.0428
 5471SOL    HW128049   3.097   1.843   7.018 -0.9894  2.1787 -2.5070
 5471SOL    HW228050   3.248   1.862   7.008  0.2114  0.2166  0.4419
 5472SOL     OW28051   3.269   0.267  12.044  0.5099 -0.1778  0.5110
 5472SOL    HW128052   3.185   0.231  12.072 -0.9045  2.2162 -0.6287
 5472SOL    HW228053   3.291   0.200  11.980  0.3528 -0.9463  1.2692
 5473SOL     OW28054   3.023   3.077   1.664 -0.7446  0.2792 -0.4892
 5473SOL    HW128055   3.073   3.080   1.745  0.1917 -1.1497 -1.0031
 5473SOL    HW228056   3.077   3.126   1.603 -0.6164  0.7497  0.0048
 5474SOL     OW28057   3.288   2.112   4.887  0.0176 -0.6767 -0.0067
 5474SOL    HW128058   3.322   2.032   4.847  2.5195 -0.2668  1.2956
 5474SOL    HW228059   3.345   2.174   4.840  0.1697  0.8670  2.2251
 5475SOL     OW28060   1.136   3.844   5.585  0.3761 -0.1921 -0.2133
 5475SOL    HW128061   1.095   3.919   5.627 -0.6635 -1.7352  1.5644
 5475SOL    HW228062   1.190   3.807   5.655 -0.9171 -1.5152  0.0895
 5476SOL     OW28063   4.067   0.029   8.179  0.0126  0.9903  0.1277
 5476SOL    HW128064   4.085   4.676   8.155  2.1565  1.6075 -0.5597
 5476SOL    HW228065   3.989   0.011   8.232  0.8897 -0.6839  0.8525
 5477SOL     OW28066   3.640   3.239   9.554  0.7092  0.0006  0.3138
 5477SOL    HW128067   3.665   3.301   9.623  0.4801 -0.0713  0.4615
 5477SOL    HW228068   3.668   3.159   9.599  0.0564  1.4160  3.2704
 5478SOL     OW28069   4.162   1.907   1.239  0.2790  0.2480  0.4233
 5478SOL    HW128070   4.124   1.984   1.195  0.0121 -0.3218 -0.3409
 5478SOL    HW228071   4.202   1.947   1.317  0.1865  1.0112  0.0762
 5479SOL     OW28072   3.295   3.562   4.465 -1.1670 -0.5044  0.1101
 5479SOL    HW128073   3.206   3.560   4.500 -0.8453 -0.2240  0.9323
 5479SOL    HW228074   3.309   3.469   4.451 -1.9394 -0.7022  0.6873
 5480SOL     OW28075   4.240   1.823  11.337  0.3089 -0.2779 -0.5966
 5480SOL    HW128076   4.331   1.793  11.335  0.7730  1.1015  0.0986
 5480SOL    HW228077   4.247   1.912  11.371  2.6412 -0.4734 -0.5068
 5481SOL     OW28078   3.756   0.531  16.023  0.1815 -0.3915  0.0830
 5481SOL    HW128079   3.677   0.479  16.031  0.0039 -0.3145 -1.1800
 5481SOL    HW228080   3.724   0.604  15.970  1.0672  0.4681  0.7190
 5482SOL     OW28081   3.940   0.820   6.643  0.4632 -0.3669 -0.3754
 5482SOL    HW128082   3.879   0.889   6.615  0.7400 -0.2712 -0.7465
 5482SOL    HW228083   4.026   0.863   6.646 -0.1315  0.7683  0.6599
 5483SOL     OW28084   2.559   3.889   4.903  0.0755 -0.1941  0.3147
 5483SOL    HW128085   2.633   3.913   4.847 -0.2418  1.3239  0.5533
 5483SOL    HW228086   2.525   3.823   4.842 -1.4031 -1.0857  2.1054
 5484SOL     OW28087   4.263   0.369  12.363  0.3058 -0.3012 -0.0366
 5484SOL    HW128088   4.247   0.285  12.319  0.1463  0.0140 -0.5691
 5484SOL    HW228089   4.280   0.428  12.290  1.0151 -0.5199 -0.0434
 5485SOL     OW28090   1.252   3.225   2.235  0.4150 -0.2689  0.9752
 5485SOL    HW128091   1.262   3.191   2.324  1.2808  1.1681  1.4155
 5485SOL    HW228092   1.158   3.242   2.224  1.2746  3.1461 -1.0178
 5486SOL     OW28093   2.994   2.205  14.508 -0.4598 -0.1591 -0.3142
 5486SOL    HW128094   2.984   2.191  14.602  0.4376  0.1838 -0.1630
 5486SOL    HW228095   3.025   2.122  14.471 -1.5938 -0.2969 -0.9605
 5487SOL     OW28096   1.959   3.130  16.649  0.5787  0.5609 -0.2568
 5487SOL    HW128097   1.956   3.085  16.565  1.5519  1.6332 -0.8658
 5487SOL    HW228098   1.991   3.064  16.711  0.0204  0.6139  0.0908
 5488SOL     OW28099   0.253   1.857  14.766  0.1724  0.1379  0.1641
 5488SOL    HW128100   0.244   1.941  14.811 -1.9916  0.3410 -0.6569
 5488SOL    HW228101   0.272   1.873  14.674  1.3511 -1.2754  0.1525
 5489SOL     OW28102   3.786   2.600   1.400  0.7130 -0.0034  0.1606
 5489SOL    HW128103   3.703   2.620   1.444  0.3741 -3.5564  1.1717
 5489SOL    HW228104   3.798   2.512   1.435  0.7440 -0.3643 -0.7399
 5490SOL     OW28105   1.612   2.350  15.223  0.0545  0.1674  0.8669
 5490SOL    HW128106   1.680   2.287  15.202 -0.4276 -0.1835  0.3669
 5490SOL    HW228107   1.529   2.303  15.213 -0.5220  1.5427 -0.8551
 5491SOL     OW28108   4.175   2.772  14.251  0.5716 -0.0504 -0.1190
 5491SOL    HW128109   4.096   2.824  14.239  0.6103  0.3100  1.1790
 5491SOL    HW228110   4.234   2.791  14.177 -0.8789 -1.9721 -1.7365
 5492SOL     OW28111   1.971   3.356   1.748 -0.2682 -0.5279  0.6867
 5492SOL    HW128112   1.888   3.315   1.722 -0.9482  2.0984 -1.2855
 5492SOL    HW228113   1.971   3.433   1.690 -0.4188  0.9979  2.7262
 5493SOL     OW28114   3.088   2.588   0.522  0.2947  0.0275 -0.0400
 5493SOL    HW128115   3.095   2.535   0.443 -0.8894 -0.5885  0.2791
 5493SOL    HW228116   3.178   2.588   0.557  0.7249  1.6449 -1.1637
 5494SOL     OW28117   2.261   4.704  11.632 -0.1638 -0.2861  0.5831
 5494SOL    HW128118   2.284   4.651  11.707 -1.2703  0.0817  1.1777
 5494SOL    HW228119   2.232   4.641  11.567 -0.8841 -2.0165  2.6096
 5495SOL     OW28120   0.048   2.177   3.956  0.1445 -0.5572  0.2618
 5495SOL    HW128121   0.080   2.102   4.006  1.8671  0.4615  0.7206
 5495SOL    HW228122   4.694   2.157   3.943 -0.0913 -0.4452  1.8701
 5496SOL     OW28123   1.738   0.963   8.840 -0.1197 -0.4884  0.3602
 5496SOL    HW128124   1.676   0.891   8.834  5.5273 -5.4407  2.0118
 5496SOL    HW228125   1.730   0.975   8.935 -1.6315 -0.3942  0.2227
 5497SOL     OW28126   3.467   1.525   5.034  0.2101 -0.1804  0.3090
 5497SOL    HW128127   3.465   1.469   4.956 -1.0254 -0.2538  0.3949
 5497SOL    HW228128   3.389   1.579   5.018  1.5131  0.8800 -2.4895
 5498SOL     OW28129   2.132   2.004   6.384 -0.3587  0.1736 -1.0728
 5498SOL    HW128130   2.145   2.067   6.455  0.2763  0.0491 -1.0788
 5498SOL    HW228131   2.064   2.046   6.331 -1.1149 -0.8881 -0.9398
 5499SOL     OW28132   2.160   4.612  12.510 -0.0954  0.3386  0.2880
 5499SOL    HW128133   2.089   4.648  12.564  0.6081 -0.3448  1.6851
 5499SOL    HW228134   2.172   4.671  12.436 -2.0931 -0.6494 -0.8205
 5500SOL     OW28135   2.415   0.507   9.251  0.0542  0.0206  0.2993
 5500SOL    HW128136   2.476   0.517   9.323 -1.1522 -0.0719  1.3275
 5500SOL    HW228137   2.473   0.523   9.176 -0.3033  1.8674  0.4222
 5501SOL     OW28138   2.546   1.054   5.269 -0.3093  0.2281  0.1296
 5501SOL    HW128139   2.628   1.019   5.233 -0.0082 -0.9525  1.9386
 5501SOL    HW228140   2.581   1.128   5.318 -2.6614  1.2219  0.2925
 5502SOL     OW28141   0.098   2.911  17.017  0.1509  0.6063  0.0511
 5502SOL    HW128142   0.046   2.972  16.965 -1.3794 -1.7328 -1.1430
 5502SOL    HW228143   0.130   2.979  17.076 -0.0515  0.8881 -0.1628
 5503SOL     OW28144   2.256   4.584   9.031  0.0404 -0.6702 -0.4613
 5503SOL    HW128145   2.203   4.588   8.951  0.1822 -3.2044 -0.6765
 5503SOL    HW228146   2.324   4.650   9.012  0.8165 -2.2214 -3.1502
 5504SOL     OW28147   4.549   3.673  15.845 -0.5997 -0.5813  0.3856
 5504SOL    HW128148   4.613   3.693  15.913  1.5727  2.4943 -2.5855
 5504SOL    HW228149   4.535   3.751  15.791 -0.3356 -0.4183  0.5490
 5505SOL     OW28150   1.045   4.275   2.972  0.1154 -0.1087  0.0420
 5505SOL    HW128151   0.985   4.217   2.925 -1.0976 -0.0357  1.4744
 5505SOL    HW228152   1.121   4.218   2.984 -0.2784 -0.7711 -0.6575
 5506SOL     OW28153   2.519   2.067  12.800  0.1294 -0.8577  0.1213
 5506SOL    HW128154   2.462   1.991  12.788 -1.2712  0.4366 -1.5050
 5506SOL    HW228155   2.547   2.062  12.891  0.4480 -1.3952 -0.0071
 5507SOL     OW28156   3.781   0.293  16.275  0.0714  0.1704 -0.8074
 5507SOL    HW128157   3.787   0.205  16.313  1.2902  0.0777 -1.2086
 5507SOL    HW228158   3.720   0.285  16.201 -0.1633  0.7589 -0.6791
 5508SOL     OW28159   3.513   2.344   1.092  0.2566  0.2726  0.3175
 5508SOL    HW128160   3.602   2.312   1.079  0.0883 -0.9922  2.2279
 5508SOL    HW228161   3.475   2.300   1.016 -1.8606 -1.3574  2.2798
 5509SOL     OW28162   2.876   0.977   4.575  0.1416 -0.1431 -0.1882
 5509SOL    HW128163   2.957   0.974   4.523  0.0113 -1.0367 -0.3318
 5509SOL    HW228164   2.834   1.054   4.536 -3.1430 -1.4071  0.8513
 5510SOL     OW28165   1.482   4.629   7.529  0.3386  0.6370  0.2504
 5510SOL    HW128166   1.498   4.592   7.443  0.1039 -1.3916  1.0613
 5510SOL    HW228167   1.451   4.717   7.512  2.2336  1.3941  0.6829
 5511SOL     OW28168   2.251   2.811  11.371  1.0235 -0.1940 -0.1373
 5511SOL    HW128169   2.319   2.780  11.431  0.6921  0.2770  0.4830
 5511SOL    HW228170   2.301   2.837  11.294  0.5385  1.1406  0.0019
 5512SOL     OW28171   3.906   4.373   8.251  0.2028  0.2100  0.4243
 5512SOL    HW128172   3.820   4.406   8.228  0.1758  0.5103  0.9659
 5512SOL    HW228173   3.961   4.440   8.210  0.3827  0.7502  1.5336
 5513SOL     OW28174   2.149   4.547   0.709 -0.8020  0.1165  0.2454
 5513SOL    HW128175   2.088   4.605   0.664 -0.8443 -0.3079 -0.2409
 5513SOL    HW228176   2.133   4.472   0.651  3.0807  1.1617 -2.1858
 5514SOL     OW28177   1.458   1.374   7.355 -0.2725 -0.3637  0.3938
 5514SOL    HW128178   1.441   1.431   7.430  0.3480 -2.1596  1.8917
 5514SOL    HW228179   1.472   1.290   7.399  0.5474  0.5274  1.8310
 5515SOL     OW28180   2.490   4.619  13.591 -0.0882 -0.9584  0.2168
 5515SOL    HW128181   2.461   4.710  13.586  4.4142  0.5157  0.5018
 5515SOL    HW228182   2.564   4.628  13.530 -0.8731  1.0224 -0.4661
 5516SOL     OW28183   3.029   2.133   1.532  0.2240  0.6554 -0.3268
 5516SOL    HW128184   3.046   2.052   1.580  0.2813  1.4175  0.9097
 5516SOL    HW228185   2.933   2.133   1.531  0.2197  1.4196 -0.0303
 5517SOL     OW28186   1.631   3.142  10.491 -0.3227  0.1524  0.2494
 5517SOL    HW128187   1.602   3.052  10.481  0.3760 -0.3339  2.5753
 5517SOL    HW228188   1.605   3.161  10.582  0.5223  2.5950 -0.0037
 5518SOL     OW28189   2.820   2.009   2.862  0.3979 -0.1175 -0.3437
 5518SOL    HW128190   2.855   1.986   2.948 -2.0207 -0.9146  0.4136
 5518SOL    HW228191   2.888   1.969   2.807  1.2127  0.7867 -0.0063
 5519SOL     OW28192   3.549   0.751   3.126  0.3936  0.3414 -0.0239
 5519SOL    HW128193   3.482   0.819   3.132 -0.3473 -0.5122  1.5765
 5519SOL    HW228194   3.498   0.672   3.145  0.4075  0.4550  0.4995
 5520SOL     OW28195   2.643   3.268  17.606 -0.5249 -0.4080  0.0742
 5520SOL    HW128196   2.589   3.343  17.581  0.4755 -0.2862 -1.7975
 5520SOL    HW228197   2.702   3.267  17.530  0.9444  2.4662  1.1767
 5521SOL     OW28198   1.131   4.132   3.968 -0.1836  0.0539 -0.2335
 5521SOL    HW128199   1.170   4.219   3.953  1.0152  0.3900  4.8421
 5521SOL    HW228200   1.176   4.093   4.043  0.4345  2.6475  0.7468
 5522SOL     OW28201   4.284   4.553   2.654  0.5482  0.1052 -0.6068
 5522SOL    HW128202   4.305   4.623   2.592 -1.7046  1.4760  0.1639
 5522SOL    HW228203   4.360   4.558   2.711  0.2637 -0.0765 -0.2150
 5523SOL     OW28204   3.450   3.816  12.763  0.8303 -0.2079 -0.4006
 5523SOL    HW128205   3.456   3.835  12.669 -0.9503  0.9235 -0.2921
 5523SOL    HW228206   3.491   3.890  12.808  1.0453  0.5185 -1.7711
 5524SOL     OW28207   3.699   4.565  15.603  0.3146 -0.1091 -0.0549
 5524SOL    HW128208   3.779   4.538  15.557  1.4409  1.9034  0.7522
 5524SOL    HW228209   3.734   4.569  15.692  3.3474 -2.1747 -1.1449
 5525SOL     OW28210   2.190   2.938   7.230  0.0012 -0.5624 -0.1148
 5525SOL    HW128211   2.195   2.994   7.307  0.3634 -0.8929  0.0978
 5525SOL    HW228212   2.147   2.999   7.170  0.0712 -1.0392 -0.6507
 5526SOL     OW28213   2.121   2.604  15.618  0.1809 -0.1934 -0.6043
 5526SOL    HW128214   2.046   2.662  15.635  1.1641  0.5088  1.3704
 5526SOL    HW228215   2.194   2.658  15.646 -1.3239  1.5053  0.0828
 5527SOL     OW28216   0.526   2.312   1.527 -0.3772 -0.0853 -0.5307
 5527SOL    HW128217   0.596   2.347   1.583 -0.6596  0.2072 -0.3637
 5527SOL    HW228218   0.454   2.365   1.562 -0.1950 -0.8472  1.0236
 5528SOL     OW28219   1.677   2.441  11.444 -0.6520 -0.0371  0.5490
 5528SOL    HW128220   1.737   2.451  11.370  0.4593  2.0405  1.7193
 5528SOL    HW228221   1.602   2.485  11.404  0.2968  0.0729 -1.1028
 5529SOL     OW28222   4.670   4.717  13.235 -0.6077  0.6874 -0.4314
 5529SOL    HW128223   4.737   0.035  13.196  0.2755 -0.6719 -0.8737
 5529SOL    HW228224   4.685   4.645  13.174 -2.4083  0.0547 -0.1319
 5530SOL     OW28225   0.645   1.945   0.638  0.1125 -0.0573 -0.2898
 5530SOL    HW128226   0.688   1.898   0.566 -2.1232 -0.3052 -1.4485
 5530SOL    HW228227   0.678   2.035   0.626  0.9304 -0.3381 -0.1708
 5531SOL     OW28228   3.501   4.334   1.859 -0.3152  0.0940 -0.2472
 5531SOL    HW128229   3.521   4.261   1.918  0.2612 -1.5986 -2.5588
 5531SOL    HW228230   3.425   4.377   1.899 -0.5201 -0.5447  0.0547
 5532SOL     OW28231   2.693   0.543   9.698  0.0114  0.3893  0.6229
 5532SOL    HW128232   2.710   0.556   9.605 -1.3670  1.1540  0.4723
 5532SOL    HW228233   2.636   0.618   9.713  0.8632  1.1433  0.0543
 5533SOL     OW28234   4.538   0.076   7.120 -0.0732  0.2033 -0.2943
 5533SOL    HW128235   4.444   0.092   7.121  0.0734  1.0552 -0.0386
 5533SOL    HW228236   4.546   4.733   7.170 -1.6032  2.1723  3.1079
 5534SOL     OW28237   2.241   1.802   3.042 -0.1406 -0.7369  0.1930
 5534SOL    HW128238   2.281   1.780   2.958  1.3029  1.1904  0.3744
 5534SOL    HW228239   2.284   1.885   3.061  1.2338 -1.2488 -0.7175
 5535SOL     OW28240   2.450   4.709  11.453 -0.0926  0.0755  0.6308
 5535SOL    HW128241   2.497   4.644  11.505  0.6277 -0.0944 -0.2289
 5535SOL    HW228242   2.401   0.011  11.525  0.1427 -0.9778  1.3692
 5536SOL     OW28243   1.496   2.278   6.257  0.1341 -0.3276  0.1355
 5536SOL    HW128244   1.433   2.235   6.315  0.5264 -0.3120  0.5731
 5536SOL    HW228245   1.477   2.229   6.177 -0.9344 -1.2907  0.9676
 5537SOL     OW28246   1.199   4.093   3.468 -0.2368  0.3812 -0.0761
 5537SOL    HW128247   1.277   4.037   3.475 -0.9309 -0.5859 -0.0394
 5537SOL    HW228248   1.223   4.176   3.427 -0.7364  0.5685  0.0095
 5538SOL     OW28249   2.393   0.832  13.380  0.0396 -0.1872 -0.1809
 5538SOL    HW128250   2.391   0.875  13.466  2.1529  2.4407 -1.4240
 5538SOL    HW228251   2.474   0.862  13.340 -1.4622  0.9449 -2.3762
 5539SOL     OW28252   2.053   1.170   5.198 -0.3031  0.4376 -0.3649
 5539SOL    HW128253   2.089   1.105   5.258 -0.3451 -0.1330 -0.9639
 5539SOL    HW228254   1.973   1.135   5.159 -0.3332 -0.4142  0.4768
 5540SOL     OW28255   3.667   3.624   9.141 -0.0402  0.0970 -0.4163
 5540SOL    HW128256   3.648   3.694   9.079  0.5030  0.7988  0.2138
 5540SOL    HW228257   3.606   3.638   9.213  1.6774  0.3831  0.9755
 5541SOL     OW28258   2.223   3.236  12.136  0.6303 -0.5463 -0.4057
 5541SOL    HW128259   2.189   3.243  12.225 -3.0002  1.1090 -1.9102
 5541SOL    HW228260   2.137   3.229  12.093 -1.0271  0.4101  2.8168
 5542SOL     OW28261   0.867   0.958   4.496 -0.0088  0.1540  0.1956
 5542SOL    HW128262   0.850   0.881   4.551 -0.4916 -0.8529 -1.3318
 5542SOL    HW228263   0.782   0.985   4.461 -0.5187 -1.6904 -0.0070
 5543SOL     OW28264   4.394   0.142  11.581 -0.3464 -0.7654  0.1734
 5543SOL    HW128265   4.486   0.140  11.557 -1.1970  0.6973 -3.2534
 5543SOL    HW228266   4.352   0.163  11.498  2.1977 -1.3371 -1.2269
 5544SOL     OW28267   3.354   1.344   2.264 -0.4852 -0.0873  0.3844
 5544SOL    HW128268   3.392   1.291   2.194 -0.2987  0.8624 -0.2321
 5544SOL    HW228269   3.378   1.292   2.341 -0.7382  0.4301  0.8073
 5545SOL     OW28270   2.133   2.413  17.073 -0.5728  0.2125  0.7588
 5545SOL    HW128271   2.054   2.363  17.052  0.3127 -0.7262 -0.3593
 5545SOL    HW228272   2.127   2.467  16.994 -1.9209 -0.9941  0.0442
 5546SOL     OW28273   1.594   0.468   6.691  0.1370  0.4203 -0.1623
 5546SOL    HW128274   1.504   0.493   6.709  0.5188  0.6842  1.3930
 5546SOL    HW228275   1.645   0.478   6.771  0.5217  3.6920 -0.8083
 5547SOL     OW28276   0.996   4.052   5.960 -0.4484  0.0079 -0.3992
 5547SOL    HW128277   1.022   4.016   5.875 -0.9287  0.8423 -0.9023
 5547SOL    HW228278   1.075   4.043   6.013 -2.6028 -1.7328  2.5461
 5548SOL     OW28279   0.104   4.652   2.135 -0.2051 -0.2524  0.7296
 5548SOL    HW128280   0.185   4.629   2.180 -1.0108  0.8802  2.7659
 5548SOL    HW228281   0.039   4.633   2.203 -1.4391  0.5241 -0.2282
 5549SOL     OW28282   0.607   2.036   1.669  0.4507  0.1263  0.4354
 5549SOL    HW128283   0.597   2.109   1.609  1.4993 -1.6095 -1.8357
 5549SOL    HW228284   0.651   1.972   1.614 -1.2400 -0.0810 -0.6899
 5550SOL     OW28285   1.639   4.304  10.476  0.1358  0.2908 -0.2427
 5550SOL    HW128286   1.720   4.308  10.425 -0.4956 -0.0716 -1.2827
 5550SOL    HW228287   1.595   4.226  10.442 -0.3242  0.9831 -1.2222
 5551SOL     OW28288   1.216   3.809  15.894 -0.0075 -0.0137  0.1132
 5551SOL    HW128289   1.229   3.715  15.885 -0.0146  0.1382 -1.5779
 5551SOL    HW228290   1.243   3.812  15.985 -1.4847 -0.3678  0.5575
 5552SOL     OW28291   4.163   3.065   2.412 -0.3456 -0.7314  0.4855
 5552SOL    HW128292   4.134   2.979   2.443  2.1553 -1.4432  0.8658
 5552SOL    HW228293   4.152   3.047   2.319  1.8121  0.8494 -0.0734
 5553SOL     OW28294   2.842   0.457   8.068  0.0102  0.8746 -0.0436
 5553SOL    HW128295   2.830   0.413   8.152 -1.2591 -1.2737 -1.3540
 5553SOL    HW228296   2.897   0.395   8.020  1.7265  1.2453  1.4521
 5554SOL     OW28297   3.120   0.117  17.401 -0.1985 -0.2073  0.0109
 5554SOL    HW128298   3.041   0.137  17.451 -1.2517 -0.6883 -1.4452
 5554SOL    HW228299   3.124   0.199  17.351  1.0070 -0.3536 -0.1313
 5555SOL     OW28300   3.372   3.073   9.257  0.4229  0.3690  0.1877
 5555SOL    HW128301   3.457   3.044   9.224 -0.2324 -1.2809 -0.0327
 5555SOL    HW228302   3.353   3.145   9.197  1.1112  0.6622  0.3255
 5556SOL     OW28303   1.929   3.393   4.616 -0.0360 -0.7853 -0.0270
 5556SOL    HW128304   1.985   3.405   4.539  1.7540 -1.9278  1.0992
 5556SOL    HW228305   1.951   3.475   4.660  0.6769 -0.8771 -0.2138
 5557SOL     OW28306   1.466   1.234   8.234  0.2762 -0.4386  0.3289
 5557SOL    HW128307   1.414   1.177   8.178  0.6843 -1.6339  1.1406
 5557SOL    HW228308   1.478   1.171   8.306  1.8438 -1.4341 -0.8085
 5558SOL     OW28309   0.865   2.428   3.797 -0.5120 -0.1163  0.1332
 5558SOL    HW128310   0.809   2.498   3.763 -0.6273 -0.1048  0.3475
 5558SOL    HW228311   0.814   2.385   3.865  0.9495  0.0053  1.3257
 5559SOL     OW28312   4.602   4.365   8.092 -0.4766 -0.4214 -0.5840
 5559SOL    HW128313   4.627   4.458   8.085 -0.0107 -0.5544 -0.6717
 5559SOL    HW228314   4.512   4.378   8.122 -0.3978  1.2132 -1.0212
 5560SOL     OW28315   0.473   0.015  11.298  0.8202 -0.9483  0.0487
 5560SOL    HW128316   0.417   0.054  11.365  2.3117  0.4128  0.5112
 5560SOL    HW228317   0.475   0.066  11.216 -3.6548 -1.2663 -0.2503
 5561SOL     OW28318   3.828   2.313   4.451 -0.4700 -0.0652  0.4867
 5561SOL    HW128319   3.867   2.359   4.525 -0.3896  0.0841  0.3544
 5561SOL    HW228320   3.913   2.291   4.412 -0.2642  3.0922 -0.8894
 5562SOL     OW28321   1.616   3.925  10.529  0.3833 -0.7062  0.6356
 5562SOL    HW128322   1.633   3.833  10.550  0.4903 -0.9759 -0.6104
 5562SOL    HW228323   1.683   3.966  10.584 -0.7295 -0.8273  2.0778
 5563SOL     OW28324   4.372   4.227   4.108 -0.0861  0.0230  0.0574
 5563SOL    HW128325   4.277   4.233   4.097 -0.2080  1.4836  1.9119
 5563SOL    HW228326   4.370   4.205   4.202 -0.4094  1.4938  0.3884
 5564SOL     OW28327   1.073   2.402   3.619  0.3535 -0.5608  0.3124
 5564SOL    HW128328   1.043   2.430   3.533  0.1289 -0.2532  0.4902
 5564SOL    HW228329   0.995   2.400   3.675  0.0354  1.7354 -0.0785
 5565SOL     OW28330   2.262   2.829   0.532 -0.5248 -0.2484  0.0668
 5565SOL    HW128331   2.261   2.866   0.620  0.7570  1.2777 -0.5501
 5565SOL    HW228332   2.287   2.738   0.544 -1.8931 -0.4298  1.4819
 5566SOL     OW28333   2.406   0.015   9.560 -0.1876 -0.1606 -0.3340
 5566SOL    HW128334   2.354   0.094   9.543 -0.9074 -0.7646 -0.9090
 5566SOL    HW228335   2.372   4.697   9.490 -1.4730  1.6420 -1.1462
 5567SOL     OW28336   3.340   0.623   8.746 -0.4673 -0.3051 -0.1318
 5567SOL    HW128337   3.318   0.559   8.813 -0.3001 -0.1542  0.0645
 5567SOL    HW228338   3.250   0.638   8.717 -1.5002 -2.7362  1.7815
 5568SOL     OW28339   1.148   2.775   0.815 -0.3646 -0.0091  0.4922
 5568SOL    HW128340   1.128   2.685   0.790 -0.5132  0.3018 -0.5052
 5568SOL    HW228341   1.243   2.771   0.816 -0.4124 -0.7432  1.6531
 5569SOL     OW28342   3.525   4.271   9.528  0.3913  0.1102 -0.3893
 5569SOL    HW128343   3.583   4.347   9.527  2.4676 -1.4673 -0.0446
 5569SOL    HW228344   3.437   4.309   9.529 -0.1144 -1.0587 -0.0701
 5570SOL     OW28345   2.521   2.883   2.647  0.1349 -0.0252  0.3399
 5570SOL    HW128346   2.552   2.933   2.722 -0.8238  0.4654  0.4107
 5570SOL    HW228347   2.544   2.792   2.665 -2.7961 -0.4022  2.0408
 5571SOL     OW28348   2.654   0.918   3.622 -0.2094  0.1055 -0.6142
 5571SOL    HW128349   2.637   1.010   3.642 -1.8279 -0.3991  0.3511
 5571SOL    HW228350   2.571   0.889   3.660  0.2529 -0.8505 -0.3384
 5572SOL     OW28351   2.844   1.686  13.496  0.2199 -0.0933  0.0550
 5572SOL    HW128352   2.749   1.685  13.489  0.3379 -0.5035 -1.5367
 5572SOL    HW228353   2.854   1.608  13.550 -0.1611 -0.0416  0.2022
 5573SOL     OW28354   3.317   2.472  17.395  0.5113 -0.6867  0.0802
 5573SOL    HW128355   3.353   2.542  17.449  2.0041 -1.1353 -0.3291
 5573SOL    HW228356   3.233   2.454  17.437  0.4950  0.0376  0.3531
 5574SOL     OW28357   0.054   0.622   4.907 -0.1201  0.2486  0.6917
 5574SOL    HW128358   0.009   0.696   4.948  0.5336  1.5852 -1.0038
 5574SOL    HW228359   0.046   0.650   4.816  1.9206 -0.5327  0.2691
 5575SOL     OW28360   1.087   0.188   2.943  0.2368  0.3891  0.0465
 5575SOL    HW128361   1.039   0.181   2.860  0.8871 -0.4064 -0.2584
 5575SOL    HW228362   1.174   0.162   2.914 -0.1662 -1.3431  0.3836
 5576SOL     OW28363   0.113   4.676   6.268 -0.6172  0.3807 -0.0253
 5576SOL    HW128364   0.041   4.720   6.313 -0.2859 -2.3636  3.2175
 5576SOL    HW228365   0.089   4.584   6.282  2.2856 -0.2770  0.5631
 5577SOL     OW28366   1.175   1.045   7.057 -0.4347 -0.0895 -0.2513
 5577SOL    HW128367   1.206   1.069   6.970 -0.5316 -0.8686 -0.4961
 5577SOL    HW228368   1.188   1.132   7.095 -1.3672 -0.2138  0.3664
 5578SOL     OW28369   1.739   2.471   1.503 -0.2474  0.3424 -0.2051
 5578SOL    HW128370   1.737   2.461   1.599  1.4266  3.8788  0.1919
 5578SOL    HW228371   1.819   2.423   1.481 -0.1859  1.3204 -2.0372
 5579SOL     OW28372   0.646   4.554   7.076  0.4630  0.1529 -0.2752
 5579SOL    HW128373   0.712   4.514   7.019  0.0739 -0.1409 -0.5237
 5579SOL    HW228374   0.570   4.500   7.056  0.0194  0.6267  0.1110
 5580SOL     OW28375   2.330   1.001   6.753 -0.0111  0.3446 -0.7617
 5580SOL    HW128376   2.407   0.951   6.724  2.0263  2.7816  0.3814
 5580SOL    HW228377   2.298   1.013   6.664 -0.7147 -1.0725 -0.7020
 5581SOL     OW28378   2.714   4.582   9.162 -0.1791  0.3126 -0.1646
 5581SOL    HW128379   2.621   4.559   9.163  0.0376 -0.5261  0.1393
 5581SOL    HW228380   2.765   4.502   9.172  1.2813  1.3440  0.6739
 5582SOL     OW28381   0.546   3.662   7.486 -0.3096  1.0816  0.5212
 5582SOL    HW128382   0.639   3.683   7.499  0.3758 -0.7283 -1.4011
 5582SOL    HW228383   0.517   3.724   7.419  1.4167 -0.7112 -1.9033
 5583SOL     OW28384   1.301   4.064  15.122 -0.0060 -0.2864 -0.5579
 5583SOL    HW128385   1.294   3.976  15.086  0.0939 -0.6012  0.1983
 5583SOL    HW228386   1.372   4.053  15.185 -0.3849 -0.5080 -0.1667
 5584SOL     OW28387   2.042   2.123   8.226  0.0701  0.1421  0.1042
 5584SOL    HW128388   2.046   2.157   8.315  0.2580 -1.8051  0.8483
 5584SOL    HW228389   1.953   2.144   8.198  0.5596 -0.7188 -2.1119
 5585SOL     OW28390   1.189   4.614   1.794  0.3204 -0.5189 -0.2800
 5585SOL    HW128391   1.234   4.542   1.750  1.7396  0.0338  0.2609
 5585SOL    HW228392   1.098   4.610   1.763  0.4450  1.6385 -0.9723
 5586SOL     OW28393   1.752   1.636   3.227 -0.6351  0.3384 -0.0881
 5586SOL    HW128394   1.843   1.657   3.203 -0.5030  2.0186  1.8524
 5586SOL    HW228395   1.730   1.599   3.142  2.6157 -1.0058 -0.3552
 5587SOL     OW28396   1.048   3.632   5.413 -0.0409  0.6253 -0.1554
 5587SOL    HW128397   1.019   3.565   5.474 -0.0650  1.3778  0.6477
 5587SOL    HW228398   1.060   3.711   5.465  0.3297 -0.4399  1.3714
 5588SOL     OW28399   4.603   1.192   2.110 -0.3640  0.2086 -0.5578
 5588SOL    HW128400   4.573   1.219   2.023  0.1175  1.5278 -0.3116
 5588SOL    HW228401   4.691   1.230   2.111  0.2501 -1.2407  1.8871
 5589SOL     OW28402   3.794   1.023   6.540  0.2772 -0.0091  0.1269
 5589SOL    HW128403   3.738   1.021   6.463 -1.4737 -1.6028  1.4558
 5589SOL    HW228404   3.858   1.085   6.504  0.8350 -0.6011  0.0859
 5590SOL     OW28405   1.446   1.181   2.373 -0.4350  0.5876 -0.5242
 5590SOL    HW128406   1.385   1.152   2.305 -0.4035  0.6959 -0.5985
 5590SOL    HW228407   1.486   1.261   2.340 -1.5520  0.6647 -1.7172
 5591SOL     OW28408   1.747   1.163   1.916  0.2112 -0.7695 -0.1648
 5591SOL    HW128409   1.706   1.221   1.852 -0.2327 -0.7270  0.1546
 5591SOL    HW228410   1.667   1.149   1.967 -0.5854 -2.2294 -1.8094
 5592SOL     OW28411   1.025   4.291   7.672  0.0620  0.2483 -0.1873
 5592SOL    HW128412   1.045   4.296   7.765  0.1788 -2.8170 -0.0625
 5592SOL    HW228413   1.026   4.385   7.651 -0.4607  0.2861 -0.0392
 5593SOL     OW28414   1.859   4.387  12.927 -0.0479  0.3204  0.4238
 5593SOL    HW128415   1.798   4.313  12.936  1.0074 -0.5357  0.5948
 5593SOL    HW228416   1.816   4.459  12.973 -1.4468 -0.5119  0.4325
 5594SOL     OW28417   4.525   1.439   2.358  0.1257 -0.6402 -0.4715
 5594SOL    HW128418   4.446   1.487   2.382 -0.3356 -1.2243 -0.8584
 5594SOL    HW228419   4.589   1.509   2.343  0.0906 -1.3727 -3.9581
 5595SOL     OW28420   0.818   1.969   0.068 -0.0224  0.1097  0.5600
 5595SOL    HW128421   0.838   1.947  17.728  0.1694  0.2854  0.5602
 5595SOL    HW228422   0.875   2.041   0.093  1.8141 -1.9645  2.4080
 5596SOL     OW28423   4.256   1.664  11.972  0.2065 -0.0992 -0.2225
 5596SOL    HW128424   4.320   1.642  12.040  1.4546  0.0009 -1.3665
 5596SOL    HW228425   4.184   1.666  12.035 -1.2064  0.9406 -1.8865
 5597SOL     OW28426   0.288   2.098   7.514 -0.0055 -0.0638  0.3314
 5597SOL    HW128427   0.239   2.100   7.596 -0.6323 -2.3558  0.0056
 5597SOL    HW228428   0.269   2.024   7.457 -0.8683 -0.9746  1.7828
 5598SOL     OW28429   3.458   0.206   9.732 -0.2902  0.3157  0.1054
 5598SOL    HW128430   3.519   0.191   9.804 -1.4802  0.5084  1.1489
 5598SOL    HW228431   3.370   0.190   9.766  0.5160  0.6023  2.3123
 5599SOL     OW28432   3.940   3.677   2.203  0.5084  0.4486  0.0262
 5599SOL    HW128433   3.852   3.648   2.229  0.8140  2.1345  2.9299
 5599SOL    HW228434   3.992   3.606   2.241 -2.4674 -1.7187  0.0867
 5600SOL     OW28435   4.283   3.564   9.837  0.0954  0.3285  0.3516
 5600SOL    HW128436   4.331   3.622   9.897 -2.5147  0.6282  2.1575
 5600SOL    HW228437   4.246   3.632   9.781  1.7802  2.8966  2.3493
 5601SOL     OW28438   2.105   1.194  11.410 -0.5519 -0.2016 -0.3054
 5601SOL    HW128439   2.057   1.219  11.489  0.3841  3.2563 -0.8342
 5601SOL    HW228440   2.157   1.273  11.397 -2.1212  0.5278 -2.0552
 5602SOL     OW28441   1.976   4.081  17.609  0.1582  0.3461  0.4015
 5602SOL    HW128442   2.002   3.993  17.581  0.6017  1.0600 -1.3787
 5602SOL    HW228443   1.972   4.124  17.524  3.0560  0.8570  0.5359
 5603SOL     OW28444   3.406   1.712  13.428 -0.7766 -0.4270 -0.3397
 5603SOL    HW128445   3.392   1.763  13.507  0.7863  1.4490 -1.2884
 5603SOL    HW228446   3.500   1.694  13.436 -0.9942 -0.3512  2.4816
 5604SOL     OW28447   3.428   4.632   4.363 -0.1717  0.1468  0.3383
 5604SOL    HW128448   3.401   4.542   4.342  2.0362 -0.2576 -0.7941
 5604SOL    HW228449   3.496   4.610   4.426  0.2509 -0.2011 -0.2337
 5605SOL     OW28450   1.567   1.044   6.451 -0.0896  0.2300  0.1793
 5605SOL    HW128451   1.535   1.068   6.364  0.9142  1.2410  0.0904
 5605SOL    HW228452   1.541   1.123   6.499 -1.0207  0.4835 -0.7312
 5606SOL     OW28453   0.563   3.752   5.800 -0.6905  0.4303 -0.2056
 5606SOL    HW128454   0.520   3.728   5.882 -1.2504 -2.1846 -1.2721
 5606SOL    HW228455   0.551   3.847   5.802  0.1458  0.5513 -0.8995
 5607SOL     OW28456   3.876   0.357   5.809  0.2578 -0.4894 -1.1101
 5607SOL    HW128457   3.964   0.325   5.829  0.9080  1.4827 -0.8816
 5607SOL    HW228458   3.885   0.383   5.718 -1.1833 -0.2163 -1.1791
 5608SOL     OW28459   4.025   4.280  10.199 -0.1474 -0.1505  0.4034
 5608SOL    HW128460   4.004   4.196  10.240 -1.0432  0.6840  1.6590
 5608SOL    HW228461   4.009   4.344  10.269 -2.3046 -0.8055  0.4943
 5609SOL     OW28462   3.354   4.678   3.224  0.7629 -0.0045 -0.3847
 5609SOL    HW128463   3.440   4.703   3.257 -0.1510  1.7102  0.7420
 5609SOL    HW228464   3.386   4.610   3.165  0.8820  0.2265 -0.5864
 5610SOL     OW28465   2.943   3.243   5.764 -0.3600 -0.2554  0.3806
 5610SOL    HW128466   2.880   3.309   5.791  0.2015  0.5046 -0.1573
 5610SOL    HW228467   3.003   3.301   5.718 -0.5435 -1.3405 -1.2507
 5611SOL     OW28468   2.648   4.359  14.440  0.4939  0.9386  0.4207
 5611SOL    HW128469   2.585   4.305  14.488  1.6070 -0.6011  0.1666
 5611SOL    HW228470   2.680   4.309  14.364 -1.8949 -0.8273  0.5601
 5612SOL     OW28471   0.976   4.576  14.624  0.7925  0.2026  0.2066
 5612SOL    HW128472   1.002   4.484  14.627 -1.1169 -0.3122  1.1296
 5612SOL    HW228473   0.932   4.578  14.539 -0.6867 -0.2113  0.9484
 5613SOL     OW28474   0.550   3.453   2.589  0.6258 -0.0898 -0.5406
 5613SOL    HW128475   0.518   3.401   2.514  0.1537  0.0012 -0.4011
 5613SOL    HW228476   0.473   3.458   2.646  0.5124  2.7831 -0.9535
 5614SOL     OW28477   2.784   1.841   1.773  0.3678  0.1082  0.6250
 5614SOL    HW128478   2.742   1.908   1.828  2.4930  1.2150  0.8774
 5614SOL    HW228479   2.757   1.758   1.811  1.5866  0.5020  2.3322
 5615SOL     OW28480   0.914   0.078  11.031  0.8345 -0.0403  0.2118
 5615SOL    HW128481   0.973   0.146  11.064  0.1872 -0.2596  1.8111
 5615SOL    HW228482   0.959   4.737  11.061  0.7855 -0.7303 -1.5108
 5616SOL     OW28483   0.584   4.729   5.562  0.2926  0.0693 -0.3890
 5616SOL    HW128484   0.510   0.015   5.616 -0.0927  1.1249 -1.4038
 5616SOL    HW228485   0.658   0.031   5.609  0.2199 -2.0299  1.4822
 5617SOL     OW28486   3.741   1.371   8.846  0.0914 -0.2340 -0.1540
 5617SOL    HW128487   3.680   1.373   8.919  1.7607  0.9857  1.2094
 5617SOL    HW228488   3.781   1.287   8.869  0.6844 -0.8409 -3.3669
 5618SOL     OW28489   3.342   3.405   2.596 -0.6120  0.3504  0.1711
 5618SOL    HW128490   3.412   3.380   2.535 -1.2560 -0.3378 -0.2811
 5618SOL    HW228491   3.267   3.375   2.546 -1.6345  0.7351  1.4666
 5619SOL     OW28492   0.443   2.906  15.000  0.3055 -0.1413 -0.1732
 5619SOL    HW128493   0.362   2.858  15.014  0.2918 -0.5925 -1.8074
 5619SOL    HW228494   0.420   2.993  15.033  2.3771  0.7170 -0.9591
 5620SOL     OW28495   0.355   1.291  13.094 -0.3419  0.1363  0.2142
 5620SOL    HW128496   0.383   1.358  13.157  0.7309  0.6791 -0.8363
 5620SOL    HW228497   0.292   1.250  13.153  1.0750 -0.4446  1.3301
 5621SOL     OW28498   1.818   0.605   8.714 -0.4779  0.5220  0.1530
 5621SOL    HW128499   1.729   0.640   8.721 -0.4168  0.7863 -0.3735
 5621SOL    HW228500   1.801   0.514   8.691 -1.7142  0.5202  1.0473
 5622SOL     OW28501   3.313   2.174   1.502 -0.2098  0.8112  0.6000
 5622SOL    HW128502   3.330   2.222   1.421  0.0467 -1.4240 -0.6874
 5622SOL    HW228503   3.229   2.130   1.486  1.9884 -2.5858 -1.7559
 5623SOL     OW28504   0.200   3.628   6.858  0.1366  0.0756 -0.5554
 5623SOL    HW128505   0.178   3.694   6.792  1.8091  0.1973 -0.9954
 5623SOL    HW228506   0.288   3.600   6.832 -0.5895  0.3973 -3.3822
 5624SOL     OW28507   4.093   4.524   8.092  0.5024  0.6748 -0.2834
 5624SOL    HW128508   4.184   4.505   8.114 -0.0056  1.2950  2.3673
 5624SOL    HW228509   4.088   4.484   8.005 -0.5207  0.0847  0.0393
 5625SOL     OW28510   2.283   0.279   6.649 -0.4296 -0.1835  0.2357
 5625SOL    HW128511   2.342   0.204   6.635 -0.1756  0.0818 -0.1195
 5625SOL    HW228512   2.212   0.249   6.592 -1.0244  2.3091 -0.3473
 5626SOL     OW28513   0.338   2.301  10.523 -0.4302 -0.1203  0.2293
 5626SOL    HW128514   0.249   2.335  10.510 -0.7073 -0.3468  1.4966
 5626SOL    HW228515   0.367   2.372  10.581  0.0945 -1.4294  1.5764
 5627SOL     OW28516   2.508   1.361   7.890  0.4582  0.3038 -0.4978
 5627SOL    HW128517   2.551   1.321   7.965 -1.7436  0.5432  0.8660
 5627SOL    HW228518   2.425   1.314   7.882  0.1341  0.5934  1.1371
 5628SOL     OW28519   0.712   3.986   7.695  0.7439  0.3943  0.2828
 5628SOL    HW128520   0.750   4.074   7.696  1.2263  0.2131 -2.7279
 5628SOL    HW228521   0.622   3.995   7.727 -0.5710 -0.1425 -3.3628
 5629SOL     OW28522   3.302   0.526   8.109  0.3571  0.3596  0.8526
 5629SOL    HW128523   3.384   0.479   8.095  0.3350  0.4840  0.3183
 5629SOL    HW228524   3.326   0.576   8.188 -1.3347  0.9104  1.0168
 5630SOL     OW28525   2.009   3.962   5.962  0.0308 -0.3414  0.3346
 5630SOL    HW128526   1.967   4.046   5.945 -1.8757 -0.7449  2.9388
 5630SOL    HW228527   1.932   3.908   5.981  0.7922 -0.7981  2.1952
 5631SOL     OW28528   0.452   4.653   9.255 -0.8889  0.1370  0.3183
 5631SOL    HW128529   0.546   4.653   9.236 -1.1770 -1.8253 -1.0724
 5631SOL    HW228530   0.453   4.589   9.327  1.2386  1.7081  1.7054
 5632SOL     OW28531   3.701   1.489   8.070  0.5356  0.1063  0.3263
 5632SOL    HW128532   3.769   1.429   8.039 -0.2574 -0.4705 -0.3020
 5632SOL    HW228533   3.719   1.562   8.011  1.0643 -0.2054  0.0966
 5633SOL     OW28534   2.334   2.735   9.106 -0.2950  0.1650 -0.3924
 5633SOL    HW128535   2.287   2.751   9.024 -0.2229  0.6720 -0.3335
 5633SOL    HW228536   2.264   2.745   9.171 -1.9655 -0.9663 -2.0203
 5634SOL     OW28537   4.686   2.869   3.403 -0.4228  0.0853  0.2628
 5634SOL    HW128538   0.001   2.818   3.464  0.8317  2.2886  1.0485
 5634SOL    HW228539   4.597   2.848   3.428 -0.7329 -1.3934 -2.0392
 5635SOL     OW28540   3.823   0.487   8.219  0.2797  0.0381 -0.2588
 5635SOL    HW128541   3.816   0.446   8.133 -1.0553  0.8739 -0.5475
 5635SOL    HW228542   3.820   0.408   8.273 -1.6613 -0.4660 -1.1239
 5636SOL     OW28543   1.240   0.707   8.577 -0.4047  0.1761  0.3761
 5636SOL    HW128544   1.252   0.659   8.495  2.7086 -0.9528  1.4737
 5636SOL    HW228545   1.154   0.684   8.612 -0.1770 -2.1995 -0.5826
 5637SOL     OW28546   2.983   4.666   6.702  0.2128 -0.6608  0.2612
 5637SOL    HW128547   2.942   4.648   6.617  1.7709  0.8708 -0.8091
 5637SOL    HW228548   3.032   0.008   6.687 -0.3387 -0.7945 -2.2148
 5638SOL     OW28549   4.735   1.783   2.376 -0.0729  0.3374  0.5781
 5638SOL    HW128550   4.660   1.754   2.325 -0.0091 -1.4169  1.4697
 5638SOL    HW228551   4.700   1.808   2.461  1.6836 -3.6581  2.4820
 5639SOL     OW28552   2.188   0.230  15.053 -0.3763  0.5471 -0.0154
 5639SOL    HW128553   2.158   0.139  15.058  0.2974  0.1500 -2.7575
 5639SOL    HW228554   2.284   0.224  15.051 -0.3654  0.8372 -0.5146
 5640SOL     OW28555   1.837   2.275   3.563  1.0357  0.0476 -0.2436
 5640SOL    HW128556   1.884   2.340   3.615 -0.5788  0.5239  0.6084
 5640SOL    HW228557   1.770   2.248   3.626  0.4993 -0.0998 -0.8731
 5641SOL     OW28558   0.189   1.946   3.424 -0.5709 -0.3562  0.1518
 5641SOL    HW128559   0.150   1.918   3.341 -0.9576  0.1181  0.1697
 5641SOL    HW228560   0.104   1.948   3.469 -0.3966  0.5705  0.4282
 5642SOL     OW28561   2.495   1.873   2.419 -0.1124  0.1849  0.0719
 5642SOL    HW128562   2.530   1.801   2.473 -0.6234 -0.6878 -0.7651
 5642SOL    HW228563   2.432   1.905   2.484  0.5400  2.8071 -0.5780
 5643SOL     OW28564   1.351   1.185   3.422  0.1993  0.6315 -0.1167
 5643SOL    HW128565   1.439   1.210   3.453  0.1656 -1.1337  1.4038
 5643SOL    HW228566   1.339   1.240   3.344  0.2852  0.5670 -0.1750
 5644SOL     OW28567   2.988   2.924   4.799  0.4369 -0.4665 -0.6533
 5644SOL    HW128568   2.935   2.886   4.729 -0.7699  1.3481 -0.6973
 5644SOL    HW228569   2.927   2.925   4.873  0.9799 -1.4653 -0.1789
 5645SOL     OW28570   3.289   0.896   7.563  0.1376 -0.2004 -0.1889
 5645SOL    HW128571   3.316   0.813   7.603 -0.2251  0.2548  0.9696
 5645SOL    HW228572   3.332   0.886   7.478 -2.1875  0.7248 -1.4709
 5646SOL     OW28573   0.795   1.438  15.741  0.0876 -0.0372  0.3500
 5646SOL    HW128574   0.867   1.380  15.718 -1.7361 -1.6528 -1.3908
 5646SOL    HW228575   0.757   1.389  15.814 -0.4959  0.9405  0.7014
 5647SOL     OW28576   0.068   4.325   7.147  0.3449 -0.1471  0.1955
 5647SOL    HW128577   0.148   4.373   7.168  0.9878 -0.7753 -0.8030
 5647SOL    HW228578   0.052   4.355   7.057 -2.1747  1.8472  1.2909
 5648SOL     OW28579   2.027   1.445   4.103  0.2510  0.3793 -0.2793
 5648SOL    HW128580   2.050   1.371   4.048 -2.4405  0.6173 -1.6890
 5648SOL    HW228581   2.077   1.427   4.183  1.6295  2.0416 -0.7558
 5649SOL     OW28582   1.614   1.836  17.457  0.4901 -0.3612 -1.2154
 5649SOL    HW128583   1.697   1.790  17.459 -0.0412 -1.1395  3.6693
 5649SOL    HW228584   1.622   1.868  17.367  1.6820  1.4916 -0.4620
 5650SOL     OW28585   4.380   0.445  15.371  0.2462 -0.7673 -0.0653
 5650SOL    HW128586   4.394   0.402  15.455 -0.9739 -0.6749  0.1864
 5650SOL    HW228587   4.465   0.485  15.350  0.3528 -2.0513 -2.0072
 5651SOL     OW28588   2.800   0.903   4.070  0.1278 -0.1201  0.1195
 5651SOL    HW128589   2.735   0.936   4.131 -1.6227 -0.3399 -1.6451
 5651SOL    HW228590   2.842   0.845   4.134  0.1524  0.3368  0.5168
 5652SOL     OW28591   3.828   1.448  13.796 -0.3849  0.3934  0.1068
 5652SOL    HW128592   3.781   1.470  13.715  0.0651 -0.4278 -0.3711
 5652SOL    HW228593   3.759   1.474  13.858 -0.1866 -1.2571  0.9955
 5653SOL     OW28594   1.047   3.038  14.407  0.4790 -0.1624  0.4114
 5653SOL    HW128595   1.106   3.112  14.397 -0.9434  1.0339  0.8684
 5653SOL    HW228596   1.045   3.024  14.502  1.0265  1.1016  0.6078
 5654SOL     OW28597   4.159   2.716   6.321  0.3306  0.6711  0.0127
 5654SOL    HW128598   4.162   2.621   6.332  1.5523  0.5171 -1.6576
 5654SOL    HW228599   4.123   2.732   6.234  1.4462 -2.7144 -1.0746
 5655SOL     OW28600   0.773   3.509   7.734 -0.7733 -0.1153  0.2558
 5655SOL    HW128601   0.695   3.489   7.682  0.5404 -3.5268 -0.4248
 5655SOL    HW228602   0.785   3.600   7.709 -1.4117  0.4416  2.0352
 5656SOL     OW28603   2.187   2.735  16.335  0.0081  0.1635 -0.0190
 5656SOL    HW128604   2.159   2.780  16.256  0.6408 -0.9906 -0.8863
 5656SOL    HW228605   2.225   2.807  16.386 -2.7554  1.0252  0.8472
 5657SOL     OW28606   3.224   2.233  15.317 -0.3625  0.3527  0.0765
 5657SOL    HW128607   3.241   2.180  15.396 -2.6422 -2.0330 -1.0074
 5657SOL    HW228608   3.266   2.318  15.331  1.2632 -0.5912  0.9017
 5658SOL     OW28609   1.895   4.666   4.951  0.3948  0.1199 -0.3160
 5658SOL    HW128610   1.989   4.665   4.970  0.0096 -0.0218  1.5751
 5658SOL    HW228611   1.874   4.734   5.015  2.1701  0.5752 -0.2263
 5659SOL     OW28612   1.513   1.789   7.080  0.3579  0.4185  0.3197
 5659SOL    HW128613   1.458   1.730   7.131 -0.3423  0.8739  0.0958
 5659SOL    HW228614   1.481   1.880   7.088  1.0629  0.7982 -1.1783
 5660SOL     OW28615   0.826   4.453   2.276  0.1500 -0.2722  0.0865
 5660SOL    HW128616   0.920   4.441   2.267  0.0016 -1.2440 -0.1593
 5660SOL    HW228617   0.828   4.524   2.339 -0.7931 -1.7862  1.8418
 5661SOL     OW28618   4.486   3.427  16.293  0.0068 -0.5343  0.1644
 5661SOL    HW128619   4.455   3.518  16.290  1.9717  0.1927  2.2888
 5661SOL    HW228620   4.400   3.385  16.300 -1.5416  2.2692 -1.7307
 5662SOL     OW28621   1.156   1.420   0.037 -0.0967 -0.3692 -0.2521
 5662SOL    HW128622   1.076   1.371   0.017 -1.1059  0.3408  2.0434
 5662SOL    HW228623   1.130   1.497   0.087  3.0025 -0.6049  1.7147
 5663SOL     OW28624   2.769   0.761  16.661  0.1217  0.1754  0.3628
 5663SOL    HW128625   2.843   0.812  16.627  0.3382  0.7208  1.6510
 5663SOL    HW228626   2.740   0.732  16.575  2.3257 -0.0025 -0.3174
 5664SOL     OW28627   1.007   2.004   7.135 -0.2953 -0.3578 -0.1163
 5664SOL    HW128628   0.953   2.065   7.186  0.5207 -0.5083  0.9220
 5664SOL    HW228629   1.071   2.065   7.099 -1.9422  1.3872 -0.1233
 5665SOL     OW28630   3.899   2.243   5.726 -0.1067  0.2876  0.4280
 5665SOL    HW128631   3.838   2.315   5.743 -0.3101  0.4135 -0.8241
 5665SOL    HW228632   3.897   2.201   5.813  1.6849 -1.7435 -0.5072
 5666SOL     OW28633   4.527   2.705   3.682  0.2165 -0.1241 -0.5416
 5666SOL    HW128634   4.604   2.758   3.702 -0.2945  0.5202 -0.2727
 5666SOL    HW228635   4.462   2.735   3.746  1.5455  0.8007  0.3879
 5667SOL     OW28636   3.679   1.441   2.187 -0.1303  0.2905  0.7540
 5667SOL    HW128637   3.667   1.347   2.175  2.0967  0.2319 -1.0296
 5667SOL    HW228638   3.771   1.433   2.213 -0.4528  0.7744  2.0493
 5668SOL     OW28639   3.387   0.009  17.290  0.2713 -0.0638 -0.2562
 5668SOL    HW128640   3.381   0.007  17.194 -2.8701  0.7527 -0.0741
 5668SOL    HW228641   3.300   0.043  17.311 -0.3673 -1.7235 -0.1758
 5669SOL     OW28642   2.476   1.874   8.928  0.4497 -0.2969  0.0791
 5669SOL    HW128643   2.390   1.841   8.903  0.1915  1.0846 -0.8609
 5669SOL    HW228644   2.525   1.879   8.846  0.0881 -1.4175 -0.1960
 5670SOL     OW28645   0.507   0.663   1.467 -0.1369  0.4539  0.7427
 5670SOL    HW128646   0.552   0.737   1.425  0.5348 -0.6022 -0.3909
 5670SOL    HW228647   0.565   0.589   1.486 -0.5779 -0.1814 -0.3749
 5671SOL     OW28648   3.276   2.815   8.155 -0.0144 -0.6464  0.3300
 5671SOL    HW128649   3.318   2.820   8.069 -1.0297 -0.4049 -0.1599
 5671SOL    HW228650   3.211   2.748   8.136  0.3333 -1.0707  0.6382
 5672SOL     OW28651   2.477   0.414   6.238 -0.4917 -0.9729  0.1512
 5672SOL    HW128652   2.484   0.327   6.277  2.3720  0.3708  2.6970
 5672SOL    HW228653   2.389   0.442   6.263 -1.0319 -2.2403 -0.3689
 5673SOL     OW28654   3.951   4.204   2.683 -0.2836 -0.5180 -0.0619
 5673SOL    HW128655   4.032   4.157   2.702  0.3987 -0.0118 -1.6831
 5673SOL    HW228656   3.899   4.187   2.761 -1.4726  0.1376 -0.7247
 5674SOL     OW28657   3.478   3.150   8.409 -0.7772 -0.0625 -0.0448
 5674SOL    HW128658   3.411   3.213   8.434 -1.5864 -0.6487 -0.7299
 5674SOL    HW228659   3.541   3.149   8.481 -1.1505  2.1341  0.3315
 5675SOL     OW28660   0.691   1.152  10.753 -0.3400  0.0032  0.2961
 5675SOL    HW128661   0.784   1.145  10.773 -0.1501  0.3230 -0.4704
 5675SOL    HW228662   0.692   1.108  10.668  1.8355 -0.3320  0.4944
 5676SOL     OW28663   0.325   4.732   8.270  0.7414 -0.3288 -0.6775
 5676SOL    HW128664   0.300   0.086   8.275 -1.3663 -1.0351  1.5553
 5676SOL    HW228665   0.418   4.737   8.291  1.0139 -1.6433 -1.5778
 5677SOL     OW28666   2.785   1.572   8.796 -0.1131  0.4819 -0.4104
 5677SOL    HW128667   2.860   1.631   8.803  0.7501 -0.7148  0.3763
 5677SOL    HW228668   2.807   1.516   8.721 -2.3339 -0.6503 -0.2108
 5678SOL     OW28669   1.913   0.757   4.149  0.0678  0.2022 -0.5755
 5678SOL    HW128670   1.952   0.670   4.153 -1.7986 -0.5493  1.1118
 5678SOL    HW228671   1.947   0.807   4.223 -0.7056  1.4597 -1.0658
 5679SOL     OW28672   1.663   0.623   4.063 -0.8149  0.0025 -0.4642
 5679SOL    HW128673   1.742   0.589   4.104 -0.0397 -1.6655 -3.3042
 5679SOL    HW228674   1.701   0.670   3.988  1.2058 -0.0322  0.5301
 5680SOL     OW28675   2.903   0.643   1.613  0.2371 -0.1827 -0.1231
 5680SOL    HW128676   2.999   0.644   1.615  0.2857 -0.9412 -1.8701
 5680SOL    HW228677   2.884   0.575   1.678  0.0078  1.1318  1.2056
 5681SOL     OW28678   4.552   1.934  13.338  0.0515  0.1497  0.0584
 5681SOL    HW128679   4.564   1.910  13.246 -0.7126 -0.1932  0.0488
 5681SOL    HW228680   4.636   1.975  13.359 -0.2971 -0.2652  2.1850
 5682SOL     OW28681   2.330   2.443   4.901 -0.4856  0.1122 -0.2345
 5682SOL    HW128682   2.415   2.408   4.873 -0.1153  1.7515 -1.1619
 5682SOL    HW228683   2.359   2.528   4.935 -0.3379 -0.2200  0.4781
 5683SOL     OW28684   2.414   2.187  16.149 -0.2984 -0.0875  0.0443
 5683SOL    HW128685   2.471   2.254  16.188 -0.2517 -0.5649  0.8048
 5683SOL    HW228686   2.361   2.170  16.227 -3.7774  2.2394 -1.8171
 5684SOL     OW28687   0.702   2.202   0.615 -0.1858 -0.1310  0.8042
 5684SOL    HW128688   0.699   2.233   0.706  1.2407  0.2449  0.7141
 5684SOL    HW228689   0.716   2.285   0.571 -0.6829  0.2686  1.3950
 5685SOL     OW28690   2.776   0.617   5.816 -0.0573 -0.0090 -0.0705
 5685SOL    HW128691   2.795   0.701   5.776  0.2872  0.1089  0.3450
 5685SOL    HW228692   2.857   0.599   5.863  0.1311  0.3625 -0.2528
 5686SOL     OW28693   4.412   3.742   9.988  0.7251 -0.6788 -0.1858
 5686SOL    HW128694   4.403   3.681  10.062 -0.0413  0.5521  0.7356
 5686SOL    HW228695   4.456   3.816  10.030  0.0178  0.8792 -2.2087
 5687SOL     OW28696   4.469   2.790  12.501 -0.2059  0.2531  0.0109
 5687SOL    HW128697   4.397   2.805  12.440 -1.9241 -0.1747  1.9673
 5687SOL    HW228698   4.501   2.703  12.474 -3.1672 -0.5061 -1.0081
 5688SOL     OW28699   0.951   0.036  15.369 -0.1445  0.1783  0.6017
 5688SOL    HW128700   0.876   4.724  15.337  1.1688 -1.2282 -0.3349
 5688SOL    HW228701   0.917   0.124  15.357 -1.7365 -0.4307  0.6243
 5689SOL     OW28702   1.599   1.330   6.015 -0.3793 -0.0052 -0.5408
 5689SOL    HW128703   1.647   1.255   5.982 -1.9824 -1.9975  1.6442
 5689SOL    HW228704   1.514   1.316   5.973 -1.1419 -1.3226  1.4021
 5690SOL     OW28705   0.017   2.537   4.609  0.4727  0.7234  0.1256
 5690SOL    HW128706   0.052   2.549   4.521  0.5377 -2.8368 -0.3349
 5690SOL    HW228707   4.662   2.520   4.591  0.5207  1.7643 -1.0700
 5691SOL     OW28708   3.936   1.568   5.661  0.0621 -0.7062 -0.6827
 5691SOL    HW128709   3.924   1.661   5.639 -0.3113 -0.2208  1.6140
 5691SOL    HW228710   3.917   1.530   5.575 -0.8214 -3.6587  0.7999
 5692SOL     OW28711   0.320   1.673  17.540  0.4754  0.4251  0.6541
 5692SOL    HW128712   0.283   1.645  17.456 -0.4199 -0.0588  1.2183
 5692SOL    HW228713   0.362   1.593  17.571 -0.2688 -0.6470 -1.0837
 5693SOL     OW28714   2.396   2.162  10.664  0.3867 -0.4099 -0.1185
 5693SOL    HW128715   2.447   2.175  10.584  0.6677  1.1023  0.3011
 5693SOL    HW228716   2.393   2.067  10.668 -2.0314 -0.3920 -1.4551
 5694SOL     OW28717   2.529   1.877   9.261  0.4162  0.3674  0.1503
 5694SOL    HW128718   2.598   1.917   9.207  0.4686 -0.3438 -0.3142
 5694SOL    HW228719   2.572   1.797   9.294 -1.6777 -1.0635 -0.5872
 5695SOL     OW28720   4.378   0.368   9.205 -0.6296  0.3216  0.1469
 5695SOL    HW128721   4.312   0.437   9.196 -0.7603  0.3445  1.2426
 5695SOL    HW228722   4.325   0.292   9.228  1.3403 -1.6541 -2.0122
 5696SOL     OW28723   3.047   4.474   6.918 -0.1065 -0.0257  0.0530
 5696SOL    HW128724   3.023   4.518   6.999 -2.9023  0.2388 -0.9237
 5696SOL    HW228725   3.026   4.546   6.859 -1.2756 -1.8958 -1.8191
 5697SOL     OW28726   3.046   1.365  14.652 -0.0094  0.0819 -0.0101
 5697SOL    HW128727   3.007   1.321  14.576  1.6906  0.0117 -0.8409
 5697SOL    HW228728   2.964   1.391  14.693  0.9510  0.1115  1.8792
 5698SOL     OW28729   1.029   4.728   3.808 -0.8394  0.1016  0.0013
 5698SOL    HW128730   1.051   4.680   3.888  2.5765  0.9340 -0.4610
 5698SOL    HW228731   0.975   0.062   3.841 -0.6875  0.6068 -0.8838
 5699SOL     OW28732   0.289   1.103   6.793  0.3071 -0.6523 -0.0662
 5699SOL    HW128733   0.334   1.071   6.715  3.0294  0.5636  0.9988
 5699SOL    HW228734   0.222   1.036   6.802 -0.5439 -0.0635 -2.0842
 5700SOL     OW28735   0.227   1.121   1.871 -0.3497  0.2018 -0.3484
 5700SOL    HW128736   0.161   1.054   1.888 -0.8261  0.8906  0.4964
 5700SOL    HW228737   0.238   1.173   1.950  2.7993 -0.1111 -0.5900
 5701SOL     OW28738   3.350   4.092  14.597 -0.0152 -0.1127 -0.2109
 5701SOL    HW128739   3.277   4.033  14.578  0.1994 -0.4281 -0.0542
 5701SOL    HW228740   3.352   4.109  14.691  0.6321 -2.1777  0.1471
 5702SOL     OW28741   1.678   2.281   7.921  0.0407 -0.0583  0.0859
 5702SOL    HW128742   1.630   2.202   7.947 -1.5324  0.6204 -0.7840
 5702SOL    HW228743   1.640   2.306   7.837  2.4771  0.8097 -0.7660
 5703SOL     OW28744   0.201   2.932   5.546  0.3061  0.3919 -0.4415
 5703SOL    HW128745   0.261   2.904   5.615 -2.1209 -0.8964  1.1701
 5703SOL    HW228746   0.193   3.025   5.562 -0.9904 -0.3416  3.1154
 5704SOL     OW28747   2.856   3.009   5.354  0.0194  0.3923  0.6659
 5704SOL    HW128748   2.823   2.925   5.385 -0.2996  0.5397  0.7217
 5704SOL    HW228749   2.797   3.066   5.403  0.2283  3.0342 -2.1095
 5705SOL     OW28750   1.152   3.428   6.564 -0.2681 -0.2804 -0.1158
 5705SOL    HW128751   1.087   3.497   6.575  0.5984  0.5163  0.0253
 5705SOL    HW228752   1.108   3.349   6.592 -0.4300  0.0227  0.4733
 5706SOL     OW28753   4.648   2.284   4.237 -0.5730  0.1391 -0.6694
 5706SOL    HW128754   4.622   2.314   4.150  1.1209  1.6005 -0.6628
 5706SOL    HW228755   4.649   2.373   4.272 -0.8109 -0.1769  0.1517
 5707SOL     OW28756   2.765   0.658   9.168  0.2971  0.4828  0.1957
 5707SOL    HW128757   2.809   0.737   9.200  0.6664  0.5099 -0.3696
 5707SOL    HW228758   2.748   0.687   9.078  0.2060 -1.7393 -0.5077
 5708SOL     OW28759   3.891   1.753   7.317 -0.4212 -0.2428  0.5131
 5708SOL    HW128760   3.958   1.779   7.380  0.4458 -1.1260 -0.0503
 5708SOL    HW228761   3.947   1.708   7.253 -0.0721  1.4717 -0.3865
 5709SOL     OW28762   4.029   3.183  11.707 -0.1185  0.0338 -0.7624
 5709SOL    HW128763   4.123   3.164  11.706 -0.4718 -1.6193 -2.1091
 5709SOL    HW228764   4.022   3.275  11.734 -0.7881  0.0091 -0.8494
 5710SOL     OW28765   3.522   1.129   6.021 -0.4766  0.2165 -0.4453
 5710SOL    HW128766   3.534   1.221   6.044  1.4196  0.1085 -1.0243
 5710SOL    HW228767   3.520   1.139   5.926 -4.2534  1.0016 -0.3168
 5711SOL     OW28768   1.416   2.856   5.332 -0.0998  0.3240  0.1614
 5711SOL    HW128769   1.492   2.829   5.280  0.3123  1.1372  0.3566
 5711SOL    HW228770   1.422   2.790   5.401 -0.4099 -0.0090 -0.1293
 5712SOL     OW28771   2.466   3.655   4.462 -0.2429 -0.2753  0.4730
 5712SOL    HW128772   2.539   3.609   4.420  0.2966  0.6801  0.3662
 5712SOL    HW228773   2.393   3.607   4.423  0.7166 -2.2306  1.0947
 5713SOL     OW28774   1.304   2.799   0.280 -0.1316  0.8095 -0.4571
 5713SOL    HW128775   1.381   2.850   0.306  0.2525 -0.0800  0.1448
 5713SOL    HW228776   1.310   2.735   0.351  1.4823  1.4478 -0.0170
 5714SOL     OW28777   3.917   0.138   3.527  0.2393 -0.5802 -0.2239
 5714SOL    HW128778   3.997   0.143   3.474  0.3135  0.4931 -0.0063
 5714SOL    HW228779   3.953   0.096   3.605  0.8145 -0.1358 -0.2540
 5715SOL     OW28780   1.114   2.262   3.281 -0.2542  0.5083  0.1068
 5715SOL    HW128781   1.059   2.229   3.210  4.7579 -2.6107 -2.3181
 5715SOL    HW228782   1.104   2.353   3.254  0.6582  1.0356  1.5666
 5716SOL     OW28783   0.419   2.856  12.231 -0.1579  0.5566 -0.2244
 5716SOL    HW128784   0.490   2.873  12.169  0.4111 -0.9668 -0.0025
 5716SOL    HW228785   0.393   2.765  12.215  1.8901 -0.1696  0.6762
 5717SOL     OW28786   1.806   3.777   3.110 -0.3209  0.1911 -0.2801
 5717SOL    HW128787   1.797   3.681   3.110  1.8045  0.0036  1.4492
 5717SOL    HW228788   1.894   3.790   3.143  0.6527  0.2738 -2.8921
 5718SOL     OW28789   3.530   2.548   7.797  0.5939 -0.3236  0.4164
 5718SOL    HW128790   3.578   2.480   7.750  0.3235 -0.7781  0.7999
 5718SOL    HW228791   3.602   2.589   7.844  0.0899  0.0840  0.8277
 5719SOL     OW28792   2.118   3.363   9.704  0.2342  0.1052 -0.0544
 5719SOL    HW128793   2.032   3.324   9.688  0.5501 -0.5418 -0.1952
 5719SOL    HW228794   2.164   3.279   9.692  1.0695  0.4593  0.6624
 5720SOL     OW28795   0.689   2.261   5.283 -0.1841 -0.2491  0.5179
 5720SOL    HW128796   0.646   2.182   5.318  1.3807 -1.4797 -0.3424
 5720SOL    HW228797   0.614   2.310   5.250 -0.8011 -0.5657  1.4548
 5721SOL     OW28798   1.578   4.738   4.505 -0.0411  0.0508 -0.5941
 5721SOL    HW128799   1.579   0.095   4.492 -0.0776 -0.2899 -2.9953
 5721SOL    HW228800   1.641   4.727   4.576 -1.7448 -0.4290  0.8381
 5722SOL     OW28801   0.004   3.396  15.649  0.5103  0.4696  0.3136
 5722SOL    HW128802   0.000   3.387  15.554 -0.3218  0.4755  0.3437
 5722SOL    HW228803   0.036   3.485  15.662 -1.2487  1.1784 -0.2640
 5723SOL     OW28804   2.708   3.453   5.925  0.8360  0.1094 -0.3003
 5723SOL    HW128805   2.633   3.394   5.929  1.2775 -0.4504 -0.2383
 5723SOL    HW228806   2.737   3.448   6.016 -0.1784 -3.5152 -0.1794
 5724SOL     OW28807   2.400   0.385   2.505  0.0104  0.2383  0.1556
 5724SOL    HW128808   2.428   0.294   2.509 -2.7796 -0.6548 -1.1161
 5724SOL    HW228809   2.332   0.384   2.573  1.9692  0.7515  2.1231
 5725SOL     OW28810   2.690   1.183   7.626 -0.2910 -0.5042 -0.2914
 5725SOL    HW128811   2.754   1.196   7.696  0.9482 -1.0247 -1.3364
 5725SOL    HW228812   2.721   1.104   7.581  0.8999 -1.3243  1.9775
 5726SOL     OW28813   1.058   3.266   1.839  0.8976 -0.0159  0.1963
 5726SOL    HW128814   1.072   3.323   1.914  1.2489  0.1608 -0.0029
 5726SOL    HW228815   0.963   3.260   1.844  0.7117  1.5021 -1.1487
 5727SOL     OW28816   3.035   1.372   4.290 -0.3543  0.2138 -0.0540
 5727SOL    HW128817   2.993   1.455   4.268  0.7624  0.9374  0.5102
 5727SOL    HW228818   3.043   1.373   4.386 -1.2877  0.6766  0.0192
 5728SOL     OW28819   4.167   2.412   4.761  0.5834 -0.3221  0.1148
 5728SOL    HW128820   4.179   2.317   4.766 -0.2842 -0.3250  2.1221
 5728SOL    HW228821   4.186   2.438   4.851 -2.0477  1.2129  0.2535
 5729SOL     OW28822   4.356   2.574   7.842  0.3169 -0.4020  0.3539
 5729SOL    HW128823   4.422   2.620   7.894  0.7976 -0.1129 -0.5120
 5729SOL    HW228824   4.327   2.507   7.904  0.1348 -0.3946  0.2768
 5730SOL     OW28825   4.070   4.469   6.803  0.2492  0.4503  0.1397
 5730SOL    HW128826   4.132   4.452   6.733 -1.3444  1.7720 -1.5947
 5730SOL    HW228827   4.119   4.434   6.877 -0.6165 -2.0548 -0.4786
 5731SOL     OW28828   4.696   3.607   7.191  0.1686 -0.7280 -0.0120
 5731SOL    HW128829   4.736   3.565   7.116 -0.0660  0.4965 -0.8195
 5731SOL    HW228830   0.022   3.609   7.262  2.0537  1.9611 -1.8034
 5732SOL     OW28831   2.830   1.380   7.413  0.0481  0.2465 -0.9131
 5732SOL    HW128832   2.913   1.335   7.395  0.8898  1.1461  0.6828
 5732SOL    HW228833   2.847   1.401   7.505 -1.1243  0.0849 -0.6591
 5733SOL     OW28834   4.322   2.363   3.330 -0.7304 -0.7425 -0.4829
 5733SOL    HW128835   4.334   2.383   3.238 -0.0851  2.3963  0.2891
 5733SOL    HW228836   4.240   2.312   3.336 -0.3799 -1.0304  2.1271
 5734SOL     OW28837   3.849   0.709   6.396  0.5982  0.0012 -0.3050
 5734SOL    HW128838   3.935   0.728   6.359  1.0407  0.5143  0.9813
 5734SOL    HW228839   3.871   0.690   6.487 -0.0123  0.5109 -0.0467
 5735SOL     OW28840   4.094   0.817   6.282 -0.1700  0.4062 -0.8333
 5735SOL    HW128841   4.114   0.908   6.263  1.5489 -0.0686 -1.2595
 5735SOL    HW228842   4.179   0.784   6.308  0.0081  1.1463 -0.4900
 5736SOL     OW28843   1.249   3.305  12.613  0.0875 -0.2513 -0.0776
 5736SOL    HW128844   1.297   3.378  12.572 -0.1810  0.1356  0.3031
 5736SOL    HW228845   1.310   3.291  12.685  0.7689 -0.6087 -0.7275
 5737SOL     OW28846   3.801   2.387   6.864  0.1659  0.5549 -0.0354
 5737SOL    HW128847   3.880   2.384   6.918  1.2329  1.6528 -1.5788
 5737SOL    HW228848   3.827   2.322   6.799 -0.3211 -0.1579  0.4758
 5738SOL     OW28849   0.058   4.343  14.927 -0.2219  0.1187 -0.6338
 5738SOL    HW128850   0.115   4.332  15.003 -0.8001 -0.5860 -0.2863
 5738SOL    HW228851   0.084   4.426  14.887 -0.9058  1.7552  2.2898
 5739SOL     OW28852   4.515   1.892   1.720 -0.3707 -0.0156  0.3182
 5739SOL    HW128853   4.427   1.866   1.748 -0.4178  0.3245  0.4807
 5739SOL    HW228854   4.563   1.879   1.802 -1.9215 -0.1035  1.2184
 5740SOL     OW28855   3.377   1.503   8.907 -0.4696 -0.0746  0.0252
 5740SOL    HW128856   3.373   1.579   8.850  2.8738 -0.2655 -0.4911
 5740SOL    HW228857   3.416   1.544   8.984 -0.7806  0.0922  0.0918
 5741SOL     OW28858   2.720   0.869  12.855 -0.4319 -0.4831  0.1005
 5741SOL    HW128859   2.778   0.873  12.931 -0.1405 -0.5727 -0.1155
 5741SOL    HW228860   2.652   0.927  12.889 -0.1744 -0.1712  0.0856
 5742SOL     OW28861   2.180   4.416   7.713  0.2468  0.6501  0.3533
 5742SOL    HW128862   2.157   4.423   7.806  1.6539 -1.0424  0.8251
 5742SOL    HW228863   2.274   4.435   7.711  0.2995  0.0521 -2.1144
 5743SOL     OW28864   1.881   4.469  15.481  0.2472 -0.0412 -0.0362
 5743SOL    HW128865   1.853   4.560  15.470  0.5510  0.2105  1.2493
 5743SOL    HW228866   1.897   4.449  15.389 -0.9761  0.3216 -0.3381
 5744SOL     OW28867   2.279   2.787   4.012 -0.8368  0.2482  0.0252
 5744SOL    HW128868   2.281   2.831   4.097 -1.0555  0.5590 -0.1315
 5744SOL    HW228869   2.193   2.805   3.973 -0.7879 -0.2219 -0.3091
 5745SOL     OW28870   3.952   2.144  17.618  0.6671  0.0107  0.3649
 5745SOL    HW128871   4.022   2.197  17.580 -0.1065 -0.8942 -2.3666
 5745SOL    HW228872   3.933   2.197  17.695 -1.4406  0.8812 -0.7709
 5746SOL     OW28873   1.779   0.359   2.625  0.4597 -0.5354 -0.2594
 5746SOL    HW128874   1.685   0.370   2.616  0.7192  1.1831 -0.8509
 5746SOL    HW228875   1.795   0.378   2.532  1.7831 -1.8368 -0.3096
 5747SOL     OW28876   0.842   3.171   5.083  0.6583 -0.3098 -0.1687
 5747SOL    HW128877   0.847   3.076   5.075 -1.3154 -0.7692  4.1317
 5747SOL    HW228878   0.936   3.189   5.089  0.7580 -0.1133 -2.3223
 5748SOL     OW28879   2.147   1.695   7.967 -0.1026 -0.6559  0.7115
 5748SOL    HW128880   2.231   1.653   7.980  0.4142  0.7009  1.6890
 5748SOL    HW228881   2.168   1.786   7.986 -1.2063  0.2250 -2.3191
 5749SOL     OW28882   2.744   3.485   5.195  0.2074  0.3170  0.5028
 5749SOL    HW128883   2.684   3.416   5.221  0.3600  0.3528  0.9375
 5749SOL    HW228884   2.697   3.568   5.206 -1.9870 -0.8986  0.3102
 5750SOL     OW28885   1.665   4.662   8.217 -0.3617  0.5245 -0.4303
 5750SOL    HW128886   1.674   4.590   8.155 -1.3532  0.3267 -0.3383
 5750SOL    HW228887   1.754   4.655   8.251 -0.8125  0.2581  0.7054
 5751SOL     OW28888   4.079   2.888   1.883  0.2533  0.5388 -0.2990
 5751SOL    HW128889   4.036   2.805   1.904  1.6553  0.6970  3.1260
 5751SOL    HW228890   4.011   2.928   1.829  2.4861  3.3057 -1.0506
 5752SOL     OW28891   2.504   0.942   9.222  0.0490 -0.3243 -0.0217
 5752SOL    HW128892   2.472   1.022   9.180  2.2690 -0.9847 -2.9295
 5752SOL    HW228893   2.494   0.880   9.150  0.4909  0.6249 -0.9045
 5753SOL     OW28894   0.570   3.147  16.315  0.4468  0.5021  0.3008
 5753SOL    HW128895   0.551   3.239  16.332 -0.8726  0.4368 -0.8379
 5753SOL    HW228896   0.636   3.135  16.382 -0.4620 -1.0435  0.9232
 5754SOL     OW28897   4.535   4.610  10.519  0.2601  0.0535 -0.7564
 5754SOL    HW128898   4.463   4.658  10.560 -1.0316 -1.1178 -1.6442
 5754SOL    HW228899   4.503   4.523  10.544  0.9914 -0.1181 -0.4291
 5755SOL     OW28900   1.438   2.706   7.751 -0.1086  0.2329 -0.2160
 5755SOL    HW128901   1.525   2.683   7.716 -1.1880 -1.3774 -1.8505
 5755SOL    HW228902   1.397   2.737   7.670  0.3738 -1.1607 -0.9890
 5756SOL     OW28903   4.209   2.555  10.090 -0.4685 -0.4612  0.0881
 5756SOL    HW128904   4.174   2.479  10.137  1.4718 -1.6471 -0.3626
 5756SOL    HW228905   4.164   2.636  10.115  1.3246 -0.1519  2.3958
 5757SOL     OW28906   1.575   0.640   1.234  0.1912  0.5719 -0.0823
 5757SOL    HW128907   1.609   0.713   1.285  0.2218 -2.1332  3.8067
 5757SOL    HW228908   1.528   0.688   1.167 -2.5636 -2.8520 -0.6118
 5758SOL     OW28909   0.655   2.363  14.109  0.1047  0.1230  0.4244
 5758SOL    HW128910   0.613   2.362  14.195 -2.9682  0.3651 -1.0849
 5758SOL    HW228911   0.681   2.455  14.118 -0.7584  0.4352 -0.4062
 5759SOL     OW28912   3.794   1.331   7.365  0.3912  0.2440 -0.3601
 5759SOL    HW128913   3.773   1.332   7.271  0.4128  0.4524 -0.3627
 5759SOL    HW228914   3.773   1.424   7.378  0.1728  0.0700  0.5370
 5760SOL     OW28915   2.198   2.694   0.939 -0.2271  0.1345  0.6677
 5760SOL    HW128916   2.268   2.681   0.876  0.3917  1.7741  1.0495
 5760SOL    HW228917   2.201   2.626   1.007  3.4257  0.5832  0.9340
 5761SOL     OW28918   3.323   3.763   8.955  0.0754 -0.2774 -0.3177
 5761SOL    HW128919   3.360   3.845   8.987  0.4473  0.7813 -3.4916
 5761SOL    HW228920   3.396   3.707   8.929  1.7025  1.8154 -0.2097
 5762SOL     OW28921   2.897   2.842  13.865  0.4184  0.5740 -0.4370
 5762SOL    HW128922   2.828   2.899  13.830 -0.6042 -3.0774 -4.3908
 5762SOL    HW228923   2.889   2.771  13.801  1.0772  0.2364 -0.1371
 5763SOL     OW28924   2.105   2.415   3.585  0.3136  0.0048  0.4293
 5763SOL    HW128925   2.075   2.333   3.623  0.8856  0.7805  2.5562
 5763SOL    HW228926   2.199   2.395   3.584  0.4319  0.4971  1.2930
 5764SOL     OW28927   1.163   2.408   2.097 -0.8952  0.6756  0.4372
 5764SOL    HW128928   1.255   2.427   2.117 -0.5736  0.3030 -0.6933
 5764SOL    HW228929   1.177   2.320   2.061  0.2872  1.6329 -1.4062
 5765SOL     OW28930   4.451   3.244   6.445 -0.5354 -0.3301  0.2836
 5765SOL    HW128931   4.492   3.212   6.525  1.5587 -1.7431 -1.3399
 5765SOL    HW228932   4.459   3.157   6.405  1.2499 -0.0119 -0.0487
 5766SOL     OW28933   4.119   1.679  12.215 -0.3015 -0.4026  0.4227
 5766SOL    HW128934   4.047   1.741  12.210 -0.7111 -0.8191  1.1282
 5766SOL    HW228935   4.137   1.669  12.308 -2.7412 -1.4813  0.8026
 5767SOL     OW28936   3.557   4.200   3.397  0.2167  0.3990 -0.3855
 5767SOL    HW128937   3.560   4.139   3.471 -1.5595  2.2591  1.2004
 5767SOL    HW228938   3.463   4.211   3.383  0.4184  0.0228 -1.9935
 5768SOL     OW28939   2.236   0.916  12.278  0.2750  0.6171 -0.0995
 5768SOL    HW128940   2.236   0.966  12.360 -0.7064  0.7913 -0.2027
 5768SOL    HW228941   2.173   0.974  12.235  2.1254  2.1609 -0.6834
 5769SOL     OW28942   0.398   2.805   1.774 -0.6232  0.0059  0.3841
 5769SOL    HW128943   0.330   2.872   1.774 -1.1752 -0.5307 -1.1851
 5769SOL    HW228944   0.446   2.814   1.691 -2.6820  1.9405 -0.6009
 5770SOL     OW28945   1.630   1.221   6.822  0.3700 -0.5366 -0.5255
 5770SOL    HW128946   1.634   1.309   6.785  0.6132 -0.7458 -1.0004
 5770SOL    HW228947   1.718   1.201   6.852 -0.1888 -1.4953  0.4907
 5771SOL     OW28948   0.425   0.153   5.718  1.0436  0.6678 -0.1124
 5771SOL    HW128949   0.366   0.149   5.793 -0.7793 -0.4282 -1.6254
 5771SOL    HW228950   0.418   0.249   5.713 -4.7663  0.1633 -1.9722
 5772SOL     OW28951   0.087   3.357   5.925  0.1354 -0.1217  0.2909
 5772SOL    HW128952   0.166   3.393   5.884  0.1340 -0.0741  0.3296
 5772SOL    HW228953   0.019   3.391   5.868  0.2313 -1.7457 -0.7780
 5773SOL     OW28954   1.520   1.577   3.320 -0.1552  0.3795  0.1959
 5773SOL    HW128955   1.481   1.661   3.345 -0.7348  0.1461  0.0881
 5773SOL    HW228956   1.604   1.601   3.281 -0.7769 -0.5219 -1.6628
 5774SOL     OW28957   0.562   3.019  13.051 -0.0500 -0.0195  0.2279
 5774SOL    HW128958   0.606   2.959  12.991  0.1442  0.4163 -0.0647
 5774SOL    HW228959   0.630   3.080  13.078 -2.8621  2.4904  1.6104
 5775SOL     OW28960   2.733   2.911  12.228 -0.1364 -0.8010  0.1491
 5775SOL    HW128961   2.687   2.834  12.196  1.5973 -1.4711 -0.7200
 5775SOL    HW228962   2.700   2.914  12.318  0.0355 -3.8824  0.3204
 5776SOL     OW28963   1.437   1.844   3.386 -0.4682  0.0490  0.5032
 5776SOL    HW128964   1.450   1.878   3.297  1.1822  0.0783  0.7505
 5776SOL    HW228965   1.343   1.855   3.400 -0.7770 -1.7778 -0.2126
 5777SOL     OW28966   0.900   0.674  11.741  0.1192 -0.0233 -0.2935
 5777SOL    HW128967   0.916   0.641  11.830 -3.9775 -1.7082 -0.2099
 5777SOL    HW228968   0.987   0.655  11.706  0.2006  3.6464 -2.0963
 5778SOL     OW28969   0.379   1.360   5.198  0.3086 -0.3335  0.0475
 5778SOL    HW128970   0.308   1.403   5.149  0.5430  1.1221  0.9818
 5778SOL    HW228971   0.416   1.296   5.137  0.0227 -1.2774  0.8523
 5779SOL     OW28972   2.483   0.669  14.312 -0.0574 -0.2729  0.4059
 5779SOL    HW128973   2.430   0.692  14.236  0.7114  0.9249  0.2333
 5779SOL    HW228974   2.424   0.616  14.366  0.6296 -0.2266  1.2072
 5780SOL     OW28975   1.452   3.810   4.458  0.0561 -0.3293 -0.1187
 5780SOL    HW128976   1.394   3.766   4.395 -0.8076  2.0469 -0.9931
 5780SOL    HW228977   1.393   3.861   4.514  0.9945 -0.7687  1.2666
 5781SOL     OW28978   3.102   2.175  12.521 -0.1053  0.4637 -0.0394
 5781SOL    HW128979   3.185   2.219  12.541  0.0302 -0.4668  1.4892
 5781SOL    HW228980   3.045   2.251  12.511 -0.1489  0.4127 -0.1695
 5782SOL     OW28981   1.505   3.710   5.629 -0.3924  0.2638  0.3202
 5782SOL    HW128982   1.522   3.692   5.721  1.2583  2.0196  0.3740
 5782SOL    HW228983   1.580   3.675   5.580  0.7765  2.1110  0.7804
 5783SOL     OW28984   1.175   4.690   7.197 -0.1175 -0.6160  0.2479
 5783SOL    HW128985   1.240   0.021   7.187  0.2538 -1.0345 -0.2576
 5783SOL    HW228986   1.203   4.635   7.270  0.4041 -0.6160  0.0477
 5784SOL     OW28987   1.792   1.940  11.863  0.8829  0.5263  0.1266
 5784SOL    HW128988   1.861   1.879  11.890 -0.3943 -1.4279 -1.0325
 5784SOL    HW228989   1.718   1.909  11.915  2.7638 -1.5555  1.5897
 5785SOL     OW28990   1.732   1.060  16.336 -0.1490 -0.1981  0.2187
 5785SOL    HW128991   1.738   1.142  16.385 -0.0216 -0.4770  0.6713
 5785SOL    HW228992   1.713   1.096  16.250  0.2763 -1.7038 -0.5070
 5786SOL     OW28993   2.312   4.274   3.333 -0.3106  0.0569  0.2872
 5786SOL    HW128994   2.353   4.360   3.323 -1.0257  0.4318  0.5833
 5786SOL    HW228995   2.364   4.231   3.400 -0.3883 -0.0890  0.2543
 5787SOL     OW28996   2.885   0.160  15.281 -0.0214 -0.6326 -0.1840
 5787SOL    HW128997   2.892   0.242  15.329 -0.5162 -1.1481  0.7909
 5787SOL    HW228998   2.790   0.150  15.275 -0.1094  1.4092 -2.1991
 5788SOL     OW28999   0.927   3.641   5.885 -0.1247 -0.9120 -0.5111
 5788SOL    HW129000   0.971   3.695   5.818 -0.5075 -1.0517 -0.8752
 5788SOL    HW229001   0.975   3.559   5.898  1.7303  0.1239 -0.7715
 5789SOL     OW29002   1.672   0.980   4.673  0.2104  0.0468  0.0006
 5789SOL    HW129003   1.582   0.950   4.661  0.4912 -1.0432  0.6025
 5789SOL    HW229004   1.656   1.060   4.624  0.6924 -0.5955 -1.1995
 5790SOL     OW29005   3.573   3.330  12.777 -0.0566 -0.2393 -0.0880
 5790SOL    HW129006   3.625   3.411  12.777 -0.6390  0.1449 -2.3563
 5790SOL    HW229007   3.495   3.354  12.827  1.0617 -1.6615  2.3177
 5791SOL     OW29008   2.003   0.780  13.173 -0.1910 -0.1772 -0.0657
 5791SOL    HW129009   2.093   0.800  13.148  0.2350 -1.1809  0.6633
 5791SOL    HW229010   1.992   0.839  13.248 -1.4858 -2.1958  1.3240
 5792SOL     OW29011   0.670   0.660   3.224 -0.0054  0.1609 -0.0063
 5792SOL    HW129012   0.754   0.643   3.181 -0.1325 -2.0815  0.6221
 5792SOL    HW229013   0.664   0.573   3.264  2.9661 -0.1062 -0.1711
 5793SOL     OW29014   1.798   4.456   6.098 -0.5232  0.2598 -0.3492
 5793SOL    HW129015   1.864   4.521   6.123 -0.9639  1.1395 -1.4634
 5793SOL    HW229016   1.789   4.481   6.006 -0.9043  1.7452  0.0934
 5794SOL     OW29017   2.698   2.763   4.763 -0.1123  0.3264 -0.3195
 5794SOL    HW129018   2.743   2.809   4.835 -2.5170 -0.1428  1.5076
 5794SOL    HW229019   2.704   2.674   4.798  2.1609  0.4001 -0.5537
 5795SOL     OW29020   3.890   4.631   1.979 -0.2960  0.0987  0.1651
 5795SOL    HW129021   3.822   4.685   2.020 -0.6225 -0.8456  0.8490
 5795SOL    HW229022   3.929   4.698   1.922  1.6729 -1.1173  0.0966
 5796SOL     OW29023   2.463   1.298  11.190 -0.1132  0.4804  0.2997
 5796SOL    HW129024   2.469   1.379  11.139 -1.1928  0.3897  0.0279
 5796SOL    HW229025   2.533   1.312  11.254 -0.6066  2.0606  0.4958
 5797SOL     OW29026   2.188   3.268   4.484 -0.1466  0.3176 -0.1992
 5797SOL    HW129027   2.237   3.229   4.556  1.7395  1.9739 -0.6040
 5797SOL    HW229028   2.108   3.217   4.467  0.6081 -0.6102 -0.9935
 5798SOL     OW29029   3.904   2.250   3.865 -0.4932 -0.4134  0.1275
 5798SOL    HW129030   3.810   2.254   3.848 -0.9332  1.5514  3.0483
 5798SOL    HW229031   3.919   2.155   3.874 -0.6479 -0.0830  3.9619
 5799SOL     OW29032   3.322   0.200   7.057  0.5831  0.3727 -0.0011
 5799SOL    HW129033   3.415   0.176   7.063  0.2745 -0.8547 -0.1161
 5799SOL    HW229034   3.301   0.233   7.144 -2.9474  1.3365 -1.2358
 5800SOL     OW29035   2.205   1.175   0.509  0.1967  0.1708 -0.2138
 5800SOL    HW129036   2.170   1.255   0.469 -0.5954 -0.4694 -0.7866
 5800SOL    HW229037   2.151   1.105   0.475 -1.4387  1.3254  0.0211
 5801SOL     OW29038   1.636   3.541   1.627  0.4545 -0.2770  0.5820
 5801SOL    HW129039   1.620   3.625   1.583 -0.0963  0.3906  2.0764
 5801SOL    HW229040   1.727   3.525   1.602  0.8688  2.7721  0.1474
 5802SOL     OW29041   0.185   0.114   4.132 -0.4251 -0.5115 -0.4854
 5802SOL    HW129042   0.160   0.024   4.155 -0.0024 -0.0121  2.0196
 5802SOL    HW229043   0.152   0.155   4.212  0.6413 -0.4529 -0.0809
 5803SOL     OW29044   3.832   4.132  10.881 -0.4127 -0.2220  0.1382
 5803SOL    HW129045   3.831   4.161  10.973  3.0162  1.1637 -0.2969
 5803SOL    HW229046   3.742   4.098  10.876 -0.6783  0.5333 -0.1722
 5804SOL     OW29047   3.202   3.185  17.591 -0.2938  0.7587 -0.1537
 5804SOL    HW129048   3.278   3.181  17.532  0.4393 -0.3593  0.8723
 5804SOL    HW229049   3.214   3.113  17.652 -0.3362  0.7546 -0.1506
 5805SOL     OW29050   3.435   2.202   7.557  0.0710 -0.3074  0.3937
 5805SOL    HW129051   3.414   2.287   7.519  0.3049 -1.1229 -1.5605
 5805SOL    HW229052   3.493   2.219   7.631  0.9443 -2.3766  0.1983
 5806SOL     OW29053   0.932   2.410  13.788  0.3255  0.5464 -0.3398
 5806SOL    HW129054   0.839   2.406  13.813  0.6645 -1.1619  0.6294
 5806SOL    HW229055   0.944   2.501  13.760  0.9852  0.7618  0.6473
 5807SOL     OW29056   0.904   3.212   8.079 -0.5059  0.6509 -0.4997
 5807SOL    HW129057   0.849   3.222   8.157  0.5312 -0.4845  0.3859
 5807SOL    HW229058   0.990   3.232   8.117 -0.8087  2.0751 -0.5717
 5808SOL     OW29059   3.531   2.270   4.781 -0.3676  0.1178 -0.5989
 5808SOL    HW129060   3.563   2.340   4.838 -0.6388 -1.5699  1.6402
 5808SOL    HW229061   3.598   2.203   4.794  0.6431  1.5443  1.4991
 5809SOL     OW29062   1.462   3.243   9.043  0.3451 -0.5420 -0.3111
 5809SOL    HW129063   1.382   3.242   8.992 -0.1398 -2.4681  0.4765
 5809SOL    HW229064   1.454   3.171   9.106  1.3333 -0.1250  0.3027
 5810SOL     OW29065   2.148   3.130   1.752 -0.3522  0.4010  0.6594
 5810SOL    HW129066   2.089   3.090   1.817 -0.4373  0.7013  0.7650
 5810SOL    HW229067   2.095   3.202   1.718 -0.0387 -0.5227 -1.7905
 5811SOL     OW29068   0.521   2.395  14.340  0.1667  0.2005  0.4451
 5811SOL    HW129069   0.557   2.464  14.396 -1.2880  2.2274 -1.1038
 5811SOL    HW229070   0.484   2.326  14.395 -0.3294  0.7027  0.7523
 5812SOL     OW29071   3.095   2.029   4.174  0.1096 -0.3457 -0.5315
 5812SOL    HW129072   3.174   2.082   4.182 -0.3288  0.0334  1.3711
 5812SOL    HW229073   3.026   2.089   4.144  0.1781 -0.0272 -0.0515
 5813SOL     OW29074   3.468   1.525   5.312  0.2226 -0.3702  0.4617
 5813SOL    HW129075   3.374   1.542   5.310 -0.2717 -3.1699  0.0231
 5813SOL    HW229076   3.486   1.505   5.220 -1.0117 -1.2838  0.4264
 5814SOL     OW29077   2.135   4.614   6.412 -0.1100  0.0004 -0.2852
 5814SOL    HW129078   2.149   4.607   6.507  1.3265 -1.9257 -0.6225
 5814SOL    HW229079   2.119   4.521   6.396 -2.6124  0.2576  0.8217
 5815SOL     OW29080   2.613   4.077   7.820 -0.0977 -0.7433  0.4154
 5815SOL    HW129081   2.533   4.106   7.864 -0.2223 -1.9756  0.9800
 5815SOL    HW229082   2.673   4.142   7.858  1.2057 -1.3313 -0.6583
 5816SOL     OW29083   1.759   3.707   3.520 -0.0185  0.3996  0.4234
 5816SOL    HW129084   1.772   3.741   3.609 -0.1979 -1.0730  1.0221
 5816SOL    HW229085   1.826   3.639   3.519  0.4933  0.8950  0.6943
 5817SOL     OW29086   0.827   0.852  11.245 -0.2280 -0.0949 -0.2210
 5817SOL    HW129087   0.800   0.857  11.336 -0.1475  3.1165 -0.3586
 5817SOL    HW229088   0.877   0.934  11.240 -0.3891 -0.0130 -0.4991
 5818SOL     OW29089   1.796   3.376   9.367  0.1993  0.4466  0.2863
 5818SOL    HW129090   1.891   3.360   9.367 -0.2947 -2.6307  2.0337
 5818SOL    HW229091   1.796   3.464   9.330  2.5647 -0.4768 -1.9308
 5819SOL     OW29092   4.171   0.563   9.167  0.1024 -0.3730 -0.1998
 5819SOL    HW129093   4.248   0.612   9.196 -0.6575  0.3556  0.6335
 5819SOL    HW229094   4.113   0.536   9.239 -0.2390  1.1150  0.0987
 5820SOL     OW29095   3.161   3.875   5.801 -0.3662  0.3880 -0.3309
 5820SOL    HW129096   3.147   3.797   5.747 -2.0835 -0.5411  1.4295
 5820SOL    HW229097   3.242   3.845   5.842 -1.1116 -0.6535  0.3936
 5821SOL     OW29098   2.186   1.295   7.568 -0.6464 -0.0582 -0.2049
 5821SOL    HW129099   2.163   1.365   7.629 -0.1451 -0.5216  0.5134
 5821SOL    HW229100   2.281   1.301   7.568 -0.4125 -3.3350  0.1987
 5822SOL     OW29101   2.693   2.237   9.285 -0.0791 -0.1443 -0.1268
 5822SOL    HW129102   2.680   2.163   9.225 -2.0701 -0.0164  0.1704
 5822SOL    HW229103   2.667   2.309   9.227 -1.2117 -0.2375  0.2670
 5823SOL     OW29104   3.149   4.499   6.253 -0.2683 -0.2578  0.0273
 5823SOL    HW129105   3.073   4.485   6.197  1.3429  0.2204 -2.2452
 5823SOL    HW229106   3.115   4.569   6.309  0.9114 -0.8346  1.4716
 5824SOL     OW29107   1.831   2.970  12.931  0.0003  0.5354  0.1977
 5824SOL    HW129108   1.740   2.996  12.943 -0.5996 -1.2419 -0.5685
 5824SOL    HW229109   1.823   2.891  12.878  1.9447  0.8502 -0.5683
 5825SOL     OW29110   4.038   1.674   6.763 -0.2659 -0.0211 -0.1787
 5825SOL    HW129111   4.039   1.678   6.668  1.1890 -1.8863 -0.2178
 5825SOL    HW229112   4.029   1.583   6.791  0.2988  0.3379  1.1570
 5826SOL     OW29113   2.095   1.055   9.468 -0.4542 -0.1238  0.2714
 5826SOL    HW129114   2.097   0.961   9.455  2.0095  0.0679 -0.8415
 5826SOL    HW229115   2.108   1.100   9.384  1.6857 -3.0840 -0.9844
 5827SOL     OW29116   0.701   2.404   6.211 -0.2884 -0.2266 -0.1555
 5827SOL    HW129117   0.783   2.358   6.232  0.7106  2.1983  1.2796
 5827SOL    HW229118   0.688   2.482   6.266 -0.1584 -0.2596 -0.0759
 5828SOL     OW29119   3.858   1.117   3.155 -0.3783  0.2076  0.0855
 5828SOL    HW129120   3.771   1.155   3.139 -0.3418  0.5301  0.6586
 5828SOL    HW229121   3.837   1.061   3.229  0.1908  1.4420  1.1803
 5829SOL     OW29122   0.901   0.400  11.107  0.1593  0.7156  0.6233
 5829SOL    HW129123   0.891   0.398  11.202  2.5708  0.8849  0.9029
 5829SOL    HW229124   0.982   0.350  11.096  0.2745  1.0742 -0.1950
 5830SOL     OW29125   2.282   3.889   1.499 -0.1699  0.3663 -0.4330
 5830SOL    HW129126   2.352   3.917   1.439 -0.5391  0.5091 -0.8013
 5830SOL    HW229127   2.306   3.943   1.574  0.1498  0.4146 -0.5695
 5831SOL     OW29128   4.021   3.532   3.311 -0.4927 -0.2285 -0.5422
 5831SOL    HW129129   4.078   3.576   3.374  1.7575 -3.0633 -0.6095
 5831SOL    HW229130   4.025   3.586   3.232  0.6541  0.2531 -0.1395
 5832SOL     OW29131   3.783   4.358   8.796  0.6264  0.2287  0.3807
 5832SOL    HW129132   3.777   4.311   8.713 -2.0502  0.5125  0.4040
 5832SOL    HW229133   3.734   4.438   8.776  0.4887  0.0652  0.0560
 5833SOL     OW29134   2.118   0.157   0.678 -0.2028 -0.3753  0.4858
 5833SOL    HW129135   2.057   0.231   0.676 -0.2898 -0.5011 -1.3989
 5833SOL    HW229136   2.076   0.097   0.616 -1.2456  0.1837  0.6538
 5834SOL     OW29137   1.023   2.889  11.981 -0.1617  0.0581  0.3180
 5834SOL    HW129138   1.098   2.835  11.959  0.2373  1.6991 -2.3476
 5834SOL    HW229139   0.947   2.831  11.976  0.6535 -0.8810 -1.0871
 5835SOL     OW29140   1.172   0.961   3.886 -0.3331 -0.2636  0.2682
 5835SOL    HW129141   1.138   1.050   3.891  1.8987  0.6233 -0.1061
 5835SOL    HW229142   1.160   0.946   3.793 -0.6603  1.5604  0.0325
 5836SOL     OW29143   1.595   1.902  12.015  0.1135 -0.3507 -0.0646
 5836SOL    HW129144   1.512   1.875  11.975 -0.0223  2.7170 -1.8023
 5836SOL    HW229145   1.571   1.959  12.088 -1.5062 -0.4217 -0.5440
 5837SOL     OW29146   3.557   3.042   3.062 -0.2817  0.5083  0.2114
 5837SOL    HW129147   3.485   3.002   3.014 -0.1920 -0.6635  1.0558
 5837SOL    HW229148   3.625   3.014   3.001 -1.8286 -0.7653 -0.9206
 5838SOL     OW29149   3.964   4.210   6.518 -0.2372  0.1338  0.2143
 5838SOL    HW129150   4.033   4.160   6.562 -0.8902 -0.6754  0.3132
 5838SOL    HW229151   3.924   4.147   6.458  0.2211 -0.0610  0.1091
 5839SOL     OW29152   0.506   3.240  10.005  0.0689 -0.0626 -0.6348
 5839SOL    HW129153   0.559   3.181   9.951 -0.0346  0.9031 -1.7669
 5839SOL    HW229154   0.526   3.324   9.964 -0.3031 -0.4679 -1.6478
 5840SOL     OW29155   0.711   2.073   2.456 -0.7236  0.1366 -0.2852
 5840SOL    HW129156   0.755   2.106   2.377  0.3479  1.4387  0.8539
 5840SOL    HW229157   0.616   2.069   2.441 -0.5491 -0.5311 -1.2035
 5841SOL     OW29158   0.638   3.482   4.185  0.5023  0.5220 -0.1311
 5841SOL    HW129159   0.545   3.467   4.200  0.3877  0.7247 -0.6360
 5841SOL    HW229160   0.666   3.412   4.126  0.1668 -0.5474  0.9723
 5842SOL     OW29161   0.992   0.412   9.876 -0.4663  0.5970 -0.9631
 5842SOL    HW129162   0.956   0.456   9.952  0.3483 -0.9927  0.3404
 5842SOL    HW229163   0.935   0.336   9.868  2.4583 -1.4342 -2.3963
 5843SOL     OW29164   4.411   1.640   7.593 -0.2319  0.5620 -0.0164
 5843SOL    HW129165   4.447   1.638   7.504  2.6293 -1.3344  1.2063
 5843SOL    HW229166   4.475   1.587   7.639  0.3555  0.7536 -0.6034
 5844SOL     OW29167   3.901   0.748   6.087 -0.3285 -0.4617  0.0085
 5844SOL    HW129168   3.828   0.705   6.132  0.3256 -1.2195  0.3516
 5844SOL    HW229169   3.959   0.760   6.162 -0.2475 -1.8120  0.1576
 5845SOL     OW29170   0.357   0.614  17.341 -0.4067 -0.5461 -0.1371
 5845SOL    HW129171   0.274   0.589  17.302  1.2106 -3.6279 -1.6300
 5845SOL    HW229172   0.337   0.645  17.430  2.4252  0.2211  0.2330
 5846SOL     OW29173   3.845   1.299   0.833 -0.2166  0.0323 -0.5323
 5846SOL    HW129174   3.816   1.230   0.894  1.2275 -1.6294 -1.7249
 5846SOL    HW229175   3.765   1.314   0.782 -0.6673  0.3378  0.2655
 5847SOL     OW29176   4.092   3.010   7.670 -0.5343 -0.0004  0.5142
 5847SOL    HW129177   4.055   3.004   7.582  2.1918  0.9291 -0.7074
 5847SOL    HW229178   4.172   2.959   7.657  0.4488  1.4589  0.7394
 5848SOL     OW29179   3.039   0.573   0.144  0.4449 -0.1757  0.0684
 5848SOL    HW129180   3.130   0.543   0.143  1.1718  2.0179  2.0941
 5848SOL    HW229181   3.007   0.541   0.228 -0.3646  0.7667  0.1262
 5849SOL     OW29182   2.635   3.490   3.142  0.0551  0.5013 -0.3000
 5849SOL    HW129183   2.557   3.438   3.126 -0.9799  1.7501  0.7494
 5849SOL    HW229184   2.620   3.512   3.234  3.1057 -1.3165  0.6288
 5850SOL     OW29185   2.078   3.506  12.842 -0.0258  0.4221 -0.1156
 5850SOL    HW129186   1.996   3.495  12.794 -1.2068 -2.5425  2.5899
 5850SOL    HW229187   2.045   3.564  12.911  0.2335 -0.9839  1.1998
 5851SOL     OW29188   2.852   1.266   9.077 -0.5740 -0.0313 -0.0024
 5851SOL    HW129189   2.860   1.286   9.171 -2.6003  1.3853 -0.1238
 5851SOL    HW229190   2.930   1.212   9.063 -0.3944 -0.4440  2.5345
 5852SOL     OW29191   1.170   0.226   4.568 -0.5098 -0.4865 -0.2033
 5852SOL    HW129192   1.116   0.186   4.636  1.2676 -1.7383  0.4744
 5852SOL    HW229193   1.179   0.308   4.617 -1.1348 -1.3190  1.3367
 5853SOL     OW29194   2.671   0.888  14.223  0.0881 -0.2368 -0.0645
 5853SOL    HW129195   2.613   0.939  14.167 -1.0627  0.3402  1.6724
 5853SOL    HW229196   2.611   0.856  14.291  1.1316  0.3401  1.1147
 5854SOL     OW29197   4.600   1.689   5.394 -0.1427 -0.3830  0.6044
 5854SOL    HW129198   4.540   1.731   5.456 -0.6086 -0.8484  0.4594
 5854SOL    HW229199   4.603   1.760   5.329 -0.8630 -0.7617  0.1610
 5855SOL     OW29200   4.109   2.461   6.422  0.8526 -0.0469  0.4885
 5855SOL    HW129201   4.038   2.519   6.451 -0.7467 -1.1807 -1.0904
 5855SOL    HW229202   4.126   2.414   6.504 -0.6126 -0.6420  0.4715
 5856SOL     OW29203   3.116   1.533  15.310  0.1583  0.0167  0.1294
 5856SOL    HW129204   3.079   1.448  15.333  2.9196 -0.8049  1.6173
 5856SOL    HW229205   3.205   1.511  15.281 -0.1516  0.5367 -1.2096
 5857SOL     OW29206   2.182   1.271  11.106  0.1881 -0.0102  0.0562
 5857SOL    HW129207   2.269   1.292  11.140  0.3556 -1.7056  0.6741
 5857SOL    HW229208   2.136   1.231  11.179 -0.7267  1.9502  0.5686
 5858SOL     OW29209   1.542   3.345   8.200 -0.6373  0.2376  0.2938
 5858SOL    HW129210   1.636   3.360   8.187 -0.2738 -1.8693  0.5073
 5858SOL    HW229211   1.533   3.257   8.236  0.0382 -0.0288 -0.1759
 5859SOL     OW29212   1.904   2.441   7.584 -0.3445 -0.4142  0.1971
 5859SOL    HW129213   1.959   2.468   7.658 -1.0842  1.2738  0.1439
 5859SOL    HW229214   1.867   2.526   7.557 -0.1286 -0.7917 -1.2620
 5860SOL     OW29215   1.841   4.366   2.183 -0.3975 -0.6643  0.2698
 5860SOL    HW129216   1.810   4.425   2.114 -0.8519  1.3811  2.2119
 5860SOL    HW229217   1.782   4.292   2.172  0.7200 -1.1395 -2.7547
 5861SOL     OW29218   2.076   3.485   3.543  0.2972 -0.0682  0.0484
 5861SOL    HW129219   2.001   3.428   3.530  0.5936 -0.6337  0.8158
 5861SOL    HW229220   2.100   3.478   3.636  0.6230 -1.1478 -0.1246
 5862SOL     OW29221   3.125   4.469   7.774 -0.2323  0.3396 -0.2696
 5862SOL    HW129222   3.180   4.427   7.708  0.6367 -0.6497  1.0992
 5862SOL    HW229223   3.036   4.449   7.745 -0.4193 -1.9108  1.8885
 5863SOL     OW29224   0.847   1.442   2.210  0.1120 -0.3471 -0.2072
 5863SOL    HW129225   0.800   1.365   2.243 -2.0361  0.0553 -2.3536
 5863SOL    HW229226   0.895   1.413   2.133 -1.4396 -0.3485 -1.1714
 5864SOL     OW29227   0.599   3.078   2.334  0.2033 -0.0060  0.1423
 5864SOL    HW129228   0.527   3.071   2.397 -0.4069  0.6037 -0.4835
 5864SOL    HW229229   0.617   2.984   2.328  2.7209  0.5252 -0.7382
 5865SOL     OW29230   2.427   0.746  17.072 -0.0030 -0.3685  0.0663
 5865SOL    HW129231   2.360   0.677  17.066  2.4763 -2.4615 -3.7682
 5865SOL    HW229232   2.479   0.742  16.991 -0.5229  0.2417 -0.2910
 5866SOL     OW29233   3.791   0.550   3.180  0.3492 -0.4060 -0.3575
 5866SOL    HW129234   3.882   0.579   3.174  0.9343 -2.5251 -2.1613
 5866SOL    HW229235   3.777   0.511   3.093 -0.0287 -0.4413 -0.2835
 5867SOL     OW29236   2.152   1.259   0.852 -0.3103 -0.2380 -0.2611
 5867SOL    HW129237   2.235   1.307   0.858 -0.7097  0.6998 -2.1843
 5867SOL    HW229238   2.105   1.315   0.790 -1.5262 -0.5023  0.4364
 5868SOL     OW29239   4.187   0.130   4.163  0.2859 -0.3207 -0.1211
 5868SOL    HW129240   4.093   0.149   4.163  0.7994  2.2594 -4.1632
 5868SOL    HW229241   4.186   0.042   4.125  2.9009 -0.9281  1.2436
 5869SOL     OW29242   1.364   4.609   2.118  0.2622  0.1831  0.2775
 5869SOL    HW129243   1.389   4.518   2.131 -0.2865  0.0221  0.1989
 5869SOL    HW229244   1.314   4.610   2.036 -0.7974 -0.8203  0.9208
 5870SOL     OW29245   1.083   3.446   8.008  0.4426 -0.3275  0.1776
 5870SOL    HW129246   1.143   3.462   7.935  0.5954  0.1869  0.4133
 5870SOL    HW229247   1.048   3.532   8.029 -0.7550 -0.4740 -1.2607
 5871SOL     OW29248   1.786   0.283   1.381  0.3273  0.2047  0.3107
 5871SOL    HW129249   1.805   0.215   1.446 -1.5792 -0.9570 -0.3625
 5871SOL    HW229250   1.833   0.240   1.309  0.0187 -2.6400  1.8009
 5872SOL     OW29251   4.408   4.038   5.819  0.0518  0.2541 -0.3792
 5872SOL    HW129252   4.414   4.079   5.905  0.8544  1.1252 -0.8540
 5872SOL    HW229253   4.493   4.002   5.794  0.7394 -0.7091  3.4073
 5873SOL     OW29254   1.878   4.212   5.533 -0.0838  0.1078  0.2849
 5873SOL    HW129255   1.882   4.137   5.473 -0.9789  0.5171 -0.2743
 5873SOL    HW229256   1.970   4.239   5.540  0.2125  0.1393 -3.5744
 5874SOL     OW29257   4.686   0.145   4.988  0.8556 -0.5483 -0.1897
 5874SOL    HW129258   4.628   0.214   4.955 -0.8915 -0.7291  2.4605
 5874SOL    HW229259   0.034   0.185   4.976 -0.1534  0.8916 -2.6033
 5875SOL     OW29260   0.783   1.930   1.461 -0.0454  0.2882  0.4173
 5875SOL    HW129261   0.777   2.018   1.422 -0.5179 -0.8504 -2.0782
 5875SOL    HW229262   0.833   1.904   1.384 -2.4015  0.2194 -1.0946
 5876SOL     OW29263   4.519   3.090  17.454  0.4154  0.4152 -0.2970
 5876SOL    HW129264   4.461   3.029  17.409 -1.7619  2.8733 -0.7956
 5876SOL    HW229265   4.569   3.123  17.379 -1.3199 -0.3649 -1.8074
 5877SOL     OW29266   1.899   4.299   4.109 -0.4971  0.3302  0.4425
 5877SOL    HW129267   1.987   4.262   4.120 -0.9513 -0.8369  0.1305
 5877SOL    HW229268   1.915   4.387   4.143 -2.2762 -0.1583  2.5427
 5878SOL     OW29269   4.599   0.448   3.651  0.3077 -0.1554  0.2583
 5878SOL    HW129270   4.626   0.455   3.559 -0.2722 -0.3263  0.0766
 5878SOL    HW229271   4.523   0.391   3.645  1.2243 -1.2042 -1.2831
 5879SOL     OW29272   0.177   4.230   9.675  0.4189  0.6182 -0.5275
 5879SOL    HW129273   0.087   4.198   9.665  0.2224  0.7229  0.9545
 5879SOL    HW229274   0.223   4.192   9.600 -0.7787 -0.6939 -0.6097
 5880SOL     OW29275   0.883   2.614  16.578  0.4279 -0.0080 -0.6053
 5880SOL    HW129276   0.842   2.627  16.663 -0.7521  0.8852 -1.3001
 5880SOL    HW229277   0.973   2.639  16.597  0.1622 -0.6673  1.5456
 5881SOL     OW29278   2.115   2.227   1.758 -0.2916  0.7494 -0.7455
 5881SOL    HW129279   2.101   2.266   1.844 -0.4177 -1.1326  0.1056
 5881SOL    HW229280   2.197   2.270   1.732 -0.9226  1.5274 -1.4442
 5882SOL     OW29281   2.726   0.178   6.181 -0.3266 -0.0144 -0.3384
 5882SOL    HW129282   2.672   0.159   6.257 -0.5857  0.4131 -0.4146
 5882SOL    HW229283   2.661   0.207   6.117  1.0527  1.1472 -1.2084
 5883SOL     OW29284   2.367   0.045   3.290 -0.0563  0.1999 -0.0417
 5883SOL    HW129285   2.359   4.690   3.267  1.0997  0.5433 -1.7972
 5883SOL    HW229286   2.289   0.058   3.344  0.0441  0.5280  0.0190
 5884SOL     OW29287   1.437   1.033   3.726 -0.2396  0.0869  0.3826
 5884SOL    HW129288   1.356   1.060   3.768 -0.7557 -1.2925  0.2697
 5884SOL    HW229289   1.429   0.937   3.725 -3.7331  0.4080 -0.2433
 5885SOL     OW29290   0.283   3.289   1.551 -0.6216  0.4535  0.6099
 5885SOL    HW129291   0.311   3.330   1.469  0.6006  0.8838  1.2398
 5885SOL    HW229292   0.229   3.359   1.588  0.6735  1.3835  0.7703
 5886SOL     OW29293   2.168   2.077   1.363  0.1539 -0.1289  0.1302
 5886SOL    HW129294   2.085   2.110   1.398  0.5701  1.5069 -0.4768
 5886SOL    HW229295   2.151   2.002   1.306  0.8567 -0.7784  0.7651
 5887SOL     OW29296   1.463   3.741   8.488  0.2498 -0.6356 -0.2465
 5887SOL    HW129297   1.545   3.787   8.468  0.9426  0.0787  4.2875
 5887SOL    HW229298   1.490   3.651   8.467  4.0210  0.6393 -0.8252
 5888SOL     OW29299   4.096   4.424   2.339  0.0655  0.2703 -0.5700
 5888SOL    HW129300   4.190   4.435   2.348 -0.0629  0.7394  0.2200
 5888SOL    HW229301   4.094   4.329   2.326  0.1018  0.3324 -1.0344
 5889SOL     OW29302   1.946   2.337  12.203  0.4616 -0.0463  0.0137
 5889SOL    HW129303   1.910   2.274  12.266  1.9777 -0.2702  0.6631
 5889SOL    HW229304   1.889   2.312  12.131  0.8722 -0.8434 -0.0339
 5890SOL     OW29305   4.124   3.749   2.039 -0.0456 -0.1512 -0.2915
 5890SOL    HW129306   4.049   3.724   2.094  0.0422  0.4257  0.0878
 5890SOL    HW229307   4.190   3.684   2.062  0.2744  0.5134  0.6377
 5891SOL     OW29308   1.042   2.244   6.556  0.1255 -0.0562  0.8386
 5891SOL    HW129309   0.949   2.249   6.537  0.3059 -1.4176 -0.4232
 5891SOL    HW229310   1.042   2.176   6.623 -0.7657  0.1600  1.0553
 5892SOL     OW29311   1.784   0.817  17.367  0.5102 -0.1087  0.2470
 5892SOL    HW129312   1.775   0.789  17.459  1.3643  0.5076  0.5157
 5892SOL    HW229313   1.756   0.909  17.369  1.0085  0.0304  1.1643
 5893SOL     OW29314   2.638   3.703   2.505 -0.7161 -0.7712 -0.0840
 5893SOL    HW129315   2.574   3.774   2.499  0.3099  0.1248 -0.4980
 5893SOL    HW229316   2.723   3.742   2.525 -0.3239  0.0193 -3.2485
 5894SOL     OW29317   3.661   2.278  15.522 -0.0213  0.4331 -0.5704
 5894SOL    HW129318   3.664   2.247  15.432  2.7458 -1.9270  0.3429
 5894SOL    HW229319   3.753   2.299  15.536 -0.0380  0.2273 -0.1276
 5895SOL     OW29320   0.812   2.572   2.448 -0.5376 -0.1876  0.0994
 5895SOL    HW129321   0.874   2.520   2.396 -1.7568  0.3352 -1.8904
 5895SOL    HW229322   0.762   2.499   2.484  0.0227 -0.3468  0.5657
 5896SOL     OW29323   1.833   4.562  16.241 -0.1540  0.8004  0.1902
 5896SOL    HW129324   1.746   4.600  16.233 -0.1694  0.6199 -0.4649
 5896SOL    HW229325   1.882   4.628  16.291  2.8002 -0.3113 -1.2231
 5897SOL     OW29326   1.203   4.369   3.663  0.8369 -0.3525 -0.4709
 5897SOL    HW129327   1.294   4.341   3.650  1.3366  0.6265  0.9398
 5897SOL    HW229328   1.192   4.369   3.758 -0.5533 -1.4833 -0.6340
 5898SOL     OW29329   2.493   1.124   3.141 -0.2489  0.0851 -0.6173
 5898SOL    HW129330   2.509   1.030   3.151  1.2218  0.5077  1.0984
 5898SOL    HW229331   2.566   1.159   3.192  0.7204 -0.7598 -1.4337
 5899SOL     OW29332   3.847   2.712   2.601  0.2370  0.0721  0.2084
 5899SOL    HW129333   3.908   2.761   2.546 -1.5636 -2.0411 -3.7384
 5899SOL    HW229334   3.831   2.637   2.544  0.8821  0.5108 -0.5503
 5900SOL     OW29335   0.433   3.131   6.540 -0.4433  0.3278  0.1284
 5900SOL    HW129336   0.478   3.150   6.458  0.1712 -1.2822  0.0912
 5900SOL    HW229337   0.484   3.183   6.603  0.4281 -1.6393  1.0616
 5901SOL     OW29338   4.249   1.284   6.697  0.3955  0.3149 -0.5826
 5901SOL    HW129339   4.226   1.325   6.613 -1.7696 -0.2475 -0.2623
 5901SOL    HW229340   4.254   1.192   6.670 -0.3647 -0.2600  1.2171
 5902SOL     OW29341   3.149   1.455   3.180 -0.1140 -0.0291  0.3880
 5902SOL    HW129342   3.184   1.519   3.243  1.7704 -0.3805 -0.2979
 5902SOL    HW229343   3.062   1.494   3.176 -0.8346 -1.5791  1.3957
 5903SOL     OW29344   2.005   4.067   4.890 -0.2040 -0.1769  0.2901
 5903SOL    HW129345   1.914   4.067   4.918 -0.4897  2.3219 -0.5817
 5903SOL    HW229346   2.009   4.161   4.869 -2.2307 -0.1690 -0.1017
 5904SOL     OW29347   3.462   1.427   4.783  0.3312 -0.2985 -0.9540
 5904SOL    HW129348   3.532   1.477   4.742 -0.4419  2.3748  1.0234
 5904SOL    HW229349   3.432   1.368   4.714  0.9369  0.5203 -1.9174
 5905SOL     OW29350   0.689   2.803   2.320 -0.1301  1.0615 -0.6134
 5905SOL    HW129351   0.763   2.755   2.358 -1.1497 -0.4727 -0.5574
 5905SOL    HW229352   0.679   2.753   2.239  0.9466 -1.5722  0.8687
 5906SOL     OW29353   0.182   0.735   8.091 -0.7935 -0.2951  0.1345
 5906SOL    HW129354   0.216   0.649   8.070  1.9395  0.9029 -0.3569
 5906SOL    HW229355   0.151   0.758   8.004 -0.4775  1.9253  0.5878
 5907SOL     OW29356   3.477   0.801  12.135  0.5666  0.3307 -0.1462
 5907SOL    HW129357   3.460   0.833  12.224  0.4679  0.8729 -0.3580
 5907SOL    HW229358   3.508   0.714  12.160 -0.6392 -0.9724 -3.1394
 5908SOL     OW29359   3.928   2.812  14.517  0.0388 -0.0967  0.0597
 5908SOL    HW129360   3.974   2.875  14.572  0.9502  0.5923 -1.5023
 5908SOL    HW229361   3.921   2.874  14.445 -3.1620 -0.2221  0.2342
 5909SOL     OW29362   4.416   0.589   3.420  0.3368 -0.5526  0.2729
 5909SOL    HW129363   4.428   0.680   3.449  1.8478 -0.3223 -1.0956
 5909SOL    HW229364   4.503   0.558   3.396  1.1811  3.5621 -2.0964
 5910SOL     OW29365   2.468   0.828   2.852 -0.3382 -0.4481 -0.7661
 5910SOL    HW129366   2.396   0.890   2.841 -0.2166 -0.1953 -0.1274
 5910SOL    HW229367   2.458   0.774   2.773  0.0412 -1.3523 -0.2052
 5911SOL     OW29368   4.227   0.511   4.498  0.1000  0.0337  0.3848
 5911SOL    HW129369   4.219   0.603   4.473 -1.2987  0.2217  1.5167
 5911SOL    HW229370   4.193   0.473   4.417  1.6042 -2.7493  1.0779
 5912SOL     OW29371   1.591   0.553  16.265 -0.5448  0.0544  0.3476
 5912SOL    HW129372   1.510   0.603  16.276 -0.4407  0.1709  0.5677
 5912SOL    HW229373   1.660   0.619  16.275  1.5676 -2.1837  0.5350
 5913SOL     OW29374   1.735   1.520   4.132  0.4760  0.0004 -0.4200
 5913SOL    HW129375   1.741   1.611   4.161  1.1345 -0.1821  0.0023
 5913SOL    HW229376   1.820   1.497   4.095  0.0637  0.9491 -1.9818
 5914SOL     OW29377   1.595   2.984   9.996 -0.1715 -0.5929 -0.5399
 5914SOL    HW129378   1.579   2.934   9.916  0.1704  1.6505 -2.0015
 5914SOL    HW229379   1.508   3.023  10.008 -0.6988 -2.3170  1.2793
 5915SOL     OW29380   0.964   3.194   3.690  0.0498  0.7930 -0.0356
 5915SOL    HW129381   0.965   3.117   3.633 -0.7718  0.2109  0.7355
 5915SOL    HW229382   0.993   3.153   3.771  1.4096  0.3608 -0.7268
 5916SOL     OW29383   0.379   3.476   4.243 -0.3780  0.0966  0.0321
 5916SOL    HW129384   0.306   3.493   4.302 -1.1595 -0.6786 -0.7076
 5916SOL    HW229385   0.386   3.566   4.213  1.1206 -0.3422 -0.9695
 5917SOL     OW29386   0.342   4.296   8.038  0.1471  0.0336  0.2159
 5917SOL    HW129387   0.329   4.337   7.953 -0.8262 -0.6696  0.0258
 5917SOL    HW229388   0.316   4.365   8.099  1.1451  1.5276 -1.0375
 5918SOL     OW29389   4.030   2.772  10.126 -0.5211 -0.4656 -0.0703
 5918SOL    HW129390   3.984   2.742  10.205 -0.0944 -0.2815  0.2449
 5918SOL    HW229391   3.962   2.815  10.075  0.6319  2.0205  0.5125
 5919SOL     OW29392   1.564   1.470   7.861 -0.4211 -0.2878  0.2785
 5919SOL    HW129393   1.525   1.470   7.948 -0.7123  2.1271  0.1615
 5919SOL    HW229394   1.498   1.421   7.811  0.7721 -0.5461 -1.0589
 5920SOL     OW29395   3.434   1.004   1.223 -0.6621 -0.3065  0.0887
 5920SOL    HW129396   3.465   0.923   1.265 -1.7874 -0.6866  0.1825
 5920SOL    HW229397   3.413   0.981   1.133  2.1176 -0.1649 -0.6061
 5921SOL     OW29398   3.685   4.221   5.731 -0.5442 -0.2585 -0.3284
 5921SOL    HW129399   3.693   4.300   5.679  3.0380 -1.4739 -1.5805
 5921SOL    HW229400   3.770   4.208   5.772 -1.7558 -0.7031  2.0686
 5922SOL     OW29401   0.770   2.068   6.594 -0.9709  0.2262  0.0225
 5922SOL    HW129402   0.756   1.975   6.609  0.4316 -0.0819 -0.6191
 5922SOL    HW229403   0.800   2.105   6.677 -0.6304 -1.7171  0.7583
 5923SOL     OW29404   2.191   2.576   5.529  0.5510 -0.0899  0.4928
 5923SOL    HW129405   2.148   2.614   5.452 -0.0118  0.8998  1.2877
 5923SOL    HW229406   2.120   2.542   5.582 -1.3287  2.4025 -0.4053
 5924SOL     OW29407   0.668   3.005  12.753  0.1629 -0.4852  0.0313
 5924SOL    HW129408   0.635   2.915  12.752 -0.3567 -0.2895 -0.4900
 5924SOL    HW229409   0.645   3.030  12.663 -1.0689  0.9958  0.7545
 5925SOL     OW29410   3.545   0.840   7.038 -0.1222 -0.0974 -0.0860
 5925SOL    HW129411   3.587   0.754   7.045  2.3038  1.1146  0.3221
 5925SOL    HW229412   3.473   0.818   7.098 -1.0496 -0.8607 -1.4778
 5926SOL     OW29413   2.041   0.745  15.002  0.4827 -0.1184 -0.4003
 5926SOL    HW129414   2.004   0.702  14.925 -0.1081 -0.4649  0.0742
 5926SOL    HW229415   2.062   0.670  15.058 -0.3328  0.2965  0.4562
 5927SOL     OW29416   3.643   1.395   9.117  0.1843  0.2338  0.0577
 5927SOL    HW129417   3.581   1.355   9.178  0.2525 -0.9345 -0.6328
 5927SOL    HW229418   3.619   1.484   9.143  0.0288 -0.4646  2.3292
 5928SOL     OW29419   3.794   3.466   5.847  0.1101  0.1593 -0.3993
 5928SOL    HW129420   3.764   3.417   5.924 -0.1367 -0.5256 -0.9309
 5928SOL    HW229421   3.707   3.494   5.820  0.1109  0.4585 -0.0908
 5929SOL     OW29422   0.678   2.340   3.948  0.1449 -0.2037 -0.0084
 5929SOL    HW129423   0.656   2.261   3.998  0.6211 -0.6445 -0.4922
 5929SOL    HW229424   0.632   2.406   4.001  0.1143  0.8512 -1.3460
 5930SOL     OW29425   2.064   1.957   7.253 -0.1994  0.2212  0.3467
 5930SOL    HW129426   2.012   1.953   7.172 -0.2169  0.1237  0.3624
 5930SOL    HW229427   2.080   2.048   7.277 -1.4839  0.9775 -1.6809
 5931SOL     OW29428   0.714   1.507  17.636 -0.0654 -0.5069  0.1249
 5931SOL    HW129429   0.773   1.435  17.658  0.6451  0.9389  3.0913
 5931SOL    HW229430   0.754   1.578  17.687 -1.8134  0.0455  0.7423
 5932SOL     OW29431   2.437   2.323   4.540 -0.5030 -0.0045 -0.4724
 5932SOL    HW129432   2.423   2.248   4.481  1.1664  0.2274 -1.1541
 5932SOL    HW229433   2.357   2.309   4.590 -0.3717 -2.8213 -1.0018
 5933SOL     OW29434   2.009   1.119   0.169  0.0937  0.6160 -0.2915
 5933SOL    HW129435   1.935   1.074   0.127  0.7584  0.2272 -1.0352
 5933SOL    HW229436   2.035   1.183   0.102 -0.8763  1.7822  0.4345
 5934SOL     OW29437   2.144   2.564   2.880 -0.2670 -0.0100  0.3651
 5934SOL    HW129438   2.104   2.641   2.840  1.7705  0.7968 -0.1243
 5934SOL    HW229439   2.109   2.573   2.968  0.4912  0.7500  0.5851
 5935SOL     OW29440   3.878   4.593   1.510 -0.4081  0.2271 -0.0236
 5935SOL    HW129441   3.788   4.575   1.535  0.2062 -1.5742  0.8690
 5935SOL    HW229442   3.900   4.505   1.481 -1.1935 -0.9582  2.9618
 5936SOL     OW29443   0.544   4.179   5.066  0.0109  0.4681 -0.6110
 5936SOL    HW129444   0.494   4.105   5.100  0.4702  0.2329 -0.4544
 5936SOL    HW229445   0.567   4.223   5.148 -1.0025  1.3205 -0.7708
 5937SOL     OW29446   3.071   2.016   9.391 -0.3962  0.8198  0.1143
 5937SOL    HW129447   3.091   2.077   9.320 -3.5956  1.6658 -0.0510
 5937SOL    HW229448   2.990   1.982   9.352 -1.0758 -2.3736  4.3004
 5938SOL     OW29449   3.936   0.689  10.984 -0.0535 -0.1477  0.1041
 5938SOL    HW129450   3.987   0.664  11.061  1.5732  1.9850 -0.2703
 5938SOL    HW229451   3.902   0.605  10.955 -1.9139 -0.3268  2.9051
 5939SOL     OW29452   0.593   4.397   4.610 -0.6583 -0.0425  0.5698
 5939SOL    HW129453   0.682   4.367   4.592 -0.8881  1.4230 -2.8203
 5939SOL    HW229454   0.592   4.394   4.706 -0.7842  0.8117  0.5922
 5940SOL     OW29455   1.365   3.535  16.536  0.0118 -0.3514  0.0531
 5940SOL    HW129456   1.312   3.522  16.615  0.1450 -4.1946 -0.4912
 5940SOL    HW229457   1.412   3.453  16.522  0.9755 -0.0381  1.4788
 5941SOL     OW29458   3.644   2.590   2.273 -0.1260 -0.5904  0.5967
 5941SOL    HW129459   3.552   2.566   2.266 -0.1337 -0.2534 -0.3254
 5941SOL    HW229460   3.637   2.677   2.311  3.7361 -0.3986  0.8729
 5942SOL     OW29461   1.739   3.987   3.482 -0.2160  0.0858  0.0093
 5942SOL    HW129462   1.758   3.900   3.516  1.7330  0.4937 -0.0287
 5942SOL    HW229463   1.821   4.028   3.511 -0.8469  0.7574  0.8355
 5943SOL     OW29464   2.608   2.643   6.240  0.1313 -0.3095 -0.4899
 5943SOL    HW129465   2.538   2.700   6.274  0.5290 -1.1828  1.7721
 5943SOL    HW229466   2.677   2.647   6.306  0.6762  0.4523 -1.1113
 5944SOL     OW29467   1.761   2.325  16.258  0.0101 -0.1108 -0.7724
 5944SOL    HW129468   1.675   2.359  16.283  0.7554 -0.9355  2.8135
 5944SOL    HW229469   1.815   2.403  16.267 -1.6892  0.4638  4.4111
 5945SOL     OW29470   4.126   4.459   8.387  0.1312 -0.2918  0.5390
 5945SOL    HW129471   4.184   4.383   8.381  1.4556  0.7006  0.7670
 5945SOL    HW229472   4.049   4.410   8.356  2.5745 -3.4053 -0.5742
 5946SOL     OW29473   3.504   4.128  17.472  0.2734  0.3157 -0.4043
 5946SOL    HW129474   3.598   4.144  17.459  0.4163 -0.3504 -0.1982
 5946SOL    HW229475   3.488   4.176  17.554  2.9740  0.6118 -0.0212
 5947SOL     OW29476   4.425   0.426  16.079  0.2712  0.4565  0.0984
 5947SOL    HW129477   4.419   0.434  16.174  0.8376 -1.2132  0.2594
 5947SOL    HW229478   4.348   0.482  16.065  0.3736  1.0567  1.9128
 5948SOL     OW29479   3.681   2.539   8.961 -0.0672 -0.0635  0.5429
 5948SOL    HW129480   3.690   2.610   9.024  1.7511 -0.7838  1.1035
 5948SOL    HW229481   3.673   2.464   9.020 -0.8105  0.9181  1.6897
 5949SOL     OW29482   1.826   2.625   5.636 -0.2870  0.2137  0.4143
 5949SOL    HW129483   1.898   2.608   5.697  0.2470 -0.8452 -0.5111
 5949SOL    HW229484   1.826   2.720   5.643 -2.5214  0.1538  1.2067
 5950SOL     OW29485   4.169   1.654  12.496 -0.9967 -0.1733  0.4772
 5950SOL    HW129486   4.200   1.658  12.587  0.2177 -0.1564  0.0694
 5950SOL    HW229487   4.209   1.570  12.470 -0.4972  0.3799 -0.5325
 5951SOL     OW29488   0.365   1.597   2.746  0.5723 -0.0070  0.2415
 5951SOL    HW129489   0.333   1.641   2.825  0.6142 -0.9342  0.7680
 5951SOL    HW229490   0.405   1.670   2.698  1.2473 -0.2503  0.4279
 5952SOL     OW29491   0.394   0.943   7.123  0.4749 -0.1490 -0.1611
 5952SOL    HW129492   0.476   0.993   7.126  0.3568 -0.0253  0.9960
 5952SOL    HW229493   0.333   1.016   7.133  0.6753 -0.0019 -0.0054
 5953SOL     OW29494   2.206   3.326   7.667 -0.0236  0.5414  0.2176
 5953SOL    HW129495   2.161   3.404   7.700 -1.8479 -0.3115 -0.2425
 5953SOL    HW229496   2.150   3.264   7.713  0.8347  1.6310  2.7574
 5954SOL     OW29497   2.441   4.265   8.423  0.3238 -0.0341  0.5535
 5954SOL    HW129498   2.414   4.235   8.336 -3.0320  0.9945  1.2447
 5954SOL    HW229499   2.431   4.182   8.468  0.0330  0.8449  2.1171
 5955SOL     OW29500   1.875   3.320   3.537 -0.6261 -0.1891 -0.3364
 5955SOL    HW129501   1.912   3.239   3.570  1.4245  0.6289 -0.6428
 5955SOL    HW229502   1.792   3.283   3.508 -0.2171 -1.1166 -0.3204
 5956SOL     OW29503   2.073   4.635   3.289  0.2329 -0.0428  0.1033
 5956SOL    HW129504   2.088   4.633   3.194 -1.1421 -0.8904 -0.0923
 5956SOL    HW229505   2.040   4.547   3.310 -0.2157 -0.0107 -0.4517
 5957SOL     OW29506   2.119   3.616   9.534 -0.2034  0.3706  0.6019
 5957SOL    HW129507   2.147   3.621   9.626  1.9378 -0.7381  0.0263
 5957SOL    HW229508   2.057   3.543   9.535 -0.2782  0.4262 -0.5094
 5958SOL     OW29509   0.670   4.316  10.557 -0.9487  0.2359 -0.2143
 5958SOL    HW129510   0.667   4.297  10.651  1.2072 -0.9568 -0.3789
 5958SOL    HW229511   0.763   4.338  10.550 -0.1932 -2.6199  0.4921
 5959SOL     OW29512   2.904   2.372   6.579  0.7548  0.3933 -0.2441
 5959SOL    HW129513   2.894   2.341   6.669 -0.5280 -0.9144 -0.8368
 5959SOL    HW229514   2.812   2.385   6.557  0.5746  0.2119  0.4156
 5960SOL     OW29515   3.281   2.635   1.402 -0.1727 -0.2131  0.1005
 5960SOL    HW129516   3.298   2.541   1.402  1.5988  0.1050  0.4261
 5960SOL    HW229517   3.220   2.648   1.329  0.0730 -0.4983 -0.1612
 5961SOL     OW29518   1.209   2.788  10.537 -0.7571 -0.2308 -0.1317
 5961SOL    HW129519   1.197   2.828  10.451 -1.3945  0.4184  0.2497
 5961SOL    HW229520   1.208   2.870  10.588  3.5171 -0.6217  0.5805
 5962SOL     OW29521   3.380   4.293  13.416 -0.3160 -0.3966  0.3692
 5962SOL    HW129522   3.351   4.381  13.392 -0.6532 -0.2764  1.2221
 5962SOL    HW229523   3.297   4.248  13.426 -1.1929  0.6955 -1.9401
 5963SOL     OW29524   0.506   1.339   7.216 -0.6953  0.1621  0.3191
 5963SOL    HW129525   0.448   1.395   7.268 -1.6243  0.5391 -1.1115
 5963SOL    HW229526   0.438   1.301   7.160 -0.2567  0.0699 -0.1488
 5964SOL     OW29527   0.988   1.853   1.612 -0.7484 -0.1345  0.4419
 5964SOL    HW129528   1.029   1.923   1.662 -1.2340  0.3204  0.2097
 5964SOL    HW229529   0.929   1.905   1.557  0.2046  0.0576 -0.3924
 5965SOL     OW29530   3.912   4.414   0.387 -0.2966  0.2732  0.4863
 5965SOL    HW129531   3.841   4.369   0.432 -0.4328 -0.7163 -0.7000
 5965SOL    HW229532   3.892   4.391   0.296  0.0937 -1.1920  0.7735
 5966SOL     OW29533   0.747   1.450   7.250  1.0931  0.0450  0.5422
 5966SOL    HW129534   0.665   1.402   7.238 -0.5970  3.0999 -0.0566
 5966SOL    HW229535   0.722   1.518   7.187 -0.7334 -0.9163  0.2267
 5967SOL     OW29536   0.519   2.374   2.293  0.0254  0.2050 -0.2666
 5967SOL    HW129537   0.547   2.376   2.384 -0.7235 -2.0354  0.0103
 5967SOL    HW229538   0.585   2.420   2.241  2.0418  0.7492  2.7996
 5968SOL     OW29539   1.156   3.661   5.173  0.0115 -0.4288 -0.3340
 5968SOL    HW129540   1.122   3.660   5.262 -0.9138  1.9715 -0.6485
 5968SOL    HW229541   1.175   3.753   5.155  0.3923 -0.5142 -0.3565
 5969SOL     OW29542   4.397   1.202   8.017 -0.2269  0.0642  0.2065
 5969SOL    HW129543   4.365   1.292   8.016 -0.1850  0.0814  0.4044
 5969SOL    HW229544   4.406   1.182   8.110  0.3123 -2.1785 -0.3257
 5970SOL     OW29545   3.441   3.440  17.245  0.1720 -0.4117 -0.3155
 5970SOL    HW129546   3.369   3.460  17.305  0.8202  1.4296 -0.1299
 5970SOL    HW229547   3.517   3.488  17.276  2.2996 -1.7603 -3.4804
 5971SOL     OW29548   3.750   0.396   1.986  0.6221  0.1664 -0.0434
 5971SOL    HW129549   3.699   0.335   1.931  0.2703  0.4886 -0.0765
 5971SOL    HW229550   3.756   0.475   1.932 -2.0088  1.0611  0.9589
 5972SOL     OW29551   0.837   4.391   6.937 -0.3742  0.3381  0.0254
 5972SOL    HW129552   0.823   4.304   6.975  1.4374  0.1944  0.3495
 5972SOL    HW229553   0.896   4.371   6.864  0.5526  0.5772  0.7123
 5973SOL     OW29554   1.170   4.614   3.281 -0.2740 -0.3711 -0.4748
 5973SOL    HW129555   1.117   4.669   3.223  1.4134  0.3712 -1.3336
 5973SOL    HW229556   1.252   4.598   3.234  0.8236  0.1686  1.2378
 5974SOL     OW29557   2.997   0.820   5.794  0.1838  0.4242 -0.3267
 5974SOL    HW129558   2.989   0.907   5.833  1.3886  0.4399 -0.1142
 5974SOL    HW229559   3.068   0.842   5.734 -0.8110  0.0762 -1.6263
 5975SOL     OW29560   4.476   2.984   8.411 -0.3370 -0.2132 -0.2729
 5975SOL    HW129561   4.399   2.977   8.355 -1.2771 -0.9675  1.0964
 5975SOL    HW229562   4.442   3.030   8.488  0.9820  0.7471 -0.2706
 5976SOL     OW29563   3.839   1.909   5.735 -0.2624 -0.3725 -0.5318
 5976SOL    HW129564   3.837   1.978   5.801 -0.4593 -0.6081 -0.2925
 5976SOL    HW229565   3.758   1.931   5.689  0.2289 -2.0009 -2.1982
 5977SOL     OW29566   4.419   0.423  16.887 -0.8054 -0.1311 -0.2156
 5977SOL    HW129567   4.351   0.415  16.955 -1.8907 -1.6797 -1.4817
 5977SOL    HW229568   4.410   0.512  16.851 -2.0716 -0.5611 -0.9502
 5978SOL     OW29569   3.711   1.578   7.446 -0.2192 -0.2487 -0.0022
 5978SOL    HW129570   3.771   1.647   7.416 -0.0375 -0.9511 -1.2466
 5978SOL    HW229571   3.632   1.612   7.405  0.1444 -0.2642 -0.7319
 5979SOL     OW29572   3.887   3.749  11.944 -0.3653 -0.2122  0.3620
 5979SOL    HW129573   3.927   3.738  12.029  3.1000 -0.3756 -1.2926
 5979SOL    HW229574   3.838   3.667  11.940  1.0120 -0.9966 -0.5458
 5980SOL     OW29575   2.316   4.081   0.490 -0.4643 -0.2062  0.1652
 5980SOL    HW129576   2.269   4.127   0.559 -0.4458 -1.0668  0.7447
 5980SOL    HW229577   2.271   4.122   0.416  0.9520  1.3415  0.1557
 5981SOL     OW29578   0.836   3.460   9.369 -0.0310  0.2633 -0.0348
 5981SOL    HW129579   0.791   3.435   9.288  0.6975 -4.0626  0.8991
 5981SOL    HW229580   0.763   3.469   9.430 -0.6744  0.5178 -0.8360
 5982SOL     OW29581   2.888   1.488   3.340 -0.2233  0.0717 -0.5514
 5982SOL    HW129582   2.825   1.416   3.345  0.0926 -0.1937 -0.3761
 5982SOL    HW229583   2.946   1.474   3.415 -0.1415  0.1427 -0.6005
 5983SOL     OW29584   0.296   3.317   8.290 -0.6088  0.4553  0.1671
 5983SOL    HW129585   0.335   3.297   8.376 -1.6985 -1.5744  0.1909
 5983SOL    HW229586   0.225   3.254   8.301  1.8543 -2.2595  0.6924
 5984SOL     OW29587   1.023   4.693   9.161 -0.0996  0.3678 -0.7137
 5984SOL    HW129588   1.012   4.608   9.117  0.4469  0.0271 -0.1958
 5984SOL    HW229589   1.031   4.664   9.252  1.3972  0.8429 -0.6979
 5985SOL     OW29590   1.947   1.781   2.869 -0.6489  0.0442  0.6249
 5985SOL    HW129591   1.899   1.789   2.787 -0.9523  2.6742  1.0712
 5985SOL    HW229592   2.034   1.780   2.830 -1.3446  0.4954 -0.9309
 5986SOL     OW29593   1.870   1.132   9.976 -0.4196  0.5186  0.4446
 5986SOL    HW129594   1.803   1.064   9.981 -1.2976  1.2340 -1.4725
 5986SOL    HW229595   1.823   1.215   9.972  1.1475  1.3788 -0.2646
 5987SOL     OW29596   3.511   0.794   2.428  0.0323 -0.3710 -0.1439
 5987SOL    HW129597   3.559   0.712   2.415  0.4598 -0.3694  1.3891
 5987SOL    HW229598   3.583   0.857   2.437 -0.0238 -0.2941 -0.2506
 5988SOL     OW29599   4.042   3.260  15.864  0.1717 -0.3068 -0.3368
 5988SOL    HW129600   4.103   3.261  15.938  1.2094 -0.2155 -1.1885
 5988SOL    HW229601   4.095   3.258  15.785  0.6016  1.1360 -0.0785
 5989SOL     OW29602   2.423   3.227   3.989 -0.0810  0.1423  0.7378
 5989SOL    HW129603   2.344   3.211   4.040 -1.3529  0.7276 -1.0657
 5989SOL    HW229604   2.498   3.213   4.047  1.5633 -0.0753 -1.4686
 5990SOL     OW29605   2.963   0.921  16.547  0.3304 -0.2762  0.3522
 5990SOL    HW129606   3.050   0.888  16.568 -0.7595 -2.8013  0.9014
 5990SOL    HW229607   2.978   0.981  16.474  0.2070 -0.2884  0.3158
 5991SOL     OW29608   1.848   2.550   8.309  0.0924 -0.7755 -0.3870
 5991SOL    HW129609   1.922   2.493   8.289  1.8509  0.5763  2.2561
 5991SOL    HW229610   1.800   2.491   8.367 -1.3051 -0.1990 -0.9508
 5992SOL     OW29611   1.831   4.511   6.564  0.3459 -0.3830 -0.3644
 5992SOL    HW129612   1.757   4.526   6.623  3.3714  1.3769  3.0065
 5992SOL    HW229613   1.894   4.572   6.602 -1.2936  1.6813 -0.9325
 5993SOL     OW29614   2.358   0.802   3.207  0.2064 -0.9158  0.3187
 5993SOL    HW129615   2.447   0.828   3.232 -0.2894 -0.3426  1.4839
 5993SOL    HW229616   2.375   0.707   3.209 -0.0390 -0.9536  0.5881
 5994SOL     OW29617   3.983   3.746   1.794 -0.0456  0.5568  0.2702
 5994SOL    HW129618   4.014   3.822   1.746 -0.2614 -0.3904 -1.3798
 5994SOL    HW229619   4.030   3.772   1.873  3.1465 -0.0060 -1.4809
 5995SOL     OW29620   2.874   4.563  14.083  0.1317  0.2158  0.1862
 5995SOL    HW129621   2.923   4.581  14.003  0.0310 -1.9687 -0.3898
 5995SOL    HW229622   2.854   4.471  14.065 -0.9334  0.6615 -0.9550
 5996SOL     OW29623   3.673   0.568   5.674 -0.1308  0.0217 -0.1802
 5996SOL    HW129624   3.700   0.570   5.766  0.7268  0.0581 -0.4306
 5996SOL    HW229625   3.731   0.505   5.630 -0.5877  0.1806 -0.9951
 5997SOL     OW29626   2.823   1.580   1.434  0.2848  0.2798 -0.3668
 5997SOL    HW129627   2.882   1.537   1.496 -0.1044  1.4463  0.8070
 5997SOL    HW229628   2.892   1.613   1.377 -0.7089  0.1843 -1.6039
 5998SOL     OW29629   1.938   2.313   7.974  0.0166  0.2423  0.0346
 5998SOL    HW129630   1.847   2.306   7.946  1.0613 -1.0526 -3.1179
 5998SOL    HW229631   1.959   2.221   7.955 -0.5818 -0.1160  1.1245
 5999SOL     OW29632   1.448   4.666   4.280 -0.4427 -0.1087  0.2949
 5999SOL    HW129633   1.512   4.689   4.348 -2.3309 -1.0217  2.4041
 5999SOL    HW229634   1.372   4.702   4.326  1.0501  3.8110 -0.3479
 6000SOL     OW29635   1.435   0.164   4.818 -0.2247  1.2664 -0.0694
 6000SOL    HW129636   1.478   0.195   4.739 -1.3838 -4.0105 -2.7618
 6000SOL    HW229637   1.481   0.216   4.885 -0.0781  0.7664  0.2242
 6001SOL     OW29638   0.536   3.445   7.644  0.0562  0.6173  0.2091
 6001SOL    HW129639   0.496   3.377   7.590 -0.5874  0.7153  0.5551
 6001SOL    HW229640   0.532   3.529   7.598 -0.8773  0.1529 -0.5472
 6002SOL     OW29641   2.913   0.835   3.591  0.4226 -0.3879  0.4027
 6002SOL    HW129642   2.832   0.886   3.597  0.5465 -0.1071 -0.3282
 6002SOL    HW229643   2.947   0.871   3.673  2.7042 -0.5473 -0.4892
 6003SOL     OW29644   2.551   0.848   1.650 -0.1862 -0.4971 -0.5418
 6003SOL    HW129645   2.485   0.860   1.718  0.5153  0.8441 -0.0872
 6003SOL    HW229646   2.526   0.762   1.618  1.5384 -1.8824  1.8315
 6004SOL     OW29647   2.092   2.932   2.374 -0.5136  0.4692 -0.5956
 6004SOL    HW129648   2.044   2.941   2.456  2.3434 -0.6688  1.2043
 6004SOL    HW229649   2.155   2.861   2.386 -0.7797 -0.3300 -3.7885
 6005SOL     OW29650   3.936   3.251  11.423 -0.0516 -0.2488 -0.1699
 6005SOL    HW129651   3.847   3.215  11.424  0.4698 -1.5276  0.8373
 6005SOL    HW229652   3.975   3.226  11.507  0.0246 -1.8691 -0.6822
 6006SOL     OW29653   0.642   1.630   4.271  0.2641  0.0751  0.2374
 6006SOL    HW129654   0.598   1.705   4.311  0.6021  0.5516 -0.3001
 6006SOL    HW229655   0.711   1.618   4.337 -0.6623 -0.3506  1.1337
 6007SOL     OW29656   4.415   1.717   2.101 -0.3114  0.1653 -0.1868
 6007SOL    HW129657   4.342   1.665   2.066 -1.4030  1.0931  0.6851
 6007SOL    HW229658   4.361   1.772   2.158  1.5050 -1.8847  3.4296
 6008SOL     OW29659   0.786   1.513   6.909  0.0665  0.1592 -0.2615
 6008SOL    HW129660   0.765   1.423   6.884  0.4892 -0.1174  0.3664
 6008SOL    HW229661   0.849   1.531   6.840 -1.8216  0.3234 -1.9292
 6009SOL     OW29662   3.420   3.724   5.587 -0.0463  0.0722 -0.0369
 6009SOL    HW129663   3.455   3.805   5.624  1.4177 -0.3644 -0.4889
 6009SOL    HW229664   3.418   3.737   5.492 -1.2386  0.8219  0.0919
 6010SOL     OW29665   0.798   3.737   4.208  0.4000  0.7993  0.4353
 6010SOL    HW129666   0.720   3.683   4.198  0.3284  0.1667  4.3366
 6010SOL    HW229667   0.840   3.756   4.124  0.5553  1.1866  0.5996
 6011SOL     OW29668   0.557   1.065   3.254  0.1245  0.1157  0.1964
 6011SOL    HW129669   0.573   1.139   3.314  1.0827  0.1349 -0.0813
 6011SOL    HW229670   0.635   1.067   3.198 -0.1305  3.1011 -0.0490
 6012SOL     OW29671   1.035   4.211   6.551 -0.4192 -0.4618 -0.0273
 6012SOL    HW129672   0.947   4.215   6.513 -0.2457 -0.8481 -0.4594
 6012SOL    HW229673   1.018   4.158   6.629 -1.4160 -1.6088 -1.0300
 6013SOL     OW29674   3.602   2.359   3.842 -0.0650  0.4856  0.1529
 6013SOL    HW129675   3.609   2.366   3.747  0.7367 -1.2346  0.0879
 6013SOL    HW229676   3.640   2.440   3.874  2.9045 -0.9381  0.2099
 6014SOL     OW29677   1.215   3.456   7.753 -0.2334 -0.2723  0.2969
 6014SOL    HW129678   1.192   3.381   7.699  0.6541 -1.7266  1.9307
 6014SOL    HW229679   1.310   3.445   7.753 -0.1270  0.4944  2.7303
 6015SOL     OW29680   3.659   2.562  13.638 -0.8001 -0.4817 -0.2190
 6015SOL    HW129681   3.744   2.579  13.598 -0.6108 -3.2623 -1.0344
 6015SOL    HW229682   3.607   2.548  13.559 -0.7573  0.5152 -0.4211
 6016SOL     OW29683   1.994   4.532   5.354  1.0628  0.2813 -0.1941
 6016SOL    HW129684   1.958   4.617   5.327 -0.3872  0.0654  1.0221
 6016SOL    HW229685   1.985   4.543   5.449  4.1647  0.7756  0.0388
 6017SOL     OW29686   0.709   0.179   9.205 -0.3191 -0.7341  0.5004
 6017SOL    HW129687   0.801   0.160   9.188 -0.5636 -1.3406 -0.1209
 6017SOL    HW229688   0.698   0.125   9.284  2.6729 -0.5761  1.0122
 6018SOL     OW29689   3.855   3.238   3.271 -0.4563 -0.4827  0.7635
 6018SOL    HW129690   3.927   3.294   3.241 -1.5964  0.8353  0.4736
 6018SOL    HW229691   3.779   3.257   3.215 -0.6603  0.4395  1.3523
 6019SOL     OW29692   4.683   1.200   5.046 -0.7500 -0.1841  0.2132
 6019SOL    HW129693   4.733   1.206   4.965 -0.1639 -0.5702  0.5393
 6019SOL    HW229694   4.690   1.105   5.057 -0.3882 -0.3593 -1.4871
 6020SOL     OW29695   3.896   0.495   6.687 -0.1107  0.2286 -0.1491
 6020SOL    HW129696   3.943   0.437   6.628  0.5792 -0.5935  1.2104
 6020SOL    HW229697   3.943   0.578   6.674 -1.0228  1.1938  2.5637
 6021SOL     OW29698   3.547   1.084  13.201 -0.2264  0.0230 -0.0856
 6021SOL    HW129699   3.577   0.998  13.231 -1.6675  0.0198  1.3343
 6021SOL    HW229700   3.583   1.144  13.266 -1.4839  0.4851  0.1762
 6022SOL     OW29701   3.015   2.495  12.864  0.0092  0.0258 -0.6167
 6022SOL    HW129702   3.058   2.483  12.949  1.6888 -0.2753 -1.5011
 6022SOL    HW229703   2.945   2.430  12.867 -0.0373  0.1360  0.7718
 6023SOL     OW29704   0.146   3.701  16.203  0.0766  0.4123  0.0872
 6023SOL    HW129705   0.198   3.732  16.278  0.7645  0.1766 -0.2877
 6023SOL    HW229706   0.078   3.656  16.252  0.0712  1.1297  0.7405
 6024SOL     OW29707   0.805   1.689   0.092  0.2309 -0.5811  0.5085
 6024SOL    HW129708   0.885   1.689   0.144  0.9111  0.0051 -0.5400
 6024SOL    HW229709   0.797   1.784   0.081  1.4256 -0.4204  1.0475
 6025SOL     OW29710   1.024   0.124  16.113 -0.7378 -0.3302  0.6060
 6025SOL    HW129711   0.974   0.191  16.066  1.0016 -1.1564 -2.3537
 6025SOL    HW229712   1.024   0.047  16.056  2.1859 -1.2859  1.9214
 6026SOL     OW29713   2.432   1.221   9.133  0.1221 -0.2819  0.6555
 6026SOL    HW129714   2.363   1.281   9.105  0.7515 -0.5325 -1.4207
 6026SOL    HW229715   2.489   1.216   9.057 -0.0864 -0.3924  0.5077
 6027SOL     OW29716   0.045   0.565   9.489 -0.0423 -0.3256  0.0910
 6027SOL    HW129717   4.688   0.550   9.490 -0.0061 -0.7634 -2.5797
 6027SOL    HW229718   0.064   0.517   9.569  0.0578 -1.6360 -0.7337
 6028SOL     OW29719   0.131   2.885  17.434  0.3380  0.2578 -0.0831
 6028SOL    HW129720   0.126   2.981  17.431  0.5424  0.1701 -3.2286
 6028SOL    HW229721   0.046   2.853  17.462  0.6269 -0.3847  0.0639
 6029SOL     OW29722   0.173   3.191   3.907 -0.1698 -0.3926  0.4566
 6029SOL    HW129723   0.145   3.164   3.819  4.3365 -0.1527 -1.0846
 6029SOL    HW229724   0.236   3.122   3.927  0.5357 -0.5813 -2.3743
 6030SOL     OW29725   2.728   3.083  17.068 -0.2025  0.1016  0.1292
 6030SOL    HW129726   2.787   3.009  17.082  1.6392  1.6446  0.5692
 6030SOL    HW229727   2.672   3.054  16.996 -0.9393  2.0307 -0.0798
 6031SOL     OW29728   2.836   2.874  15.766 -0.6387  0.4864 -0.2239
 6031SOL    HW129729   2.889   2.835  15.697 -2.0227  1.9737 -2.1234
 6031SOL    HW229730   2.754   2.887  15.717 -0.1742  0.5810 -0.9764
 6032SOL     OW29731   3.480   1.865   0.760 -0.0994 -0.0653  0.6405
 6032SOL    HW129732   3.411   1.804   0.786 -1.0224 -0.4991 -2.8006
 6032SOL    HW229733   3.562   1.821   0.782 -0.2467 -1.6265 -1.9755
 6033SOL     OW29734   3.242   4.343   3.678  0.0684  0.6273 -0.0061
 6033SOL    HW129735   3.320   4.383   3.717 -1.5943  1.6981  2.1719
 6033SOL    HW229736   3.265   4.365   3.587  1.3717 -2.7099 -0.5034
 6034SOL     OW29737   2.192   3.583   6.342 -0.0846  0.3347 -0.5106
 6034SOL    HW129738   2.197   3.668   6.386 -1.1718  0.5634 -0.8390
 6034SOL    HW229739   2.199   3.613   6.252  2.8059  0.2441 -0.3259
 6035SOL     OW29740   3.420   3.042   2.547  0.3173  0.2260  0.4186
 6035SOL    HW129741   3.377   3.072   2.467  3.0917 -0.2817 -1.2499
 6035SOL    HW229742   3.471   3.121   2.566  2.1172 -1.1151  1.1231
 6036SOL     OW29743   3.695   2.920   5.034  0.6450 -0.0747 -0.2652
 6036SOL    HW129744   3.625   2.985   5.025 -0.3744 -1.2981 -1.2524
 6036SOL    HW229745   3.708   2.889   4.944 -0.2921  1.3687 -0.9072
 6037SOL     OW29746   3.036   2.540  15.384  0.3451 -0.0464  0.1425
 6037SOL    HW129747   2.990   2.456  15.387  1.1249 -0.5190 -1.5091
 6037SOL    HW229748   3.126   2.523  15.413  0.4309 -1.3902 -0.9335
 6038SOL     OW29749   1.994   3.537   8.054  0.0562 -0.2848  0.1521
 6038SOL    HW129750   1.924   3.478   8.084 -2.2688  2.3634 -0.0086
 6038SOL    HW229751   2.003   3.543   7.959  2.1296 -2.7593  0.2084
 6039SOL     OW29752   1.828   0.880   3.027  0.2523 -0.0020 -0.1401
 6039SOL    HW129753   1.840   0.869   3.122 -0.4953  0.6170  0.0251
 6039SOL    HW229754   1.909   0.927   3.007  0.3821 -0.3012 -0.3188
 6040SOL     OW29755   0.596   0.847   6.866 -1.0462  0.4978 -0.3655
 6040SOL    HW129756   0.559   0.874   6.950  1.2955 -1.1496  1.1996
 6040SOL    HW229757   0.516   0.804   6.834 -0.3070  0.0148 -1.6000
 6041SOL     OW29758   0.541   2.369   1.209 -0.2762  0.2065 -0.5184
 6041SOL    HW129759   0.539   2.439   1.273 -3.0791 -0.4808  0.1356
 6041SOL    HW229760   0.529   2.425   1.132 -1.4746  1.0843  0.3263
 6042SOL     OW29761   0.032   2.249   8.219 -0.7622  0.5957  0.1628
 6042SOL    HW129762   0.033   2.336   8.261 -1.5011  1.0762 -0.8082
 6042SOL    HW229763   4.707   2.205   8.276  0.2077 -2.1861 -0.9218
 6043SOL     OW29764   3.521   2.265   8.453  0.7489  0.0858  0.2167
 6043SOL    HW129765   3.462   2.340   8.461 -0.7113 -0.8242 -2.0993
 6043SOL    HW229766   3.605   2.309   8.436  0.0430  1.5315  0.4983
 6044SOL     OW29767   0.462   3.687  12.033 -0.0570  0.1940  0.3545
 6044SOL    HW129768   0.488   3.753  12.097  0.7204 -0.5609  0.8171
 6044SOL    HW229769   0.541   3.689  11.979  0.9122  1.3886  1.8045
 6045SOL     OW29770   2.418   1.342   5.961 -0.3393  0.1007  0.3281
 6045SOL    HW129771   2.327   1.366   5.978 -0.6477  0.4411 -1.7871
 6045SOL    HW229772   2.407   1.291   5.881  0.3917 -0.9510  0.8937
 6046SOL     OW29773   1.627   4.583  10.461 -0.6852  0.5854 -0.3781
 6046SOL    HW129774   1.537   4.559  10.437 -1.0539  1.2649  0.2995
 6046SOL    HW229775   1.663   4.495  10.464  1.4706  1.4398 -1.3445
 6047SOL     OW29776   0.422   0.381  12.471  0.6592 -0.0806 -0.1756
 6047SOL    HW129777   0.401   0.295  12.508 -1.1975 -0.6150 -2.4463
 6047SOL    HW229778   0.495   0.402  12.529  0.1560 -1.7801  1.0647
 6048SOL     OW29779   4.098   2.277   9.625 -0.8625  0.4988  0.0977
 6048SOL    HW129780   4.130   2.367   9.621 -1.7873  0.7854 -0.6549
 6048SOL    HW229781   4.126   2.243   9.540 -0.9151  0.5564  0.0576
 6049SOL     OW29782   3.406   1.945  16.835  0.1186 -0.4267 -0.4668
 6049SOL    HW129783   3.320   1.908  16.817  0.1881 -0.9377  0.2599
 6049SOL    HW229784   3.377   2.029  16.871 -2.6886 -0.8651 -1.7400
 6050SOL     OW29785   3.489   3.425   5.068  0.3762 -0.3669 -0.0611
 6050SOL    HW129786   3.424   3.377   5.016  0.6070 -0.0938 -0.5977
 6050SOL    HW229787   3.561   3.442   5.007  0.0659  1.4221  0.0773
 6051SOL     OW29788   0.830   3.003   2.167 -0.5147 -0.2080 -0.0638
 6051SOL    HW129789   0.784   2.953   2.099 -0.8725 -0.6090  0.4756
 6051SOL    HW229790   0.785   2.965   2.242 -2.3807 -1.2083 -1.6888
 6052SOL     OW29791   2.214   2.646   8.291 -0.2002 -0.3696 -0.3933
 6052SOL    HW129792   2.180   2.558   8.275 -2.7422  0.7298 -1.0229
 6052SOL    HW229793   2.265   2.632   8.371  0.2301 -0.9447 -0.7756
 6053SOL     OW29794   2.182   4.611  12.974  0.0119 -0.2209 -0.7125
 6053SOL    HW129795   2.272   4.604  13.007 -0.8332 -0.0318  1.6798
 6053SOL    HW229796   2.133   4.628  13.055 -1.0116 -3.0472 -0.7528
 6054SOL     OW29797   0.922   0.442  14.972  0.3721 -0.1400  0.2459
 6054SOL    HW129798   0.881   0.505  15.031  1.2224  0.5955  0.0548
 6054SOL    HW229799   0.907   0.483  14.887 -2.2232  0.6206  1.0674
 6055SOL     OW29800   0.811   1.837   3.961 -0.8104 -0.2495  0.3021
 6055SOL    HW129801   0.846   1.899   3.898 -3.8659  0.7008 -0.4676
 6055SOL    HW229802   0.803   1.893   4.038 -1.4400  2.2033 -1.5597
 6056SOL     OW29803   3.695   1.228  16.839  1.0062  0.0884 -0.0669
 6056SOL    HW129804   3.698   1.149  16.784 -1.8858  0.2615 -0.4837
 6056SOL    HW229805   3.642   1.287  16.785 -0.0288  0.7411  1.6572
 6057SOL     OW29806   1.462   1.370   2.715  0.1837 -0.4211  0.4373
 6057SOL    HW129807   1.401   1.397   2.784 -0.9731 -0.6235 -0.5134
 6057SOL    HW229808   1.507   1.453   2.704 -0.2765 -0.5067 -2.1424
 6058SOL     OW29809   0.820   3.672   8.850  0.0650 -0.2363  0.2048
 6058SOL    HW129810   0.877   3.745   8.825  1.3911 -1.9729 -1.7922
 6058SOL    HW229811   0.853   3.661   8.939  1.6934  0.2063 -0.3486
 6059SOL     OW29812   3.447   1.651  11.811 -0.6368  0.2005 -0.1180
 6059SOL    HW129813   3.420   1.711  11.881 -0.5937 -0.6273  0.6112
 6059SOL    HW229814   3.370   1.595  11.809 -0.5280  0.0808 -0.8997
 6060SOL     OW29815   2.543   2.345   6.847 -0.1510 -0.1622  0.5276
 6060SOL    HW129816   2.623   2.326   6.798 -0.6831 -0.9780 -0.0275
 6060SOL    HW229817   2.565   2.325   6.938  0.8803  0.2684  0.3696
 6061SOL     OW29818   4.698   3.772   4.471  0.1613 -0.4335 -0.1098
 6061SOL    HW129819   4.611   3.737   4.490 -0.4927 -0.0117 -2.2963
 6061SOL    HW229820   4.736   3.789   4.557  0.6073  0.7232 -0.5342
 6062SOL     OW29821   3.859   4.170   9.982 -0.1414 -0.0195  0.3876
 6062SOL    HW129822   3.905   4.247  10.017 -1.1114  1.2479 -1.1413
 6062SOL    HW229823   3.830   4.122  10.059  1.3869  0.2835  1.1662
 6063SOL     OW29824   3.423   3.387   0.826  0.3778 -0.1531  0.1086
 6063SOL    HW129825   3.468   3.302   0.825 -0.0803 -0.3872 -1.1331
 6063SOL    HW229826   3.395   3.389   0.917  0.7976  0.1579  0.2314
 6064SOL     OW29827   3.971   2.748   3.762 -0.0959 -0.5151 -0.1601
 6064SOL    HW129828   3.958   2.785   3.675 -1.2144  0.2332  0.3309
 6064SOL    HW229829   3.883   2.761   3.795 -0.0124 -0.3096 -0.0253
 6065SOL     OW29830   0.093   2.326   6.569 -0.4253 -0.1016 -0.5637
 6065SOL    HW129831   0.093   2.395   6.503  0.1301  2.3807  2.0170
 6065SOL    HW229832   0.019   2.278   6.532 -1.1245 -1.7335  2.9197
 6066SOL     OW29833   1.801   1.499   2.513  0.0881  0.3416 -0.3348
 6066SOL    HW129834   1.777   1.426   2.571  1.3196  1.0239  1.0205
 6066SOL    HW229835   1.897   1.496   2.508  0.0595 -0.7885 -0.2058
 6067SOL     OW29836   1.608   1.443  16.871  0.0484  0.4229  0.1217
 6067SOL    HW129837   1.575   1.363  16.830 -1.4669  0.7720  0.6423
 6067SOL    HW229838   1.684   1.454  16.815  2.3969  0.0980  3.2291
 6068SOL     OW29839   0.760   2.917  14.555  0.4599 -0.0651 -0.8030
 6068SOL    HW129840   0.746   2.908  14.461  2.9135  2.4533 -1.4340
 6068SOL    HW229841   0.684   2.868  14.586 -1.2175  0.2877 -4.3529
 6069SOL     OW29842   4.731   3.958   9.437 -0.2028 -0.0621  0.5220
 6069SOL    HW129843   0.011   4.018   9.364 -0.9225 -0.6409 -0.1390
 6069SOL    HW229844   4.731   4.022   9.508 -0.8382  0.5331 -0.0098
 6070SOL     OW29845   1.270   0.289   5.640 -0.2319  0.0290  0.2233
 6070SOL    HW129846   1.342   0.231   5.616  1.0583  1.2359  1.2387
 6070SOL    HW229847   1.215   0.221   5.681 -0.1457 -0.6298 -0.7382
 6071SOL     OW29848   1.482   2.564   2.152 -0.1042  0.5059  0.3487
 6071SOL    HW129849   1.469   2.585   2.244 -1.1068  0.0511  0.3135
 6071SOL    HW229850   1.537   2.486   2.157  0.3302  0.7166 -1.1872
 6072SOL     OW29851   0.909   0.281  15.294 -0.2341 -0.5467  0.3942
 6072SOL    HW129852   0.887   0.353  15.353  0.4403 -0.2869  0.3353
 6072SOL    HW229853   0.824   0.276  15.252  0.1303 -1.5726 -0.2072
 6073SOL     OW29854   3.845   1.166   8.159 -0.8963  0.3579 -0.3244
 6073SOL    HW129855   3.871   1.195   8.247  0.7390 -1.0513 -0.3624
 6073SOL    HW229856   3.755   1.200   8.160 -0.8407  0.4873  0.8328
 6074SOL     OW29857   1.543   0.876   4.177  0.2194 -0.5036 -0.5916
 6074SOL    HW129858   1.579   0.788   4.164  0.4477 -0.1983 -2.0827
 6074SOL    HW229859   1.480   0.871   4.106  1.7831 -0.4145 -2.0037
 6075SOL     OW29860   4.220   2.838   8.663  0.1340  0.9640  0.8791
 6075SOL    HW129861   4.285   2.844   8.733  0.9422 -1.0525  0.2950
 6075SOL    HW229862   4.277   2.818   8.589 -1.9534  1.4403 -0.8358
 6076SOL     OW29863   1.972   0.342   9.944  0.9109 -0.7529 -0.2827
 6076SOL    HW129864   1.893   0.391   9.922  0.3132 -1.6350 -0.0955
 6076SOL    HW229865   1.928   0.263   9.975 -1.3715  1.4942  2.2205
 6077SOL     OW29866   2.979   2.121   6.969 -0.1982  0.4015  0.2773
 6077SOL    HW129867   2.939   2.061   7.032 -0.3851 -1.3524 -1.5072
 6077SOL    HW229868   3.051   2.068   6.934 -1.9113 -1.0047 -1.1120
 6078SOL     OW29869   1.466   2.033   7.134  0.1845 -0.6295 -0.6901
 6078SOL    HW129870   1.480   2.087   7.212 -2.0546  0.9792 -1.3986
 6078SOL    HW229871   1.384   2.073   7.105  0.3878 -0.2569 -0.7556
 6079SOL     OW29872   1.591   4.326  11.804  0.1721  0.0954  0.3378
 6079SOL    HW129873   1.683   4.318  11.782 -0.1211 -0.9435 -0.5041
 6079SOL    HW229874   1.543   4.329  11.721  1.5805  0.2035 -0.4680
 6080SOL     OW29875   0.598   1.447   8.519  0.1735 -0.8337  0.5674
 6080SOL    HW129876   0.582   1.390   8.594 -1.3859  0.1896  1.0326
 6080SOL    HW229877   0.538   1.522   8.523  0.3418 -0.7736  2.1707
 6081SOL     OW29878   0.477   1.799   6.935 -0.0719  0.2149 -0.6898
 6081SOL    HW129879   0.500   1.737   7.005 -0.8581 -0.3369 -0.9155
 6081SOL    HW229880   0.509   1.886   6.959  0.9985 -0.2726 -0.3390
 6082SOL     OW29881   4.280   4.240  13.542 -0.5291 -0.0397  0.3859
 6082SOL    HW129882   4.194   4.280  13.526 -0.6754 -0.5334 -0.0599
 6082SOL    HW229883   4.313   4.283  13.621  1.0474  0.5553 -0.6068
 6083SOL     OW29884   3.486   3.186   7.781 -0.6552  0.3036 -0.4002
 6083SOL    HW129885   3.507   3.148   7.866 -1.4157  0.8865  0.0423
 6083SOL    HW229886   3.409   3.131   7.768 -0.2880 -0.4073  0.3884
 6084SOL     OW29887   3.045   2.793  10.807 -0.3541  0.3876  0.1924
 6084SOL    HW129888   3.139   2.813  10.801  0.2055 -2.6878 -1.3560
 6084SOL    HW229889   3.005   2.847  10.739  1.1167  2.3563  0.8903
 6085SOL     OW29890   0.916   2.487   1.990 -0.3916 -0.1010  0.2358
 6085SOL    HW129891   0.994   2.441   2.021  0.1319 -0.0266 -0.9353
 6085SOL    HW229892   0.951   2.571   1.961 -0.3399 -0.4871 -0.8571
 6086SOL     OW29893   2.091   2.180   8.514  0.3295 -0.0760 -0.3700
 6086SOL    HW129894   2.104   2.085   8.515 -2.9175 -0.4791  1.8239
 6086SOL    HW229895   2.170   2.206   8.563 -0.9543  1.0162  1.1206
 6087SOL     OW29896   3.154   0.952   4.473 -0.0714  0.7466  0.6545
 6087SOL    HW129897   3.239   0.985   4.446  0.5914  0.5685  2.5179
 6087SOL    HW229898   3.163   0.857   4.478  1.6138  0.7772 -2.0900
 6088SOL     OW29899   2.619   2.071  11.490  0.3352  0.4329  0.0537
 6088SOL    HW129900   2.551   2.045  11.429  0.1300 -0.6286  0.7258
 6088SOL    HW229901   2.696   2.070  11.434 -0.2849  0.5152 -0.7935
 6089SOL     OW29902   1.395   1.030  14.078  0.4768  0.3501  0.0273
 6089SOL    HW129903   1.302   1.012  14.092  0.0242  0.9158 -2.1794
 6089SOL    HW229904   1.433   0.967  14.139 -0.6056 -0.0547  0.2887
 6090SOL     OW29905   3.738   1.619   3.797 -0.3119 -0.7720  0.9779
 6090SOL    HW129906   3.799   1.579   3.859 -0.7499 -1.0424  1.2371
 6090SOL    HW229907   3.737   1.544   3.737 -2.2268  0.3500 -0.4003
 6091SOL     OW29908   1.025   3.368  11.055  0.5728 -0.3420  0.3872
 6091SOL    HW129909   0.936   3.396  11.077  0.0003 -0.6495 -1.5822
 6091SOL    HW229910   1.059   3.311  11.124 -0.4917  0.1561  1.3365
 6092SOL     OW29911   2.370   3.019   3.497 -0.1948  0.0892  0.4174
 6092SOL    HW129912   2.373   3.111   3.524 -0.4396  1.0229 -2.7848
 6092SOL    HW229913   2.451   2.994   3.543 -0.5239 -2.8360 -0.5840
 6093SOL     OW29914   3.553   2.250  11.040 -0.7137 -0.0810  0.1812
 6093SOL    HW129915   3.641   2.216  11.054 -1.1660 -1.0344  0.7241
 6093SOL    HW229916   3.574   2.322  10.981  1.1543  1.3806  2.6077
 6094SOL     OW29917   1.832   2.488   3.764  0.1788  0.4933 -0.1038
 6094SOL    HW129918   1.794   2.497   3.851  2.6633  0.6160  0.9939
 6094SOL    HW229919   1.792   2.562   3.718  0.3238  1.0189  0.6178
 6095SOL     OW29920   0.408   4.650   1.919  0.0357  0.0060 -0.1963
 6095SOL    HW129921   0.496   4.664   1.883  0.6948  2.4887  2.4075
 6095SOL    HW229922   0.419   4.570   1.970  0.0589  0.9911  1.3336
 6096SOL     OW29923   0.916   0.264   6.197  0.4915  0.3021 -0.0796
 6096SOL    HW129924   0.961   0.349   6.204  2.8638 -0.7536 -2.4790
 6096SOL    HW229925   0.862   0.287   6.122 -0.9352 -0.0023  0.8569
 6097SOL     OW29926   1.254   3.296   8.867  0.1912 -0.6470 -0.6190
 6097SOL    HW129927   1.185   3.360   8.886  0.0284 -0.2937 -2.3926
 6097SOL    HW229928   1.201   3.236   8.813  0.5095 -0.5449 -1.0388
 6098SOL     OW29929   0.773   1.270   1.062  0.2405  0.0347 -0.2331
 6098SOL    HW129930   0.768   1.271   0.967  0.9605 -2.5086 -0.2851
 6098SOL    HW229931   0.802   1.358   1.087 -0.3407 -0.1857  1.2494
 6099SOL     OW29932   4.089   1.246   5.670  0.2494  0.3584 -0.2058
 6099SOL    HW129933   4.105   1.158   5.635 -0.7785 -0.1432  0.6076
 6099SOL    HW229934   3.995   1.231   5.678  0.0719  1.0590 -0.9310
 6100SOL     OW29935   2.741   3.388  10.937 -0.2074  0.6496  0.4094
 6100SOL    HW129936   2.650   3.390  10.907  0.3471  0.2081 -1.3137
 6100SOL    HW229937   2.752   3.455  11.005  0.2001  0.4804  0.5115
 6101SOL     OW29938   4.298   0.439   4.759 -0.1328 -0.4586  0.3206
 6101SOL    HW129939   4.360   0.510   4.773 -2.2578  1.8754 -2.2302
 6101SOL    HW229940   4.267   0.476   4.677 -0.6727 -0.1761  0.6535
 6102SOL     OW29941   3.915   3.659   9.141  0.2009 -0.2629 -0.5419
 6102SOL    HW129942   3.894   3.749   9.163 -3.4621 -1.0099 -0.9466
 6102SOL    HW229943   3.826   3.624   9.149  0.4294 -0.9488 -1.0106
 6103SOL     OW29944   1.384   1.352   3.214  0.3398  0.3918 -0.3334
 6103SOL    HW129945   1.447   1.299   3.165  2.7465  1.5819  1.4273
 6103SOL    HW229946   1.451   1.413   3.246 -1.5702  2.7514 -0.8687
 6104SOL     OW29947   2.662   1.276  12.773  0.1689  0.1141 -0.2996
 6104SOL    HW129948   2.626   1.309  12.855 -0.8653 -1.2584 -0.2160
 6104SOL    HW229949   2.596   1.306  12.709  0.8336 -1.9064 -1.9308
 6105SOL     OW29950   3.012   0.198   4.660 -0.6503 -0.0528 -0.5203
 6105SOL    HW129951   2.968   0.167   4.581 -0.5385 -0.2692 -0.4996
 6105SOL    HW229952   3.052   0.118   4.696 -0.5089 -1.0884 -2.9572
 6106SOL     OW29953   3.710   0.973   1.920  0.0860  0.3062 -0.0833
 6106SOL    HW129954   3.685   0.979   1.828 -2.0849  0.3042  0.5235
 6106SOL    HW229955   3.645   0.912   1.954  1.8444 -1.4558  0.0916
 6107SOL     OW29956   1.678   1.670   2.328 -1.0488 -0.1305  0.3521
 6107SOL    HW129957   1.662   1.592   2.274 -1.5292  0.0587  0.2218
 6107SOL    HW229958   1.691   1.622   2.410 -0.7630  3.2529  2.2800
 6108SOL     OW29959   4.410   1.850   8.502 -0.3818 -0.5203 -0.2640
 6108SOL    HW129960   4.420   1.905   8.579 -0.4216 -0.2035 -0.4837
 6108SOL    HW229961   4.321   1.817   8.516 -0.2635 -0.1143  1.3882
 6109SOL     OW29962   1.637   2.100  15.025 -0.8833  0.2808  0.2408
 6109SOL    HW129963   1.719   2.124  14.983 -0.3670 -0.0129  1.0816
 6109SOL    HW229964   1.582   2.173  14.996  0.4566  1.1902  0.0103
 6110SOL     OW29965   2.197   4.140  13.047  0.5107 -0.7079 -0.0275
 6110SOL    HW129966   2.199   4.234  13.064  1.3250 -0.3748 -2.0881
 6110SOL    HW229967   2.180   4.157  12.955 -0.6322  0.3128  0.3720
 6111SOL     OW29968   1.117   1.349  11.126 -0.3140  0.1361 -0.3534
 6111SOL    HW129969   1.147   1.268  11.168  1.0982  1.3203  0.9549
 6111SOL    HW229970   1.167   1.408  11.183 -0.2904 -2.5070  2.3606
 6112SOL     OW29971   1.264   1.126  17.652  0.0627 -0.1377 -0.6366
 6112SOL    HW129972   1.173   1.101  17.638 -0.1660 -0.1035  0.7873
 6112SOL    HW229973   1.283   1.156  17.563  2.3522  0.3981  0.0297
 6113SOL     OW29974   1.486   2.350   3.687  0.0521  0.3844  0.3272
 6113SOL    HW129975   1.564   2.313   3.727 -0.5799 -1.0246  0.2497
 6113SOL    HW229976   1.423   2.284   3.717 -0.5461  2.2448  3.1570
 6114SOL     OW29977   4.198   4.386   7.410 -0.1817 -0.3670  0.1338
 6114SOL    HW129978   4.148   4.327   7.467 -0.5064 -0.1568  0.0691
 6114SOL    HW229979   4.229   4.448   7.476  1.8833 -0.8358 -0.3949
 6115SOL     OW29980   2.008   2.755   2.711  0.3043  0.1853 -0.1789
 6115SOL    HW129981   1.925   2.714   2.739 -0.2330  1.5521  0.2527
 6115SOL    HW229982   1.975   2.843   2.695 -2.9002 -0.8634  0.5522
 6116SOL     OW29983   1.174   1.367   8.334  0.3732 -0.4666  0.7707
 6116SOL    HW129984   1.244   1.432   8.331  0.4126 -0.5680 -0.7223
 6116SOL    HW229985   1.200   1.324   8.253 -0.3421 -0.6699  0.6451
 6117SOL     OW29986   1.895   2.386   2.684  0.4477  0.3244 -0.3923
 6117SOL    HW129987   1.914   2.442   2.609  0.2450 -0.2651 -0.8855
 6117SOL    HW229988   1.954   2.424   2.748  1.1500  0.0779 -0.8966
 6118SOL     OW29989   4.276   1.498   5.473  0.2687 -0.4989  0.7626
 6118SOL    HW129990   4.251   1.422   5.524 -2.5058 -0.8718 -1.1386
 6118SOL    HW229991   4.226   1.571   5.509  0.3839 -0.7706  1.4740
 6119SOL     OW29992   1.673   4.598  10.964 -0.0916 -0.1564 -0.2196
 6119SOL    HW129993   1.698   4.506  10.965 -1.2613 -0.4551  1.1374
 6119SOL    HW229994   1.691   4.630  10.876  0.1147  0.6778  0.1159
 6120SOL     OW29995   0.791   0.155  11.446 -0.3969 -0.3254  0.4798
 6120SOL    HW129996   0.760   0.161  11.536  0.7941  0.2036  0.8551
 6120SOL    HW229997   0.846   0.077  11.453  1.5512  1.0757  0.9446
 6121SOL     OW29998   1.017   3.020   5.864  0.5280  0.4183 -0.8941
 6121SOL    HW129999   1.078   2.970   5.809 -1.0382 -1.3772 -1.0009
 6121SOL    HW230000   0.978   3.072   5.793 -0.7492  1.1533  0.3484
 6122SOL     OW30001   1.348   2.553   4.154  0.5346  0.3274 -0.3239
 6122SOL    HW130002   1.281   2.562   4.086 -0.0587  0.5054  0.2851
 6122SOL    HW230003   1.299   2.545   4.235  1.2254 -2.5914 -0.1821
 6123SOL     OW30004   0.797   3.760   7.561 -0.4987  0.1106  0.0906
 6123SOL    HW130005   0.872   3.780   7.504 -0.0630  2.4109  1.4531
 6123SOL    HW230006   0.753   3.843   7.581  0.2521  0.4014  0.5438
 6124SOL     OW30007   3.715   0.829   2.917  0.1283  0.0393 -0.7577
 6124SOL    HW130008   3.644   0.814   2.979 -0.4804 -0.3186 -1.5367
 6124SOL    HW230009   3.719   0.739   2.884  1.5318  0.2505 -1.1792
 6125SOL     OW30010   0.262   4.668  12.039  0.1729  0.0166  0.3388
 6125SOL    HW130011   0.255   4.734  11.970 -3.2124 -2.6977 -1.8953
 6125SOL    HW230012   0.335   4.618  12.004 -0.6995 -0.7285 -0.3935
 6126SOL     OW30013   0.968   3.779   1.560 -0.1237  0.3276  0.0412
 6126SOL    HW130014   0.972   3.687   1.531  0.6324  0.5455 -0.5468
 6126SOL    HW230015   0.995   3.822   1.479  1.0185  0.2367  0.3829
 6127SOL     OW30016   0.642   1.766   3.631  0.7701 -0.0415  0.1408
 6127SOL    HW130017   0.609   1.794   3.717 -0.1305 -0.3064 -0.1182
 6127SOL    HW230018   0.677   1.849   3.600  0.7294  0.8785  2.5131
 6128SOL     OW30019   1.426   3.941   3.478 -0.1550 -0.0115 -0.1785
 6128SOL    HW130020   1.450   3.850   3.495  0.2596  0.2542  0.6908
 6128SOL    HW230021   1.489   3.976   3.542 -1.6035 -1.9713  2.3095
 6129SOL     OW30022   2.722   2.651   7.718  0.7663 -0.5102 -0.2704
 6129SOL    HW130023   2.752   2.741   7.705 -1.7086  0.0607 -2.0350
 6129SOL    HW230024   2.806   2.604   7.720  1.4135  0.6394 -0.3291
 6130SOL     OW30025   0.272   3.913   4.763  0.6405 -0.0875 -0.4163
 6130SOL    HW130026   0.208   3.856   4.807  1.7867  0.0757  1.4934
 6130SOL    HW230027   0.219   3.991   4.750 -0.8626 -0.9014  0.7101
 6131SOL     OW30028   1.670   3.767   1.950  0.4490 -0.2485  0.4996
 6131SOL    HW130029   1.721   3.714   2.011 -0.7222 -0.4812  1.2810
 6131SOL    HW230030   1.734   3.825   1.907  1.2520 -1.0932  0.5543
 6132SOL     OW30031   2.232   3.009   6.825  0.1155 -0.0078 -0.5406
 6132SOL    HW130032   2.258   2.921   6.797 -0.9557 -0.3022 -0.6081
 6132SOL    HW230033   2.313   3.056   6.807 -0.5428  0.7751 -1.4579
 6133SOL     OW30034   2.285   0.274   0.359  0.5481  0.1430 -0.0610
 6133SOL    HW130035   2.322   0.219   0.428  1.4936  2.3956  1.2382
 6133SOL    HW230036   2.291   0.358   0.405  0.9392  0.2673 -0.3394
 6134SOL     OW30037   0.811   1.751   5.976  0.3057 -0.1446  0.1363
 6134SOL    HW130038   0.793   1.820   6.039  2.0007 -1.8408  2.4691
 6134SOL    HW230039   0.890   1.710   6.011  0.4575 -0.7507 -0.8892
 6135SOL     OW30040   4.064   2.685   6.046  0.3858 -0.5677  0.0724
 6135SOL    HW130041   4.074   2.590   6.060  1.1954 -0.4597  0.2167
 6135SOL    HW230042   3.981   2.695   6.000 -0.2579 -0.9301  1.1508
 6136SOL     OW30043   2.151   0.694  12.132 -0.2399  0.3688 -0.1475
 6136SOL    HW130044   2.242   0.678  12.105  0.4510  0.2702  2.2675
 6136SOL    HW230045   2.158   0.775  12.183  0.3956  0.9419 -1.1218
 6137SOL     OW30046   1.892   3.116   8.133 -0.0523 -0.4002 -1.3150
 6137SOL    HW130047   1.864   3.046   8.192  0.3793 -1.1178 -1.9607
 6137SOL    HW230048   1.814   3.128   8.079 -2.1213 -3.3829  1.0358
 6138SOL     OW30049   4.180   2.380   1.092  0.0349  0.6179 -0.2597
 6138SOL    HW130050   4.128   2.388   1.172  0.6517 -1.3179  0.3321
 6138SOL    HW230051   4.205   2.287   1.089  1.1698  0.9529 -1.0083
 6139SOL     OW30052   0.905   0.358   4.804 -0.9046  0.4037  0.1141
 6139SOL    HW130053   1.000   0.356   4.792 -0.8297  1.3873  0.5651
 6139SOL    HW230054   0.895   0.274   4.850 -0.5416  0.8524  1.0224
 6140SOL     OW30055   3.639   2.236   6.465 -0.1998 -0.2407 -0.2843
 6140SOL    HW130056   3.557   2.261   6.424  0.2091  0.7877 -0.4630
 6140SOL    HW230057   3.618   2.226   6.558  0.3018 -1.5210 -0.2977
 6141SOL     OW30058   1.631   0.111   9.725 -0.2560  0.3341  0.0199
 6141SOL    HW130059   1.682   0.184   9.690 -1.1259  0.3004 -1.3164
 6141SOL    HW230060   1.662   0.119   9.815 -0.3537 -2.4208  0.2892
 6142SOL     OW30061   0.154   3.679  12.860  0.4852  0.2763  0.4958
 6142SOL    HW130062   0.079   3.655  12.914 -0.2939  1.1083 -0.2239
 6142SOL    HW230063   0.225   3.671  12.924 -0.9697  0.1349  2.0789
 6143SOL     OW30064   2.676   0.963   6.419 -0.0654  0.6400  0.1735
 6143SOL    HW130065   2.681   1.059   6.418  0.5159  0.6190  0.9492
 6143SOL    HW230066   2.692   0.948   6.512  0.2813 -1.5619 -0.2527
 6144SOL     OW30067   0.089   0.890   6.760  0.3228 -0.4563  0.5523
 6144SOL    HW130068   0.084   0.872   6.667  0.5805 -0.9024  0.6250
 6144SOL    HW230069   0.069   0.806   6.800  2.4375 -0.3731  1.7975
 6145SOL     OW30070   4.025   0.594   3.025 -0.1726  0.8153  0.2218
 6145SOL    HW130071   4.050   0.585   2.933  1.3442  0.6203  0.6544
 6145SOL    HW230072   4.085   0.666   3.045 -0.9510  0.9538  2.1122
 6146SOL     OW30073   1.809   0.654   6.859  0.2208  0.4132  0.2462
 6146SOL    HW130074   1.804   0.671   6.765  0.6321  1.9106  0.4957
 6146SOL    HW230075   1.733   0.703   6.891 -0.7635 -0.2727 -1.0715
 6147SOL     OW30076   1.483   1.038  15.697  0.3786 -0.2136 -0.0470
 6147SOL    HW130077   1.578   1.032  15.695  0.4717  1.6565 -1.0033
 6147SOL    HW230078   1.460   0.975  15.629  0.0807 -1.7723  1.5112
 6148SOL     OW30079   0.927   0.900   7.584  0.4608  0.1797  0.4948
 6148SOL    HW130080   0.895   0.810   7.584  2.0865 -0.4029  0.1695
 6148SOL    HW230081   0.887   0.937   7.663 -1.1755 -1.4562  0.4290
 6149SOL     OW30082   4.079   1.666   2.397  0.4099 -0.1680 -0.0916
 6149SOL    HW130083   4.093   1.711   2.314  1.6067 -0.1837  0.0961
 6149SOL    HW230084   4.169   1.652   2.428  0.0410  1.2792  1.6529
 6150SOL     OW30085   2.565   4.026   5.138 -0.2385 -0.1099 -0.2118
 6150SOL    HW130086   2.556   3.998   5.047 -3.6049  0.9383 -0.2058
 6150SOL    HW230087   2.486   4.075   5.161 -0.3978 -1.1860  1.6026
 6151SOL     OW30088   1.879   2.949   5.912  0.3813 -0.1631 -0.1272
 6151SOL    HW130089   1.876   2.862   5.953  1.0757 -0.0863  0.0787
 6151SOL    HW230090   1.935   2.918   5.841  2.7425  3.2634  0.2709
 6152SOL     OW30091   2.156   3.650  13.420  0.2938 -0.1591 -0.3821
 6152SOL    HW130092   2.146   3.736  13.379  1.1679  1.0202  1.8505
 6152SOL    HW230093   2.231   3.673  13.476 -0.9919  0.7909  0.9328
 6153SOL     OW30094   1.813   4.427   3.852  0.0121 -0.0663 -0.4648
 6153SOL    HW130095   1.901   4.421   3.814  0.8575  2.6772  1.0615
 6153SOL    HW230096   1.835   4.406   3.943  1.6456  0.2661 -0.7915
 6154SOL     OW30097   2.258   1.826   7.414 -0.1468 -0.4322  0.0335
 6154SOL    HW130098   2.204   1.857   7.341 -0.2632 -1.9468 -0.5213
 6154SOL    HW230099   2.308   1.761   7.364  0.0036  0.5470 -1.0886
 6155SOL     OW30100   2.437   1.838  14.662  0.1910  0.1129 -0.0500
 6155SOL    HW130101   2.525   1.817  14.629  0.9517  1.6621  0.9926
 6155SOL    HW230102   2.397   1.756  14.690  2.2276 -1.5021 -1.8785
 6156SOL     OW30103   2.232   3.929  10.643  0.3029 -0.5539  0.7899
 6156SOL    HW130104   2.209   3.858  10.704 -2.1292  0.0843  0.6293
 6156SOL    HW230105   2.159   3.927  10.581  0.3954 -0.3722  0.6767
 6157SOL     OW30106   3.712   3.761   2.646  0.4144  0.0621 -0.2859
 6157SOL    HW130107   3.700   3.673   2.681  0.6215 -0.2665 -1.0405
 6157SOL    HW230108   3.772   3.804   2.706  0.4231 -0.3253 -0.0188
 6158SOL     OW30109   1.700   3.999   2.700 -0.2227  0.0651 -0.2450
 6158SOL    HW130110   1.674   3.965   2.785  1.0087  0.3278  0.2369
 6158SOL    HW230111   1.759   4.071   2.723 -0.0673  0.3494 -1.5119
 6159SOL     OW30112   1.917   1.813   7.485  0.1868 -0.1386  0.3078
 6159SOL    HW130113   2.011   1.818   7.465 -0.6721 -0.3142 -3.8615
 6159SOL    HW230114   1.883   1.860   7.409 -1.1262 -0.6062  0.6234
 6160SOL     OW30115   3.141   1.797   6.514 -0.7255 -0.2054  0.5318
 6160SOL    HW130116   3.191   1.876   6.535  1.1835 -0.7334 -1.9534
 6160SOL    HW230117   3.073   1.801   6.581 -0.6852 -1.1370  0.6296
 6161SOL     OW30118   3.342   0.673   7.129  0.3450 -0.5546 -0.4022
 6161SOL    HW130119   3.268   0.616   7.148  1.9653 -2.2753  0.7775
 6161SOL    HW230120   3.383   0.618   7.062  0.5822  1.3934 -1.8570
 6162SOL     OW30121   2.103   0.172   3.652  0.0887 -0.5113  0.2578
 6162SOL    HW130122   2.070   0.162   3.563  0.6943  0.1360 -0.0466
 6162SOL    HW230123   2.030   0.146   3.708 -1.9969  1.6876 -1.4512
 6163SOL     OW30124   2.970   4.609   7.158  0.1035  0.1173  0.3997
 6163SOL    HW130125   2.928   4.691   7.133  1.6289  1.6560  2.8348
 6163SOL    HW230126   3.012   4.642   7.238  0.7679 -1.5585  0.7270
 6164SOL     OW30127   1.511   0.405   4.056 -0.0695  0.4357 -0.0715
 6164SOL    HW130128   1.486   0.393   3.964 -1.9788 -1.9327  0.7735
 6164SOL    HW230129   1.575   0.476   4.047  0.4811  0.1223  1.3260
 6165SOL     OW30130   1.347   3.005   3.104 -0.2727  0.4150 -0.1228
 6165SOL    HW130131   1.321   3.093   3.132  1.0700  0.6493  0.3950
 6165SOL    HW230132   1.395   3.011   3.022  0.4892 -0.8854  0.2260
 6166SOL     OW30133   4.634   4.086   9.066 -0.1038  0.4380  0.1392
 6166SOL    HW130134   4.667   4.054   8.982 -3.3746 -0.9445 -0.6252
 6166SOL    HW230135   4.714   4.078   9.118 -0.7158 -1.9918  0.7079
 6167SOL     OW30136   4.709   0.787  14.253 -0.6494  0.3611 -0.6205
 6167SOL    HW130137   4.713   0.857  14.318  3.4514 -1.5551  1.2136
 6167SOL    HW230138   0.050   0.783  14.198 -0.1692  0.7187  0.0449
 6168SOL     OW30139   4.732   4.209   3.752  0.0452  0.2883  0.2514
 6168SOL    HW130140   0.076   4.186   3.795  0.6360  0.1159 -0.9640
 6168SOL    HW230141   4.672   4.234   3.822 -0.0125 -0.2539  0.3923
 6169SOL     OW30142   0.424   0.156   4.001  0.0167  0.1998  0.4528
 6169SOL    HW130143   0.346   0.143   4.055 -0.3000 -0.2106 -0.1090
 6169SOL    HW230144   0.438   0.061   3.998  1.5623  0.4500 -0.2304
 6170SOL     OW30145   2.350   0.058   3.804 -0.0546  0.2121  0.3824
 6170SOL    HW130146   2.297   0.116   3.859  0.1262  1.0091 -0.2809
 6170SOL    HW230147   2.439   0.092   3.819  0.3935  0.2384 -2.3519
 6171SOL     OW30148   3.139   3.638   5.631  0.4798  0.7617 -0.3553
 6171SOL    HW130149   3.079   3.651   5.558  0.2066  0.6794 -0.1465
 6171SOL    HW230150   3.228   3.647   5.599  1.3509 -0.5367  1.7152
 6172SOL     OW30151   1.827   4.005   5.350 -0.0043  0.6144  0.2044
 6172SOL    HW130152   1.847   3.921   5.308 -2.8780 -0.2196  0.4726
 6172SOL    HW230153   1.823   4.062   5.274 -0.8974  0.0690 -0.1586
 6173SOL     OW30154   4.149   4.251   3.843 -0.5495 -0.0286  0.2375
 6173SOL    HW130155   4.110   4.175   3.800 -0.3233  1.3149 -2.3498
 6173SOL    HW230156   4.108   4.226   3.926  0.0522 -1.5869  0.0770
 6174SOL     OW30157   3.024   3.482   6.710  0.1856  0.7458 -0.1930
 6174SOL    HW130158   2.942   3.497   6.663  1.3901  3.3232 -1.5108
 6174SOL    HW230159   3.068   3.567   6.715  1.5855 -0.0693  1.2774
 6175SOL     OW30160   1.842   1.149   4.276 -0.1853 -0.0884  0.2124
 6175SOL    HW130161   1.772   1.169   4.338  0.6714 -0.9464  1.4537
 6175SOL    HW230162   1.900   1.226   4.275 -1.6790  0.9934 -2.5154
 6176SOL     OW30163   0.942   2.276   6.197  0.2086 -0.1269 -0.0644
 6176SOL    HW130164   0.984   2.360   6.179 -0.1641  0.3173  1.1814
 6176SOL    HW230165   1.018   2.218   6.187 -1.6032 -2.1641 -1.9339
 6177SOL     OW30166   4.192   2.039   4.533 -0.0705  0.2914 -0.0964
 6177SOL    HW130167   4.111   2.035   4.584 -0.6208 -1.5950 -1.1176
 6177SOL    HW230168   4.152   2.036   4.446  1.5214  0.3420 -0.8265
 6178SOL     OW30169   3.990   2.035  11.599 -0.2102  0.7331 -0.0422
 6178SOL    HW130170   3.981   1.946  11.566  0.4469  0.6462  0.0057
 6178SOL    HW230171   4.038   2.011  11.679 -0.1987 -0.2686 -0.3545
 6179SOL     OW30172   2.374   3.824   0.733 -0.7720  0.1579  0.3158
 6179SOL    HW130173   2.292   3.858   0.769 -1.8536 -1.3560 -0.7232
 6179SOL    HW230174   2.432   3.852   0.804 -0.8324  0.4044  0.2681
 6180SOL     OW30175   1.249   4.426   8.838  0.1693  0.4977 -0.7735
 6180SOL    HW130176   1.169   4.478   8.824 -0.4388  0.0427  1.0213
 6180SOL    HW230177   1.233   4.357   8.903  1.8188  1.5970  0.7747
 6181SOL     OW30178   2.989   4.522   8.951 -0.1976  0.0340 -0.3317
 6181SOL    HW130179   2.913   4.481   8.994 -0.0089  1.2130  1.1248
 6181SOL    HW230180   3.047   4.447   8.937 -0.3674 -0.0837 -0.4070
 6182SOL     OW30181   0.941   1.147   9.311  0.2240 -0.2143  0.0942
 6182SOL    HW130182   0.939   1.053   9.296 -0.3342 -0.5599  2.2861
 6182SOL    HW230183   0.899   1.162   9.396  0.6816  2.0778 -0.0946
 6183SOL     OW30184   0.866   3.250   3.344  0.0585  0.0290  0.1305
 6183SOL    HW130185   0.784   3.298   3.328  0.1599  0.1416 -0.0469
 6183SOL    HW230186   0.859   3.180   3.279 -0.4937 -0.2267  0.4597
 6184SOL     OW30187   0.109   3.645   9.377 -0.1103  0.4138  0.0957
 6184SOL    HW130188   0.039   3.640   9.442 -0.6446  1.8452 -0.3806
 6184SOL    HW230189   0.132   3.738   9.383 -1.1583  0.6243  0.9753
 6185SOL     OW30190   2.108   1.873   6.015  0.3831  0.2971 -0.0963
 6185SOL    HW130191   2.134   1.815   6.086  0.4229 -1.2250 -1.3648
 6185SOL    HW230192   2.196   1.909   6.002  1.1197 -1.6477 -0.3608
 6186SOL     OW30193   4.060   3.102   3.718 -0.0752  0.3226  0.7091
 6186SOL    HW130194   3.990   3.043   3.692  0.2813  0.6996 -1.1330
 6186SOL    HW230195   4.124   3.086   3.649  0.3174 -1.7447  1.5512
 6187SOL     OW30196   3.334   2.248   9.499  0.0628 -0.6740 -0.0282
 6187SOL    HW130197   3.309   2.224   9.410 -0.4162  0.5881 -0.2428
 6187SOL    HW230198   3.381   2.331   9.487  0.2737 -0.9123 -0.8542
 6188SOL     OW30199   3.540   4.138  11.756 -0.6395  0.8730  0.1524
 6188SOL    HW130200   3.453   4.097  11.761  0.3832 -1.3702 -0.3242
 6188SOL    HW230201   3.600   4.072  11.790 -1.0258  0.6183  0.3454
 6189SOL     OW30202   4.738   1.545   4.226 -0.1900  0.1115  0.2859
 6189SOL    HW130203   4.699   1.613   4.171 -0.2162 -0.1763 -0.0495
 6189SOL    HW230204   4.681   1.549   4.303 -1.4776  0.3132 -0.6885
 6190SOL     OW30205   2.856   0.803   2.520 -0.3132  0.2375  0.3115
 6190SOL    HW130206   2.893   0.870   2.577 -0.6766 -0.1372  0.9882
 6190SOL    HW230207   2.888   0.841   2.438  0.3358  0.9759  0.9102
 6191SOL     OW30208   1.093   1.637   5.392  0.0903 -0.5482 -0.0312
 6191SOL    HW130209   1.020   1.612   5.449  0.0412 -0.5937 -0.1135
 6191SOL    HW230210   1.043   1.635   5.311 -3.1757 -1.9867  1.9929
 6192SOL     OW30211   3.019   3.781   8.966  0.3326  0.3706  0.2038
 6192SOL    HW130212   3.114   3.772   8.957  0.0260 -0.5299 -2.1677
 6192SOL    HW230213   2.995   3.693   8.995  0.2016  0.3796  0.1214
 6193SOL     OW30214   4.113   2.809  15.244  0.2838  0.4214  0.1855
 6193SOL    HW130215   4.022   2.798  15.272  0.4578 -0.8971  0.2588
 6193SOL    HW230216   4.125   2.903  15.254 -0.8793  0.9680 -3.6849
 6194SOL     OW30217   0.331   1.886   5.651  0.2183  0.2004  0.3214
 6194SOL    HW130218   0.330   1.981   5.653  1.2404  0.2203 -0.0893
 6194SOL    HW230219   0.364   1.860   5.565  0.0487  1.5639 -0.1503
 6195SOL     OW30220   3.164   3.661   5.293  0.2211 -0.4464  0.8668
 6195SOL    HW130221   3.170   3.753   5.318  1.1287 -0.0394 -0.8256
 6195SOL    HW230222   3.078   3.630   5.321  0.3531  1.1298  2.9273
 6196SOL     OW30223   3.599   2.461   4.407 -0.3217 -0.2558  0.0444
 6196SOL    HW130224   3.662   2.393   4.430  1.7463  1.4469 -0.6018
 6196SOL    HW230225   3.518   2.423   4.440 -0.2752  0.0915  0.5615
 6197SOL     OW30226   2.511   1.816   7.205  0.1552  0.3354  0.5272
 6197SOL    HW130227   2.464   1.734   7.189  0.2673  0.2924  0.4222
 6197SOL    HW230228   2.491   1.877   7.134  1.4511 -0.9087 -0.9032
 6198SOL     OW30229   2.637   4.356   9.978 -0.0399 -0.0327 -0.0946
 6198SOL    HW130230   2.669   4.351   9.888  0.5423  0.9151  0.0628
 6198SOL    HW230231   2.579   4.280   9.978 -0.2296  0.1123 -0.4713
 6199SOL     OW30232   1.041   3.387   4.582 -0.1667  0.4833  0.1012
 6199SOL    HW130233   1.038   3.359   4.674  1.3923 -0.9536 -0.2884
 6199SOL    HW230234   0.982   3.461   4.592  1.2831  1.5738  0.6928
 6200SOL     OW30235   0.493   4.143   7.520 -0.3179 -0.0170  0.1717
 6200SOL    HW130236   0.459   4.057   7.543 -0.7669  0.6653  2.1048
 6200SOL    HW230237   0.509   4.173   7.610  1.2863  0.4725 -0.2736
 6201SOL     OW30238   4.041   0.260   2.104  0.7542 -0.1618 -0.3415
 6201SOL    HW130239   4.078   0.345   2.080  1.4819 -0.2645  0.4284
 6201SOL    HW230240   4.015   0.284   2.194 -1.2094 -1.9106 -0.4254
 6202SOL     OW30241   2.063   3.318   9.385 -0.4932  0.0089 -0.2397
 6202SOL    HW130242   2.151   3.293   9.356 -0.5422 -1.2528  0.7037
 6202SOL    HW230243   2.019   3.249   9.434 -1.1006  0.1466 -0.5864
 6203SOL     OW30244   1.765   0.264  13.389 -0.3436 -0.2345 -0.0957
 6203SOL    HW130245   1.711   0.342  13.403  0.3574  0.4333 -1.0920
 6203SOL    HW230246   1.739   0.245  13.299  2.1026 -2.9406 -0.2115
 6204SOL     OW30247   1.214   2.540  14.346 -0.3490  0.1828  0.5492
 6204SOL    HW130248   1.267   2.609  14.305  0.0089  0.0649  0.8096
 6204SOL    HW230249   1.148   2.528  14.278 -0.8841  2.0066  0.7505
 6205SOL     OW30250   2.932   3.070   7.180 -0.2668 -0.0664  0.5039
 6205SOL    HW130251   2.856   3.102   7.132 -0.5486  0.2640  1.1656
 6205SOL    HW230252   2.960   3.148   7.229  0.2612  0.0105  0.0838
 6206SOL     OW30253   0.673   4.306   4.146  0.3145 -0.7937  0.3283
 6206SOL    HW130254   0.601   4.250   4.174  1.0051 -1.6362  0.4315
 6206SOL    HW230255   0.730   4.238   4.109  0.2164 -0.9165  0.4039
 6207SOL     OW30256   1.104   3.342  15.966  0.5473 -0.4195 -0.6422
 6207SOL    HW130257   1.182   3.365  16.018 -0.7396  0.1255  1.0693
 6207SOL    HW230258   1.041   3.294  16.020  0.3062  1.3570  0.6666
 6208SOL     OW30259   1.137   0.080   6.703  0.1841  0.2280  0.6206
 6208SOL    HW130260   1.095   0.084   6.789  0.9665  0.4063  0.9877
 6208SOL    HW230261   1.182   4.734   6.707 -0.0037  0.1977  2.0634
 6209SOL     OW30262   2.120   0.386   9.574  0.4597  0.0250  0.0667
 6209SOL    HW130263   2.146   0.321   9.509  2.5284  1.7180 -0.8104
 6209SOL    HW230264   2.155   0.336   9.648  0.3810 -1.3515 -0.8262
 6210SOL     OW30265   2.938   3.185   4.519 -0.4541 -0.4097 -0.4989
 6210SOL    HW130266   2.977   3.229   4.595 -2.1550  2.0444 -1.0465
 6210SOL    HW230267   3.007   3.133   4.478 -1.2223 -0.7050 -1.4051
 6211SOL     OW30268   2.261   0.025   1.595 -0.3081  0.3833  0.0276
 6211SOL    HW130269   2.317   0.103   1.595 -1.1111  0.9415 -1.2869
 6211SOL    HW230270   2.259   0.020   1.691  0.5959 -0.2191  0.0126
 6212SOL     OW30271   1.124   0.800   1.998 -0.5019  0.0514  0.2858
 6212SOL    HW130272   1.039   0.838   1.975 -0.1644 -0.3967 -1.7894
 6212SOL    HW230273   1.111   0.762   2.085  1.2582 -3.1167 -0.8272
 6213SOL     OW30274   0.970   0.829   0.955  0.6221  0.4631 -0.7355
 6213SOL    HW130275   0.931   0.772   0.889 -0.2797  1.3169 -0.9398
 6213SOL    HW230276   0.898   0.826   1.017 -0.0700 -1.6033 -1.6449
 6214SOL     OW30277   0.339   1.405  14.548 -0.3078  0.7406 -0.2101
 6214SOL    HW130278   0.292   1.481  14.582  0.5374  1.0852  0.1944
 6214SOL    HW230279   0.268   1.369  14.496 -0.3049 -1.8698  1.6136
 6215SOL     OW30280   3.151   0.193   9.475 -0.1933  0.4068  0.2140
 6215SOL    HW130281   3.123   0.283   9.492  0.4251  0.9215 -1.4671
 6215SOL    HW230282   3.140   0.200   9.380  0.8108 -1.5811 -0.0430
 6216SOL     OW30283   0.789   0.220   7.429 -0.1217  0.1844  0.0934
 6216SOL    HW130284   0.738   0.171   7.493  0.1791 -1.4060 -0.8749
 6216SOL    HW230285   0.773   0.167   7.351 -0.5495 -1.9496  1.6213
 6217SOL     OW30286   1.287   3.001   6.394 -0.1360 -0.0715 -0.5107
 6217SOL    HW130287   1.280   3.096   6.387 -1.3195  0.0179  1.7256
 6217SOL    HW230288   1.261   2.967   6.308  0.8581 -1.0132 -0.4399
 6218SOL     OW30289   3.167   0.752   4.109 -0.4692  0.2077  0.2226
 6218SOL    HW130290   3.080   0.739   4.148 -0.9950  1.4898 -0.5158
 6218SOL    HW230291   3.183   0.832   4.158 -1.1974 -1.4850  3.2697
 6219SOL     OW30292   0.679   4.231   2.923  0.2778 -0.0176  0.7211
 6219SOL    HW130293   0.670   4.324   2.944  0.5286 -0.2414  1.8563
 6219SOL    HW230294   0.610   4.190   2.976  0.0136  0.2939  0.6211
 6220SOL     OW30295   0.603   2.663  13.774 -0.2327 -0.0010 -0.1714
 6220SOL    HW130296   0.511   2.689  13.765 -0.5931 -1.7164 -1.4329
 6220SOL    HW230297   0.603   2.571  13.803  1.7069  0.1308  0.2872
 6221SOL     OW30298   1.291   1.447  17.544  0.3534  1.2249  0.4308
 6221SOL    HW130299   1.226   1.434  17.612 -1.2207  1.0731 -1.1134
 6221SOL    HW230300   1.314   1.356  17.526 -3.9480 -0.2373  2.4743
 6222SOL     OW30301   0.863   1.032  14.411  0.1767 -0.2779 -0.0957
 6222SOL    HW130302   0.892   1.062  14.325 -0.1251 -1.0556 -0.4681
 6222SOL    HW230303   0.949   1.013  14.449  0.2146 -0.1620 -0.1238
 6223SOL     OW30304   2.053   2.047   7.835  0.2769  0.4060 -0.3625
 6223SOL    HW130305   2.098   2.042   7.751 -1.3073 -2.6816 -1.0175
 6223SOL    HW230306   1.963   2.029   7.808  0.2604  1.1047 -0.7785
 6224SOL     OW30307   4.593   0.071  11.928 -0.2397  0.3348  0.8502
 6224SOL    HW130308   4.640   0.120  11.860 -1.7725  1.4086  0.5597
 6224SOL    HW230309   4.648   4.731  11.926 -1.3551 -0.4877  2.1751
 6225SOL     OW30310   2.778   0.054   8.312  0.0601  0.2785  0.4959
 6225SOL    HW130311   2.801   0.145   8.329 -1.4032 -0.2785  5.2564
 6225SOL    HW230312   2.773   0.014   8.399 -0.1435 -2.4557 -0.7544
 6226SOL     OW30313   1.337   2.348   6.951 -0.3392  0.0011 -0.0217
 6226SOL    HW130314   1.430   2.326   6.948  0.2169  1.9402  2.5344
 6226SOL    HW230315   1.309   2.370   6.862 -1.5680  1.5924  0.7651
 6227SOL     OW30316   0.927   4.634   3.451 -0.6026 -0.6678 -0.4662
 6227SOL    HW130317   0.971   4.629   3.366 -0.0955  1.6010 -0.3478
 6227SOL    HW230318   0.835   4.654   3.435 -0.4206 -0.1006 -0.8159
 6228SOL     OW30319   4.521   0.117   7.662 -0.3536  0.3344 -0.3011
 6228SOL    HW130320   4.545   0.200   7.703  0.9579 -1.3705  2.4399
 6228SOL    HW230321   4.493   0.151   7.577  1.1525  0.1401 -0.8809
 6229SOL     OW30322   0.160   4.691   2.445 -0.2213 -0.4809  0.0659
 6229SOL    HW130323   0.178   0.046   2.432  1.3892 -0.9801 -1.2200
 6229SOL    HW230324   0.226   4.645   2.394  0.0684 -1.3942  1.2523
 6230SOL     OW30325   4.228   4.406   4.274  0.4487 -0.0061 -0.2075
 6230SOL    HW130326   4.205   4.499   4.284 -0.2334 -0.2042  0.0309
 6230SOL    HW230327   4.206   4.366   4.358  0.3421  2.3054  0.8644
 6231SOL     OW30328   2.421   0.546   1.391 -0.2964 -0.7483  1.0830
 6231SOL    HW130329   2.434   0.544   1.486  0.6944 -0.9159  0.9470
 6231SOL    HW230330   2.326   0.550   1.379 -0.6621  2.0395  4.9200
 6232SOL     OW30331   1.484   0.948  11.497  0.4163  0.3533  0.2133
 6232SOL    HW130332   1.473   0.968  11.403  0.6412  0.5811  0.2343
 6232SOL    HW230333   1.489   0.853  11.495  1.7687  0.4084  0.7665
 6233SOL     OW30334   0.723   2.443   0.503  0.1016 -0.4501 -0.5184
 6233SOL    HW130335   0.678   2.526   0.518 -1.1641 -1.3710  0.8337
 6233SOL    HW230336   0.733   2.443   0.408  1.5366 -0.2783 -0.3563
 6234SOL     OW30337   4.324   3.451   4.588 -0.5353  0.5765  0.3419
 6234SOL    HW130338   4.279   3.370   4.564 -2.2806  0.9554  2.4055
 6234SOL    HW230339   4.293   3.474   4.675 -1.6098  3.0760 -0.6891
 6235SOL     OW30340   2.363   2.777   9.569 -0.2442 -0.8288  0.6530
 6235SOL    HW130341   2.413   2.730   9.503 -1.0357  0.8847 -1.1737
 6235SOL    HW230342   2.293   2.822   9.521  2.3470  0.6803 -1.6968
 6236SOL     OW30343   0.191   2.169  14.578  0.3452  0.1035 -0.5746
 6236SOL    HW130344   0.218   2.188  14.667 -3.1868  0.9381  0.3210
 6236SOL    HW230345   0.116   2.111  14.595  0.9995 -1.0041 -1.4182
 6237SOL     OW30346   4.685   3.099   2.010 -0.4925 -0.1992  0.5200
 6237SOL    HW130347   4.649   3.027   2.062 -1.0879  0.9064  1.6413
 6237SOL    HW230348   4.612   3.160   2.025 -0.0074  0.6704 -0.6750
 6238SOL     OW30349   2.336   1.730  17.282 -0.0657  0.1563 -0.0340
 6238SOL    HW130350   2.374   1.643  17.297 -1.1426 -0.4101 -0.6200
 6238SOL    HW230351   2.388   1.786  17.340  1.4956  0.6411 -1.8977
 6239SOL     OW30352   3.224   2.859   9.205  0.6302 -0.4374 -0.6811
 6239SOL    HW130353   3.292   2.841   9.141  2.3981  1.1454  0.7394
 6239SOL    HW230354   3.231   2.955   9.206  0.1008 -0.4295  2.9552
 6240SOL     OW30355   0.659   3.429  16.553  0.4043 -0.2341 -0.8887
 6240SOL    HW130356   0.716   3.357  16.525 -1.1804 -0.7644 -2.7419
 6240SOL    HW230357   0.658   3.470  16.467 -1.9443  0.9553 -0.2849
 6241SOL     OW30358   1.115   0.519   0.641 -0.0588 -0.8900 -0.2436
 6241SOL    HW130359   1.147   0.479   0.561  2.2189  0.4927 -0.0058
 6241SOL    HW230360   1.192   0.537   0.695 -0.6927  1.9800 -0.3327
 6242SOL     OW30361   4.583   0.018   6.360 -0.1739 -0.3415 -0.2686
 6242SOL    HW130362   4.563   4.677   6.409  1.4956 -0.6074 -0.0373
 6242SOL    HW230363   4.549   0.084   6.420 -2.6369 -3.2153  1.5495
 6243SOL     OW30364   3.632   1.374  12.066 -0.2890  0.3228 -0.1658
 6243SOL    HW130365   3.636   1.309  12.136 -1.9048  1.4669  0.9922
 6243SOL    HW230366   3.538   1.376  12.044 -0.6535 -0.7332  1.2982
 6244SOL     OW30367   1.900   2.527   6.236 -0.0235 -0.4665 -0.2232
 6244SOL    HW130368   1.861   2.591   6.296 -1.9560 -2.4834  0.6965
 6244SOL    HW230369   1.845   2.455   6.267 -1.2135  0.5852  0.1264
 6245SOL     OW30370   3.656   0.169   1.130  0.0578 -0.1700  0.0521
 6245SOL    HW130371   3.659   0.134   1.041  1.7014  1.3707 -0.5059
 6245SOL    HW230372   3.696   0.093   1.173 -0.4315 -1.6721 -2.1242
 6246SOL     OW30373   0.562   2.329   9.380  0.1618 -0.7381  0.4664
 6246SOL    HW130374   0.485   2.275   9.399 -2.2494  2.5818  0.0552
 6246SOL    HW230375   0.538   2.343   9.289 -2.4734 -1.0747  1.1059
 6247SOL     OW30376   1.732   1.000   1.078 -0.0259  0.2812  0.1928
 6247SOL    HW130377   1.804   1.047   1.035 -1.0286  2.1889  0.6164
 6247SOL    HW230378   1.749   0.912   1.046 -1.0567 -0.1422  0.8382
 6248SOL     OW30379   4.575   1.235   3.700  0.5698  0.0832  0.5241
 6248SOL    HW130380   4.644   1.300   3.692 -0.3619  1.0461  0.2947
 6248SOL    HW230381   4.559   1.243   3.794 -1.2379 -0.4978  0.2665
 6249SOL     OW30382   2.337   3.235  10.959  0.0425  0.1702  0.5217
 6249SOL    HW130383   2.348   3.272  11.046  1.4229 -0.6467  0.6801
 6249SOL    HW230384   2.261   3.178  10.968 -1.6363  2.5028  1.2463
 6250SOL     OW30385   0.743   2.485  13.529  0.2309  0.0923 -0.8176
 6250SOL    HW130386   0.664   2.430  13.537  0.5410 -0.0526  1.1629
 6250SOL    HW230387   0.785   2.448  13.452  1.9988  1.2464 -0.3860
 6251SOL     OW30388   1.799   1.018   9.359  0.2588 -0.8448  0.1143
 6251SOL    HW130389   1.741   1.021   9.435  1.3128 -0.0547  0.8841
 6251SOL    HW230390   1.873   0.964   9.389 -1.0558 -1.2103  2.7328
 6252SOL     OW30391   4.116   2.578   3.278  0.2786  0.2978 -0.3188
 6252SOL    HW130392   4.102   2.611   3.189  3.4398  0.5909 -0.7068
 6252SOL    HW230393   4.209   2.557   3.282  0.2374 -0.0808 -1.3116
 6253SOL     OW30394   1.104   2.212  12.009 -0.2941  0.0782  0.2705
 6253SOL    HW130395   1.121   2.171  11.923 -0.4367 -0.1071  0.3307
 6253SOL    HW230396   1.018   2.242  11.980  0.6174  0.8713 -1.6532
 6254SOL     OW30397   3.674   0.169  16.047 -0.3620  0.2408  0.0623
 6254SOL    HW130398   3.669   0.158  15.952  2.2580  1.9101 -0.2795
 6254SOL    HW230399   3.750   0.116  16.071 -0.7990  0.4506  1.9027
 6255SOL     OW30400   1.392   0.365   9.694 -0.1923  0.3290 -0.3339
 6255SOL    HW130401   1.458   0.327   9.752 -1.2984 -1.8056 -0.4818
 6255SOL    HW230402   1.417   0.457   9.701 -0.5112  0.2928  1.1960
 6256SOL     OW30403   3.063   1.814  10.427 -0.1716 -0.4608  0.4219
 6256SOL    HW130404   3.127   1.855  10.484  0.7041 -0.6081 -0.4639
 6256SOL    HW230405   2.992   1.815  10.491 -0.1188 -0.2586  0.4779
 6257SOL     OW30406   3.047   0.539   8.380  0.1779 -0.2719 -0.0532
 6257SOL    HW130407   3.113   0.574   8.320 -0.2030 -0.9979 -0.8818
 6257SOL    HW230408   3.095   0.457   8.395 -2.5310 -1.5335  1.6595
 6258SOL     OW30409   1.106   2.070  11.785 -0.5473 -0.1890 -0.3461
 6258SOL    HW130410   1.082   1.979  11.773  0.0884 -0.1843 -1.7344
 6258SOL    HW230411   1.047   2.111  11.722  1.1001  0.2867 -1.6045
 6259SOL     OW30412   0.315   4.243   3.884 -0.3232  0.3408 -0.2355
 6259SOL    HW130413   0.322   4.324   3.935  0.0544  1.1253 -1.5476
 6259SOL    HW230414   0.295   4.194   3.964 -0.1373 -1.7175 -1.4488
 6260SOL     OW30415   0.366   3.394   3.916  0.3167 -0.0463  0.2843
 6260SOL    HW130416   0.305   3.458   3.953 -2.3765 -2.1239 -0.4831
 6260SOL    HW230417   0.295   3.330   3.909 -1.1309  1.5130  0.8307
 6261SOL     OW30418   2.045   0.226  16.538 -0.1626 -0.0099 -0.1031
 6261SOL    HW130419   2.108   0.201  16.470  0.9548  0.5263  0.7374
 6261SOL    HW230420   2.031   0.318  16.516 -1.8795 -0.7651 -2.2526
 6262SOL     OW30421   1.509   2.749   6.048 -0.1102 -0.2454 -0.6462
 6262SOL    HW130422   1.491   2.825   5.992 -1.9487 -0.1828  0.0288
 6262SOL    HW230423   1.535   2.790   6.130 -0.6989 -3.7592  1.2543
 6263SOL     OW30424   3.998   1.061   0.221  0.4581  0.3923  0.0759
 6263SOL    HW130425   3.946   1.086   0.144 -0.0222  0.4153  0.4107
 6263SOL    HW230426   3.951   0.990   0.266  0.1110 -1.5651 -3.3491
 6264SOL     OW30427   1.377   2.047   5.310 -0.3634 -0.0008 -0.3290
 6264SOL    HW130428   1.352   2.112   5.244  0.5335 -0.5298 -1.1731
 6264SOL    HW230429   1.354   1.967   5.264 -2.8131  0.5380 -0.0704
 6265SOL     OW30430   1.205   4.678   1.491  0.3216  0.4689  0.3031
 6265SOL    HW130431   1.186   4.738   1.419 -2.1105  0.1273  0.6901
 6265SOL    HW230432   1.292   4.644   1.469  0.3726  0.4022  0.6036
 6266SOL     OW30433   1.511   3.143  11.748 -0.8178 -0.0602  0.1776
 6266SOL    HW130434   1.565   3.080  11.702 -1.3360 -0.8293  0.6259
 6266SOL    HW230435   1.465   3.084  11.808  2.2331 -1.1924  1.3946
 6267SOL     OW30436   4.582   4.711   6.654 -0.1653 -0.3339 -0.0439
 6267SOL    HW130437   4.544   4.657   6.723  2.4004 -0.1709  1.4835
 6267SOL    HW230438   4.544   0.058   6.675 -2.5930 -1.7860  1.3612
 6268SOL     OW30439   4.201   1.683  14.436  0.5484  0.7821 -0.1738
 6268SOL    HW130440   4.110   1.676  14.462  1.1922 -1.8798  1.3708
 6268SOL    HW230441   4.233   1.602  14.476  0.5230  0.4837 -0.7687
 6269SOL     OW30442   0.973   2.478   2.901 -0.2057  0.0024 -0.0863
 6269SOL    HW130443   0.946   2.397   2.859 -0.6506 -1.0055  2.1666
 6269SOL    HW230444   1.055   2.450   2.942 -0.0833  0.6260  0.0973
 6270SOL     OW30445   1.022   3.957   7.486  0.3113 -0.2327 -0.4565
 6270SOL    HW130446   0.975   4.040   7.492 -0.9666 -1.1938  2.4176
 6270SOL    HW230447   1.099   3.997   7.445  1.4183 -2.1407 -0.2550
 6271SOL     OW30448   3.511   1.335  17.185  0.0842  0.1830 -0.0838
 6271SOL    HW130449   3.515   1.415  17.131 -0.2327  0.9316  0.9973
 6271SOL    HW230450   3.427   1.347  17.229 -0.3701  0.8629 -1.1200
 6272SOL     OW30451   2.383   0.083   0.559  0.2013 -0.0446  0.0658
 6272SOL    HW130452   2.334   0.141   0.618 -2.8860 -3.0501  0.4954
 6272SOL    HW230453   2.315   0.029   0.518 -0.8179  1.1104  0.2196
 6273SOL     OW30454   2.669   0.526   6.464  0.0524  0.2727  0.2701
 6273SOL    HW130455   2.647   0.443   6.422 -0.7781  1.0748 -0.8478
 6273SOL    HW230456   2.645   0.586   6.394 -3.3182 -1.5367 -0.1292
 6274SOL     OW30457   0.125   4.731   6.649  0.0155 -0.3448 -0.6887
 6274SOL    HW130458   0.123   0.088   6.637 -2.2546 -0.2002  0.9454
 6274SOL    HW230459   0.034   4.710   6.630 -0.5290  1.4529 -0.0790
 6275SOL     OW30460   4.305   2.871   9.507  0.5713  0.3022  0.1376
 6275SOL    HW130461   4.390   2.871   9.551 -0.5659  1.0123  2.3423
 6275SOL    HW230462   4.267   2.932   9.570 -0.5886 -0.3239  0.0282
 6276SOL     OW30463   0.960   0.376   5.374 -0.3135 -0.2634  0.3055
 6276SOL    HW130464   0.917   0.416   5.298 -1.3108  0.4212  1.2204
 6276SOL    HW230465   1.033   0.438   5.375 -1.2060  0.7762  1.0188
 6277SOL     OW30466   1.030   3.915   7.181  0.4138 -0.8606  0.1374
 6277SOL    HW130467   1.056   3.967   7.105 -0.6567 -1.1766 -0.4389
 6277SOL    HW230468   0.959   3.970   7.215  1.2518 -0.2943  0.9653
 6278SOL     OW30469   2.647   2.375   6.491  0.4141 -0.0714  0.2895
 6278SOL    HW130470   2.613   2.348   6.406 -0.1064 -0.7944  0.7290
 6278SOL    HW230471   2.571   2.424   6.521 -0.3755 -0.0524 -1.7778
 6279SOL     OW30472   0.953   0.544   5.891  0.2694 -0.0953  0.0661
 6279SOL    HW130473   0.949   0.640   5.899  0.5124 -0.0597 -0.2242
 6279SOL    HW230474   0.872   0.515   5.932 -1.0598 -0.7806 -2.9997
 6280SOL     OW30475   4.034   2.575   1.830 -0.0857 -0.1819  0.7092
 6280SOL    HW130476   3.994   2.636   1.768  0.8980  0.6331  0.8644
 6280SOL    HW230477   4.122   2.574   1.793  0.0313 -0.6090  0.9976
 6281SOL     OW30478   3.785   2.576   0.709  0.0618 -0.2350  0.1214
 6281SOL    HW130479   3.784   2.625   0.791  0.1451  2.1597 -1.3229
 6281SOL    HW230480   3.769   2.487   0.740  1.5977  1.0233  4.4931
 6282SOL     OW30481   2.552   1.859   6.555 -0.0283  0.0851 -0.0199
 6282SOL    HW130482   2.498   1.872   6.477 -1.1993 -0.2937  0.7340
 6282SOL    HW230483   2.637   1.892   6.525  1.1358 -1.9632  1.0492
 6283SOL     OW30484   2.386   1.840   7.695 -0.2476 -0.3781 -0.2539
 6283SOL    HW130485   2.417   1.749   7.697  1.2879  0.1350 -0.7436
 6283SOL    HW230486   2.331   1.845   7.617 -0.3012 -0.0923 -0.1982
 6284SOL     OW30487   3.633   3.709   9.857  0.5254 -0.0024  0.1208
 6284SOL    HW130488   3.571   3.728   9.927 -0.1642  1.5353 -0.9215
 6284SOL    HW230489   3.658   3.798   9.834  0.8655 -0.0439  0.3287
 6285SOL     OW30490   2.277   3.399  13.296  0.2675  0.2255  0.0263
 6285SOL    HW130491   2.333   3.450  13.353 -0.4907  2.2546 -1.0182
 6285SOL    HW230492   2.267   3.462  13.224  1.4804  1.2952  0.8092
 6286SOL     OW30493   0.333   4.471   8.812  0.4614 -0.0909  0.3294
 6286SOL    HW130494   0.246   4.474   8.771  1.5607  1.0923 -1.8491
 6286SOL    HW230495   0.313   4.468   8.906  2.1487 -0.1681  0.6824
 6287SOL     OW30496   0.585   0.711   4.417 -0.0485  0.0443 -0.1958
 6287SOL    HW130497   0.584   0.618   4.391  0.3960 -0.2347  0.7930
 6287SOL    HW230498   0.496   0.744   4.407 -0.4104 -0.9820 -0.3754
 6288SOL     OW30499   3.510   2.820   3.421  0.7122 -0.6383 -0.0876
 6288SOL    HW130500   3.532   2.848   3.510 -0.4178 -0.6473  0.1952
 6288SOL    HW230501   3.594   2.840   3.380  0.0313  0.8175 -0.7705
 6289SOL     OW30502   4.601   0.542  14.339 -0.3390 -0.3992 -0.1869
 6289SOL    HW130503   4.620   0.627  14.299  2.2617  0.1498  2.2362
 6289SOL    HW230504   4.506   0.545  14.355 -0.4540  0.7692 -1.0608
 6290SOL     OW30505   0.104   3.460   2.394 -0.0026 -0.6192 -1.0253
 6290SOL    HW130506   0.103   3.397   2.322 -1.7215 -1.8145  0.0646
 6290SOL    HW230507   0.182   3.511   2.371  1.3225 -3.0172 -1.8164
 6291SOL     OW30508   2.133   3.113   0.229 -0.4603  0.3922 -0.2672
 6291SOL    HW130509   2.093   3.114   0.316 -0.8268  2.3716 -0.4579
 6291SOL    HW230510   2.156   3.204   0.211  1.1386 -0.0294 -0.3398
 6292SOL     OW30511   0.985   4.676  15.919 -0.3652  0.2461 -0.7177
 6292SOL    HW130512   1.006   0.017  15.869  1.9049 -0.4756 -0.9218
 6292SOL    HW230513   1.065   4.623  15.910 -0.7367 -0.4523  0.1631
 6293SOL     OW30514   1.058   2.914   5.205  0.2887  0.0173 -0.0866
 6293SOL    HW130515   1.109   2.993   5.185  0.6493  0.0785  1.0953
 6293SOL    HW230516   1.069   2.903   5.300  0.9914  2.3207  0.1001
 6294SOL     OW30517   4.460   1.972   2.778 -0.1726 -0.1933 -0.4869
 6294SOL    HW130518   4.542   2.019   2.764 -0.7283  0.7754 -0.4972
 6294SOL    HW230519   4.437   2.012   2.862 -1.1263 -2.7421  0.4655
 6295SOL     OW30520   0.676   1.976  10.092 -0.0679 -0.2273 -0.0668
 6295SOL    HW130521   0.658   2.007  10.181  1.4246  0.6420 -0.0495
 6295SOL    HW230522   0.720   1.895  10.119  1.9864  0.2927 -1.7939
 6296SOL     OW30523   2.792   2.801  15.331  0.0590 -0.0347 -0.5381
 6296SOL    HW130524   2.789   2.767  15.241  2.0949  0.3114 -0.7205
 6296SOL    HW230525   2.729   2.873  15.325 -0.5781 -0.3495  2.5880
 6297SOL     OW30526   2.428   3.613   6.792  0.3876 -0.3865 -0.0762
 6297SOL    HW130527   2.402   3.664   6.869 -0.6071 -1.6124  0.4185
 6297SOL    HW230528   2.358   3.630   6.729  0.4253 -1.9855 -0.5367
 6298SOL     OW30529   0.547   0.571  12.319 -0.2111  0.4052 -0.5237
 6298SOL    HW130530   0.567   0.581  12.412  0.3788 -0.2986 -0.5759
 6298SOL    HW230531   0.477   0.507  12.328  0.5174 -0.0353  2.0300
 6299SOL     OW30532   3.312   2.438   9.832 -0.2238 -0.1177 -0.4620
 6299SOL    HW130533   3.240   2.420   9.771 -0.1230 -2.0595 -0.0326
 6299SOL    HW230534   3.377   2.484   9.779  0.1411 -1.9350 -1.6016
 6300SOL     OW30535   4.170   0.143  12.207 -0.1195 -0.4300 -0.4516
 6300SOL    HW130536   4.155   0.100  12.291  0.7155 -3.4355 -1.8269
 6300SOL    HW230537   4.081   0.174  12.195  0.0989  0.8397  1.2976
 6301SOL     OW30538   3.052   0.386   4.224  0.1646  0.2179 -0.1110
 6301SOL    HW130539   3.102   0.307   4.206 -1.7712 -0.8671 -0.6666
 6301SOL    HW230540   3.081   0.434   4.146  4.0186  1.5209  2.0699
 6302SOL     OW30541   1.072   0.925   3.622 -0.5822  0.0841  0.1882
 6302SOL    HW130542   1.142   0.915   3.557 -0.5155  2.1150 -0.0430
 6302SOL    HW230543   1.012   0.858   3.589 -1.9304  1.7400 -0.6838
 6303SOL     OW30544   3.532   4.004   3.609 -0.1703  0.5150 -0.1591
 6303SOL    HW130545   3.591   3.976   3.679 -3.0343  3.2031  3.2874
 6303SOL    HW230546   3.503   3.920   3.575  0.2005 -0.1407  1.1691
 6304SOL     OW30547   4.482   2.750   2.013 -0.0163  0.5793 -0.1280
 6304SOL    HW130548   4.494   2.719   1.923 -2.1527  2.8271 -1.1783
 6304SOL    HW230549   4.435   2.833   2.011 -0.3571  0.4351  1.9327
 6305SOL     OW30550   1.496   2.244   2.205  0.0583 -0.1904  0.8370
 6305SOL    HW130551   1.448   2.188   2.144  0.8894  1.0633 -0.9658
 6305SOL    HW230552   1.444   2.248   2.285  2.6316 -1.9345  2.5925
 6306SOL     OW30553   2.878   1.443   7.665  0.3948  0.0548  0.0160
 6306SOL    HW130554   2.877   1.535   7.693 -0.0969 -0.0297  0.2732
 6306SOL    HW230555   2.822   1.410   7.735  0.1184 -1.7814 -1.0846
 6307SOL     OW30556   2.711   2.671   5.235 -0.0527  0.5627 -0.3742
 6307SOL    HW130557   2.780   2.730   5.203  1.2473 -0.5338  0.4073
 6307SOL    HW230558   2.752   2.585   5.241 -1.0039  0.4103  3.5600
 6308SOL     OW30559   0.668   1.069   7.884 -0.0064 -0.1721  0.4486
 6308SOL    HW130560   0.590   1.043   7.934 -0.7629  0.7658 -0.2402
 6308SOL    HW230561   0.630   1.142   7.834 -1.0361 -2.3299 -1.9111
 6309SOL     OW30562   4.103   4.515   8.667 -0.3995  0.4291  0.0032
 6309SOL    HW130563   4.021   4.548   8.630 -0.1430 -1.8224 -2.6322
 6309SOL    HW230564   4.140   4.486   8.584 -0.2088  0.4430  0.0839
 6310SOL     OW30565   1.564   3.609  16.072 -0.4159  0.1152  0.2460
 6310SOL    HW130566   1.593   3.649  16.155 -1.8010  1.3440  0.1434
 6310SOL    HW230567   1.581   3.677  16.007 -1.0598 -0.1064 -0.1547
 6311SOL     OW30568   0.758   0.319   5.578 -0.2942  0.0568 -0.6616
 6311SOL    HW130569   0.837   0.339   5.527 -0.2676  0.4365 -0.4727
 6311SOL    HW230570   0.794   0.274   5.654 -0.0430  0.5548 -0.4844
 6312SOL     OW30571   4.441   0.763   6.932 -0.0931 -0.1639 -0.4571
 6312SOL    HW130572   4.404   0.716   6.857 -0.0896 -2.9066  1.2481
 6312SOL    HW230573   4.486   0.829   6.880 -0.0533  0.0776 -0.1133
 6313SOL     OW30574   1.471   0.095   5.630  0.2492  0.2946 -0.2491
 6313SOL    HW130575   1.437   0.024   5.684  0.3691 -1.6186 -2.7245
 6313SOL    HW230576   1.491   0.052   5.548  0.1494  0.2319 -0.2405
 6314SOL     OW30577   3.556   2.021   3.969 -0.1151 -0.5716 -0.7027
 6314SOL    HW130578   3.628   2.049   3.913  1.0488  0.5113  1.3052
 6314SOL    HW230579   3.547   1.928   3.949 -1.5629 -1.2272  2.8818
 6315SOL     OW30580   3.452   1.613   2.148  0.1675  0.2519 -0.4494
 6315SOL    HW130581   3.528   1.556   2.154 -1.2541 -1.9536 -3.4405
 6315SOL    HW230582   3.433   1.634   2.240  1.8868 -0.1324 -0.0101
 6316SOL     OW30583   0.114   4.150   5.021  0.3366  0.2494  0.0470
 6316SOL    HW130584   0.055   4.224   5.038  1.9911  1.1988  1.6145
 6316SOL    HW230585   0.177   4.145   5.093  1.9590  0.7214 -1.3574
 6317SOL     OW30586   3.138   0.040   6.085  0.2139 -0.1873 -0.3586
 6317SOL    HW130587   3.103   0.111   6.031 -1.2961  0.5614  1.6081
 6317SOL    HW230588   3.057   0.002   6.119 -1.1833  2.2899 -0.8962
 6318SOL     OW30589   4.190   3.523   7.974 -0.5451  0.3465 -0.4209
 6318SOL    HW130590   4.200   3.560   8.062 -1.0654 -0.5883  0.0331
 6318SOL    HW230591   4.153   3.597   7.926  0.5378  2.2643  1.7419
 6319SOL     OW30592   3.061   4.225   9.473 -0.0132  0.0978 -0.5924
 6319SOL    HW130593   3.148   4.265   9.469  0.9573 -2.3111 -3.6563
 6319SOL    HW230594   3.011   4.303   9.447  1.3944  0.7946 -1.1986
 6320SOL     OW30595   3.712   3.125   5.869 -0.5704 -0.4689 -0.2880
 6320SOL    HW130596   3.794   3.088   5.901  1.1040  3.0783 -0.4632
 6320SOL    HW230597   3.691   3.195   5.931  0.0884  0.4865 -1.1446
 6321SOL     OW30598   0.668   2.575  14.499  0.0211 -0.1035  0.1154
 6321SOL    HW130599   0.659   2.646  14.435 -0.1238  0.3330  0.6186
 6321SOL    HW230600   0.754   2.541  14.473 -0.5784 -1.6543  0.1341
 6322SOL     OW30601   2.520   1.268   3.461 -0.7720  0.2826  0.1074
 6322SOL    HW130602   2.452   1.201   3.472 -0.4346 -0.0681  0.0886
 6322SOL    HW230603   2.473   1.341   3.501  0.8664  0.8085  1.0620
 6323SOL     OW30604   4.342   3.383   5.731 -0.1256  0.4260  0.5651
 6323SOL    HW130605   4.250   3.366   5.751 -0.3639  0.9303 -0.0971
 6323SOL    HW230606   4.341   3.380   5.636 -0.2364  2.0554  0.5262
 6324SOL     OW30607   2.850   2.762  11.003  0.0314  0.1838  0.0499
 6324SOL    HW130608   2.920   2.756  10.938  0.1856 -0.1396  0.2513
 6324SOL    HW230609   2.791   2.697  10.965  0.5866 -2.2752  3.4118
 6325SOL     OW30610   2.805   2.042  13.625  0.1000 -0.1858  0.5214
 6325SOL    HW130611   2.734   2.062  13.686  0.8127  2.5266  0.4745
 6325SOL    HW230612   2.776   1.966  13.574 -1.6413  0.8882 -0.0762
 6326SOL     OW30613   1.920   0.767   5.450  0.1150 -0.1958  0.0684
 6326SOL    HW130614   1.902   0.859   5.472 -1.0524 -0.2312 -0.8033
 6326SOL    HW230615   1.900   0.722   5.532 -1.2566 -1.3895 -0.9381
 6327SOL     OW30616   0.801   3.562   1.221 -0.2364  0.0440 -0.0089
 6327SOL    HW130617   0.896   3.577   1.217 -0.2340  0.0575  0.1022
 6327SOL    HW230618   0.807   3.470   1.246 -1.3460  0.0774  0.3753
 6328SOL     OW30619   4.401   0.398   3.981 -0.4943  0.0293 -0.0157
 6328SOL    HW130620   4.489   0.370   4.004 -0.5757 -0.0573  0.1921
 6328SOL    HW230621   4.368   0.388   4.071 -0.2024 -0.9712 -0.0169
 6329SOL     OW30622   3.123   1.259   1.648  0.1858  0.1316  0.7823
 6329SOL    HW130623   3.167   1.176   1.667  1.1815  0.4462 -0.1275
 6329SOL    HW230624   3.036   1.248   1.687 -0.6609  3.2055 -0.2599
 6330SOL     OW30625   0.845   2.676   6.549 -0.6216 -0.3285 -0.1688
 6330SOL    HW130626   0.814   2.647   6.635 -0.1604 -1.9116 -0.5228
 6330SOL    HW230627   0.783   2.642   6.485  0.3668  0.9536 -1.7847
 6331SOL     OW30628   4.656   3.086   9.440  0.5269  0.2153  0.1467
 6331SOL    HW130629   4.567   3.094   9.407  0.9122  0.7373 -0.7866
 6331SOL    HW230630   4.680   3.178   9.428 -0.5568 -0.0573 -4.1605
 6332SOL     OW30631   2.530   3.925   9.343  0.4380 -0.2738 -0.1704
 6332SOL    HW130632   2.618   3.961   9.353  0.8237 -1.0007 -0.8764
 6332SOL    HW230633   2.548   3.877   9.262 -0.9853  0.2807 -0.8151
 6333SOL     OW30634   4.372   0.572   3.739  0.7857 -0.1885 -0.0273
 6333SOL    HW130635   4.415   0.563   3.654  0.3215 -0.3933 -0.2395
 6333SOL    HW230636   4.452   0.547   3.786  1.2901  0.6148 -0.4683
 6334SOL     OW30637   4.289   2.368  16.360 -0.2211 -0.3653  0.1023
 6334SOL    HW130638   4.302   2.273  16.361 -0.0384 -0.3285  1.1975
 6334SOL    HW230639   4.195   2.364  16.346 -0.6676 -0.2815  3.1687
 6335SOL     OW30640   3.619   1.895  11.644  0.3347 -0.7695  0.0174
 6335SOL    HW130641   3.579   1.832  11.703 -2.3498 -2.0678 -3.1967
 6335SOL    HW230642   3.547   1.913  11.584 -0.8818  1.5713  2.1491
 6336SOL     OW30643   1.090   4.015   9.438  0.0386  0.0801  0.0340
 6336SOL    HW130644   0.999   4.023   9.410  0.0498 -0.9837 -0.3038
 6336SOL    HW230645   1.128   4.088   9.389 -0.2872 -0.1457 -0.5530
 6337SOL     OW30646   2.316   2.947   9.908 -0.3611 -0.1966 -0.0111
 6337SOL    HW130647   2.386   2.986   9.961 -1.0802  0.4005  0.4891
 6337SOL    HW230648   2.347   2.857   9.897  0.5020 -0.0930  1.4791
 6338SOL     OW30649   4.029   3.783   5.089 -0.4481  0.3420 -0.0283
 6338SOL    HW130650   3.973   3.817   5.159  0.4023 -0.7313  1.1762
 6338SOL    HW230651   4.034   3.853   5.024 -0.3800  1.0146  0.7032
 6339SOL     OW30652   2.827   0.148   1.809  0.4236  0.4077 -0.8140
 6339SOL    HW130653   2.768   0.082   1.771 -0.1233  0.3730  0.0956
 6339SOL    HW230654   2.868   0.088   1.872  1.4995  0.2467 -1.6598
 6340SOL     OW30655   3.870   4.359   1.387  0.1370  0.4445 -0.4045
 6340SOL    HW130656   3.804   4.302   1.348  1.0977 -0.2045 -1.0867
 6340SOL    HW230657   3.950   4.309   1.371  1.2479  1.2312  2.6450
 6341SOL     OW30658   2.032   4.018  13.880 -0.1530  0.3149  0.0556
 6341SOL    HW130659   1.961   4.000  13.943 -0.1527 -0.7782 -0.2488
 6341SOL    HW230660   2.069   3.930  13.875  0.3595  0.4680  1.0151
 6342SOL     OW30661   1.355   3.829   5.427 -0.0730  0.0009  0.0877
 6342SOL    HW130662   1.266   3.845   5.459 -1.2713 -2.5821 -1.9664
 6342SOL    HW230663   1.401   3.795   5.503  0.6194  0.4816 -0.1077
 6343SOL     OW30664   4.097   3.700   8.513  0.5168 -0.0152  0.2745
 6343SOL    HW130665   4.149   3.642   8.568  0.7738  1.4702  1.6109
 6343SOL    HW230666   4.029   3.638   8.487  0.6605 -0.3401  0.6827
 6344SOL     OW30667   4.240   3.699  12.329 -0.1584 -0.1783 -0.2480
 6344SOL    HW130668   4.175   3.645  12.374 -0.4931  0.5708  0.1583
 6344SOL    HW230669   4.325   3.668  12.362  0.2707  0.0589 -1.1359
 6345SOL     OW30670   1.173   3.706   7.313 -0.0410  0.2405 -0.3570
 6345SOL    HW130671   1.173   3.752   7.397  1.1135 -0.6560  0.1251
 6345SOL    HW230672   1.099   3.748   7.270 -1.1398 -1.2172  0.1044
 6346SOL     OW30673   4.037   3.646  11.377 -0.1612 -0.0695  0.2449
 6346SOL    HW130674   4.096   3.697  11.433 -0.6656  0.7382  0.0419
 6346SOL    HW230675   3.952   3.669  11.412 -1.2449 -1.6288 -1.3198
 6347SOL     OW30676   0.867   0.786   2.445 -0.0190 -0.1836  0.2261
 6347SOL    HW130677   0.808   0.712   2.462  0.3808 -0.2512  1.3014
 6347SOL    HW230678   0.808   0.840   2.391  0.7237 -1.1197 -1.5223
 6348SOL     OW30679   2.860   3.004   1.459  0.3416  0.1613 -0.5588
 6348SOL    HW130680   2.864   2.909   1.467  1.9239  0.3554  1.0441
 6348SOL    HW230681   2.916   3.031   1.532  0.1400  0.5726 -0.5552
 6349SOL     OW30682   1.167   2.975   7.954 -0.5226 -0.5121  0.4485
 6349SOL    HW130683   1.114   2.995   7.877 -1.9409 -0.4925  1.4209
 6349SOL    HW230684   1.232   3.045   7.945 -0.2083 -0.8951 -0.2743
 6350SOL     OW30685   1.691   1.570   6.082  0.9340 -0.1646 -0.6187
 6350SOL    HW130686   1.664   1.480   6.062  0.4248 -0.7999  2.8650
 6350SOL    HW230687   1.783   1.565   6.059  0.4804  1.1631 -2.6563
 6351SOL     OW30688   0.160   4.108   7.712 -0.6562 -0.2536  0.5736
 6351SOL    HW130689   0.102   4.082   7.784 -0.6903 -2.6015 -0.2982
 6351SOL    HW230690   0.183   4.024   7.671  0.8852  0.1727  0.5927
 6352SOL     OW30691   3.369   0.271   9.304  0.2861  0.2091  0.0062
 6352SOL    HW130692   3.350   0.257   9.212  1.4736  0.2744 -0.2511
 6352SOL    HW230693   3.295   0.301   9.355  0.4234 -0.9047  0.8770
 6353SOL     OW30694   0.629   2.209  14.601  0.5613 -0.2147 -0.0062
 6353SOL    HW130695   0.715   2.175  14.579 -0.7088 -2.2893 -1.7468
 6353SOL    HW230696   0.587   2.180  14.520 -0.6037 -2.4295  1.4013
 6354SOL     OW30697   2.184   1.069   7.149  0.0762  0.1357  0.1077
 6354SOL    HW130698   2.179   1.160   7.119  2.0828  0.8469  1.9922
 6354SOL    HW230699   2.124   1.061   7.223 -0.4608 -0.1064 -0.3502
 6355SOL     OW30700   2.705   3.784   7.037 -0.4782  0.3782  0.0722
 6355SOL    HW130701   2.737   3.701   7.072 -0.6960 -0.1697 -1.0402
 6355SOL    HW230702   2.766   3.802   6.965  1.0863  1.3549  1.6233
 6356SOL     OW30703   3.004   3.667   2.442 -0.1890  0.1906 -0.1369
 6356SOL    HW130704   2.927   3.706   2.484  0.6948  2.8264 -0.9592
 6356SOL    HW230705   3.038   3.738   2.387  0.0756 -0.8713 -1.3289
 6357SOL     OW30706   1.241   0.877  16.993 -0.3164 -0.3311 -0.5271
 6357SOL    HW130707   1.314   0.932  16.963  1.1261 -2.0640 -0.2364
 6357SOL    HW230708   1.181   0.947  17.017 -0.1070 -0.9013  1.6934
 6358SOL     OW30709   4.408   0.789   1.126  0.5066  0.1942  0.1043
 6358SOL    HW130710   4.485   0.833   1.161 -0.5960  0.9894  1.5484
 6358SOL    HW230711   4.456   0.734   1.064  0.2020  0.7193 -0.6017
 6359SOL     OW30712   3.864   1.081   4.953 -0.0641 -0.2080 -0.1149
 6359SOL    HW130713   3.886   1.152   4.893  0.5847 -0.9816 -0.7834
 6359SOL    HW230714   3.863   1.130   5.035  1.1857 -1.4507  0.6498
 6360SOL     OW30715   1.431   2.750  17.734  0.5778  0.1579 -0.6703
 6360SOL    HW130716   1.344   2.719  17.710  0.4781  0.1264 -0.2720
 6360SOL    HW230717   1.419   2.845  17.747  1.1990 -0.1864  2.4830
 6361SOL     OW30718   2.111   3.129   7.062 -0.3953 -0.3651  0.8677
 6361SOL    HW130719   2.158   3.089   6.989 -1.9149 -1.4735  0.4846
 6361SOL    HW230720   2.183   3.180   7.099 -0.4909  1.5687 -1.5826
 6362SOL     OW30721   3.751   4.602  17.507  0.0407 -0.4264  0.1147
 6362SOL    HW130722   3.699   4.643  17.576  0.4324 -0.9512  0.7241
 6362SOL    HW230723   3.682   4.551  17.464 -1.1252  1.5610 -0.3833
 6363SOL     OW30724   1.856   1.544   7.821  0.0791 -0.0597  0.1978
 6363SOL    HW130725   1.762   1.530   7.832 -0.8593  4.3605 -1.8118
 6363SOL    HW230726   1.864   1.606   7.893  0.8218  0.5223 -0.3813
 6364SOL     OW30727   0.866   0.186   2.761 -0.0531 -0.2244  0.0863
 6364SOL    HW130728   0.792   0.194   2.701 -0.2277  0.5033  0.4000
 6364SOL    HW230729   0.829   0.196   2.849  0.3645 -0.7232  0.3227
 6365SOL     OW30730   3.793   4.320   1.822 -0.0567  0.5107  0.1127
 6365SOL    HW130731   3.758   4.408   1.836  2.1519  0.9889  2.6333
 6365SOL    HW230732   3.732   4.273   1.878 -0.8383  1.3936 -0.0011
 6366SOL     OW30733   3.844   2.505   7.597 -0.0050  0.0190 -0.4002
 6366SOL    HW130734   3.857   2.593   7.631 -0.5131  0.3191 -0.9779
 6366SOL    HW230735   3.749   2.513   7.585  0.0795  1.0453 -0.3782
 6367SOL     OW30736   1.349   3.202   7.907  0.5173 -0.2642  0.0125
 6367SOL    HW130737   1.320   3.224   7.996  3.3928 -0.8720  1.0913
 6367SOL    HW230738   1.427   3.257   7.898 -1.3222  2.5697  1.4777
 6368SOL     OW30739   0.385   3.025   4.045 -0.7836 -0.0023  0.0311
 6368SOL    HW130740   0.443   3.024   3.970  0.5017 -1.8187  1.0435
 6368SOL    HW230741   0.422   3.086   4.109  0.5514  0.3899 -1.1218
 6369SOL     OW30742   0.054   2.568   8.793  0.1742 -0.3566  0.2266
 6369SOL    HW130743   4.727   2.506   8.760 -3.0068  2.5729  1.0316
 6369SOL    HW230744   0.131   2.534   8.747 -0.4450 -0.4045 -0.7832
 6370SOL     OW30745   2.398   4.689   9.848  0.2965  0.6025  0.3571
 6370SOL    HW130746   2.342   4.647   9.783  1.9144 -1.8276  0.5300
 6370SOL    HW230747   2.485   4.678   9.809  0.2267 -2.4961  1.0382
 6371SOL     OW30748   4.191   0.238   6.140  0.0948  0.6196  1.0023
 6371SOL    HW130749   4.179   0.195   6.225  2.5717  0.2458  1.1618
 6371SOL    HW230750   4.236   0.162   6.102  1.3486  2.4959 -1.2712
 6372SOL     OW30751   1.829   3.893   1.353  0.3446  0.7925  0.2226
 6372SOL    HW130752   1.782   3.918   1.273  1.0192  0.1128 -0.3769
 6372SOL    HW230753   1.902   3.842   1.316 -1.1275 -1.8762  1.0391
 6373SOL     OW30754   3.576   2.886   5.856  0.2333  0.2457  0.3889
 6373SOL    HW130755   3.499   2.941   5.850 -0.2517 -0.7160 -2.3019
 6373SOL    HW230756   3.633   2.961   5.872 -0.4368  0.8345 -0.0088
 6374SOL     OW30757   0.943   4.609   1.642 -0.2314 -0.2700  0.5010
 6374SOL    HW130758   0.853   4.578   1.653 -0.8234  1.4485  0.5124
 6374SOL    HW230759   0.977   4.565   1.563  0.0198  2.3452 -0.8576
 6375SOL     OW30760   1.643   1.050  15.327  0.3608 -0.3021 -0.4701
 6375SOL    HW130761   1.696   1.046  15.248  1.3996 -2.2924  0.3244
 6375SOL    HW230762   1.693   1.013  15.400  0.9882  0.6211 -0.4401
 6376SOL     OW30763   0.498   4.537   9.882 -0.1319 -0.0690 -0.0396
 6376SOL    HW130764   0.423   4.498   9.837 -2.2983  2.4383  1.3624
 6376SOL    HW230765   0.460   4.566   9.965 -2.6209  0.3807 -1.3414
 6377SOL     OW30766   3.298   0.623   5.818 -0.3411 -0.4864 -0.0233
 6377SOL    HW130767   3.337   0.540   5.791 -0.4536 -0.3105 -0.7196
 6377SOL    HW230768   3.236   0.636   5.746 -1.2883  1.6947  1.1931
 6378SOL     OW30769   3.655   0.078  12.753 -0.0361 -0.2387  0.2562
 6378SOL    HW130770   3.725   0.129  12.794 -0.2178  0.5632 -0.4382
 6378SOL    HW230771   3.673   4.736  12.802 -0.1570  0.3458  1.2591
 6379SOL     OW30772   2.854   0.376   3.690 -0.4409  0.0236 -0.4735
 6379SOL    HW130773   2.911   0.299   3.700 -0.2400  0.1487 -0.6415
 6379SOL    HW230774   2.766   0.356   3.721 -0.0263  0.7512  1.2112
 6380SOL     OW30775   1.810   2.150   9.866  0.0427  0.2421  0.5041
 6380SOL    HW130776   1.815   2.241   9.897  0.6490  0.6301 -0.7139
 6380SOL    HW230777   1.857   2.151   9.783 -2.2486  0.7620 -0.7705
 6381SOL     OW30778   1.511   3.543   5.857  0.4748 -0.4865  0.0994
 6381SOL    HW130779   1.591   3.535   5.909 -0.7182 -1.8856  1.7456
 6381SOL    HW230780   1.513   3.455   5.819  1.2437  0.1404 -1.2820
 6382SOL     OW30781   1.319   1.596   9.053  0.4992 -0.1482  0.4080
 6382SOL    HW130782   1.370   1.551   9.121 -0.9537  1.2773  2.4283
 6382SOL    HW230783   1.291   1.517   9.007 -0.8107  0.9451 -0.6614
 6383SOL     OW30784   0.911   3.465  10.243 -0.4993 -0.1425 -0.3559
 6383SOL    HW130785   0.891   3.382  10.202  0.9623  0.0995 -1.5460
 6383SOL    HW230786   0.856   3.519  10.187 -2.4155  0.1939  1.8591
 6384SOL     OW30787   2.873   1.681   7.803 -0.4437  0.3818 -0.0492
 6384SOL    HW130788   2.941   1.654   7.865 -1.0537 -0.1895  0.3781
 6384SOL    HW230789   2.892   1.774   7.799 -3.0206  0.9757  1.0312
 6385SOL     OW30790   2.408   3.285  11.726  0.1771 -0.2758  0.2669
 6385SOL    HW130791   2.412   3.374  11.691  0.0043 -0.4653 -0.2527
 6385SOL    HW230792   2.432   3.240  11.645  1.3354 -0.0246  0.4737
 6386SOL     OW30793   4.611   3.793  16.284 -0.3230 -0.0885 -0.3269
 6386SOL    HW130794   4.649   3.748  16.360  1.4303  0.2517 -0.9819
 6386SOL    HW230795   4.520   3.765  16.288 -0.6726  1.0422 -0.2390
 6387SOL     OW30796   0.974   3.742   3.009  0.2879 -0.2591 -0.3222
 6387SOL    HW130797   1.004   3.710   2.924  2.2764  0.2923  0.1795
 6387SOL    HW230798   1.042   3.715   3.071  0.0124 -0.4965 -0.1196
 6388SOL     OW30799   3.456   4.260   6.550  0.2233  0.5649  0.5278
 6388SOL    HW130800   3.460   4.168   6.524 -0.7712  0.2752  1.4184
 6388SOL    HW230801   3.538   4.280   6.595  2.2202 -1.6344 -2.1205
 6389SOL     OW30802   2.866   2.665   1.863  0.3759  0.1300  0.2154
 6389SOL    HW130803   2.941   2.607   1.874  0.8645  0.6714 -0.2771
 6389SOL    HW230804   2.911   2.748   1.846  0.7355 -0.2916 -0.8331
 6390SOL     OW30805   0.271   1.057   0.542  0.6073 -0.2565 -0.5367
 6390SOL    HW130806   0.219   1.002   0.602 -0.7826  1.5896 -0.0534
 6390SOL    HW230807   0.199   1.089   0.487 -0.7383  2.1163  2.6201
 6391SOL     OW30808   4.122   3.544   3.915  0.1351 -0.2535  0.5896
 6391SOL    HW130809   4.170   3.509   3.991  0.3353  0.6181  0.8630
 6391SOL    HW230810   4.060   3.472   3.905 -0.9005  0.7908 -0.3897
 6392SOL     OW30811   3.712   4.150   5.202 -0.4154 -0.4576  0.0463
 6392SOL    HW130812   3.721   4.237   5.162  1.2806 -0.2361  0.8890
 6392SOL    HW230813   3.729   4.169   5.294  2.6560  1.4756 -0.9003
 6393SOL     OW30814   2.892   0.463   2.131 -0.0898 -0.2103  0.4993
 6393SOL    HW130815   2.810   0.417   2.149 -0.1412  0.2409  1.3951
 6393SOL    HW230816   2.959   0.394   2.130 -0.6558 -0.7523 -1.5480
 6394SOL     OW30817   4.079   0.559   7.018 -0.0627  0.3014  0.0569
 6394SOL    HW130818   4.042   0.478   6.984 -0.4010  0.0127  1.1060
 6394SOL    HW230819   4.012   0.585   7.082  0.9975  0.9642  0.9132
 6395SOL     OW30820   2.038   4.391   7.939  0.2980  0.2618 -0.7369
 6395SOL    HW130821   2.038   4.443   8.019 -1.0354 -0.8612  0.0076
 6395SOL    HW230822   1.954   4.419   7.902 -1.4014 -2.6105  0.9068
 6396SOL     OW30823   0.822   3.612   5.229  0.3905 -0.2178  0.4827
 6396SOL    HW130824   0.862   3.571   5.306 -1.3376 -0.9542  0.9725
 6396SOL    HW230825   0.749   3.555   5.205  0.5206 -0.4880  0.7247
 6397SOL     OW30826   3.597   0.454  12.669  0.1507 -0.1430 -0.1917
 6397SOL    HW130827   3.606   0.366  12.631  1.0747 -0.5691  1.0405
 6397SOL    HW230828   3.670   0.442  12.729 -1.5505 -0.2499  1.8849
 6398SOL     OW30829   0.139   1.781   0.299 -0.1054  0.2916 -0.1916
 6398SOL    HW130830   0.198   1.722   0.252 -1.1456  0.1931 -1.3836
 6398SOL    HW230831   0.194   1.814   0.370 -0.5071  1.8884 -0.6328
 6399SOL     OW30832   2.795   4.011   3.211  0.3804  0.6800  0.4883
 6399SOL    HW130833   2.752   3.975   3.289 -0.0284 -0.7000 -0.3690
 6399SOL    HW230834   2.808   3.934   3.155 -3.7702 -0.9772  1.8651
 6400SOL     OW30835   1.669   2.225   5.125 -0.6719  0.1422  0.3265
 6400SOL    HW130836   1.657   2.320   5.137 -1.7327  0.0852 -0.2199
 6400SOL    HW230837   1.755   2.214   5.085 -0.6576 -1.6338  0.8621
 6401SOL     OW30838   2.388   0.241   9.908 -0.3724 -0.2175  0.5879
 6401SOL    HW130839   2.380   0.253  10.003  0.9475 -0.5009  0.7326
 6401SOL    HW230840   2.389   0.146   9.910 -1.5823 -0.2468  0.0404
 6402SOL     OW30841   4.211   4.721   8.428 -0.4176  0.6146  0.8802
 6402SOL    HW130842   4.192   0.023   8.344  0.1987  1.0596  0.9537
 6402SOL    HW230843   4.178   4.632   8.413  3.7809 -1.1868  2.2100
 6403SOL     OW30844   3.697   3.935   7.157 -0.0186 -0.3700 -0.3719
 6403SOL    HW130845   3.728   3.865   7.100  1.2990  1.5865 -2.0931
 6403SOL    HW230846   3.647   3.879   7.215  1.3065  0.2261  1.3228
 6404SOL     OW30847   2.381   1.407   8.504 -0.3631 -0.1994  0.6310
 6404SOL    HW130848   2.425   1.326   8.528  2.7717  1.3954  0.3011
 6404SOL    HW230849   2.409   1.417   8.413 -1.2899  0.1519  0.3826
 6405SOL     OW30850   2.256   1.531   8.753 -0.3101  0.5925 -0.1675
 6405SOL    HW130851   2.314   1.579   8.812 -1.5258  1.0132  0.6935
 6405SOL    HW230852   2.315   1.500   8.685 -0.1898  0.8530 -0.1837
 6406SOL     OW30853   2.944   2.296   4.111 -0.3474 -0.6952  0.2514
 6406SOL    HW130854   2.988   2.326   4.031  2.0155  0.7840  2.1233
 6406SOL    HW230855   2.858   2.263   4.084 -1.5007  2.7205 -0.2113
 6407SOL     OW30856   1.893   2.585   4.638 -0.3380 -0.1081 -0.0701
 6407SOL    HW130857   1.922   2.500   4.673  2.1873 -0.1435 -2.3262
 6407SOL    HW230858   1.857   2.552   4.555 -0.7701  3.0635 -1.1127
 6408SOL     OW30859   3.668   1.731  13.647  0.0869  0.0895 -0.1047
 6408SOL    HW130860   3.672   1.738  13.743 -1.2486 -2.6914  0.1357
 6408SOL    HW230861   3.762   1.737  13.627 -0.4845  2.0058 -2.2847
 6409SOL     OW30862   3.060   3.328   9.576 -0.0375  0.3403  0.2422
 6409SOL    HW130863   3.043   3.293   9.488  1.0521  0.1564  0.1010
 6409SOL    HW230864   3.103   3.411   9.551  1.2667  0.1875  1.9669
 6410SOL     OW30865   3.358   0.955   9.321 -0.6371 -0.0434 -0.0893
 6410SOL    HW130866   3.389   0.865   9.320  1.6947  0.7480  0.2983
 6410SOL    HW230867   3.307   0.952   9.402  0.6873 -0.7548  0.7251
 6411SOL     OW30868   4.005   3.585   6.184  0.1424  0.1943 -0.4450
 6411SOL    HW130869   3.993   3.526   6.258 -1.3843  1.3135  0.2017
 6411SOL    HW230870   3.943   3.656   6.204  0.8504  0.1090  2.0312
 6412SOL     OW30871   3.374   3.578   3.213 -0.1071 -0.4790 -0.0878
 6412SOL    HW130872   3.295   3.561   3.161 -0.6762  1.0987  0.2435
 6412SOL    HW230873   3.346   3.521   3.285 -0.4875 -2.9135 -2.1564
 6413SOL     OW30874   4.203   1.489   7.340  0.6816  0.4527 -0.0657
 6413SOL    HW130875   4.242   1.406   7.316 -0.0815  0.0686  0.0228
 6413SOL    HW230876   4.216   1.536   7.258  1.6112 -1.7744 -1.1906
 6414SOL     OW30877   0.617   4.141  10.774 -0.0538 -0.1175 -0.4331
 6414SOL    HW130878   0.537   4.122  10.822 -0.8487  0.6196 -1.4645
 6414SOL    HW230879   0.679   4.075  10.807 -0.4411 -1.0882 -1.6268
 6415SOL     OW30880   0.837   4.013   9.334 -0.3977  0.3459 -0.4338
 6415SOL    HW130881   0.768   4.065   9.374 -0.6652 -0.3310 -0.0085
 6415SOL    HW230882   0.783   3.948   9.288 -0.6542 -0.9495  1.7047
 6416SOL     OW30883   3.563   1.131   0.708  0.3052 -0.1156 -0.0014
 6416SOL    HW130884   3.578   1.059   0.647 -2.1467 -0.5091 -0.1516
 6416SOL    HW230885   3.469   1.131   0.728  0.0410  0.5732 -1.1983
 6417SOL     OW30886   4.548   3.506  10.423  0.4131 -0.1916 -0.0248
 6417SOL    HW130887   4.597   3.517  10.505  1.0403 -1.3924 -0.2303
 6417SOL    HW230888   4.567   3.586  10.376 -0.6486 -0.6957 -1.2974
 6418SOL     OW30889   0.712   1.753   2.225 -0.3042  0.5978 -0.4060
 6418SOL    HW130890   0.767   1.675   2.236 -0.6537  0.3935 -0.1175
 6418SOL    HW230891   0.630   1.727   2.268  1.5486  1.0592  3.3942
 6419SOL     OW30892   2.432   0.723  16.017  0.4499  0.6941 -0.2315
 6419SOL    HW130893   2.499   0.725  16.085  0.2919 -3.1434  0.0782
 6419SOL    HW230894   2.383   0.802  16.039  0.4852  0.4435  0.7646
 6420SOL     OW30895   0.685   4.707  17.270 -0.0742 -0.4091  0.2553
 6420SOL    HW130896   0.708   0.011  17.187  2.3902 -0.5162  0.8894
 6420SOL    HW230897   0.745   0.020  17.325 -1.3003  0.2356  1.0112
 6421SOL     OW30898   4.176   2.368  11.256  0.1137  0.0462 -0.5409
 6421SOL    HW130899   4.251   2.340  11.203 -0.2402 -0.5954 -0.7135
 6421SOL    HW230900   4.112   2.394  11.189  1.1230  2.3564 -0.6059
 6422SOL     OW30901   2.383   3.464   5.201 -0.0374 -0.3855  0.3041
 6422SOL    HW130902   2.450   3.403   5.231  1.8739  0.7982 -1.5013
 6422SOL    HW230903   2.433   3.546   5.201 -0.8767  0.1388 -0.4804
 6423SOL     OW30904   2.279   3.037   5.509  0.1961 -0.6794 -0.2216
 6423SOL    HW130905   2.276   2.998   5.421 -0.5286 -2.2716  0.5059
 6423SOL    HW230906   2.301   3.129   5.495  2.1896 -1.0507  0.4701
 6424SOL     OW30907   1.768   0.682   5.240  0.3468 -0.5079  0.0758
 6424SOL    HW130908   1.690   0.668   5.293 -0.0140 -2.0151 -0.8868
 6424SOL    HW230909   1.835   0.704   5.305 -0.6232  0.6172  0.6946
 6425SOL     OW30910   0.589   1.930  11.511 -0.1354 -0.0656  0.0546
 6425SOL    HW130911   0.556   1.895  11.594  0.4439 -0.4946  0.1057
 6425SOL    HW230912   0.683   1.922  11.530  0.0606  1.7499 -0.2150
 6426SOL     OW30913   3.772   3.356   7.312  0.3445 -0.3151  0.3095
 6426SOL    HW130914   3.682   3.334   7.335 -0.0286  0.8895 -0.0216
 6426SOL    HW230915   3.773   3.446   7.280 -0.8782 -0.4577 -0.1276
 6427SOL     OW30916   1.454   4.646   3.594  0.0309 -0.1260 -0.5550
 6427SOL    HW130917   1.375   4.682   3.554 -2.1411 -1.3168  2.6075
 6427SOL    HW230918   1.418   4.640   3.683  1.5910 -2.8144 -0.0933
 6428SOL     OW30919   2.484   2.665   2.012 -0.3065  0.2029 -0.1710
 6428SOL    HW130920   2.461   2.751   1.977 -0.5832  0.1656 -0.0737
 6428SOL    HW230921   2.568   2.686   2.052 -1.5592  1.2981  1.8446
 6429SOL     OW30922   0.863   3.455   5.523 -0.1104  0.5922 -0.6485
 6429SOL    HW130923   0.799   3.526   5.525 -1.7095 -0.9083  0.7954
 6429SOL    HW230924   0.823   3.394   5.462  1.7249 -0.7052 -0.5448
 6430SOL     OW30925   3.730   2.052   8.137  0.0237 -0.1131  0.0584
 6430SOL    HW130926   3.764   1.990   8.202  1.2781 -0.2421 -0.7264
 6430SOL    HW230927   3.786   2.127   8.157 -2.9505  1.3711  2.7626
 6431SOL     OW30928   0.546   3.685   9.030  0.5650 -0.2603  0.3886
 6431SOL    HW130929   0.583   3.661   8.944  0.0577  2.4868 -0.5922
 6431SOL    HW230930   0.452   3.677   9.017  0.6284  0.3129 -0.4606
 6432SOL     OW30931   0.435   4.275  11.257 -0.3131 -0.0298 -0.1376
 6432SOL    HW130932   0.366   4.303  11.198  0.0819  1.4275  0.0904
 6432SOL    HW230933   0.389   4.204  11.301  2.2636 -0.3621  2.0881
 6433SOL     OW30934   0.953   2.048   4.651  0.5130  0.2382 -0.2010
 6433SOL    HW130935   0.929   1.964   4.692  0.9061 -0.2795 -1.0207
 6433SOL    HW230936   0.901   2.050   4.570 -0.7900 -2.0663  0.5672
 6434SOL     OW30937   3.277   1.615   6.835 -0.2683  0.2898  0.5816
 6434SOL    HW130938   3.215   1.670   6.884  0.2011  1.9665 -0.7203
 6434SOL    HW230939   3.249   1.533   6.875 -2.8457  2.1464  2.6122
 6435SOL     OW30940   2.721   0.411  16.432 -0.2930 -0.3928 -0.1064
 6435SOL    HW130941   2.759   0.348  16.371  2.8507  0.7950  0.6501
 6435SOL    HW230942   2.786   0.390  16.499  0.1357 -0.2867 -0.4862
 6436SOL     OW30943   0.818   2.667  13.966 -0.2745 -0.3020  0.1103
 6436SOL    HW130944   0.752   2.687  13.899 -0.0941  1.7305  0.5170
 6436SOL    HW230945   0.817   2.753  14.010 -1.3672 -1.4971  2.4044
 6437SOL     OW30946   1.405   0.700   9.165  0.0092  0.3948  0.3163
 6437SOL    HW130947   1.352   0.757   9.109 -0.7242 -0.1729  0.4294
 6437SOL    HW230948   1.339   0.654   9.216  0.2793  0.7281  0.9635
 6438SOL     OW30949   3.428   0.433   5.692  0.5373  0.6873 -0.1980
 6438SOL    HW130950   3.508   0.485   5.684  1.5697 -0.8149  0.3157
 6438SOL    HW230951   3.476   0.360   5.731 -0.7817  0.2969  0.6981
 6439SOL     OW30952   3.855   3.856   6.039  0.2382  0.2605 -0.2125
 6439SOL    HW130953   3.848   3.806   6.120 -2.2683 -0.9056 -1.1439
 6439SOL    HW230954   3.784   3.921   6.042  0.7795  0.8979 -1.3171
 6440SOL     OW30955   1.675   2.535   8.050  0.3839 -0.4638  0.7713
 6440SOL    HW130956   1.716   2.568   8.130  0.9957 -0.4179  0.4405
 6440SOL    HW230957   1.687   2.440   8.049 -1.6466 -0.7186  0.6632
 6441SOL     OW30958   4.733   1.274  12.299 -0.0020  0.7291  0.5079
 6441SOL    HW130959   0.079   1.286  12.255  0.2432 -0.0497  0.7667
 6441SOL    HW230960   4.671   1.287  12.227 -0.0382 -0.3209  0.3508
 6442SOL     OW30961   2.880   4.372   7.728  0.0127 -0.3004 -0.0674
 6442SOL    HW130962   2.849   4.454   7.688  0.2484 -0.3256 -0.3025
 6442SOL    HW230963   2.910   4.322   7.652  0.3607  0.1666 -0.2419
 6443SOL     OW30964   2.498   4.044  16.695  0.6502  0.8668  0.2124
 6443SOL    HW130965   2.476   3.955  16.722  2.6828  0.7888  1.5893
 6443SOL    HW230966   2.536   4.028  16.608 -1.4432 -1.7296 -0.2049
 6444SOL     OW30967   3.637   2.706   4.523  0.4830  0.3865 -0.6778
 6444SOL    HW130968   3.604   2.717   4.434  0.2321 -1.7320 -0.8527
 6444SOL    HW230969   3.652   2.612   4.528 -0.5034  0.3357  1.7115
 6445SOL     OW30970   1.345   3.264   3.155 -0.1085  0.2130 -0.6014
 6445SOL    HW130971   1.258   3.300   3.173  0.7845  1.4423  1.2854
 6445SOL    HW230972   1.396   3.336   3.193  2.5074 -1.6773 -0.4988
 6446SOL     OW30973   3.339   3.275   2.845  0.7695 -0.0526  0.3002
 6446SOL    HW130974   3.357   3.310   2.758 -1.2172  2.3977  0.8578
 6446SOL    HW230975   3.252   3.316   2.848  0.8440  0.0886  0.5288
 6447SOL     OW30976   3.953   1.145   6.886 -0.0297  0.4112  0.2347
 6447SOL    HW130977   3.875   1.098   6.856  0.0345  0.4770 -0.0270
 6447SOL    HW230978   4.023   1.103   6.836 -0.9238  0.2134 -0.8314
 6448SOL     OW30979   4.260   1.947   1.519  0.3605  0.4001  0.3895
 6448SOL    HW130980   4.276   1.964   1.612 -1.0085 -1.6144  0.9980
 6448SOL    HW230981   4.220   1.860   1.519  2.4827 -0.5802  0.6102
 6449SOL     OW30982   2.036   3.396   7.349  0.0610  0.3250  0.2240
 6449SOL    HW130983   2.125   3.387   7.384 -0.4940 -1.2479  1.1811
 6449SOL    HW230984   2.009   3.305   7.339 -0.2752 -0.1425  5.8127
 6450SOL     OW30985   1.613   1.616   3.766 -0.0441 -0.4788 -0.2568
 6450SOL    HW130986   1.686   1.607   3.704  0.2583 -1.7515  0.2929
 6450SOL    HW230987   1.575   1.529   3.771 -0.2532 -0.2400  2.1342
 6451SOL     OW30988   3.895   2.786   9.609  0.5339 -0.0951 -0.4662
 6451SOL    HW130989   3.805   2.816   9.599  0.7292  0.9766  0.9097
 6451SOL    HW230990   3.886   2.705   9.660  2.0519  0.6831  1.0529
 6452SOL     OW30991   2.943   0.169  13.437  0.4362  0.4820 -0.1432
 6452SOL    HW130992   2.868   0.175  13.496  0.9924  0.3388  0.5809
 6452SOL    HW230993   2.901   0.146  13.354  0.5623 -0.4651  0.0535
 6453SOL     OW30994   0.815   2.151   7.281  0.5591  0.5746  0.0264
 6453SOL    HW130995   0.745   2.106   7.328  0.0588  0.1202 -1.1703
 6453SOL    HW230996   0.804   2.242   7.308 -0.8533 -0.1311  1.8758
 6454SOL     OW30997   2.208   2.619  10.670 -0.5554  0.1024  0.3491
 6454SOL    HW130998   2.155   2.623  10.749 -0.7823 -0.8499  0.2395
 6454SOL    HW230999   2.269   2.689  10.692 -0.7792  1.4871 -3.3537
 6455SOL     OW31000   1.386   4.236   5.913  0.5144 -0.3510 -0.2800
 6455SOL    HW131001   1.385   4.217   6.007 -0.1965  3.7540  0.5932
 6455SOL    HW231002   1.427   4.323   5.911 -1.5674  0.6389 -0.1174
 6456SOL     OW31003   2.706   0.729   2.763 -0.2660 -0.0399  0.0538
 6456SOL    HW131004   2.733   0.759   2.676  1.6666  0.7956  0.9351
 6456SOL    HW231005   2.621   0.774   2.768  0.4702  1.5256 -1.3046
 6457SOL     OW31006   3.904   2.008   9.349 -0.0838 -0.2368 -0.6563
 6457SOL    HW131007   3.895   1.942   9.281 -0.8952 -0.6993 -0.1070
 6457SOL    HW231008   3.964   1.958   9.405  0.2022 -1.4525 -2.0464
 6458SOL     OW31009   2.451   2.802   8.844 -0.6126  0.0269 -0.0678
 6458SOL    HW131010   2.481   2.842   8.762  0.3554 -0.2511  0.1527
 6458SOL    HW231011   2.363   2.840   8.852  0.1679  1.9561 -0.6653
 6459SOL     OW31012   2.645   0.608   3.291  0.2104 -0.0014  0.1219
 6459SOL    HW131013   2.646   0.626   3.197  0.9355  1.4394  0.4070
 6459SOL    HW231014   2.553   0.585   3.295  0.0536  0.3482 -1.3087
 6460SOL     OW31015   1.937   2.723  13.259 -0.5135 -0.1808 -0.0831
 6460SOL    HW131016   2.004   2.767  13.312  0.8425 -0.8544 -1.2294
 6460SOL    HW231017   1.865   2.785  13.268 -1.0974 -1.0618  1.0930
 6461SOL     OW31018   0.591   2.882   0.327  0.1079  0.2520 -0.2175
 6461SOL    HW131019   0.598   2.832   0.245  0.5110  0.2890 -0.2070
 6461SOL    HW231020   0.647   2.957   0.307  1.5192 -0.6607  0.2351
 6462SOL     OW31021   1.692   4.601   6.361 -0.3806 -0.3842  0.1298
 6462SOL    HW131022   1.668   4.691   6.387  0.9615  0.1262 -0.3993
 6462SOL    HW231023   1.757   4.573   6.425  0.3134  0.2010 -0.3211
 6463SOL     OW31024   3.055   3.122   3.662 -0.5908 -0.4683 -0.1942
 6463SOL    HW131025   3.123   3.056   3.648 -0.6277 -0.4588 -0.4233
 6463SOL    HW231026   2.972   3.077   3.679  0.5261 -2.5053 -0.1807
 6464SOL     OW31027   4.708   1.163  10.169 -0.8114  0.1942 -0.0896
 6464SOL    HW131028   4.713   1.108  10.248  0.0834  0.7258  0.2198
 6464SOL    HW231029   4.718   1.096  10.102 -0.0868  0.7418 -0.5228
 6465SOL     OW31030   3.547   1.757   3.932 -0.7096  0.5949  0.0681
 6465SOL    HW131031   3.583   1.748   4.021 -1.0643 -0.1760  0.1345
 6465SOL    HW231032   3.594   1.688   3.885  0.4012  0.9372  0.6736
 6466SOL     OW31033   2.622   2.133  15.181  0.2183 -0.2974 -0.0447
 6466SOL    HW131034   2.582   2.092  15.258  0.4432 -1.4702 -0.5566
 6466SOL    HW231035   2.556   2.140  15.112 -0.8704 -1.2072  0.9026
 6467SOL     OW31036   4.258   1.914   9.376  0.5243  0.5646  0.1393
 6467SOL    HW131037   4.297   1.971   9.442  0.2658 -0.1759  0.9294
 6467SOL    HW231038   4.268   1.969   9.299 -0.4312  0.0415 -0.3515
 6468SOL     OW31039   3.533   3.771  11.945 -0.0332  0.2090 -0.3263
 6468SOL    HW131040   3.444   3.736  11.941 -0.0227  0.1162  0.1841
 6468SOL    HW231041   3.589   3.694  11.932 -2.3661 -1.3246 -1.2079
 6469SOL     OW31042   3.291   1.476  17.302 -0.2949 -0.2887  0.5121
 6469SOL    HW131043   3.240   1.398  17.323  1.8920 -1.7356  0.3838
 6469SOL    HW231044   3.257   1.498  17.215 -3.1148  2.8616  2.3847
 6470SOL     OW31045   0.966   2.120   0.379 -0.2821 -0.1366  0.1201
 6470SOL    HW131046   0.875   2.090   0.385 -0.7314  0.6292 -3.0671
 6470SOL    HW231047   1.006   2.039   0.347  0.5900  0.8618 -1.3072
 6471SOL     OW31048   4.485   0.409   7.199 -0.1044  0.3910  0.0164
 6471SOL    HW131049   4.425   0.424   7.126  0.6873 -0.2984 -0.7743
 6471SOL    HW231050   4.563   0.381   7.152  1.8107  1.9880  2.2313
 6472SOL     OW31051   0.267   4.181   6.283  0.6225  0.8365  0.1055
 6472SOL    HW131052   0.351   4.172   6.237  0.8457 -0.6719  0.8378
 6472SOL    HW231053   0.216   4.206   6.206 -1.0923 -0.8114  0.7021
 6473SOL     OW31054   4.185   4.014   7.475 -0.3566  0.4880  0.4271
 6473SOL    HW131055   4.164   3.963   7.554 -0.3362 -0.3222 -0.0905
 6473SOL    HW231056   4.135   4.092   7.499 -2.0285 -0.2432 -0.7168
 6474SOL     OW31057   2.448   2.703  13.732  0.0497  0.0379  0.3646
 6474SOL    HW131058   2.470   2.715  13.824  0.9914  0.1376  0.1267
 6474SOL    HW231059   2.353   2.715  13.736  0.0194 -0.1955  0.3576
 6475SOL     OW31060   0.021   0.456   8.756 -0.1525  0.2593  0.5287
 6475SOL    HW131061   0.067   0.516   8.814  4.0558 -0.6951 -1.8559
 6475SOL    HW231062   4.716   0.418   8.832 -0.4970  1.1818  0.7942
 6476SOL     OW31063   0.263   3.596   7.762  0.8402  0.1747 -0.1234
 6476SOL    HW131064   0.327   3.549   7.816  0.2951  1.2778  1.4693
 6476SOL    HW231065   0.289   3.688   7.757 -0.4734  0.5382 -0.1124
 6477SOL     OW31066   3.853   2.238  12.817 -0.4256 -0.0525 -0.0377
 6477SOL    HW131067   3.825   2.197  12.736  1.5184 -3.2544  0.9090
 6477SOL    HW231068   3.947   2.238  12.802 -0.5931 -3.2033 -1.0590
 6478SOL     OW31069   4.336   1.279   4.743 -0.1443 -0.3367 -0.6376
 6478SOL    HW131070   4.335   1.285   4.647 -2.6613  1.1805 -0.5174
 6478SOL    HW231071   4.292   1.195   4.758 -0.1995  0.0019  1.0991
 6479SOL     OW31072   3.030   3.870  11.308 -0.0829 -0.2071 -0.1837
 6479SOL    HW131073   3.038   3.965  11.314  1.6652 -0.3150 -0.7399
 6479SOL    HW231074   3.051   3.849  11.217 -1.6028 -0.2279 -0.5323
 6480SOL     OW31075   2.498   0.775   9.445 -0.0608 -0.1690  0.0485
 6480SOL    HW131076   2.573   0.718   9.427 -0.4473 -0.5263 -0.4135
 6480SOL    HW231077   2.480   0.823   9.364  2.0074 -1.2607 -1.0779
 6481SOL     OW31078   3.895   2.754   8.102 -0.4643 -0.0563  0.4307
 6481SOL    HW131079   3.817   2.788   8.146  0.8511  0.0540  2.6627
 6481SOL    HW231080   3.930   2.830   8.056 -0.0937 -1.6002 -1.8388
 6482SOL     OW31081   1.572   4.341   2.909 -0.0052 -0.3204 -0.1664
 6482SOL    HW131082   1.529   4.350   2.994  1.2259 -1.4415  0.5714
 6482SOL    HW231083   1.501   4.329   2.846  0.1992  0.9877 -0.6690
 6483SOL     OW31084   0.805   1.862   7.240  0.5734 -0.1171  0.0452
 6483SOL    HW131085   0.833   1.926   7.305 -0.8056 -0.2249  0.7484
 6483SOL    HW231086   0.883   1.883   7.189 -0.6346  0.6943 -1.4775
 6484SOL     OW31087   3.775   1.809   9.692 -0.1251 -0.1315  0.3624
 6484SOL    HW131088   3.776   1.722   9.653  2.0394  0.2381 -0.4087
 6484SOL    HW231089   3.746   1.780   9.778 -0.0479 -0.5094  0.2591
 6485SOL     OW31090   3.673   1.013   9.995  0.0284  1.0130  1.1037
 6485SOL    HW131091   3.673   1.107   9.979 -1.1637  0.8135 -0.0364
 6485SOL    HW231092   3.582   0.985   9.987  0.0627  0.8443  1.2994
 6486SOL     OW31093   0.841   2.700   8.508  0.0241  0.2056  0.1217
 6486SOL    HW131094   0.928   2.739   8.512  0.5741 -0.9053 -0.8598
 6486SOL    HW231095   0.830   2.698   8.413  2.1358  3.0922 -0.1617
 6487SOL     OW31096   1.557   4.683  17.701  1.0223 -0.2458  0.3003
 6487SOL    HW131097   1.555   4.683  17.605 -0.5656 -0.8773  0.3395
 6487SOL    HW231098   1.625   4.616  17.714  0.9392 -0.9045 -2.6060
 6488SOL     OW31099   3.326   3.298   3.899 -0.3557  0.0439  0.9233
 6488SOL    HW131100   3.353   3.254   3.819 -1.8091  0.1581  0.3671
 6488SOL    HW231101   3.242   3.337   3.876  0.1761  0.3303 -0.4922
 6489SOL     OW31102   0.972   0.438   2.615 -0.1689  0.4577 -0.0306
 6489SOL    HW131103   0.955   0.362   2.670  1.3262 -1.0721 -1.6774
 6489SOL    HW231104   1.012   0.507   2.670  3.5401 -1.5508 -0.1927
 6490SOL     OW31105   0.922   0.364   7.764 -0.0810 -1.0833  0.2903
 6490SOL    HW131106   0.933   0.425   7.836 -0.0214  0.9438 -1.4342
 6490SOL    HW231107   0.830   0.339   7.775 -0.5887  0.1483 -1.1856
 6491SOL     OW31108   0.083   4.330   8.793 -0.6554 -0.0957  0.2544
 6491SOL    HW131109   0.032   4.249   8.783  0.4187 -0.6717 -0.4770
 6491SOL    HW231110   0.063   4.368   8.708 -0.1464  0.7166  0.4948
 6492SOL     OW31111   2.775   0.936   7.585 -0.0366 -0.0878  0.3380
 6492SOL    HW131112   2.865   0.918   7.556 -0.1917  1.1827 -0.9408
 6492SOL    HW231113   2.730   0.881   7.522 -0.5294  0.0172  0.5973
 6493SOL     OW31114   0.747   4.300  15.541 -0.0872 -0.0001 -0.0930
 6493SOL    HW131115   0.745   4.206  15.557 -1.4096  0.2160  1.1229
 6493SOL    HW231116   0.822   4.328  15.489  0.1255  1.3117  0.9169
 6494SOL     OW31117   1.590   3.840   7.701 -0.2078 -0.2390 -0.2477
 6494SOL    HW131118   1.616   3.750   7.715 -0.1608 -0.4582 -1.7350
 6494SOL    HW231119   1.668   3.876   7.659  0.4130  1.0931  2.0109
 6495SOL     OW31120   3.223   3.812   3.823 -0.2510  0.5048  0.2198
 6495SOL    HW131121   3.288   3.881   3.809 -1.7380  1.7481 -0.5547
 6495SOL    HW231122   3.225   3.779   3.733 -1.4355 -1.1600  0.8166
 6496SOL     OW31123   0.332   1.472   3.522 -0.0221  0.7975 -0.4758
 6496SOL    HW131124   0.270   1.478   3.449 -0.6367 -0.4690 -0.0593
 6496SOL    HW231125   0.359   1.561   3.543  0.8874  0.1635  1.0098
 6497SOL     OW31126   2.203   3.883  16.657 -0.0325  0.3594 -1.1122
 6497SOL    HW131127   2.299   3.878  16.661  0.0454  1.6560 -1.1818
 6497SOL    HW231128   2.178   3.791  16.668  0.3963  0.2553 -1.0074
 6498SOL     OW31129   3.113   2.102   7.340  0.2817 -0.2132 -0.1359
 6498SOL    HW131130   3.199   2.098   7.300  1.0214  2.2175  1.1846
 6498SOL    HW231131   3.141   2.071   7.426  0.1137  0.5317  0.1894
 6499SOL     OW31132   3.977   4.015   4.405  0.6632 -0.2698  0.0938
 6499SOL    HW131133   3.885   4.024   4.428  0.6581  2.9960 -1.1456
 6499SOL    HW231134   4.004   4.096   4.360  1.0108 -1.2503 -1.4833
 6500SOL     OW31135   2.050   0.916   8.022 -0.2470  0.4880 -0.4320
 6500SOL    HW131136   2.107   0.843   8.044 -0.6080  0.5172  0.5909
 6500SOL    HW231137   2.068   0.926   7.929 -1.0755  0.4236 -0.6012
 6501SOL     OW31138   2.262   4.317  16.030 -0.1069 -0.1460  0.3105
 6501SOL    HW131139   2.332   4.264  16.068 -0.0307 -0.8537 -0.8154
 6501SOL    HW231140   2.199   4.336  16.100  0.3204 -0.0898  0.6811
 6502SOL     OW31141   2.613   2.031  13.065  0.4999  0.1214 -0.1510
 6502SOL    HW131142   2.603   1.952  13.119 -1.9544  0.8356  0.4410
 6502SOL    HW231143   2.560   2.095  13.113  0.0950 -0.5846  0.3456
 6503SOL     OW31144   0.269   1.762   2.322 -0.3887 -0.4148 -0.3701
 6503SOL    HW131145   0.273   1.815   2.243 -2.1908  0.2393 -0.0223
 6503SOL    HW231146   0.177   1.749   2.342 -1.4052  1.9393 -3.6219
 6504SOL     OW31147   4.734   3.241   8.138 -0.7032 -0.3551  0.0720
 6504SOL    HW131148   0.038   3.254   8.053 -1.1142 -0.0020 -0.0792
 6504SOL    HW231149   4.652   3.290   8.132 -0.0431  0.6407 -0.6675
 6505SOL     OW31150   2.548   0.654   1.901  0.6396 -0.1429 -0.8195
 6505SOL    HW131151   2.612   0.718   1.932 -0.1063  0.8724 -1.3457
 6505SOL    HW231152   2.594   0.570   1.902  0.3388 -0.2852  0.9437
 6506SOL     OW31153   1.960   2.008   4.356 -0.0669 -0.4420  0.2388
 6506SOL    HW131154   1.945   2.082   4.297 -0.5179 -0.2449  0.5985
 6506SOL    HW231155   2.032   2.034   4.414 -0.3579 -1.7460  1.1952
 6507SOL     OW31156   1.517   4.207   9.120 -0.1275  0.0295  0.0263
 6507SOL    HW131157   1.548   4.297   9.115  1.9966 -0.8604 -2.5409
 6507SOL    HW231158   1.423   4.224   9.116 -0.1038  0.3826  0.9341
 6508SOL     OW31159   0.184   1.620   3.329  0.6706  0.4069 -0.2041
 6508SOL    HW131160   0.168   1.677   3.254  0.4586  3.3851  2.1046
 6508SOL    HW231161   0.243   1.673   3.383  0.4341  0.3339  0.1255
 6509SOL     OW31162   1.523   1.262  15.459  0.4649 -0.1187  0.2839
 6509SOL    HW131163   1.541   1.201  15.387 -0.1325  1.1593 -0.9392
 6509SOL    HW231164   1.554   1.201  15.526  0.1323  0.5300  1.0219
 6510SOL     OW31165   3.127   1.572   2.479 -0.8408  0.4103 -0.2553
 6510SOL    HW131166   3.167   1.655   2.449 -1.3544  0.5268 -0.6116
 6510SOL    HW231167   3.093   1.588   2.567 -0.3737  0.0548 -0.0102
 6511SOL     OW31168   2.438   3.092  15.932  0.6380  0.1711  0.1447
 6511SOL    HW131169   2.348   3.064  15.912  1.5602 -1.4544 -1.7036
 6511SOL    HW231170   2.419   3.143  16.011 -0.8653  0.4066 -0.3726
 6512SOL     OW31171   0.795   1.398   0.640  0.0216  0.3182 -0.2287
 6512SOL    HW131172   0.805   1.451   0.719  0.8071  1.8653 -1.3647
 6512SOL    HW231173   0.843   1.453   0.578  1.4656  0.5030  1.0343
 6513SOL     OW31174   4.055   3.006   2.129  0.5442  0.0031  0.2987
 6513SOL    HW131175   4.056   2.967   2.042  0.2359  0.4754  0.0867
 6513SOL    HW231176   4.004   3.083   2.105  2.0649  0.7538 -0.5114
 6514SOL     OW31177   3.877   0.056  14.029 -0.1402  0.6354 -0.3658
 6514SOL    HW131178   3.936   0.124  14.061 -0.6085 -0.3107  2.4863
 6514SOL    HW231179   3.796   0.068  14.079  0.2514  0.6406  0.2589
 6515SOL     OW31180   1.024   4.428   4.286 -0.7804 -0.1599 -0.2532
 6515SOL    HW131181   1.104   4.408   4.335 -1.7946 -1.1118  1.0211
 6515SOL    HW231182   0.965   4.411   4.359  1.4854  3.9368  2.5082
 6516SOL     OW31183   1.485   4.531   0.718  0.4144 -0.1417 -0.0696
 6516SOL    HW131184   1.407   4.488   0.683  1.4364 -2.4844  0.4729
 6516SOL    HW231185   1.492   4.481   0.800 -1.2542  0.6932  0.5789
 6517SOL     OW31186   1.665   2.274  14.758 -0.1304  0.3394  0.7052
 6517SOL    HW131187   1.695   2.279  14.668 -2.3826  0.4871 -0.0305
 6517SOL    HW231188   1.746   2.271  14.810 -0.5634  2.1569  1.4715
 6518SOL     OW31189   1.649   3.134   2.292  0.3480 -0.2341  0.2943
 6518SOL    HW131190   1.669   3.155   2.200  1.1490  1.8739  0.9547
 6518SOL    HW231191   1.734   3.132   2.334  0.2360 -1.1790  0.4590
 6519SOL     OW31192   0.659   0.455   9.098  0.0753 -0.8943 -0.1328
 6519SOL    HW131193   0.654   0.365   9.131  0.7500 -1.2976 -1.1124
 6519SOL    HW231194   0.752   0.475   9.097 -0.4143  1.4086 -1.6091
 6520SOL     OW31195   4.620   4.413   3.596  0.2128 -0.4967 -0.2871
 6520SOL    HW131196   4.669   4.351   3.649 -0.0041  1.3115  2.0196
 6520SOL    HW231197   4.532   4.386   3.620 -0.6542  1.7011 -0.9134
 6521SOL     OW31198   3.822   4.545   6.895 -0.4198  0.4165 -0.4051
 6521SOL    HW131199   3.782   4.470   6.938 -1.3883  0.4172 -1.2866
 6521SOL    HW231200   3.900   4.504   6.858 -1.2773  0.7684 -2.6056
 6522SOL     OW31201   3.466   1.884   2.078  0.1683  0.4233  0.7572
 6522SOL    HW131202   3.381   1.905   2.038  0.0978  0.1618  0.7665
 6522SOL    HW231203   3.442   1.798   2.112  1.9400 -0.3671  0.0249
 6523SOL     OW31204   1.807   1.615   5.402 -0.5329 -0.2072  0.6581
 6523SOL    HW131205   1.720   1.629   5.364  0.6428 -1.6738 -2.4560
 6523SOL    HW231206   1.814   1.688   5.464 -1.1308  2.3366 -2.3009
 6524SOL     OW31207   1.244   4.124   2.286 -0.4217 -0.4634  0.4652
 6524SOL    HW131208   1.243   4.147   2.193 -2.9042  2.2942  1.1897
 6524SOL    HW231209   1.337   4.109   2.307 -0.7519  0.5122  2.5846
 6525SOL     OW31210   0.594   4.362  13.996  0.2376  0.1692  0.2326
 6525SOL    HW131211   0.574   4.396  14.083 -1.5498 -0.1389 -0.0506
 6525SOL    HW231212   0.633   4.439  13.954  1.8434 -1.2008 -0.7525
 6526SOL     OW31213   3.076   0.263   2.151  0.0999 -0.9919  0.2856
 6526SOL    HW131214   3.090   0.218   2.068  0.8221 -0.6159  0.2067
 6526SOL    HW231215   3.073   0.191   2.213 -1.0423  0.4381  1.9167
 6527SOL     OW31216   4.029   3.722   1.088  0.0355 -0.1131 -0.0831
 6527SOL    HW131217   4.067   3.636   1.069 -1.1018 -0.3014 -1.4549
 6527SOL    HW231218   3.982   3.706   1.170  2.3798 -1.1390  1.0777
 6528SOL     OW31219   0.968   3.504   1.539  0.4954  0.3927  0.4686
 6528SOL    HW131220   0.918   3.469   1.612 -1.3961  0.8682 -0.5682
 6528SOL    HW231221   1.040   3.442   1.542  2.1356  2.0508 -4.2159
 6529SOL     OW31222   2.067   0.503   3.423 -0.3883 -0.1706  0.0395
 6529SOL    HW131223   2.130   0.461   3.482 -0.6521 -2.1040 -1.0467
 6529SOL    HW231224   2.048   0.586   3.465  1.9075 -0.0348  0.8151
 6530SOL     OW31225   3.307   3.035  10.544  0.6762 -0.4159 -0.4307
 6530SOL    HW131226   3.350   3.072  10.621  1.9950 -1.2989 -0.7565
 6530SOL    HW231227   3.268   2.956  10.581 -1.7528  0.9943  0.0978
 6531SOL     OW31228   1.280   0.331   2.248 -0.0935 -0.4343 -0.0286
 6531SOL    HW131229   1.351   0.281   2.208 -1.8603 -1.5329 -1.7922
 6531SOL    HW231230   1.299   0.417   2.210  2.7517 -0.8644  0.3604
 6532SOL     OW31231   1.807   0.329   3.419 -0.1796  0.5539 -0.3240
 6532SOL    HW131232   1.862   0.250   3.416  0.6983  1.2194 -2.0015
 6532SOL    HW231233   1.855   0.388   3.478  0.9702 -2.0975  1.4011
 6533SOL     OW31234   3.465   2.389   2.595 -0.0536  0.3235 -0.4316
 6533SOL    HW131235   3.551   2.422   2.569  0.4814  0.6581  1.7037
 6533SOL    HW231236   3.488   2.298   2.576  2.1231  0.8689 -0.3737
 6534SOL     OW31237   0.022   4.432   6.348 -0.1425 -0.7192  0.2330
 6534SOL    HW131238   4.691   4.451   6.412 -0.9149 -0.2742 -0.7353
 6534SOL    HW231239   0.082   4.370   6.390 -0.3721 -2.2443 -1.6996
 6535SOL     OW31240   2.153   0.746   8.883  0.1075 -0.6711 -0.3681
 6535SOL    HW131241   2.111   0.669   8.922 -2.6844  0.9477 -0.2126
 6535SOL    HW231242   2.080   0.805   8.863 -1.2575 -2.2305  0.0183
 6536SOL     OW31243   0.588   1.372   6.512 -0.2901  0.6693 -0.0114
 6536SOL    HW131244   0.512   1.358   6.569 -0.2394  1.7295  0.3198
 6536SOL    HW231245   0.641   1.391   6.590 -0.5678  1.7804 -0.0866
 6537SOL     OW31246   2.814   3.843   7.619  0.5201  0.0713 -0.0573
 6537SOL    HW131247   2.792   3.928   7.582 -0.0928  0.3671  0.9915
 6537SOL    HW231248   2.783   3.848   7.709  1.1725 -0.0700  0.1821
 6538SOL     OW31249   0.873   0.981   2.020  0.4949 -0.5805 -0.4079
 6538SOL    HW131250   0.852   1.074   2.012  1.5067 -0.2381  1.0081
 6538SOL    HW231251   0.872   0.986   2.116  1.2609  2.9119 -0.5760
 6539SOL     OW31252   0.506   2.567   1.881 -0.4404  0.4788 -0.3913
 6539SOL    HW131253   0.489   2.657   1.855  0.3842  1.1412  1.3823
 6539SOL    HW231254   0.562   2.542   1.807 -1.3314 -1.8121 -0.3095
 6540SOL     OW31255   1.828   2.015   7.670 -0.3207  0.0524 -0.3395
 6540SOL    HW131256   1.827   1.920   7.655  0.6865 -0.3125  1.9442
 6540SOL    HW231257   1.768   2.049   7.603 -0.5781 -0.5316 -0.4073
 6541SOL     OW31258   0.646   1.036   6.680  0.0653  0.4686 -0.1687
 6541SOL    HW131259   0.636   0.975   6.753 -1.9504  1.6412  0.5372
 6541SOL    HW231260   0.588   0.993   6.618  1.5196 -1.5562 -0.1511
 6542SOL     OW31261   3.622   0.675   6.000 -0.0547 -0.0604  0.0692
 6542SOL    HW131262   3.555   0.652   6.064  0.2816 -0.5422  0.2496
 6542SOL    HW231263   3.588   0.751   5.952 -1.3797 -0.1570  0.8717
 6543SOL     OW31264   3.279   4.384   9.484 -0.9786  0.1117 -0.3071
 6543SOL    HW131265   3.308   4.386   9.393  1.2444  3.4137  0.4868
 6543SOL    HW231266   3.254   4.476   9.492  0.4671  0.1279  4.1990
 6544SOL     OW31267   3.847   0.723   8.347  0.2680 -0.1631  0.1925
 6544SOL    HW131268   3.827   0.640   8.304 -2.3254  0.5290  0.1123
 6544SOL    HW231269   3.926   0.696   8.395  0.4227 -0.2455 -0.1114
 6545SOL     OW31270   1.014   0.114   4.766 -0.8047  0.5365 -0.3630
 6545SOL    HW131271   1.011   0.107   4.861 -0.2652 -1.5991 -0.4967
 6545SOL    HW231272   0.929   0.086   4.733 -0.5700  2.5007 -2.6781
 6546SOL     OW31273   0.993   1.113   7.427 -0.2221 -0.1932  0.2778
 6546SOL    HW131274   0.982   1.042   7.491  0.9639  0.9952  1.7962
 6546SOL    HW231275   0.901   1.123   7.400  0.1714  0.8554 -0.6887
 6547SOL     OW31276   4.734   1.404   8.785 -0.3023 -0.4857 -0.1380
 6547SOL    HW131277   0.077   1.397   8.734 -0.0040 -3.2277  0.7214
 6547SOL    HW231278   0.032   1.431   8.869 -1.3604  1.8764 -0.4306
 6548SOL     OW31279   0.148   3.197   5.225  0.1338  0.8888 -0.5429
 6548SOL    HW131280   0.061   3.197   5.264  1.1472 -0.5022  1.7510
 6548SOL    HW231281   0.172   3.104   5.232 -0.6674  0.7509  0.2505
 6549SOL     OW31282   0.484   1.843  11.751  0.5829 -0.2179  0.0918
 6549SOL    HW131283   0.418   1.861  11.817 -0.9503 -3.4111 -0.5913
 6549SOL    HW231284   0.474   1.748  11.748  0.6549 -0.2808  1.9853
 6550SOL     OW31285   2.123   3.446   3.816 -0.6125  0.2714 -0.0630
 6550SOL    HW131286   2.103   3.469   3.906  2.2358 -0.9021  0.8964
 6550SOL    HW231287   2.109   3.351   3.811 -0.0992 -0.0106  4.1868
 6551SOL     OW31288   4.148   0.518   5.571  0.4577  0.5058 -0.0437
 6551SOL    HW131289   4.217   0.452   5.575  0.2713  0.3767  1.0376
 6551SOL    HW231290   4.201   0.594   5.595 -1.1827  0.7681  2.8561
 6552SOL     OW31291   2.571   1.157   3.726  0.1558 -0.2766  0.6266
 6552SOL    HW131292   2.530   1.234   3.685  3.9939  0.0433 -2.5279
 6552SOL    HW231293   2.531   1.151   3.813 -0.4702 -1.4158  0.2614
 6553SOL     OW31294   0.892   1.410   8.335  0.2096  0.4758  0.0220
 6553SOL    HW131295   0.853   1.335   8.379 -2.1432  1.6010 -0.1395
 6553SOL    HW231296   0.983   1.384   8.330  0.0667  0.1385 -0.7649
 6554SOL     OW31297   4.548   4.257  13.921 -0.3434 -0.4829 -0.0733
 6554SOL    HW131298   4.506   4.296  13.845 -0.5207  2.4143  1.4953
 6554SOL    HW231299   4.475   4.207  13.959  0.4000 -1.7465 -0.3127
 6555SOL     OW31300   1.110   2.698   6.657 -0.5388  0.0727  0.1398
 6555SOL    HW131301   1.171   2.654   6.597 -0.5955  0.1042  0.0603
 6555SOL    HW231302   1.042   2.703   6.591 -0.7704  1.0775  0.4616
 6556SOL     OW31303   3.771   0.361   2.988  0.7479  0.1297 -0.1231
 6556SOL    HW131304   3.816   0.321   2.913  0.8102 -2.4032  1.2578
 6556SOL    HW231305   3.762   0.280   3.039  2.1151 -0.5040 -0.9036
 6557SOL     OW31306   2.369   0.717   6.487  0.6559 -0.6021  0.3635
 6557SOL    HW131307   2.428   0.751   6.554 -1.0238  0.5246  1.2774
 6557SOL    HW231308   2.427   0.701   6.413 -0.4491  1.2951 -0.9437
 6558SOL     OW31309   1.509   3.667   2.972  0.0205  0.5160  0.5999
 6558SOL    HW131310   1.427   3.668   3.021  0.7149  0.3461  1.7552
 6558SOL    HW231311   1.529   3.761   2.977  1.8464  0.2124 -0.6907
 6559SOL     OW31312   3.929   1.443   2.256 -0.4607 -0.0548  0.8083
 6559SOL    HW131313   3.963   1.521   2.299 -1.0017 -0.3424  1.7631
 6559SOL    HW231314   3.974   1.377   2.309  1.7447 -1.8372 -3.2180
 6560SOL     OW31315   1.086   1.554   0.762 -0.3135 -1.1535 -0.1706
 6560SOL    HW131316   1.073   1.459   0.768 -0.4923 -1.0451  1.1350
 6560SOL    HW231317   1.007   1.575   0.812  0.4555  1.5353 -0.0834
 6561SOL     OW31318   2.466   4.430   3.563 -0.1799 -0.1565 -0.0124
 6561SOL    HW131319   2.432   4.344   3.586 -1.0253  0.5810  1.5005
 6561SOL    HW231320   2.555   4.402   3.543 -0.0124 -0.6736  1.5315
 6562SOL     OW31321   1.573   3.503   6.699 -0.1024 -0.2195  0.2025
 6562SOL    HW131322   1.591   3.528   6.790 -2.3018  1.6358  0.1181
 6562SOL    HW231323   1.663   3.514   6.668 -0.0613 -0.3370  0.2752
 6563SOL     OW31324   2.493   1.193   6.366  0.2050 -0.2000 -0.0110
 6563SOL    HW131325   2.582   1.223   6.382  0.1667 -0.1262  0.0624
 6563SOL    HW231326   2.443   1.273   6.382  1.0016  0.6165 -1.7204
 6564SOL     OW31327   3.440   0.279   3.073 -0.1676 -0.7721  0.2679
 6564SOL    HW131328   3.492   0.237   3.141 -2.6086 -0.2555  2.4415
 6564SOL    HW231329   3.357   0.233   3.083 -0.5550 -0.2962 -0.6895
 6565SOL     OW31330   0.782   2.914   2.798  0.2951 -0.5229  0.1396
 6565SOL    HW131331   0.777   2.892   2.891 -0.1976 -2.4354 -0.3315
 6565SOL    HW231332   0.864   2.873   2.770  0.5108 -0.0594  0.0970
 6566SOL     OW31333   4.613   1.532   7.764 -0.2720  0.2607  0.0181
 6566SOL    HW131334   4.648   1.560   7.849  0.7897  1.8828 -0.9598
 6566SOL    HW231335   4.575   1.446   7.782 -0.6784  0.3373 -0.4600
 6567SOL     OW31336   3.965   2.977   5.970  0.1916 -0.0151 -0.2689
 6567SOL    HW131337   3.925   2.897   5.934  0.6808 -0.7315  0.7810
 6567SOL    HW231338   3.919   2.982   6.053  0.0546 -2.7853 -0.1584
 6568SOL     OW31339   4.714   1.856  16.996  0.7490  0.1620 -0.6645
 6568SOL    HW131340   4.683   1.944  17.017  1.4699 -0.1207  1.6412
 6568SOL    HW231341   0.031   1.830  17.070 -1.3608 -1.0579  0.4816
 6569SOL     OW31342   0.180   0.359   5.470 -0.5832 -0.7911  0.7603
 6569SOL    HW131343   0.120   0.337   5.541 -0.0124 -3.5885  0.3665
 6569SOL    HW231344   0.158   0.452   5.465  3.0225 -0.0066 -0.7394
 6570SOL     OW31345   4.560   2.970  13.999  0.0247  0.5691 -0.1094
 6570SOL    HW131346   4.615   3.021  14.059  2.4260 -0.6855 -1.2511
 6570SOL    HW231347   4.596   3.011  13.920 -0.6356 -0.5961 -1.0005
 6571SOL     OW31348   2.471   3.782   6.161  0.3088 -0.1009  0.0944
 6571SOL    HW131349   2.381   3.814   6.164 -0.0298 -1.0349  0.1096
 6571SOL    HW231350   2.464   3.687   6.149 -1.7760 -0.0270  0.8185
 6572SOL     OW31351   0.710   2.048   2.815  0.5156  0.4113  0.3487
 6572SOL    HW131352   0.692   1.958   2.844  0.1898  0.5520  0.5952
 6572SOL    HW231353   0.647   2.074   2.748  0.9172 -2.5315 -1.1464
 6573SOL     OW31354   2.060   3.904   2.373  0.7056  0.2318 -0.6734
 6573SOL    HW131355   2.068   3.844   2.298 -0.5902 -0.8344  0.0377
 6573SOL    HW231356   1.971   3.936   2.355  0.7571  0.8759  0.2146
 6574SOL     OW31357   3.378   1.227   2.019 -0.2917 -0.0412  0.1911
 6574SOL    HW131358   3.292   1.186   2.013 -0.5745  0.2489  2.1466
 6574SOL    HW231359   3.423   1.160   2.072 -0.2619 -0.9408 -0.9776
 6575SOL     OW31360   3.042   4.728   6.401 -0.4049  0.4790 -0.5575
 6575SOL    HW131361   3.058   0.058   6.465  1.5398 -1.6385  1.1977
 6575SOL    HW231362   2.965   0.025   6.357 -1.3011  0.4851  1.0486
 6576SOL     OW31363   4.149   3.180   6.069  0.2011  0.6525 -0.1571
 6576SOL    HW131364   4.061   3.166   6.033  1.5289 -1.4583 -2.5704
 6576SOL    HW231365   4.168   3.094   6.108 -2.9325  1.0397  2.2138
 6577SOL     OW31366   1.257   0.529   3.882  0.3536 -0.2456  0.1497
 6577SOL    HW131367   1.217   0.507   3.797 -1.3776  0.2182  0.8603
 6577SOL    HW231368   1.334   0.473   3.879 -0.1888 -0.8822 -1.9119
 6578SOL     OW31369   0.761   1.792   6.675  0.2986 -0.0467  0.1572
 6578SOL    HW131370   0.832   1.732   6.654 -0.2623 -1.2829  1.7572
 6578SOL    HW231371   0.749   1.788   6.770 -1.4915 -0.6629 -0.0817
 6579SOL     OW31372   3.158   1.193  12.470  0.2548  0.2797 -0.0155
 6579SOL    HW131373   3.076   1.236  12.493  0.0210 -0.8704  1.3228
 6579SOL    HW231374   3.203   1.162  12.549  0.0585  1.7563  0.6689
 6580SOL     OW31375   2.364   1.814  12.877  0.3746  0.2697 -0.6512
 6580SOL    HW131376   2.298   1.788  12.941 -0.1880  1.7101 -0.6559
 6580SOL    HW231377   2.389   1.723  12.859  1.0164  0.0018  1.5841
 6581SOL     OW31378   2.721   3.195   3.208  0.1523  0.2249 -0.9362
 6581SOL    HW131379   2.717   3.286   3.237  0.5349 -0.1353  0.2316
 6581SOL    HW231380   2.755   3.197   3.119 -1.7440 -3.6607 -1.7426
 6582SOL     OW31381   3.332   4.071   3.774 -0.6399 -0.1723 -0.1016
 6582SOL    HW131382   3.282   4.148   3.745 -2.4507 -0.6748  1.6728
 6582SOL    HW231383   3.398   4.061   3.705  0.0764  2.2402  0.2181
 6583SOL     OW31384   3.748   3.002  12.331 -0.3350  0.1218 -0.2948
 6583SOL    HW131385   3.729   2.915  12.297  1.8746 -0.8031  0.7737
 6583SOL    HW231386   3.675   3.015  12.392  0.6426  0.8742  0.7251
 6584SOL     OW31387   1.104   3.040  13.888 -0.0913  0.3544  0.2505
 6584SOL    HW131388   1.144   3.125  13.868 -0.8194  0.8329  0.8416
 6584SOL    HW231389   1.128   2.994  13.808  0.7435  0.6356  0.3375
 6585SOL     OW31390   1.912   3.920   9.241 -0.3478  0.4202  0.4456
 6585SOL    HW131391   1.847   3.945   9.175 -1.9244 -2.9732  0.6968
 6585SOL    HW231392   1.857   3.927   9.319 -2.1147  2.5130 -0.9827
 6586SOL     OW31393   2.106   1.246   6.594  0.5912  0.0571 -0.0001
 6586SOL    HW131394   2.080   1.199   6.515 -0.5798  0.2817  0.2494
 6586SOL    HW231395   2.150   1.325   6.565 -0.7545  0.5728 -0.6265
 6587SOL     OW31396   4.052   1.384   0.413  0.6917  0.2997  0.1103
 6587SOL    HW131397   3.999   1.425   0.345  0.5600 -0.5689 -0.3134
 6587SOL    HW231398   4.010   1.426   0.488  0.6951 -1.7389  1.2608
 6588SOL     OW31399   2.270   2.385   6.673 -0.0923 -0.2904  0.2368
 6588SOL    HW131400   2.357   2.379   6.713 -0.4560 -0.9216  0.9286
 6588SOL    HW231401   2.234   2.460   6.721  1.0517  0.3372  0.1047
 6589SOL     OW31402   2.874   2.487   8.436 -0.6449 -0.1149 -0.4152
 6589SOL    HW131403   2.836   2.548   8.373 -2.6016 -3.5464 -2.5833
 6589SOL    HW231404   2.834   2.518   8.517  0.2055  0.8152 -0.3493
 6590SOL     OW31405   1.882   3.196   1.452  0.1253  0.6479 -0.5621
 6590SOL    HW131406   1.828   3.129   1.410 -0.0595  0.1238  0.5084
 6590SOL    HW231407   1.816   3.210   1.520 -0.5454  0.3260 -1.1552
 6591SOL     OW31408   1.328   3.956  12.023 -0.4279  0.0252  0.1680
 6591SOL    HW131409   1.273   3.881  12.045  0.1519 -0.0591  1.3509
 6591SOL    HW231410   1.256   4.019  12.027 -0.0348  0.3696  1.9860
 6592SOL     OW31411   1.286   4.050   4.732 -0.0920 -0.0758  0.3618
 6592SOL    HW131412   1.204   4.059   4.782 -1.4221 -0.7150 -1.7149
 6592SOL    HW231413   1.255   3.981   4.673  1.0153  0.5618 -0.9558
 6593SOL     OW31414   0.881   2.886   3.867 -0.1535  0.3895  0.2395
 6593SOL    HW131415   0.961   2.871   3.918 -1.6253 -0.0426  2.4169
 6593SOL    HW231416   0.894   2.823   3.795 -1.6089  0.6313 -0.2410
 6594SOL     OW31417   4.446   1.613   3.969  0.6036 -0.3707 -0.1729
 6594SOL    HW131418   4.423   1.682   3.907  3.4157  0.1129 -0.6921
 6594SOL    HW231419   4.502   1.666   4.026  0.9982  0.9072 -1.7580
 6595SOL     OW31420   0.643   1.336   6.061 -0.0587  0.9231  0.0120
 6595SOL    HW131421   0.713   1.306   6.002 -0.0727  0.9512 -0.0188
 6595SOL    HW231422   0.646   1.277   6.137  2.2011 -0.0362 -0.8057
 6596SOL     OW31423   1.216   0.809   5.326 -0.8976 -0.6230  0.2493
 6596SOL    HW131424   1.211   0.880   5.390 -0.8598 -1.0086  0.6792
 6596SOL    HW231425   1.297   0.852   5.296 -1.3075 -0.1435 -0.1680
 6597SOL     OW31426   3.342   3.223   1.874  0.2992  0.1087  0.0298
 6597SOL    HW131427   3.378   3.182   1.953  0.9829 -1.3699 -1.0499
 6597SOL    HW231428   3.427   3.258   1.846  1.0586 -1.2030  0.7032
 6598SOL     OW31429   1.363   4.260   7.812  0.0481  0.5900  0.2395
 6598SOL    HW131430   1.304   4.246   7.886  0.9558  1.3193  1.1043
 6598SOL    HW231431   1.439   4.205   7.830 -2.0957 -1.8944  1.6627
 6599SOL     OW31432   3.642   3.012   9.172  0.1493  0.2538  0.0406
 6599SOL    HW131433   3.716   3.044   9.120 -0.6833  2.5923  0.2519
 6599SOL    HW231434   3.684   2.995   9.256 -0.7230  0.7404  0.5733
 6600SOL     OW31435   0.747   4.359  12.931 -0.1546  0.3759  1.5595
 6600SOL    HW131436   0.705   4.293  12.876 -0.0826  0.2836  1.6158
 6600SOL    HW231437   0.786   4.417  12.866  0.3827 -0.1916  1.3854
 6601SOL     OW31438   1.297   1.425  16.995 -0.1746  0.1423 -0.2615
 6601SOL    HW131439   1.216   1.447  16.949  0.4630  1.5613 -0.6878
 6601SOL    HW231440   1.277   1.433  17.088 -0.3012  2.4086 -0.4776
 6602SOL     OW31441   4.603   1.052   7.189  0.3327 -0.0928 -0.2578
 6602SOL    HW131442   4.651   1.120   7.236 -0.6453  0.4092  0.0053
 6602SOL    HW231443   4.535   1.031   7.253 -0.7836 -0.0197 -1.4211
 6603SOL     OW31444   3.245   1.154   7.349 -0.2238  0.6875  0.1520
 6603SOL    HW131445   3.185   1.207   7.400 -0.2861  2.7625 -2.1022
 6603SOL    HW231446   3.183   1.099   7.301  1.9328 -0.2135 -1.6251
 6604SOL     OW31447   2.924   1.855   8.143 -0.3434  0.1934 -0.3186
 6604SOL    HW131448   3.001   1.898   8.179  0.1250 -1.8385  1.0777
 6604SOL    HW231449   2.968   1.780   8.103  0.5434 -0.8680  2.6638
 6605SOL     OW31450   3.074   2.817   7.096 -0.0222  0.2520  0.3411
 6605SOL    HW131451   3.071   2.878   7.170 -1.6112 -0.5795  0.9767
 6605SOL    HW231452   3.049   2.729   7.124 -1.5634  1.1892  1.9067
 6606SOL     OW31453   0.391   1.740   3.474 -0.0291 -0.0823 -0.4980
 6606SOL    HW131454   0.481   1.764   3.496 -0.3093 -0.6748  1.3733
 6606SOL    HW231455   0.348   1.825   3.471 -0.6499 -0.3933 -0.6185
 6607SOL     OW31456   4.117   4.548  12.080  0.2820 -0.1097 -0.5635
 6607SOL    HW131457   4.073   4.575  11.999 -2.0708  0.5332  0.9154
 6607SOL    HW231458   4.190   4.610  12.081  1.4460 -1.5470  2.0682
 6608SOL     OW31459   0.133   1.988   2.627  0.2765 -0.2823  0.1425
 6608SOL    HW131460   0.039   2.002   2.619  0.1213  0.6839  3.3553
 6608SOL    HW231461   0.136   1.899   2.662  0.3179 -1.0424 -1.8412
 6609SOL     OW31462   2.975   4.125   8.188 -0.2143 -0.3658 -0.3146
 6609SOL    HW131463   2.993   4.197   8.128  0.8120 -1.2478 -1.0669
 6609SOL    HW231464   2.966   4.049   8.131  4.0999 -2.8273  2.3191
 6610SOL     OW31465   0.944   2.321   5.567 -0.7287 -0.4790 -0.3162
 6610SOL    HW131466   0.949   2.319   5.471 -0.6488  0.4247 -0.3310
 6610SOL    HW231467   0.867   2.264   5.564 -1.2325  0.2164 -0.5418
 6611SOL     OW31468   1.773   1.074   7.293 -0.0177 -0.6958 -0.0562
 6611SOL    HW131469   1.808   1.068   7.204 -0.0986  0.3680 -0.1667
 6611SOL    HW231470   1.852   1.114   7.329  0.6614 -3.0696  1.0230
 6612SOL     OW31471   2.580   3.084   2.890 -0.1589  0.1356 -0.0547
 6612SOL    HW131472   2.536   3.168   2.892 -1.4295 -0.4980 -1.8676
 6612SOL    HW231473   2.544   3.032   2.962  0.5544  0.0546  0.2488
 6613SOL     OW31474   2.919   0.968   6.972 -0.0624 -0.0764  0.4503
 6613SOL    HW131475   2.967   1.006   7.046  0.6301 -0.3183  0.1192
 6613SOL    HW231476   2.972   0.889   6.971 -1.6245 -1.1284  1.7189
 6614SOL     OW31477   0.531   2.644   7.406 -0.4420  0.6539 -0.3104
 6614SOL    HW131478   0.484   2.727   7.398 -1.3518  0.2094  0.5248
 6614SOL    HW231479   0.470   2.590   7.457 -0.2432  1.1901  0.4879
 6615SOL     OW31480   4.252   3.318  11.180  0.2035 -0.2821 -0.0057
 6615SOL    HW131481   4.251   3.279  11.267  0.1888 -0.9109 -0.2878
 6615SOL    HW231482   4.172   3.370  11.173 -0.0087 -0.8974 -2.3107
 6616SOL     OW31483   3.772   1.581  11.572 -0.4628  0.1568 -0.7814
 6616SOL    HW131484   3.684   1.608  11.546 -0.8780 -0.1754  0.2636
 6616SOL    HW231485   3.746   1.521  11.642  1.2341  0.6289  0.2425
 6617SOL     OW31486   1.992   1.376   1.896  0.0899  0.0145 -0.3563
 6617SOL    HW131487   1.983   1.300   1.838 -0.5664  1.1927 -1.8096
 6617SOL    HW231488   2.075   1.351   1.937  0.9940  2.5930 -0.6213
 6618SOL     OW31489   3.870   4.312  16.766 -0.1037 -0.3160 -0.9342
 6618SOL    HW131490   3.839   4.391  16.809 -2.9176 -1.4441 -0.8592
 6618SOL    HW231491   3.807   4.242  16.782 -0.5781 -0.0412 -1.5929
 6619SOL     OW31492   2.806   3.905   5.228 -0.1608 -0.0025 -0.0187
 6619SOL    HW131493   2.712   3.904   5.210  0.0318 -1.4408 -0.9226
 6619SOL    HW231494   2.828   3.998   5.215  1.5512 -0.3687  0.2835
 6620SOL     OW31495   1.293   2.473   9.701  0.1767 -0.3127  0.2702
 6620SOL    HW131496   1.384   2.504   9.709  0.1642 -0.3428  0.5355
 6620SOL    HW231497   1.311   2.414   9.628  0.7178  0.6726 -0.3994
 6621SOL     OW31498   1.529   2.685   6.838 -0.3877 -0.0697 -0.4857
 6621SOL    HW131499   1.458   2.748   6.826 -0.4550 -0.1362 -0.4357
 6621SOL    HW231500   1.503   2.641   6.919 -1.2489 -0.9807 -1.2653
 6622SOL     OW31501   2.220   0.372   2.736 -0.0143  0.7860  0.4490
 6622SOL    HW131502   2.146   0.312   2.748  1.0457 -0.6298 -0.0642
 6622SOL    HW231503   2.172   0.450   2.766  2.4429  1.9257  1.3981
 6623SOL     OW31504   1.152   4.468  10.742  0.0206 -0.0381  0.6915
 6623SOL    HW131505   1.174   4.464  10.649  1.1828  0.1219  0.9576
 6623SOL    HW231506   1.229   4.517  10.771 -0.1020  0.7075 -0.2273
 6624SOL     OW31507   2.401   3.011   7.714  0.1059 -0.1427  0.3861
 6624SOL    HW131508   2.368   2.942   7.770  2.6292 -0.4198  1.5472
 6624SOL    HW231509   2.465   2.969   7.656 -0.6779  0.6776 -1.0949
 6625SOL     OW31510   0.952   1.268  11.607  0.1134 -0.3092  0.0513
 6625SOL    HW131511   1.030   1.244  11.657 -1.1809 -1.5636  1.4549
 6625SOL    HW231512   0.890   1.223  11.665  1.6247 -0.2764  1.7258
 6626SOL     OW31513   0.913   1.389   8.719  0.1759  0.5216  0.3789
 6626SOL    HW131514   0.843   1.413   8.779  0.3357  0.2278  0.6833
 6626SOL    HW231515   0.867   1.405   8.637 -0.1886  1.2933  0.7336
 6627SOL     OW31516   3.708   1.348  11.375  0.2861 -0.2667 -0.0409
 6627SOL    HW131517   3.750   1.401  11.307  0.2060  0.3019  0.3562
 6627SOL    HW231518   3.742   1.372  11.461 -0.7737  0.5391  0.1624
 6628SOL     OW31519   1.860   0.805  17.076 -0.2000 -0.0469  0.2157
 6628SOL    HW131520   1.899   0.724  17.043  0.6247  1.1653 -1.8161
 6628SOL    HW231521   1.877   0.798  17.170 -4.6061 -1.6551  0.8862
 6629SOL     OW31522   1.950   3.990  16.536 -0.2055 -0.7209  0.2903
 6629SOL    HW131523   1.959   4.082  16.515  1.0883 -0.6872  1.0171
 6629SOL    HW231524   2.037   3.959  16.563  0.7577  1.8578  0.0642
 6630SOL     OW31525   1.143   0.326   4.278  0.0817 -1.0380  0.4235
 6630SOL    HW131526   1.138   0.266   4.353 -0.4979 -2.5622 -0.8331
 6630SOL    HW231527   1.217   0.286   4.233  1.2296  1.2946  0.2361
 6631SOL     OW31528   0.975   0.175   3.551 -0.1090  0.4634  0.5854
 6631SOL    HW131529   0.966   0.100   3.610  0.1429  0.3920  0.5304
 6631SOL    HW231530   1.052   0.146   3.502  0.2949 -0.3477  1.6926
 6632SOL     OW31531   3.647   0.671   8.522  0.1887 -0.0633 -0.0651
 6632SOL    HW131532   3.575   0.735   8.518 -0.9694 -1.3157  1.0467
 6632SOL    HW231533   3.715   0.693   8.458  0.0783  1.9186  0.4970
 6633SOL     OW31534   1.827   0.083   9.411 -0.1138 -0.1294  0.3374
 6633SOL    HW131535   1.915   0.095   9.447 -0.0088 -1.7740  0.6289
 6633SOL    HW231536   1.797   0.008   9.460  1.5129 -0.5634  0.6822
 6634SOL     OW31537   0.403   4.736   3.432  0.0566  0.2584 -0.0963
 6634SOL    HW131538   0.412   0.014   3.526  0.5312  0.4633 -0.1757
 6634SOL    HW231539   0.324   4.682   3.424 -0.8456  1.3163  1.7099
 6635SOL     OW31540   1.787   1.447  12.712 -0.2712 -0.0101 -0.4452
 6635SOL    HW131541   1.719   1.443  12.644 -0.4020 -0.6065 -0.2774
 6635SOL    HW231542   1.739   1.405  12.783 -0.5354  1.8818  0.5013
 6636SOL     OW31543   2.062   2.469   5.030 -0.7840  0.1583  0.1628
 6636SOL    HW131544   2.140   2.439   4.984 -1.5216 -2.0666  0.3298
 6636SOL    HW231545   2.082   2.562   5.037 -0.3743  0.0031  1.0568
 6637SOL     OW31546   1.584   2.066   4.410  0.4342 -0.2888 -0.4034
 6637SOL    HW131547   1.512   2.034   4.464  0.0557  1.7820  0.3309
 6637SOL    HW231548   1.527   2.118   4.354 -1.1433  0.1153  1.5853
 6638SOL     OW31549   4.339   4.151   4.379 -0.6742 -0.2144 -0.1932
 6638SOL    HW131550   4.396   4.082   4.415 -1.4693 -0.3996  0.6939
 6638SOL    HW231551   4.270   4.149   4.444 -1.3388 -0.8947 -0.9203
 6639SOL     OW31552   1.139   2.131   2.302 -0.2553 -0.1010  0.1032
 6639SOL    HW131553   1.216   2.097   2.257 -0.6783 -1.3885  0.3311
 6639SOL    HW231554   1.175   2.215   2.330 -0.3046 -0.1694  0.3785
 6640SOL     OW31555   3.306   2.949   1.839  0.1670  0.2142 -0.0136
 6640SOL    HW131556   3.304   3.040   1.809 -2.0374 -0.3537 -1.5713
 6640SOL    HW231557   3.345   2.962   1.925  2.0053 -1.4563 -0.5762
 6641SOL     OW31558   1.764   1.564   3.542 -0.0181 -0.1332 -0.3134
 6641SOL    HW131559   1.718   1.511   3.477  0.6743 -0.5901 -0.4356
 6641SOL    HW231560   1.824   1.627   3.500  1.4502 -2.4615 -1.6989
 6642SOL     OW31561   1.570   2.475   4.711 -0.4185 -0.6655 -0.0678
 6642SOL    HW131562   1.563   2.383   4.687 -0.5407 -0.3390 -1.2651
 6642SOL    HW231563   1.486   2.497   4.751 -0.2745  2.6374 -1.5907
 6643SOL     OW31564   3.043   1.942   2.696 -0.3550  0.1848  0.6649
 6643SOL    HW131565   3.107   1.874   2.719 -0.0187  0.5128  0.7020
 6643SOL    HW231566   3.090   2.002   2.639  1.6448 -1.1013  0.9534
 6644SOL     OW31567   1.429   2.228   4.230 -0.1954  0.6927 -0.4475
 6644SOL    HW131568   1.342   2.189   4.228  0.8310 -1.6219  0.0667
 6644SOL    HW231569   1.407   2.320   4.241  1.0312  0.8504  0.7034
 6645SOL     OW31570   1.421   3.716   6.973  0.2109 -0.0485 -0.5725
 6645SOL    HW131571   1.462   3.763   6.900  0.7918  0.4886  0.0920
 6645SOL    HW231572   1.403   3.791   7.030 -2.1529 -1.8887  1.0909
 6646SOL     OW31573   2.787   3.921   6.564  0.5006  0.0292 -0.0104
 6646SOL    HW131574   2.785   3.862   6.639 -2.2111  2.4800  1.8863
 6646SOL    HW231575   2.748   3.873   6.492 -0.1456  3.9059 -2.2541
 6647SOL     OW31576   0.899   3.237  17.252 -0.1580 -0.3344 -0.5313
 6647SOL    HW131577   0.876   3.158  17.302 -1.3416 -0.7314 -1.6919
 6647SOL    HW231578   0.887   3.215  17.160 -0.0361 -0.9224 -0.4078
 6648SOL     OW31579   1.882   2.997  13.259 -0.3572  0.4206  0.3373
 6648SOL    HW131580   1.882   3.078  13.310 -2.0426  0.7153 -0.1527
 6648SOL    HW231581   1.912   3.027  13.173 -0.1971  2.7604  1.2303
 6649SOL     OW31582   1.197   0.387  13.060 -0.2772  0.1115 -0.2184
 6649SOL    HW131583   1.133   0.329  13.102 -0.6258  0.9269  0.3640
 6649SOL    HW231584   1.264   0.406  13.126  0.6765 -0.9675 -0.8696
 6650SOL     OW31585   3.289   1.572   8.232  0.0819  0.0730  0.3883
 6650SOL    HW131586   3.228   1.514   8.185  0.4360  0.9875 -1.1957
 6650SOL    HW231587   3.233   1.581   8.310  1.4339  0.9756  1.2526
 6651SOL     OW31588   3.904   3.202   5.555  0.4423 -0.5059  0.3327
 6651SOL    HW131589   3.941   3.116   5.578 -1.7062 -1.2821  0.8653
 6651SOL    HW231590   3.813   3.189   5.581  0.1352  1.6830  0.2952
 6652SOL     OW31591   0.054   2.440   7.050 -0.3348  0.1158 -0.4480
 6652SOL    HW131592   0.069   2.387   6.972 -0.5754 -1.2255  0.4233
 6652SOL    HW231593   0.111   2.397   7.114 -0.4698  1.1496  0.3649
 6653SOL     OW31594   1.940   4.419  10.577 -0.0023  0.4991 -0.3664
 6653SOL    HW131595   1.960   4.345  10.520  0.4970 -0.6913  1.3889
 6653SOL    HW231596   2.025   4.438  10.617  0.2083 -1.6395  0.1849
 6654SOL     OW31597   3.638   4.198   8.016  0.2063  0.3991  0.2228
 6654SOL    HW131598   3.642   4.136   7.943 -1.3391  0.8978 -0.2898
 6654SOL    HW231599   3.586   4.269   7.979  1.7568  1.0327 -0.7609
 6655SOL     OW31600   4.667   2.799   5.582 -0.0449  0.4967  0.2823
 6655SOL    HW131601   4.713   2.882   5.573  0.5813 -0.0229 -1.2731
 6655SOL    HW231602   4.584   2.806   5.535  1.4360  1.2946 -2.1995
 6656SOL     OW31603   3.561   1.947  12.055  0.1034 -0.2511 -0.5695
 6656SOL    HW131604   3.483   1.895  12.071 -0.7255  0.6783 -1.6286
 6656SOL    HW231605   3.622   1.882  12.019  0.3284 -0.8954  0.9604
 6657SOL     OW31606   4.228   3.786   0.215 -0.0785 -0.3019  0.5581
 6657SOL    HW131607   4.183   3.769   0.132  0.3944 -0.7380  0.3981
 6657SOL    HW231608   4.263   3.871   0.187 -1.4030 -0.5328 -1.8459
 6658SOL     OW31609   3.128   0.845   0.802 -0.7101 -0.0283 -0.5548
 6658SOL    HW131610   3.119   0.751   0.789 -2.7139  0.0071  0.6225
 6658SOL    HW231611   3.127   0.847   0.898  2.1113  2.9067 -0.5832
 6659SOL     OW31612   3.324   4.356   5.791  0.1797 -0.0956  0.0133
 6659SOL    HW131613   3.275   4.278   5.766  0.2542  0.8460 -3.0703
 6659SOL    HW231614   3.333   4.406   5.710 -3.0325 -0.3792 -0.5098
 6660SOL     OW31615   0.633   2.524   7.705 -0.3535  0.0534  0.0230
 6660SOL    HW131616   0.683   2.598   7.670  0.3655 -0.8730 -0.8940
 6660SOL    HW231617   0.555   2.567   7.741 -0.8147 -0.5880 -0.2197
 6661SOL     OW31618   1.871   4.131   8.893  0.2284  0.4880  0.3551
 6661SOL    HW131619   1.960   4.096   8.901  0.1154  0.2634  0.6449
 6661SOL    HW231620   1.890   4.212   8.846 -1.3272 -0.5854 -2.1297
 6662SOL     OW31621   3.015   3.603   7.122 -0.1606 -0.4758 -0.1808
 6662SOL    HW131622   2.976   3.677   7.168 -1.2741 -0.1667 -1.6154
 6662SOL    HW231623   2.935   3.567   7.084  1.6720 -2.0818 -2.5184
 6663SOL     OW31624   2.401   3.978  14.402 -0.4469 -0.0249 -0.3276
 6663SOL    HW131625   2.450   3.983  14.484  0.4646  0.0227 -0.8746
 6663SOL    HW231626   2.471   4.002  14.341  0.9081 -1.6407  0.5884
 6664SOL     OW31627   4.596   0.336   7.814 -0.2446  1.1304 -0.0439
 6664SOL    HW131628   4.635   0.408   7.765  1.0016  1.5972  1.6135
 6664SOL    HW231629   4.562   0.393   7.884 -0.7286 -1.8486  2.1525
 6665SOL     OW31630   1.950   0.633  14.766  0.2541  0.1158 -0.3814
 6665SOL    HW131631   1.918   0.558  14.817  1.4697  0.3084  0.6690
 6665SOL    HW231632   2.003   0.592  14.698  0.2567  0.1951 -0.4271
 6666SOL     OW31633   3.559   0.912  12.608  0.0819 -0.0865  0.5333
 6666SOL    HW131634   3.653   0.921  12.619 -0.1255 -0.1127  2.3047
 6666SOL    HW231635   3.559   0.822  12.575 -3.3584  0.2847 -0.5641
 6667SOL     OW31636   3.980   1.644   1.853  0.1724  0.2973  0.5143
 6667SOL    HW131637   3.889   1.623   1.876  0.3823 -1.7728 -0.5370
 6667SOL    HW231638   3.994   1.551   1.836  0.6394  0.0579  2.2811
 6668SOL     OW31639   2.281   0.872   9.901  0.0416 -0.3392  0.3327
 6668SOL    HW131640   2.232   0.792   9.924 -0.9395 -0.6212 -2.7202
 6668SOL    HW231641   2.217   0.925   9.853 -0.4396 -1.9311 -0.7990
 6669SOL     OW31642   0.635   0.039   8.951  0.8981  0.0461 -0.1551
 6669SOL    HW131643   0.697   0.084   8.895  1.4786 -1.2055 -0.5161
 6669SOL    HW231644   0.639   0.089   9.032  0.3403  1.1219 -0.8010
 6670SOL     OW31645   4.609   3.408   5.731 -0.2196  0.4899  0.1011
 6670SOL    HW131646   4.517   3.433   5.721 -0.2149  0.1907 -0.6488
 6670SOL    HW231647   4.609   3.339   5.666 -2.3422  0.0424  0.5744
 6671SOL     OW31648   3.537   3.546   0.464 -0.2472 -0.7493  0.0625
 6671SOL    HW131649   3.611   3.521   0.408 -0.2461  0.4700 -0.4776
 6671SOL    HW231650   3.585   3.559   0.545  2.1729 -1.3324 -1.2892
 6672SOL     OW31651   3.027   2.974   8.521  0.1361 -0.3952 -0.0162
 6672SOL    HW131652   2.943   2.927   8.527  0.1241 -0.4999 -1.1082
 6672SOL    HW231653   3.080   2.905   8.482 -0.3184  0.3321 -1.8991
 6673SOL     OW31654   0.512   1.794  15.789 -0.1084  0.4306  0.3951
 6673SOL    HW131655   0.570   1.868  15.807  1.4959 -0.8199  0.3449
 6673SOL    HW231656   0.557   1.741  15.723  1.9566  1.6388  0.8296
 6674SOL     OW31657   1.497   4.367   2.075  0.8974 -0.0449  0.0493
 6674SOL    HW131658   1.485   4.290   2.019  0.9417  0.1795 -0.2675
 6674SOL    HW231659   1.546   4.419   2.011  1.5675  0.8895  1.3271
 6675SOL     OW31660   4.229   1.922   2.229  0.3453 -0.0993  0.5117
 6675SOL    HW131661   4.159   1.912   2.165  0.0159 -0.9751  1.0118
 6675SOL    HW231662   4.243   2.017   2.236  1.5771 -0.1227 -1.5249
 6676SOL     OW31663   1.287   3.786  12.442 -0.5235 -0.3633 -0.4075
 6676SOL    HW131664   1.242   3.702  12.440  0.5417 -0.9618  0.8727
 6676SOL    HW231665   1.366   3.760  12.394 -1.0198 -0.5805 -1.1131
 6677SOL     OW31666   2.202   3.120   9.722  0.0095  0.1474 -0.0155
 6677SOL    HW131667   2.263   3.096   9.652  0.1896  1.0760 -0.1774
 6677SOL    HW231668   2.239   3.071   9.796  3.0073  2.3399 -0.0542
 6678SOL     OW31669   2.684   1.330   5.666  0.3343 -0.0405 -0.4222
 6678SOL    HW131670   2.720   1.241   5.662 -0.0871 -0.1219 -2.0725
 6678SOL    HW231671   2.727   1.361   5.746 -0.3193  0.5856 -0.3190
 6679SOL     OW31672   0.363   3.010   2.085 -0.5152  0.0296 -0.5759
 6679SOL    HW131673   0.370   3.077   2.154  0.4741 -0.2964 -0.3645
 6679SOL    HW231674   0.451   2.974   2.082 -0.1360  0.6822  1.9663
 6680SOL     OW31675   2.372   3.982   6.707 -0.1577 -0.2234 -0.6443
 6680SOL    HW131676   2.319   4.060   6.695  2.6297  2.1615  2.5000
 6680SOL    HW231677   2.446   4.014   6.758  0.7426 -2.6352 -0.4122
 6681SOL     OW31678   0.292   2.416   1.632  0.0256 -0.7119 -0.1894
 6681SOL    HW131679   0.254   2.430   1.719  1.6610  1.2850  0.1931
 6681SOL    HW231680   0.235   2.347   1.600  0.4094 -1.4128  0.6335
 6682SOL     OW31681   1.247   2.111   2.712  0.4964 -0.0430 -0.0839
 6682SOL    HW131682   1.234   2.090   2.805  0.0662  0.2157 -0.0861
 6682SOL    HW231683   1.299   2.031   2.704  0.9829  0.3798 -1.1162
 6683SOL     OW31684   4.485   3.733   1.907 -0.4785 -0.2317  0.4884
 6683SOL    HW131685   4.444   3.806   1.861  0.3046 -1.1158 -1.6228
 6683SOL    HW231686   4.538   3.782   1.970  1.1841 -0.6788 -0.5777
 6684SOL     OW31687   2.338   3.703  16.035  0.0904 -0.1868  0.1996
 6684SOL    HW131688   2.345   3.618  15.991  2.7912 -0.6295  1.4452
 6684SOL    HW231689   2.337   3.757  15.957  0.8406 -1.0797 -0.4355
 6685SOL     OW31690   3.116   1.813   8.495 -0.4104 -0.4769  0.9570
 6685SOL    HW131691   3.123   1.721   8.470  1.3570 -0.8172  2.7325
 6685SOL    HW231692   3.205   1.827   8.527  1.2268 -2.3546 -2.8349
 6686SOL     OW31693   0.096   2.326   4.796  0.5340 -0.7779 -0.2431
 6686SOL    HW131694   0.050   2.367   4.869 -0.7908  1.4422 -2.3497
 6686SOL    HW231695   0.090   2.382   4.719  1.2618  0.9267  0.9499
 6687SOL     OW31696   2.813   0.375   2.620  0.6475  0.4514  0.5389
 6687SOL    HW131697   2.895   0.423   2.633  0.2024  1.0576  1.1074
 6687SOL    HW231698   2.766   0.375   2.703 -0.8565  2.9435 -0.3378
 6688SOL     OW31699   0.978   0.244   3.925  0.8511  0.3131  0.3907
 6688SOL    HW131700   0.947   0.302   3.995 -2.1653 -0.2359 -0.5260
 6688SOL    HW231701   1.048   0.300   3.890 -1.0248  1.1345 -2.0832
 6689SOL     OW31702   0.011   2.165   7.238  0.0223  0.0702  0.1888
 6689SOL    HW131703   0.031   2.103   7.308 -2.0230  0.6585  1.2831
 6689SOL    HW231704   4.654   2.167   7.249 -0.1316 -0.2485 -1.0718
 6690SOL     OW31705   1.431   0.909   4.606 -0.1692 -0.3692 -0.2798
 6690SOL    HW131706   1.429   0.861   4.523 -0.0210 -0.0634 -0.4616
 6690SOL    HW231707   1.341   0.939   4.617 -0.2763 -1.3935  1.4903
 6691SOL     OW31708   1.439   0.864   6.628  0.1474  0.4442 -0.0619
 6691SOL    HW131709   1.425   0.779   6.585  3.4389  0.5465 -1.3071
 6691SOL    HW231710   1.497   0.908   6.567  1.0498 -2.1602 -1.0542
 6692SOL     OW31711   3.036   0.348   8.737  0.5618  0.2333 -0.2130
 6692SOL    HW131712   3.082   0.369   8.818 -0.5026 -1.5433  0.8538
 6692SOL    HW231713   3.107   0.320   8.679 -1.4116 -0.7050 -2.1719
 6693SOL     OW31714   3.354   2.759   7.175  0.2927  0.1491 -0.0388
 6693SOL    HW131715   3.301   2.732   7.251 -1.4028 -2.4639 -2.1470
 6693SOL    HW231716   3.319   2.842   7.144 -1.2163 -0.0389  1.1417
 6694SOL     OW31717   2.772   4.368  17.106  0.2811 -0.1208 -0.3991
 6694SOL    HW131718   2.841   4.363  17.173  0.2365  0.8311 -0.2834
 6694SOL    HW231719   2.794   4.290  17.055 -0.7370 -0.2250 -0.6814
 6695SOL     OW31720   2.197   2.900   8.887 -0.2862 -0.0806 -0.1238
 6695SOL    HW131721   2.111   2.859   8.880  0.1123 -0.8338 -0.5431
 6695SOL    HW231722   2.188   2.981   8.836  1.7784  0.7006  0.7695
 6696SOL     OW31723   3.816   2.036   3.206  1.0996  0.2686 -0.2107
 6696SOL    HW131724   3.849   2.043   3.117 -0.0500  2.5905 -0.4657
 6696SOL    HW231725   3.723   2.055   3.202  0.8786 -0.3711  1.6796
 6697SOL     OW31726   0.569   1.965  12.671 -0.7336  0.4662 -0.0050
 6697SOL    HW131727   0.474   1.956  12.660 -0.9461  1.0128  1.3657
 6697SOL    HW231728   0.572   1.971  12.766 -3.7825  0.8323  0.0771
 6698SOL     OW31729   3.171   3.471   3.395  0.4024  0.4225 -0.3189
 6698SOL    HW131730   3.090   3.504   3.434  1.1735  0.6283  1.1116
 6698SOL    HW231731   3.139   3.424   3.318  1.2787 -1.4724  0.4623
 6699SOL     OW31732   0.646   3.451   3.290  0.4836  0.1559  0.3781
 6699SOL    HW131733   0.569   3.396   3.273  0.6061 -0.8420  3.0899
 6699SOL    HW231734   0.655   3.502   3.210 -0.9515 -1.1778 -0.6417
 6700SOL     OW31735   0.856   2.228   4.245 -0.0430  0.4906  0.0912
 6700SOL    HW131736   0.863   2.172   4.323  1.2099 -2.1175 -1.8835
 6700SOL    HW231737   0.881   2.319   4.261  1.4107  0.1322 -0.1060
 6701SOL     OW31738   0.186   0.254   7.967 -0.0180  0.1535 -0.2878
 6701SOL    HW131739   0.204   0.241   7.874 -0.7575 -0.8810 -0.2893
 6701SOL    HW231740   0.100   0.211   7.969 -0.2413  0.4868 -2.3628
 6702SOL     OW31741   4.084   0.018   1.393 -0.3074  0.3734  0.1866
 6702SOL    HW131742   4.013   4.710   1.439 -0.0590 -0.5040 -0.3058
 6702SOL    HW231743   4.137   0.043   1.468  0.7760 -1.5228  0.0715
 6703SOL     OW31744   3.849   0.392   5.535 -0.8593 -0.5605 -0.1534
 6703SOL    HW131745   3.865   0.455   5.465  2.3483 -2.7935 -1.4481
 6703SOL    HW231746   3.898   0.322   5.491 -0.5015 -0.0682 -0.5399
 6704SOL     OW31747   4.461   2.666   8.196 -0.5686  0.1571 -0.3305
 6704SOL    HW131748   4.397   2.597   8.177 -1.3298  0.6155  0.5824
 6704SOL    HW231749   4.426   2.742   8.148 -1.9147 -0.4657 -0.3350
 6705SOL     OW31750   3.686   1.930   7.145 -0.5004 -1.0368 -0.1482
 6705SOL    HW131751   3.743   1.979   7.204 -0.5596 -0.8434 -0.2488
 6705SOL    HW231752   3.735   1.850   7.134 -1.2376 -1.5543  0.3305
 6706SOL     OW31753   1.291   4.048   1.172  0.3889 -0.2563 -0.1130
 6706SOL    HW131754   1.262   3.984   1.107  1.5936 -0.4300 -0.4757
 6706SOL    HW231755   1.372   4.077   1.130  0.9265  0.6224  1.5194
 6707SOL     OW31756   2.297   4.587  15.925 -0.3600 -0.6452 -0.0225
 6707SOL    HW131757   2.219   4.635  15.951 -0.3154 -0.3436 -0.4492
 6707SOL    HW231758   2.290   4.510  15.982  1.2843  1.3036  2.7793
 6708SOL     OW31759   0.895   2.552  12.108 -0.4776  0.4517  0.3621
 6708SOL    HW131760   0.811   2.545  12.154  0.4270 -5.0242  1.1801
 6708SOL    HW231761   0.950   2.596  12.174 -0.2311 -1.3419  1.3515
 6709SOL     OW31762   4.554   1.262   6.035 -0.0152 -0.0144 -0.1945
 6709SOL    HW131763   4.630   1.297   5.988  0.2033  0.6566  0.6482
 6709SOL    HW231764   4.483   1.316   6.001 -0.7458 -2.0663 -1.8806
 6710SOL     OW31765   0.765   4.001  17.116  0.5787 -0.0965  0.7665
 6710SOL    HW131766   0.751   4.095  17.104  2.4133  0.0113 -0.5757
 6710SOL    HW231767   0.780   4.005  17.210  2.7181 -0.9690  0.4682
 6711SOL     OW31768   2.066   1.005   2.961 -0.0106 -0.4343 -0.1863
 6711SOL    HW131769   2.014   1.062   2.904 -1.1003 -2.2483 -1.0326
 6711SOL    HW231770   2.153   1.044   2.961  0.5877 -1.7740  0.2478
 6712SOL     OW31771   0.261   2.398   2.192 -0.0376 -0.1713 -0.1390
 6712SOL    HW131772   0.236   2.464   2.256  0.9088  1.6644 -1.6969
 6712SOL    HW231773   0.347   2.374   2.226 -0.3029 -0.6524  0.2134
 6713SOL     OW31774   0.169   3.002  15.245  0.1751  0.1457 -0.0259
 6713SOL    HW131775   0.130   2.915  15.253  0.6806  0.0485  1.5887
 6713SOL    HW231776   0.118   3.041  15.175  3.1103 -1.0431 -2.7912
 6714SOL     OW31777   4.461   0.341   8.654 -0.0287 -0.0333 -0.0283
 6714SOL    HW131778   4.529   0.288   8.612 -0.3878  1.2160 -2.1834
 6714SOL    HW231779   4.516   0.374   8.725  1.4135 -2.6285  0.0683
 6715SOL     OW31780   2.531   3.926   2.261  0.1456  0.3577 -0.2234
 6715SOL    HW131781   2.511   3.840   2.223  1.0245  0.7625 -1.6156
 6715SOL    HW231782   2.439   3.954   2.269  0.1850  0.2082  0.6893
 6716SOL     OW31783   3.533   0.215   5.808  0.0979  0.4500  0.3155
 6716SOL    HW131784   3.586   0.140   5.833 -0.3539  0.2686  0.7210
 6716SOL    HW231785   3.479   0.225   5.886  0.4134  0.1457  0.5721
 6717SOL     OW31786   0.929   0.157   9.581 -0.7751  0.0420  0.4602
 6717SOL    HW131787   1.007   0.180   9.532  0.1643 -0.1166  1.8790
 6717SOL    HW231788   0.958   0.161   9.672  1.6938  1.2685 -0.4034
 6718SOL     OW31789   4.188   3.459   5.312  0.2643  0.0429 -0.6218
 6718SOL    HW131790   4.143   3.386   5.270 -0.8199  1.1029 -1.2858
 6718SOL    HW231791   4.118   3.479   5.374  0.0160  0.4640 -1.0400
 6719SOL     OW31792   0.726   2.764   4.103  0.4332 -0.1224 -0.3468
 6719SOL    HW131793   0.794   2.758   4.170 -2.3721  1.3160  2.6075
 6719SOL    HW231794   0.766   2.829   4.045 -0.5252  1.0998  0.3423
 6720SOL     OW31795   1.088   1.329   1.522  0.3990 -0.0540  0.7667
 6720SOL    HW131796   1.045   1.319   1.437 -0.7777 -0.9374  1.4659
 6720SOL    HW231797   1.047   1.404   1.564 -0.0858  0.8450 -1.3409
 6721SOL     OW31798   2.363   1.546   2.801 -0.5757 -0.0444 -0.0651
 6721SOL    HW131799   2.304   1.535   2.877 -0.2589 -0.8195  0.0706
 6721SOL    HW231800   2.444   1.505   2.832 -1.8493 -2.2207  0.4520
 6722SOL     OW31801   2.662   0.565   1.245 -0.4321  0.8776  0.3814
 6722SOL    HW131802   2.697   0.629   1.307 -0.3807  1.0129  0.2127
 6722SOL    HW231803   2.585   0.541   1.295 -1.2098 -0.7046 -1.5759
 6723SOL     OW31804   1.889   3.814  12.837  0.2380 -0.0669  0.1313
 6723SOL    HW131805   1.823   3.769  12.890  0.5486 -0.3658  0.2627
 6723SOL    HW231806   1.959   3.815  12.902  0.4601  0.1015 -0.1102
 6724SOL     OW31807   1.265   4.458   4.427  0.2300  0.8288 -0.6813
 6724SOL    HW131808   1.360   4.446   4.419 -0.2054 -2.9536 -0.4234
 6724SOL    HW231809   1.255   4.542   4.470 -1.9223  0.6564 -0.8541
 6725SOL     OW31810   3.422   4.568   3.512  0.1062 -0.4888 -0.3428
 6725SOL    HW131811   3.397   4.629   3.442  1.1946 -3.8126 -3.6527
 6725SOL    HW231812   3.391   4.612   3.591  2.8764  0.4352  0.2402
 6726SOL     OW31813   0.673   3.505   6.881  0.0347 -0.0584  0.1108
 6726SOL    HW131814   0.716   3.426   6.913 -1.3000 -1.5152 -1.6324
 6726SOL    HW231815   0.741   3.571   6.893 -1.0463  1.4417 -1.8614
 6727SOL     OW31816   3.989   2.623   1.086  0.3487  0.3929  0.2175
 6727SOL    HW131817   3.992   2.642   1.180 -3.0509 -0.2976  0.4852
 6727SOL    HW231818   4.054   2.554   1.074 -2.3838 -2.5247  2.2445
 6728SOL     OW31819   0.123   1.061   3.670  0.0975 -0.0298 -0.3917
 6728SOL    HW131820   0.178   1.139   3.678 -0.2257  0.1278  0.3475
 6728SOL    HW231821   0.178   1.011   3.610  1.4499 -2.3759  2.7732
 6729SOL     OW31822   1.199   3.254   7.061 -0.1720 -0.0580  0.0295
 6729SOL    HW131823   1.193   3.248   6.966  0.9165 -0.0780 -0.0405
 6729SOL    HW231824   1.145   3.176   7.076 -0.2770  0.3750  1.9115
 6730SOL     OW31825   2.040   0.986   8.833  0.1323  0.0179  0.0887
 6730SOL    HW131826   2.061   1.075   8.863 -1.0957  0.8125 -1.3690
 6730SOL    HW231827   1.945   0.986   8.838 -0.0416  0.6867 -3.0835
 6731SOL     OW31828   1.133   4.348   3.402 -0.5956 -0.0663  0.1895
 6731SOL    HW131829   1.140   4.434   3.361  1.1836 -0.2054  0.1990
 6731SOL    HW231830   1.150   4.371   3.493 -1.2010  0.8861  0.0560
 6732SOL     OW31831   0.794   2.310  16.831 -0.2952 -0.7660  0.1224
 6732SOL    HW131832   0.824   2.219  16.835  3.7032  0.6117  2.3116
 6732SOL    HW231833   0.709   2.288  16.793 -1.5914  0.3078  2.4423
 6733SOL     OW31834   3.246   1.509   1.398 -0.5464 -0.2194  0.3755
 6733SOL    HW131835   3.188   1.568   1.349 -0.9051 -0.8289  0.0499
 6733SOL    HW231836   3.204   1.428   1.367 -3.4871  0.9066  1.4006
 6734SOL     OW31837   1.249   3.026   4.449  0.9221  0.3701  0.4458
 6734SOL    HW131838   1.288   3.109   4.422  0.8842 -0.1894 -1.3158
 6734SOL    HW231839   1.313   2.976   4.500 -0.7045 -1.3493  0.7900
 6735SOL     OW31840   1.697   0.919  11.781  0.0197  0.2520 -0.0453
 6735SOL    HW131841   1.613   0.958  11.807 -0.4339 -0.5653 -0.2823
 6735SOL    HW231842   1.707   0.948  11.690  0.5230 -1.2648 -0.4643
 6736SOL     OW31843   1.195   2.681  13.800  0.4668  0.4511 -0.2969
 6736SOL    HW131844   1.201   2.777  13.795 -2.1447  0.7845  3.1168
 6736SOL    HW231845   1.188   2.650  13.710 -1.0185 -0.3679  0.1099
 6737SOL     OW31846   1.339   2.005  17.732 -0.2261 -0.0191 -0.0007
 6737SOL    HW131847   1.356   1.914  17.707  0.9781  0.5219 -1.1848
 6737SOL    HW231848   1.426   2.044  17.720  0.3950 -1.0596  1.1472
 6738SOL     OW31849   2.087   2.021   5.490 -0.6581 -0.0549 -0.1099
 6738SOL    HW131850   2.040   2.101   5.514 -1.8529 -0.9257  0.4410
 6738SOL    HW231851   2.177   2.045   5.468 -0.5612 -0.1400  0.1939
 6739SOL     OW31852   0.509   0.373   6.732  0.2521 -0.0083 -0.1445
 6739SOL    HW131853   0.583   0.416   6.775  0.0665 -1.3782  1.5242
 6739SOL    HW231854   0.538   0.283   6.716  0.4714  0.0702 -0.1847
 6740SOL     OW31855   3.841   2.850   4.264  0.6700  0.3179  0.1107
 6740SOL    HW131856   3.855   2.861   4.358  0.6851 -1.8029  0.3670
 6740SOL    HW231857   3.831   2.755   4.252 -1.5443  0.7034 -0.9249
 6741SOL     OW31858   0.025   3.827  15.534 -0.5666  0.4976  0.3297
 6741SOL    HW131859   4.693   3.851  15.595  0.0189  1.6949  0.5215
 6741SOL    HW231860   0.080   3.905  15.543 -0.2058 -0.0148  2.5539
 6742SOL     OW31861   2.911   4.089   8.570  0.4936 -0.0533  0.4356
 6742SOL    HW131862   2.998   4.126   8.582  1.4696 -2.0388 -0.5793
 6742SOL    HW231863   2.886   4.055   8.656 -1.3634 -0.5359 -0.2813
 6743SOL     OW31864   1.925   2.250  11.619 -0.5454 -0.9670  0.2956
 6743SOL    HW131865   1.966   2.165  11.604  0.5814 -0.5496  0.9372
 6743SOL    HW231866   1.934   2.293  11.534 -2.7704 -1.5084 -0.2168
 6744SOL     OW31867   4.110   1.986  11.850  0.7963  0.0436  0.5503
 6744SOL    HW131868   4.192   1.979  11.899  1.5652  1.0491 -0.5742
 6744SOL    HW231869   4.052   1.957  11.920  0.6623  0.1260  0.4730
 6745SOL     OW31870   0.377   3.520   9.399  0.0186  0.0300 -0.2775
 6745SOL    HW131871   0.303   3.550   9.346  0.3053  0.2536 -0.5498
 6745SOL    HW231872   0.357   3.426   9.398  0.9517 -0.1730 -0.0242
 6746SOL     OW31873   3.649   4.526   9.030  0.0655  0.1904  0.6518
 6746SOL    HW131874   3.724   4.574   8.994 -2.5722  2.3107 -2.0118
 6746SOL    HW231875   3.674   4.502   9.119  0.2187 -2.6689 -0.1565
 6747SOL     OW31876   0.933   1.267   4.517 -0.1553 -0.1077  0.2664
 6747SOL    HW131877   0.907   1.176   4.504 -0.0757 -0.0069 -0.6221
 6747SOL    HW231878   0.982   1.286   4.437  2.1044  0.8500  1.8564
 6748SOL     OW31879   0.878   4.701   5.388 -0.3094 -0.3048  0.0643
 6748SOL    HW131880   0.823   0.035   5.359 -0.6249  0.3377  2.2736
 6748SOL    HW231881   0.903   4.717   5.479 -2.0268 -0.0777  0.4809
 6749SOL     OW31882   2.205   1.834   1.152  0.5954  0.2946 -0.4975
 6749SOL    HW131883   2.149   1.757   1.145 -0.7230  1.1664  0.4966
 6749SOL    HW231884   2.260   1.807   1.226 -0.9230 -0.2886  0.4020
 6750SOL     OW31885   0.772   1.085   3.089 -0.3618 -0.3411  0.6088
 6750SOL    HW131886   0.846   1.145   3.076  0.4003 -1.7702 -1.4875
 6750SOL    HW231887   0.813   1.001   3.068 -0.2368 -0.2262  0.3921
 6751SOL     OW31888   0.158   0.382   7.260  0.0004  0.3024  0.0921
 6751SOL    HW131889   0.079   0.341   7.225  0.1344 -0.4297  0.6422
 6751SOL    HW231890   0.140   0.389   7.353  0.0099 -0.2267  0.1345
 6752SOL     OW31891   4.604   3.721   8.502 -0.1884 -0.5568 -0.5049
 6752SOL    HW131892   4.646   3.684   8.425 -0.9171 -1.2620 -0.5542
 6752SOL    HW231893   4.609   3.815   8.482 -1.3690 -0.3322  0.2139
 6753SOL     OW31894   1.671   0.337  12.853  0.5151  0.2063  0.0319
 6753SOL    HW131895   1.657   0.409  12.791 -0.7661 -1.4812 -1.6731
 6753SOL    HW231896   1.580   0.318  12.877  0.2139 -0.8950 -1.9457
 6754SOL     OW31897   4.369   0.237   2.314 -0.4185  0.3564 -0.1174
 6754SOL    HW131898   4.444   0.270   2.364 -0.5062 -0.0311  0.2646
 6754SOL    HW231899   4.299   0.250   2.377  1.3013  0.6648  1.7312
 6755SOL     OW31900   1.932   2.535  11.718  0.2671  0.1502 -0.4444
 6755SOL    HW131901   2.020   2.573  11.723  0.0095  0.6767  0.2373
 6755SOL    HW231902   1.939   2.441  11.701  0.7354  0.3719 -1.4716
 6756SOL     OW31903   2.108   1.604   5.672 -0.0187 -0.0327 -0.7505
 6756SOL    HW131904   2.186   1.651   5.703 -0.9430  1.8042 -1.2061
 6756SOL    HW231905   2.144   1.554   5.599 -0.7875 -0.6492 -0.7031
 6757SOL     OW31906   0.634   0.946   0.750  0.2465  0.1979  0.4396
 6757SOL    HW131907   0.631   1.035   0.786  0.0403  1.3643 -2.5163
 6757SOL    HW231908   0.591   0.961   0.666 -1.2831 -0.2822  1.1376
 6758SOL     OW31909   2.454   4.279   2.921  0.5977  0.2425  0.4159
 6758SOL    HW131910   2.503   4.247   2.997  3.1828  0.0470 -1.3249
 6758SOL    HW231911   2.361   4.256   2.927  0.3874  0.8707 -0.3843
 6759SOL     OW31912   3.996   4.107   8.098 -0.0795  0.2125  0.1034
 6759SOL    HW131913   3.994   4.101   8.193  1.1219 -1.1675  0.0470
 6759SOL    HW231914   4.035   4.190   8.073  3.1262 -1.1037  0.6865
 6760SOL     OW31915   0.421   2.122  14.433 -0.0014  0.0347  0.1613
 6760SOL    HW131916   0.434   2.028  14.444 -1.2067  0.0345  1.5875
 6760SOL    HW231917   0.343   2.129  14.489  0.7968  1.0392  1.1385
 6761SOL     OW31918   0.118   0.253   6.631  0.1381 -0.2105 -0.4843
 6761SOL    HW131919   0.157   0.299   6.705 -0.4940  0.6361 -0.6778
 6761SOL    HW231920   0.072   0.322   6.585  0.2854 -0.3086 -0.7801
 6762SOL     OW31921   1.078   2.541   5.357 -0.5412  0.2739 -0.2772
 6762SOL    HW131922   1.127   2.535   5.275  0.9459  0.8565  0.5618
 6762SOL    HW231923   1.050   2.450   5.366 -0.7453  0.2973 -0.6767
 6763SOL     OW31924   2.132   1.783   5.084  0.6220 -0.2905 -0.4005
 6763SOL    HW131925   2.213   1.741   5.054  0.4235 -0.5828 -0.5237
 6763SOL    HW231926   2.107   1.712   5.143  1.5835 -1.3263 -1.2441
 6764SOL     OW31927   1.763   2.076   3.390  0.3415 -0.2417  0.0841
 6764SOL    HW131928   1.704   2.019   3.437  0.3866  0.1074  0.5635
 6764SOL    HW231929   1.799   2.137   3.454  0.5803 -0.7577  0.4424
 6765SOL     OW31930   2.512   3.113   9.138 -0.2195 -0.0979 -0.3287
 6765SOL    HW131931   2.568   3.175   9.184 -1.0609  0.5603 -0.1924
 6765SOL    HW231932   2.575   3.050   9.101  0.0279  1.3562 -2.3623
 6766SOL     OW31933   1.347   0.532  12.864 -0.3128  0.2745  0.3118
 6766SOL    HW131934   1.301   0.464  12.915  1.0173 -2.9174 -2.7249
 6766SOL    HW231935   1.424   0.555  12.916  0.4531  1.1160 -1.2326
 6767SOL     OW31936   2.882   2.020  12.917  0.1770  0.3088 -0.0816
 6767SOL    HW131937   2.790   2.039  12.933  0.2475  0.5314  0.0529
 6767SOL    HW231938   2.898   1.936  12.962  0.3923  0.3463 -0.0855
 6768SOL     OW31939   1.658   0.980   3.557  0.0945  0.2028 -0.1454
 6768SOL    HW131940   1.644   1.057   3.500  2.3941  1.8435  1.5157
 6768SOL    HW231941   1.591   1.002   3.622  1.8198  1.4289  1.2093
 6769SOL     OW31942   0.649   1.129  16.110  0.1440  0.2761  0.1543
 6769SOL    HW131943   0.737   1.151  16.080 -0.2973  3.0540  0.8423
 6769SOL    HW231944   0.599   1.185  16.051  0.8699 -1.5477 -2.1745
 6770SOL     OW31945   1.910   1.100   3.827 -0.4942 -0.5881  0.3169
 6770SOL    HW131946   1.885   1.042   3.900 -0.5270 -1.1639 -0.1457
 6770SOL    HW231947   1.823   1.131   3.802 -0.3936 -0.2357  0.4084
 6771SOL     OW31948   0.562   2.649   0.850  0.2355  0.2251  0.5862
 6771SOL    HW131949   0.628   2.688   0.793  1.6405  0.1321  2.1301
 6771SOL    HW231950   0.534   2.579   0.792 -0.3857  1.9023 -1.1503
 6772SOL     OW31951   1.690   4.663   3.070 -0.1018 -0.1229  0.3298
 6772SOL    HW131952   1.688   4.692   3.161 -0.0214  0.6165  0.0964
 6772SOL    HW231953   1.717   0.001   3.019 -1.1365  1.3099  1.8999
 6773SOL     OW31954   3.676   4.426   3.524  0.9816  0.4652 -0.2698
 6773SOL    HW131955   3.665   4.517   3.552 -1.1011  0.6087 -1.4781
 6773SOL    HW231956   3.628   4.424   3.440  1.3240 -1.6877 -0.4336
 6774SOL     OW31957   1.280   2.706   7.999 -0.1165  1.0836 -0.1510
 6774SOL    HW131958   1.246   2.796   7.999  2.0499  1.8955 -1.4363
 6774SOL    HW231959   1.311   2.685   7.911 -0.1438  0.0952  0.0766
 6775SOL     OW31960   2.181   4.481   0.124 -0.0967  0.1418  0.0389
 6775SOL    HW131961   2.146   4.393   0.115  0.0121  0.0153  0.8752
 6775SOL    HW231962   2.121   4.534   0.071 -1.3865 -1.8771 -0.4992
 6776SOL     OW31963   1.159   3.031   4.786  0.0867  0.3140 -0.7117
 6776SOL    HW131964   1.166   3.115   4.831  3.0485 -0.2535 -0.0866
 6776SOL    HW231965   1.066   3.030   4.765 -0.8041 -1.3383  3.3609
 6777SOL     OW31966   1.123   3.261   2.730 -0.0735  0.1402  0.1080
 6777SOL    HW131967   1.147   3.262   2.637  0.1295  0.0574  0.1585
 6777SOL    HW231968   1.196   3.309   2.770 -0.9795  0.8568  0.8777
 6778SOL     OW31969   1.614   3.479   7.461 -0.1362 -0.8250 -0.0609
 6778SOL    HW131970   1.642   3.511   7.547  0.0412  0.0448 -0.4380
 6778SOL    HW231971   1.535   3.534   7.463  0.1623 -0.4123  0.6625
 6779SOL     OW31972   3.148   1.030  10.426  0.4716 -0.6510 -0.4584
 6779SOL    HW131973   3.149   0.939  10.456  2.3922 -0.3070  0.4837
 6779SOL    HW231974   3.208   1.070  10.489  2.1543 -2.6072 -0.8391
 6780SOL     OW31975   2.187   2.715   5.103  0.2901  0.3345 -0.2999
 6780SOL    HW131976   2.276   2.701   5.135  0.6205 -1.5188 -2.0325
 6780SOL    HW231977   2.207   2.789   5.046 -0.8519 -0.0197 -1.1673
 6781SOL     OW31978   2.867   1.074   2.961  0.3064 -0.1238 -0.1808
 6781SOL    HW131979   2.926   1.027   3.020  1.0782  0.7377 -0.2696
 6781SOL    HW231980   2.930   1.095   2.892 -0.2066 -2.3830 -1.3594
 6782SOL     OW31981   2.895   1.266   4.730  0.1225 -0.2606  0.0428
 6782SOL    HW131982   2.826   1.200   4.742  0.0776 -0.2219 -0.0003
 6782SOL    HW231983   2.932   1.262   4.819 -0.7570 -0.2287  0.4125
 6783SOL     OW31984   3.694   0.640   4.891  0.0816  0.3173 -0.3570
 6783SOL    HW131985   3.648   0.594   4.821 -0.1589  1.5712 -1.0279
 6783SOL    HW231986   3.785   0.628   4.863 -0.7296  0.6166 -3.1276
 6784SOL     OW31987   3.391   1.227   6.686 -0.6462 -0.3224 -0.0682
 6784SOL    HW131988   3.419   1.136   6.682 -0.1735 -0.2135  0.8069
 6784SOL    HW231989   3.367   1.235   6.779  0.0788  0.9559  0.0096
 6785SOL     OW31990   2.958   0.486   0.404  0.3411  0.0607  0.0255
 6785SOL    HW131991   2.899   0.561   0.408  1.0561  0.5290  1.8401
 6785SOL    HW231992   3.036   0.534   0.432  0.8410 -0.6294 -0.1959
 6786SOL     OW31993   2.571   4.394   6.405  0.2962  0.1281 -0.5181
 6786SOL    HW131994   2.581   4.338   6.482  0.8981  1.7149  0.5456
 6786SOL    HW231995   2.663   4.420   6.402  0.0758  0.9990  0.1445
 6787SOL     OW31996   4.610   2.877   6.866  0.0870  0.1886  1.0082
 6787SOL    HW131997   4.531   2.825   6.856  0.7495 -0.3505 -1.3283
 6787SOL    HW231998   4.673   2.828   6.919 -1.1561  0.5060  2.7656
 6788SOL     OW31999   4.137   0.506   2.110  0.0212 -0.8765  0.1570
 6788SOL    HW132000   4.142   0.561   2.031  0.4439 -0.9639  0.1234
 6788SOL    HW232001   4.147   0.564   2.186 -1.2837 -0.6805  0.1810
 6789SOL     OW32002   1.678   2.762   1.881  0.0261  0.1396  0.1568
 6789SOL    HW132003   1.661   2.793   1.970 -1.7336 -1.6629  0.4296
 6789SOL    HW232004   1.604   2.805   1.839  0.0140 -1.9831 -1.9819
 6790SOL     OW32005   1.595   0.886   0.343  0.1612  0.6123 -0.0234
 6790SOL    HW132006   1.532   0.886   0.271  1.4851  2.0739 -1.1773
 6790SOL    HW232007   1.592   0.981   0.345 -0.2438  0.6319 -1.8923
 6791SOL     OW32008   2.684   4.396   5.529  0.5243  0.0491 -0.0923
 6791SOL    HW132009   2.745   4.373   5.459  1.0386 -1.5583  0.8893
 6791SOL    HW232010   2.709   4.338   5.600 -0.4629  0.7556  0.8362
 6792SOL     OW32011   0.392   3.300  11.607  0.2569  0.5412 -0.0294
 6792SOL    HW132012   0.372   3.247  11.684  0.2505  0.1824 -0.2800
 6792SOL    HW232013   0.432   3.373  11.654  3.0400 -1.4644  0.6905
 6793SOL     OW32014   2.028   2.819  11.513 -0.1473  0.0727  0.0699
 6793SOL    HW132015   2.084   2.787  11.584  1.9302  0.3997 -1.4151
 6793SOL    HW232016   2.091   2.848  11.447 -0.5208 -0.0951 -0.3589
 6794SOL     OW32017   2.141   2.794   6.382 -0.0354  0.6825  0.1326
 6794SOL    HW132018   2.216   2.735   6.378 -0.2847  0.3722 -0.0242
 6794SOL    HW232019   2.126   2.810   6.289  0.0340  2.4006  0.4254
 6795SOL     OW32020   4.105   1.741   8.912  0.6236 -0.0326 -0.5232
 6795SOL    HW132021   4.083   1.715   9.001  2.6325  2.2960  0.6647
 6795SOL    HW232022   4.065   1.666   8.868  0.9806 -0.0806 -0.7767
 6796SOL     OW32023   1.777   0.992   0.080  0.2838  0.2226  0.2954
 6796SOL    HW132024   1.729   0.925   0.031  0.2073 -0.5850  1.4977
 6796SOL    HW232025   1.722   1.068   0.059 -0.6088 -0.3905  0.4515
 6797SOL     OW32026   1.268   2.982   1.130  0.0413  0.6935 -0.3902
 6797SOL    HW132027   1.312   2.903   1.160 -2.0802  0.0871  1.1372
 6797SOL    HW232028   1.299   2.990   1.040 -2.2381 -0.3538 -1.2643
 6798SOL     OW32029   2.551   0.578   4.938  0.5858  0.6052 -0.6164
 6798SOL    HW132030   2.635   0.616   4.912  0.2760  1.7699  0.1258
 6798SOL    HW232031   2.531   0.629   5.016  3.7788 -0.9943  1.2320
 6799SOL     OW32032   3.513   1.761   6.812 -0.2426 -0.1106  0.0749
 6799SOL    HW132033   3.433   1.720   6.778 -0.8125 -0.2156  1.4970
 6799SOL    HW232034   3.550   1.687   6.860  1.4175  0.7928  0.1693
 6800SOL     OW32035   1.742   1.073  17.499  0.1481 -0.8280 -0.1555
 6800SOL    HW132036   1.829   1.101  17.529  0.4203  0.5843 -2.2405
 6800SOL    HW232037   1.696   1.085  17.582 -3.2347  1.1458 -2.3064
 6801SOL     OW32038   1.464   1.543   9.282  0.1330 -0.3180  0.2840
 6801SOL    HW132039   1.432   1.556   9.371  1.4136  0.4859  0.6296
 6801SOL    HW232040   1.523   1.468   9.288 -1.2439 -1.5252 -1.0857
 6802SOL     OW32041   0.692   1.545   1.108  0.0843 -0.2288  0.3134
 6802SOL    HW132042   0.653   1.630   1.131  1.1247  1.0292 -2.6603
 6802SOL    HW232043   0.627   1.480   1.134 -1.0944 -0.1312 -2.4491
 6803SOL     OW32044   1.006   2.768   2.680  0.0954  0.2853  0.5286
 6803SOL    HW132045   1.089   2.803   2.650 -0.1485 -0.2329 -0.7443
 6803SOL    HW232046   0.961   2.739   2.600  2.8699  0.1076 -0.9554
 6804SOL     OW32047   2.619   1.383   2.903  0.7123  0.1990 -0.4054
 6804SOL    HW132048   2.688   1.401   2.968 -1.3074 -0.9746  2.0598
 6804SOL    HW232049   2.615   1.288   2.898 -1.1398  0.1850  1.1888
 6805SOL     OW32050   3.918   4.105   2.421 -0.2917  0.3307 -0.1302
 6805SOL    HW132051   3.907   4.156   2.502  0.1636  1.3089 -0.6753
 6805SOL    HW232052   3.847   4.042   2.434 -0.2885  0.5431  0.9452
 6806SOL     OW32053   1.868   0.882   4.522 -0.4507  0.5370 -0.3252
 6806SOL    HW132054   1.798   0.934   4.561 -0.2217  0.8912 -0.3829
 6806SOL    HW232055   1.932   0.894   4.592  0.4569  3.0344 -1.5636
 6807SOL     OW32056   4.284   1.378   5.121  0.0682 -0.1021 -0.3745
 6807SOL    HW132057   4.375   1.361   5.096 -0.5410 -1.0605 -1.9527
 6807SOL    HW232058   4.295   1.471   5.142 -2.9029 -0.1367  1.2265
 6808SOL     OW32059   3.898   1.990   7.649  0.3911  0.0284 -0.1745
 6808SOL    HW132060   3.873   2.074   7.611 -0.7771 -0.3397 -0.2067
 6808SOL    HW232061   3.842   1.980   7.726  0.2262  3.1362  0.1115
 6809SOL     OW32062   1.978   1.705  12.866 -0.0168 -0.0129  0.8876
 6809SOL    HW132063   2.063   1.687  12.907 -0.4376 -1.2238  1.2334
 6809SOL    HW232064   1.923   1.671  12.936 -1.9180  1.1840 -0.0380
 6810SOL     OW32065   1.578   3.110   8.340  0.5134  0.0735  0.0330
 6810SOL    HW132066   1.514   3.109   8.410 -0.2376 -0.9407 -0.6694
 6810SOL    HW232067   1.629   3.032   8.359  1.6324  0.7923 -0.0025
 6811SOL     OW32068   3.136   2.608   4.462  0.4413  0.1240 -0.0652
 6811SOL    HW132069   3.221   2.622   4.420  0.2510 -3.0660 -1.4793
 6811SOL    HW232070   3.135   2.695   4.503  0.4573 -0.2895  0.8023
 6812SOL     OW32071   3.066   1.322  17.300 -0.1594 -0.3211  0.2076
 6812SOL    HW132072   3.050   1.229  17.318  0.5138 -0.0773  2.0323
 6812SOL    HW232073   2.983   1.360  17.329 -0.7870 -1.4237 -0.1431
 6813SOL     OW32074   1.818   1.577   7.564  0.0697 -0.4978 -0.2919
 6813SOL    HW132075   1.854   1.664   7.545  0.0536 -0.4364 -0.0364
 6813SOL    HW232076   1.839   1.579   7.657  0.8631  0.7082 -0.4917
 6814SOL     OW32077   2.411   3.696   7.690 -0.0290 -0.8211 -0.5535
 6814SOL    HW132078   2.393   3.782   7.653  2.8494  0.5958  1.3065
 6814SOL    HW232079   2.324   3.658   7.682  0.0808 -1.5487  1.7932
 6815SOL     OW32080   2.865   2.722   5.684  0.2571 -0.0106  0.2062
 6815SOL    HW132081   2.869   2.630   5.712 -0.5452 -0.6244 -1.6719
 6815SOL    HW232082   2.932   2.764   5.738 -1.0916  0.6474  1.3414
 6816SOL     OW32083   1.596   1.083   2.572  0.1314 -0.4384  0.2624
 6816SOL    HW132084   1.534   1.111   2.506 -0.4814 -0.3316  0.8808
 6816SOL    HW232085   1.544   1.024   2.627  1.3015 -0.6243  1.1806
 6817SOL     OW32086   3.563   3.214   0.312  0.5296  0.2182  0.0236
 6817SOL    HW132087   3.504   3.212   0.237  1.4466  3.9459 -0.8112
 6817SOL    HW232088   3.647   3.234   0.270  0.3719  1.7889  0.4428
 6818SOL     OW32089   2.924   0.529  11.430  0.0051  0.4243  0.1778
 6818SOL    HW132090   2.930   0.623  11.445  0.1514  1.0816 -3.9246
 6818SOL    HW232091   2.858   0.538  11.361 -0.6085 -1.3921  0.5346
 6819SOL     OW32092   4.398   1.130   1.752 -0.0546 -0.1567 -0.0497
 6819SOL    HW132093   4.427   1.209   1.797  3.2556  0.1608 -2.7780
 6819SOL    HW232094   4.323   1.096   1.802 -1.1315 -0.5971 -1.9677
 6820SOL     OW32095   2.765   1.282   6.768  0.4192  0.7705  0.1810
 6820SOL    HW132096   2.730   1.195   6.790  0.8068  0.9972  1.7428
 6820SOL    HW232097   2.822   1.302   6.843 -0.5056  0.6253  0.9134
 6821SOL     OW32098   1.762   4.124   0.239  0.4130  0.2592  0.3258
 6821SOL    HW132099   1.820   4.053   0.266 -0.3082  0.2995  2.0385
 6821SOL    HW232100   1.770   4.131   0.144 -2.2156  1.6090  0.2008
 6822SOL     OW32101   0.665   4.506   9.006  0.1170 -0.4011 -0.7254
 6822SOL    HW132102   0.626   4.592   8.994  0.9115 -0.1438 -1.3850
 6822SOL    HW232103   0.748   4.499   8.960 -0.2559 -0.9171 -1.3259
 6823SOL     OW32104   3.040   2.702   6.164  0.0158  0.5264 -0.2388
 6823SOL    HW132105   3.096   2.655   6.102 -2.5520 -0.8340 -1.5096
 6823SOL    HW232106   2.971   2.741   6.111  0.1000 -1.3558 -1.7281
 6824SOL     OW32107   1.990   1.714   4.107  0.4475  0.2730 -0.7889
 6824SOL    HW132108   1.994   1.622   4.079  3.0064  0.0210  0.3537
 6824SOL    HW232109   2.037   1.755   4.035 -2.0165  2.4762 -1.1171
 6825SOL     OW32110   3.881   3.978   8.352  0.3689  0.1564  0.1282
 6825SOL    HW132111   3.807   4.034   8.328 -1.0628 -0.8731  2.1306
 6825SOL    HW232112   3.842   3.893   8.334  1.0944 -0.5038  1.6678
 6826SOL     OW32113   0.690   2.827  16.356  0.1978  0.3795 -0.1201
 6826SOL    HW132114   0.700   2.862  16.268  1.8368  1.2108  0.3847
 6826SOL    HW232115   0.696   2.733  16.343  1.6232 -0.1050  4.0552
 6827SOL     OW32116   2.649   0.075   3.226  0.7033  0.0134 -0.0739
 6827SOL    HW132117   2.559   0.076   3.258 -0.4551 -3.9976 -3.1850
 6827SOL    HW232118   2.651   0.170   3.228 -2.9321  0.0300  1.7633
 6828SOL     OW32119   3.999   1.923  12.343 -0.6360 -0.3439 -0.2456
 6828SOL    HW132120   3.990   1.855  12.409  2.5809  0.0375  0.6002
 6828SOL    HW232121   4.080   1.957  12.381  0.9419 -1.2623 -2.8036
 6829SOL     OW32122   0.372   2.021   6.721  0.1884 -0.2752 -0.2986
 6829SOL    HW132123   0.432   1.949   6.742  1.1398  0.1466 -1.5530
 6829SOL    HW232124   0.295   1.966   6.709  1.3289 -2.2485  1.5204
 6830SOL     OW32125   1.005   1.931  10.542  0.6955 -0.6013 -0.5773
 6830SOL    HW132126   1.085   1.979  10.564 -0.0563  1.0573 -1.5290
 6830SOL    HW232127   1.015   1.852  10.596 -1.1100  0.1450  0.8360
 6831SOL     OW32128   2.963   3.965  16.826  0.3701  0.3909  0.0236
 6831SOL    HW132129   2.999   3.879  16.807  0.9826  1.5084 -3.9047
 6831SOL    HW232130   3.005   4.013  16.754  1.3079  0.2257  0.4587
 6832SOL     OW32131   1.461   4.314  16.269 -0.2262  0.2138  0.1627
 6832SOL    HW132132   1.397   4.383  16.287 -0.9957 -0.5771  0.4431
 6832SOL    HW232133   1.478   4.338  16.178  2.5854 -0.1726  0.5759
 6833SOL     OW32134   2.320   1.094   3.568 -0.0205  0.2332 -0.7596
 6833SOL    HW132135   2.377   1.038   3.621 -1.5907 -0.5475  0.1305
 6833SOL    HW232136   2.242   1.038   3.561  0.9563 -1.3036  0.5257
 6834SOL     OW32137   0.897   0.871   6.494  0.3090 -0.1610 -0.7554
 6834SOL    HW132138   0.872   0.785   6.526 -1.1375  0.0095 -1.4201
 6834SOL    HW232139   0.944   0.909   6.568  1.4707 -0.2106 -1.4669
 6835SOL     OW32140   0.593   2.709   0.556  0.5606 -0.4038 -0.3969
 6835SOL    HW132141   0.583   2.762   0.477 -1.3770 -1.8817 -1.1208
 6835SOL    HW232142   0.680   2.721   0.595  0.6294 -0.2453 -0.5968
 6836SOL     OW32143   4.167   2.207  16.030 -0.4409  0.9579  0.5285
 6836SOL    HW132144   4.150   2.166  16.115  1.7987 -0.5205  0.2645
 6836SOL    HW232145   4.151   2.136  15.969 -0.6869  1.9716 -0.5738
 6837SOL     OW32146   2.447   3.634  12.299  0.0457  0.2124 -0.3309
 6837SOL    HW132147   2.406   3.652  12.384 -0.1109 -1.0401 -0.1290
 6837SOL    HW232148   2.450   3.539  12.289  0.9823  0.1436  0.6100
 6838SOL     OW32149   2.594   4.397  11.405  0.3191  0.0172  0.4294
 6838SOL    HW132150   2.594   4.428  11.495  3.5660 -0.0337  0.4764
 6838SOL    HW232151   2.681   4.432  11.385 -1.2566  3.0379 -1.1389
 6839SOL     OW32152   3.900   4.411  15.514  0.5456 -0.1349  0.4965
 6839SOL    HW132153   3.893   4.374  15.426 -1.1606  0.6941  0.2803
 6839SOL    HW232154   3.956   4.355  15.569  1.7930  1.2775  0.6767
 6840SOL     OW32155   4.301   1.229   7.224 -0.6507 -0.0503 -0.7311
 6840SOL    HW132156   4.210   1.222   7.255 -0.2068 -2.3530  0.1115
 6840SOL    HW232157   4.343   1.146   7.247 -0.6352 -0.4486 -2.1949
 6841SOL     OW32158   4.365   4.705   1.100  0.6374  0.5723 -0.3939
 6841SOL    HW132159   4.418   4.681   1.177 -0.5928 -3.3510 -0.7704
 6841SOL    HW232160   4.333   4.618   1.076  0.0418  0.0016  2.4792
 6842SOL     OW32161   3.449   1.513   2.603 -0.2411 -0.4972  0.0401
 6842SOL    HW132162   3.471   1.571   2.676  0.1829 -1.4656  0.6941
 6842SOL    HW232163   3.484   1.435   2.647  0.4116 -0.3349 -0.1961
 6843SOL     OW32164   0.589   4.206   5.621 -0.3053  0.6765  0.1825
 6843SOL    HW132165   0.659   4.168   5.674 -0.1284  1.3140  0.4126
 6843SOL    HW232166   0.632   4.291   5.608  0.9555  0.2707  1.7895
 6844SOL     OW32167   3.845   3.705   4.323  0.2348 -0.0912  0.4091
 6844SOL    HW132168   3.830   3.786   4.275  0.1299 -0.5497 -0.3300
 6844SOL    HW232169   3.782   3.650   4.276 -0.6094  0.2130  1.1683
 6845SOL     OW32170   3.906   1.951   4.674  0.1617 -0.2723  0.6261
 6845SOL    HW132171   3.958   1.914   4.745 -1.4730  0.1101  2.0350
 6845SOL    HW232172   3.842   2.011   4.714  0.8484  1.0685 -0.2870
 6846SOL     OW32173   0.242   0.244   2.481 -0.6016 -0.1883 -0.1747
 6846SOL    HW132174   0.224   0.334   2.510  2.4897 -0.6410  3.1728
 6846SOL    HW232175   0.265   0.198   2.562  1.7257  1.2984  0.0060
 6847SOL     OW32176   2.813   3.000   9.243  0.2685 -0.2807 -0.0388
 6847SOL    HW132177   2.801   2.975   9.334 -3.9110 -1.8251 -0.9675
 6847SOL    HW232178   2.742   2.957   9.194 -1.0373  1.1765  0.5603
 6848SOL     OW32179   4.289   3.352  15.663 -0.2012 -0.3485 -0.4141
 6848SOL    HW132180   4.298   3.258  15.646 -0.4654 -0.4092 -0.2198
 6848SOL    HW232181   4.364   3.380  15.716 -1.4405 -0.9743  1.6595
 6849SOL     OW32182   2.132   4.360   6.412  0.5120 -0.0545 -0.0678
 6849SOL    HW132183   2.134   4.360   6.508 -0.6023 -1.2786 -0.0339
 6849SOL    HW232184   2.192   4.293   6.379 -1.6187 -1.2664 -1.4766
 6850SOL     OW32185   2.732   3.212   8.239  0.4613  0.6939 -0.3327
 6850SOL    HW132186   2.757   3.124   8.268 -2.9628  0.4027  1.6790
 6850SOL    HW232187   2.674   3.202   8.164  0.6289  1.1615 -0.5243
 6851SOL     OW32188   1.727   2.868   8.339 -0.1276  0.3078 -0.2153
 6851SOL    HW132189   1.673   2.838   8.266 -1.7306  1.2177  0.5959
 6851SOL    HW232190   1.814   2.839   8.312 -0.9038  1.1629 -3.6664
 6852SOL     OW32191   2.438   2.345  12.761 -0.6174 -0.1394  0.2743
 6852SOL    HW132192   2.468   2.256  12.781  1.7393  0.1680 -1.9318
 6852SOL    HW232193   2.484   2.352  12.677  0.8583  2.6315  1.3410
 6853SOL     OW32194   2.345   3.443  12.789 -0.3090  0.0389  0.1064
 6853SOL    HW132195   2.327   3.355  12.821 -1.5531 -0.7866 -2.7975
 6853SOL    HW232196   2.257   3.474  12.764 -0.1433  1.7902  1.7339
 6854SOL     OW32197   3.261   3.768  16.506  0.5519  0.0300  0.0218
 6854SOL    HW132198   3.187   3.749  16.449 -0.4229  3.2137  0.2398
 6854SOL    HW232199   3.209   3.771  16.587  0.4585  0.5782 -0.0620
 6855SOL     OW32200   1.919   1.884   7.010 -0.5072  0.4168  0.0308
 6855SOL    HW132201   1.853   1.817   7.029 -0.0081 -0.1846 -0.3462
 6855SOL    HW232202   1.864   1.959   6.989 -0.5109 -0.1911 -2.2000
 6856SOL     OW32203   2.857   3.900  16.465 -0.1287 -0.3316  0.8548
 6856SOL    HW132204   2.762   3.891  16.453  0.2635 -4.2938  0.8279
 6856SOL    HW232205   2.857   3.996  16.469 -1.5952 -0.3923  2.1469
 6857SOL     OW32206   2.863   2.979   2.521  0.6098 -0.2909 -0.3272
 6857SOL    HW132207   2.813   3.049   2.478  1.2617  0.5424  0.2802
 6857SOL    HW232208   2.795   2.912   2.516  1.6864 -1.3336 -0.7859
 6858SOL     OW32209   4.679   2.611   5.199  0.4707  0.2657 -0.3042
 6858SOL    HW132210   4.675   2.706   5.199  1.0066  0.2911 -0.5230
 6858SOL    HW232211   4.633   2.607   5.283 -0.6609  0.9026 -0.8946
 6859SOL     OW32212   3.352   0.529  14.076 -0.3610  0.2387 -0.7680
 6859SOL    HW132213   3.392   0.580  14.146  0.1452 -0.2514 -0.6927
 6859SOL    HW232214   3.273   0.574  14.046 -0.7650  0.4779  0.6742
 6860SOL     OW32215   0.057   0.982  12.713  0.0168  0.1530 -0.0481
 6860SOL    HW132216   0.030   1.073  12.701 -0.0116 -0.0042 -1.1925
 6860SOL    HW232217   4.708   0.943  12.714 -0.2228  0.7189  2.1607
 6861SOL     OW32218   2.551   2.905  13.243  0.4243  0.2316 -0.2448
 6861SOL    HW132219   2.498   2.968  13.291 -2.5158 -1.9977 -0.5519
 6861SOL    HW232220   2.575   2.848  13.316 -3.5338 -1.4942 -0.3072
 6862SOL     OW32221   1.941   0.280   6.716 -0.3497  0.4040  0.5345
 6862SOL    HW132222   1.975   0.308   6.631  0.4962  2.7358  1.6590
 6862SOL    HW232223   1.993   0.334   6.775 -1.2485  2.1395 -0.2590
 6863SOL     OW32224   1.175   3.245   9.181  0.5401  0.1183  0.1773
 6863SOL    HW132225   1.123   3.275   9.107 -0.4392 -0.6782  0.5289
 6863SOL    HW232226   1.134   3.317   9.229  0.1951  0.3710 -0.5078
 6864SOL     OW32227   1.114   1.910   3.151 -0.0709  0.1086  0.7746
 6864SOL    HW132228   1.144   1.892   3.240 -0.3355 -1.1447  0.6034
 6864SOL    HW232229   1.020   1.925   3.159 -0.2343  0.0192 -0.9817
 6865SOL     OW32230   1.217   2.916   7.049 -0.0110  0.2113  1.1661
 6865SOL    HW132231   1.185   2.885   7.133  0.7452 -0.1616  1.3145
 6865SOL    HW232232   1.145   2.974   7.024  0.9477  1.5422  1.5182
 6866SOL     OW32233   0.761   0.823   4.999  0.8292 -0.1637  0.2424
 6866SOL    HW132234   0.781   0.741   4.953 -1.2640 -1.2589  1.2616
 6866SOL    HW232235   0.710   0.790   5.073 -1.1459  1.3148 -0.4638
 6867SOL     OW32236   2.855   0.611   3.854  0.1753 -0.0231 -0.1363
 6867SOL    HW132237   2.908   0.654   3.787 -0.9949  1.4104 -0.1507
 6867SOL    HW232238   2.854   0.524   3.816  0.4864 -0.7816  1.6007
 6868SOL     OW32239   1.014   4.452   2.037  0.2440 -0.0289 -0.6203
 6868SOL    HW132240   1.074   4.475   1.966 -0.3795  0.0717 -1.1136
 6868SOL    HW232241   1.018   4.530   2.093 -1.7368 -2.3100  2.6969
 6869SOL     OW32242   0.030   0.268   6.065  0.1409 -0.0090  0.3379
 6869SOL    HW132243   4.732   0.342   6.016  3.6732 -0.0162 -2.3191
 6869SOL    HW232244   0.054   0.320   6.141 -0.3269  0.5599  0.0976
 6870SOL     OW32245   1.456   2.512   3.102 -0.1527 -0.6115 -0.1771
 6870SOL    HW132246   1.541   2.554   3.086 -1.0486  0.4071 -2.1998
 6870SOL    HW232247   1.405   2.589   3.124 -1.4262 -1.7597  0.8949
 6871SOL     OW32248   3.651   3.164  11.117 -0.0505 -0.3785 -0.3150
 6871SOL    HW132249   3.619   3.136  11.203  1.2686  0.0748  0.3257
 6871SOL    HW232250   3.710   3.234  11.145 -1.5529  1.2740 -1.2940
 6872SOL     OW32251   1.339   1.859  10.508  0.1974 -0.2134 -0.2751
 6872SOL    HW132252   1.284   1.782  10.496 -0.2827 -0.1908  1.7266
 6872SOL    HW232253   1.377   1.870  10.421  0.2880 -1.6830 -0.4098
 6873SOL     OW32254   2.242   2.928  16.597 -0.2018 -0.0112 -0.1478
 6873SOL    HW132255   2.308   2.912  16.664 -1.5033  2.2784  1.6693
 6873SOL    HW232256   2.170   2.871  16.622 -1.3163  1.5666  0.2508
 6874SOL     OW32257   3.097   3.693   6.201 -0.2300 -0.3523  0.6683
 6874SOL    HW132258   3.158   3.632   6.159 -3.3087 -1.6407 -1.9572
 6874SOL    HW232259   3.096   3.767   6.140  0.0651 -0.1817  0.8747
 6875SOL     OW32260   4.549   0.142   4.428  0.3689 -0.1816  0.0342
 6875SOL    HW132261   4.538   0.198   4.505 -1.9217  0.7474 -0.9665
 6875SOL    HW232262   4.565   0.055   4.465  1.6628 -0.0920 -0.3085
 6876SOL     OW32263   3.875   4.662   8.952  0.2443 -0.2633  0.0652
 6876SOL    HW132264   3.853   4.722   9.023  0.8652 -0.7789  0.6902
 6876SOL    HW232265   3.968   4.643   8.967  0.3247  0.8030  0.9085
 6877SOL     OW32266   0.839   4.502  12.718 -0.1716  0.3109 -0.0206
 6877SOL    HW132267   0.914   4.555  12.692  1.7095 -1.9761  0.7198
 6877SOL    HW232268   0.846   4.439  12.646  0.7468  1.5178 -1.0005
 6878SOL     OW32269   4.281   2.434   8.398  0.6571  0.6260 -0.4302
 6878SOL    HW132270   4.226   2.502   8.436 -4.0410 -2.4041 -1.8251
 6878SOL    HW232271   4.290   2.462   8.307  1.2452  0.6681 -0.3588
 6879SOL     OW32272   4.161   2.365   5.161 -0.0544 -0.0362  0.1728
 6879SOL    HW132273   4.178   2.456   5.136  0.0836  0.3490  1.6269
 6879SOL    HW232274   4.067   2.382   5.160 -0.1242 -0.3629  0.7747
 6880SOL     OW32275   3.683   3.775  13.020  0.0300  0.1409 -0.2758
 6880SOL    HW132276   3.689   3.761  13.114 -0.8682  0.0000 -0.2366
 6880SOL    HW232277   3.774   3.796  12.997 -0.0908  0.8923 -0.0759
 6881SOL     OW32278   2.021   0.121  17.048  0.4260  0.8916 -0.4835
 6881SOL    HW132279   2.002   0.201  16.999 -1.4998  1.6112  1.4540
 6881SOL    HW232280   2.084   0.086  16.985  0.5706  1.9484 -0.9269
 6882SOL     OW32281   3.335   1.586   1.894  0.0378 -0.0816 -0.5010
 6882SOL    HW132282   3.380   1.597   1.978 -0.9059 -0.6814  0.0847
 6882SOL    HW232283   3.412   1.543   1.858  0.6603  2.6008 -2.3627
 6883SOL     OW32284   2.738   1.728   7.301  0.0372  0.6061 -0.4176
 6883SOL    HW132285   2.734   1.642   7.260  0.2647 -1.0778  3.1153
 6883SOL    HW232286   2.667   1.773   7.255 -0.9037  1.6393  1.9826
 6884SOL     OW32287   3.860   0.345  10.406  0.5668  0.1946  0.0786
 6884SOL    HW132288   3.951   0.367  10.388  1.2733 -1.1517  2.0274
 6884SOL    HW232289   3.856   0.391  10.490 -0.9992 -0.9640  0.6452
 6885SOL     OW32290   0.658   3.757   3.121 -0.1014  0.0022  0.4551
 6885SOL    HW132291   0.745   3.721   3.138  0.8883  1.2324 -1.9146
 6885SOL    HW232292   0.679   3.848   3.140  0.0620 -0.0279  0.4199
 6886SOL     OW32293   2.423   3.738   7.045 -0.5433 -0.5742 -0.3206
 6886SOL    HW132294   2.515   3.743   7.017  0.1138 -0.0682  1.8926
 6886SOL    HW232295   2.419   3.799   7.119 -0.7142  0.9772 -1.5987
 6887SOL     OW32296   0.824   0.702   3.896 -0.1517  0.2026 -0.6610
 6887SOL    HW132297   0.777   0.690   3.979 -1.7444 -0.8630 -1.7203
 6887SOL    HW232298   0.887   0.630   3.898 -0.6911 -0.3075 -1.9297
 6888SOL     OW32299   0.127   3.095   7.633  0.0661  0.0947  0.4276
 6888SOL    HW132300   0.135   3.044   7.553 -1.4981 -0.6363  0.7414
 6888SOL    HW232301   0.050   3.150   7.615  1.8448  2.2421 -0.7184
 6889SOL     OW32302   0.371   3.897   1.939 -0.1008 -0.1227  0.4989
 6889SOL    HW132303   0.351   3.819   1.888  1.2005  0.0275 -0.2367
 6889SOL    HW232304   0.459   3.882   1.973 -0.0820 -1.1318 -0.0046
 6890SOL     OW32305   3.849   2.664  13.459  0.2262  0.2244 -0.1863
 6890SOL    HW132306   3.796   2.740  13.435 -1.3138 -1.0695 -0.8286
 6890SOL    HW232307   3.899   2.689  13.537 -1.4993  0.5848  0.8248
 6891SOL     OW32308   2.789   0.162   7.355  0.0598 -0.1463 -0.4111
 6891SOL    HW132309   2.750   0.248   7.363  0.0664 -0.1678 -0.1668
 6891SOL    HW232310   2.719   0.105   7.322  0.7390 -0.7475 -0.8250
 6892SOL     OW32311   2.637   0.824   4.560  0.0672 -0.0496 -0.0292
 6892SOL    HW132312   2.687   0.745   4.539  0.2065 -0.7217  2.8112
 6892SOL    HW232313   2.711   0.879   4.586  0.4070 -0.7587  0.4977
 6893SOL     OW32314   4.240   0.428   1.509  0.3966  0.0408  0.6052
 6893SOL    HW132315   4.203   0.515   1.489  2.1288  0.1740 -2.0755
 6893SOL    HW232316   4.275   0.443   1.597 -0.1347 -1.2365  1.0247
 6894SOL     OW32317   4.033   2.783   3.035  0.3007  0.2259 -0.7559
 6894SOL    HW132318   4.099   2.799   2.967  0.3840  0.6529 -0.5733
 6894SOL    HW232319   4.053   2.856   3.093  0.9078 -1.1973  0.8258
 6895SOL     OW32320   3.875   4.282   6.235  0.0780  0.3805  0.2502
 6895SOL    HW132321   3.896   4.200   6.279 -1.1877 -1.1098 -1.9371
 6895SOL    HW232322   3.782   4.269   6.220 -0.0696 -0.2502  1.6845
 6896SOL     OW32323   4.607   4.576   2.274  0.4478 -0.1137  0.1276
 6896SOL    HW132324   4.626   4.558   2.366  0.8581  1.5634  0.3729
 6896SOL    HW232325   4.651   4.502   2.233  0.1107 -0.4541  0.3807
 6897SOL     OW32326   2.533   0.910   2.413  0.2679 -0.5683  0.2735
 6897SOL    HW132327   2.441   0.937   2.409  0.5812  0.5519  0.5851
 6897SOL    HW232328   2.552   0.946   2.500  1.4117 -2.6916  0.8987
 6898SOL     OW32329   0.901   0.155   1.238  0.0041 -0.1737  0.0077
 6898SOL    HW132330   0.860   0.129   1.320  0.7214  0.1703  0.4744
 6898SOL    HW232331   0.866   0.088   1.179 -0.6383 -0.0887  0.2942
 6899SOL     OW32332   4.099   0.422   0.556  0.2353  0.0659 -0.3923
 6899SOL    HW132333   4.185   0.462   0.542 -0.2007  0.4566 -2.0594
 6899SOL    HW232334   4.099   0.403   0.650 -0.3017 -0.2712 -0.4616
 6900SOL     OW32335   4.013   1.703   2.124 -0.1940 -0.6504  0.3162
 6900SOL    HW132336   4.083   1.642   2.098  1.2308  0.8872  0.5996
 6900SOL    HW232337   3.966   1.701   2.041  0.8962  0.5360 -0.3395
 6901SOL     OW32338   4.046   1.049   5.972 -0.5644 -0.7648 -0.4067
 6901SOL    HW132339   4.046   1.061   6.067 -0.1743  1.5430 -0.6925
 6901SOL    HW232340   4.066   1.135   5.935 -1.7651 -0.4013 -0.2012
 6902SOL     OW32341   1.603   3.913   2.975  0.9328 -0.1783  0.4027
 6902SOL    HW132342   1.662   3.857   3.025  0.7165 -0.1016  0.7362
 6902SOL    HW232343   1.590   3.993   3.026  0.3986 -0.6815  1.0509
 6903SOL     OW32344   1.410   1.968   9.138  0.0086 -0.3142 -0.2669
 6903SOL    HW132345   1.448   1.885   9.110 -0.4096 -1.0984  1.4605
 6903SOL    HW232346   1.459   2.034   9.088 -0.6105  1.1885  1.0888
 6904SOL     OW32347   1.905   0.326   7.678 -0.1880  0.0246  0.2346
 6904SOL    HW132348   1.873   0.266   7.745  0.5410 -0.3695  0.2293
 6904SOL    HW232349   1.954   0.391   7.729 -0.3626  0.7591 -0.5219
 6905SOL     OW32350   2.728   3.718   8.202 -0.4211  0.1692 -0.1648
 6905SOL    HW132351   2.722   3.798   8.150  0.2089  2.2897  3.0110
 6905SOL    HW232352   2.644   3.717   8.248 -1.2605  2.3175 -1.6564
 6906SOL     OW32353   4.665   1.695  14.628 -0.4039 -0.0393  0.1160
 6906SOL    HW132354   4.646   1.669  14.718 -2.0847 -0.0539 -0.2425
 6906SOL    HW232355   4.611   1.637  14.575 -1.4821 -0.3910  1.6328
 6907SOL     OW32356   2.725   4.248   1.601  0.6145  0.0452 -0.0127
 6907SOL    HW132357   2.696   4.160   1.624  1.0043 -0.1654 -0.3283
 6907SOL    HW232358   2.729   4.233   1.506 -0.1688  0.1545 -0.0661
 6908SOL     OW32359   4.402   2.948   7.277  0.4168  0.3691  0.3243
 6908SOL    HW132360   4.358   3.006   7.339 -1.1496 -1.1631  0.6530
 6908SOL    HW232361   4.325   2.901   7.245  1.5941 -1.6437  0.4387
 6909SOL     OW32362   4.403   2.623  11.279 -0.2662  0.6901  0.6413
 6909SOL    HW132363   4.462   2.551  11.303 -1.6943 -0.6489  0.1393
 6909SOL    HW232364   4.325   2.589  11.324 -1.5851 -0.6772 -2.7096
 6910SOL     OW32365   2.246   2.568   2.079  0.1923 -0.1534 -0.2730
 6910SOL    HW132366   2.325   2.603   2.038 -0.8915 -1.3146 -3.3165
 6910SOL    HW232367   2.183   2.564   2.008  1.4571 -2.2610 -1.2679
 6911SOL     OW32368   3.547   2.857   3.711 -0.2858 -0.0599 -0.0878
 6911SOL    HW132369   3.501   2.810   3.780 -1.0930 -0.2518 -0.7596
 6911SOL    HW232370   3.628   2.880   3.756  0.6384 -0.2815 -1.6658
 6912SOL     OW32371   1.773   1.049  15.074  0.0149  0.7408  0.1782
 6912SOL    HW132372   1.771   1.135  15.032 -0.9522  1.6665  2.1440
 6912SOL    HW232373   1.711   1.007  15.014  0.2100  2.9355 -1.5608
 6913SOL     OW32374   4.258   3.969   1.328  0.2963  0.0966  0.0894
 6913SOL    HW132375   4.324   4.038   1.322  0.6050 -0.2828 -0.7940
 6913SOL    HW232376   4.239   3.958   1.235 -2.3948 -0.9669  0.7646
 6914SOL     OW32377   1.158   1.446   2.454  0.7023  0.0854  0.0339
 6914SOL    HW132378   1.070   1.413   2.474  0.2302  1.7514  0.6568
 6914SOL    HW232379   1.213   1.392   2.511  2.2384  1.0355 -0.5724
 6915SOL     OW32380   2.395   4.639   5.936 -0.1895 -0.2618  0.0440
 6915SOL    HW132381   2.488   4.623   5.952 -0.3962  0.5900  2.0517
 6915SOL    HW232382   2.380   4.718   5.988  1.9567  0.8574 -1.0054
 6916SOL     OW32383   3.103   1.143   2.816 -0.1841 -0.4933 -0.1808
 6916SOL    HW132384   3.130   1.204   2.748 -1.1942 -2.3727 -2.2508
 6916SOL    HW232385   3.173   1.150   2.881  0.4402  2.0002 -1.1451
 6917SOL     OW32386   4.211   0.451   8.630  0.4191 -0.0178  0.5498
 6917SOL    HW132387   4.294   0.403   8.624  0.6897  0.6821 -1.1665
 6917SOL    HW232388   4.246   0.533   8.664  1.1802  0.0974 -0.5413
 6918SOL     OW32389   1.966   4.079  13.484  0.0288  0.1390  0.1705
 6918SOL    HW132390   1.922   4.135  13.420  2.0199  1.9082  0.3422
 6918SOL    HW232391   2.055   4.109  13.463 -0.4416 -0.1046 -2.1053
 6919SOL     OW32392   1.203   0.722   6.406 -0.3662 -0.4954  0.2529
 6919SOL    HW132393   1.293   0.691   6.414 -0.4494 -0.4583  1.3246
 6919SOL    HW232394   1.171   0.703   6.495 -0.0558  0.1345  0.5011
 6920SOL     OW32395   1.706   2.993   1.376 -0.3521 -0.3033 -0.4579
 6920SOL    HW132396   1.619   3.013   1.412 -1.0102  0.8329 -2.6607
 6920SOL    HW232397   1.691   2.900   1.363 -0.6308  0.0609 -2.6051
 6921SOL     OW32398   3.547   0.068  14.963  0.1867  0.2999  0.2675
 6921SOL    HW132399   3.526   4.727  15.014  0.3402 -2.0467 -3.2696
 6921SOL    HW232400   3.497   0.056  14.882  0.3681  0.1793  0.1713
 6922SOL     OW32401   2.552   2.885   7.473 -0.0146  0.3981 -0.2314
 6922SOL    HW132402   2.616   2.905   7.405  0.2291  0.7055  0.0901
 6922SOL    HW232403   2.511   2.807   7.434  0.0562 -0.5746  1.6719
 6923SOL     OW32404   3.720   1.012   6.799 -0.1890 -0.1224  0.3579
 6923SOL    HW132405   3.747   1.058   6.720 -1.9816  1.2715  0.5590
 6923SOL    HW232406   3.627   1.017   6.779 -0.2273 -0.8913  0.3401
 6924SOL     OW32407   3.731   0.960  12.004  0.6212 -0.2591  0.0014
 6924SOL    HW132408   3.773   0.930  11.923 -0.5296 -0.6342 -0.4602
 6924SOL    HW232409   3.640   0.940  11.984  0.4892 -0.5893  0.9580
 6925SOL     OW32410   2.993   0.945   2.680 -0.0139 -0.0520 -0.0540
 6925SOL    HW132411   3.037   1.022   2.716 -0.6034  0.3837 -0.2595
 6925SOL    HW232412   3.043   0.880   2.728  2.8624  1.4925 -0.9591
 6926SOL     OW32413   0.411   2.888   8.624  0.3730  0.3737 -0.0261
 6926SOL    HW132414   0.408   2.799   8.659 -0.8496  0.8160  0.9799
 6926SOL    HW232415   0.492   2.925   8.659 -0.2713  0.3899  1.4259
 6927SOL     OW32416   2.010   4.302  16.733 -0.3995 -0.3242  0.0720
 6927SOL    HW132417   1.983   4.231  16.792 -1.4577  2.3265  2.7443
 6927SOL    HW232418   2.079   4.256  16.686 -0.7555 -0.8207  0.0227
 6928SOL     OW32419   0.049   1.635   7.323 -0.2909  0.2365  0.1527
 6928SOL    HW132420   0.029   1.612   7.414 -1.0787  2.0279  0.4369
 6928SOL    HW232421   4.706   1.682   7.304 -0.7509 -0.7492 -0.3049
 6929SOL     OW32422   4.352   2.838  15.014 -0.1340  0.8258  0.3574
 6929SOL    HW132423   4.317   2.924  14.992 -1.3812 -0.1169 -1.3348
 6929SOL    HW232424   4.339   2.786  14.935  1.5300 -1.1066  1.3469
 6930SOL     OW32425   1.713   0.363   6.988 -0.5542  0.1208  0.6047
 6930SOL    HW132426   1.759   0.438   6.948  0.4822  0.3942  2.2754
 6930SOL    HW232427   1.640   0.398   7.039  0.2598  2.5364  0.1178
 6931SOL     OW32428   3.972   1.037   7.756 -0.2974 -0.0095  0.1056
 6931SOL    HW132429   3.978   1.126   7.721 -0.0607  0.3825  1.1505
 6931SOL    HW232430   4.033   0.985   7.703 -1.2323 -0.5246 -0.4685
 6932SOL     OW32431   2.268   1.916   3.665  0.2080  0.4423 -0.1301
 6932SOL    HW132432   2.218   1.890   3.587  0.4250 -0.6664  0.0991
 6932SOL    HW232433   2.357   1.892   3.641 -0.0302 -0.9895  0.4074
 6933SOL     OW32434   0.776   2.467  15.364  0.1066 -0.4937 -0.5034
 6933SOL    HW132435   0.763   2.554  15.402  0.3760 -1.3063  1.4717
 6933SOL    HW232436   0.738   2.412  15.432 -1.4976 -0.2676 -1.2246
 6934SOL     OW32437   4.720   3.784   5.279  0.8244 -0.4955 -0.4465
 6934SOL    HW132438   0.004   3.740   5.361 -1.0665  2.7040  1.7615
 6934SOL    HW232439   4.657   3.847   5.314  1.3423  0.4904 -1.3130
 6935SOL     OW32440   2.585   1.333   2.224 -0.0720 -0.6441  0.2406
 6935SOL    HW132441   2.606   1.274   2.152 -0.1606  0.1098 -0.3909
 6935SOL    HW232442   2.647   1.400   2.196  1.7638 -1.6969  1.7312
 6936SOL     OW32443   4.496   0.912  11.372  0.0875  0.0289 -0.4422
 6936SOL    HW132444   4.438   0.956  11.434  0.3624  0.7013 -0.6721
 6936SOL    HW232445   4.512   0.983  11.311  1.2029  0.2416  0.0875
 6937SOL     OW32446   3.000   2.499  14.532 -0.3901  0.3526 -0.0327
 6937SOL    HW132447   3.086   2.489  14.572  0.8291  0.7014 -2.5930
 6937SOL    HW232448   2.986   2.409  14.501  0.2133 -0.4447  2.0082
 6938SOL     OW32449   3.349   4.624   6.020  0.1214 -0.0281  0.4882
 6938SOL    HW132450   3.368   4.669   5.938 -0.6363 -1.1241 -0.2930
 6938SOL    HW232451   3.275   4.676   6.053  0.9002  0.4136  1.5332
 6939SOL     OW32452   3.662   2.844   8.201  0.0560  0.5307 -0.0546
 6939SOL    HW132453   3.664   2.843   8.297 -0.1817  1.6847 -0.0269
 6939SOL    HW232454   3.568   2.841   8.185  0.3728 -2.7746 -1.1595
 6940SOL     OW32455   1.572   1.472  14.362  0.3086 -0.1789  0.6133
 6940SOL    HW132456   1.592   1.556  14.320  0.8042 -0.4658  0.2737
 6940SOL    HW232457   1.535   1.410  14.299  0.5242 -0.7184  1.0216
 6941SOL     OW32458   4.544   2.575   1.782 -0.2958  0.0636  0.2055
 6941SOL    HW132459   4.639   2.577   1.765 -0.2762 -1.4176  0.1303
 6941SOL    HW232460   4.523   2.482   1.770 -3.0191  0.7143 -0.0060
 6942SOL     OW32461   3.783   1.545   5.325  0.0171 -0.3379  0.1148
 6942SOL    HW132462   3.774   1.460   5.368 -1.2719  0.2941  1.0787
 6942SOL    HW232463   3.775   1.516   5.234  0.2258 -0.1729  0.0423
 6943SOL     OW32464   4.497   0.914   3.050 -0.0887  0.3092 -0.7442
 6943SOL    HW132465   4.563   0.865   3.098 -0.0219  0.4976 -0.6460
 6943SOL    HW232466   4.526   1.004   3.052 -2.7299  1.0874  2.4633
 6944SOL     OW32467   2.613   4.493   2.470 -0.2530 -0.4787  0.2138
 6944SOL    HW132468   2.578   4.510   2.558  0.3988  1.9738 -0.0062
 6944SOL    HW232469   2.644   4.402   2.471  0.0377 -0.3779  0.3142
 6945SOL     OW32470   1.943   2.126   6.180  0.1331 -0.4805 -0.0606
 6945SOL    HW132471   1.863   2.109   6.131  0.0112  0.8083 -0.3038
 6945SOL    HW232472   1.904   2.172   6.254 -0.5667 -1.0484 -0.0779
 6946SOL     OW32473   2.238   0.518  13.102 -0.9144  0.1638 -0.0068
 6946SOL    HW132474   2.166   0.462  13.075 -1.0986  0.9627 -1.1857
 6946SOL    HW232475   2.199   0.603  13.083 -1.8343  0.3851  2.8420
 6947SOL     OW32476   0.153   2.480   3.217 -0.1709 -0.3678  0.0205
 6947SOL    HW132477   0.131   2.553   3.276  0.5456  0.4237 -0.6873
 6947SOL    HW232478   0.095   2.412   3.253 -1.7850  1.3907  0.7856
 6948SOL     OW32479   3.028   1.278  15.324 -0.4627  0.1471  0.3145
 6948SOL    HW132480   3.035   1.269  15.229 -0.3641 -1.0226  0.4292
 6948SOL    HW232481   2.942   1.240  15.345 -0.5874 -0.1086 -0.6488
 6949SOL     OW32482   1.310   3.567  15.572  0.3081  0.1753  0.0982
 6949SOL    HW132483   1.352   3.642  15.530  0.5782 -0.9968 -1.7141
 6949SOL    HW232484   1.318   3.583  15.667  0.9231  1.2776 -0.1356
 6950SOL     OW32485   2.974   4.079  17.636 -0.4248  0.2537  0.1777
 6950SOL    HW132486   2.928   4.151  17.593  1.1197 -0.2218 -2.2389
 6950SOL    HW232487   2.911   4.049  17.702  0.0002 -1.5131 -0.2168
 6951SOL     OW32488   1.222   2.092  10.560 -0.0629  0.5924  0.9069
 6951SOL    HW132489   1.267   2.007  10.560 -2.0157 -0.4564  1.2613
 6951SOL    HW232490   1.296   2.147  10.536  1.9695 -1.3843  2.6229
 6952SOL     OW32491   3.626   2.769   7.109 -0.5582 -0.1752  0.4179
 6952SOL    HW132492   3.531   2.780   7.113 -0.7827 -1.9368 -0.3487
 6952SOL    HW232493   3.650   2.831   7.177  0.0179 -0.8102  0.7901
 6953SOL     OW32494   1.015   3.264  11.319 -0.2518 -0.0034  0.2112
 6953SOL    HW132495   1.084   3.248  11.383  1.7286 -0.2671 -1.9767
 6953SOL    HW232496   0.943   3.265  11.382 -0.3628 -0.6691  0.0965
 6954SOL     OW32497   1.378   0.909   8.702 -0.3227 -0.3321 -0.7889
 6954SOL    HW132498   1.371   0.916   8.797  1.9890  1.6736 -0.7497
 6954SOL    HW232499   1.324   0.835   8.677 -1.5387 -0.0395  1.0012
 6955SOL     OW32500   3.781   0.054   6.265 -0.5112  0.0555 -0.4187
 6955SOL    HW132501   3.719   4.723   6.242  1.0200 -1.2443 -0.5949
 6955SOL    HW232502   3.814   0.073   6.178  1.6131 -1.5369  0.0626
 6956SOL     OW32503   1.234   0.685   7.246 -0.4547  0.2326 -0.2153
 6956SOL    HW132504   1.217   0.718   7.158 -1.4979 -0.1352 -0.1485
 6956SOL    HW232505   1.153   0.718   7.285 -0.7414  0.7617 -1.2760
 6957SOL     OW32506   1.608   1.255   3.104  0.2354  0.3634 -0.4468
 6957SOL    HW132507   1.650   1.203   3.173  0.9990  2.0040  0.3146
 6957SOL    HW232508   1.567   1.179   3.063 -0.0630  0.0696  0.4077
 6958SOL     OW32509   2.497   4.093   9.802 -0.2145  0.1459 -0.1243
 6958SOL    HW132510   2.420   4.098   9.858 -0.0693  0.2421  0.0666
 6958SOL    HW232511   2.470   4.026   9.740  0.5187 -1.2782  1.0922
 6959SOL     OW32512   2.108   3.178   3.824  0.1259 -0.1753 -0.3964
 6959SOL    HW132513   2.125   3.094   3.782 -0.3088 -0.6275  0.3249
 6959SOL    HW232514   2.095   3.128   3.905  0.0824  1.2646  0.4950
 6960SOL     OW32515   4.728   1.806   6.187  0.1514 -0.5435 -0.0638
 6960SOL    HW132516   4.708   1.713   6.186 -1.2325 -0.2610  1.7896
 6960SOL    HW232517   0.063   1.818   6.126  0.3638  0.4913  0.4029
 6961SOL     OW32518   0.665   4.252   9.107 -0.0994 -0.1604  0.5657
 6961SOL    HW132519   0.639   4.343   9.089  1.0182  0.1120  0.3596
 6961SOL    HW232520   0.726   4.236   9.035  0.6825  2.2271  0.7020
 6962SOL     OW32521   0.217   4.197   2.178 -0.1733 -0.1699 -0.5316
 6962SOL    HW132522   0.183   4.126   2.123  0.1139  1.1646 -2.4216
 6962SOL    HW232523   0.203   4.163   2.266 -0.5432 -1.7119 -1.1914
 6963SOL     OW32524   2.854   1.126   7.277 -0.1336 -0.4151  0.4535
 6963SOL    HW132525   2.784   1.065   7.253  2.7649 -3.6657  0.2001
 6963SOL    HW232526   2.794   1.194   7.306  1.6352  0.4896  1.9185
 6964SOL     OW32527   2.340   2.259   8.120  0.3891 -0.1164  0.0990
 6964SOL    HW132528   2.342   2.231   8.211 -2.7424  0.4309  0.3535
 6964SOL    HW232529   2.433   2.257   8.097  0.0655 -1.1185 -1.1444
 6965SOL     OW32530   4.714   4.331   4.304 -0.0352 -0.4318 -0.0804
 6965SOL    HW132531   4.698   4.244   4.339  0.3192 -0.1850  0.6867
 6965SOL    HW232532   0.064   4.323   4.267  0.6151  0.7717  1.2116
 6966SOL     OW32533   3.521   1.566  11.454  0.0059  0.1806 -0.2930
 6966SOL    HW132534   3.463   1.499  11.492 -1.9950  1.3670 -1.2203
 6966SOL    HW232535   3.488   1.564  11.363  1.2657 -0.6680 -0.7289
 6967SOL     OW32536   3.152   4.713   4.810 -0.0393 -0.4190 -0.0907
 6967SOL    HW132537   3.196   0.030   4.876 -0.0913 -0.8517  0.3026
 6967SOL    HW232538   3.224   4.663   4.772 -0.3316 -0.6134 -0.3908
 6968SOL     OW32539   3.072   1.855   4.408 -0.1160 -0.8958 -0.0722
 6968SOL    HW132540   3.098   1.887   4.494 -0.9025  0.1416 -0.2092
 6968SOL    HW232541   3.079   1.934   4.354  2.4479 -1.2348 -0.2421
 6969SOL     OW32542   4.151   4.439  16.808 -0.4028  0.0395  0.1450
 6969SOL    HW132543   4.190   4.472  16.889  2.0715  0.3656 -1.1706
 6969SOL    HW232544   4.129   4.350  16.837  1.9218 -1.1660 -1.7880
 6970SOL     OW32545   4.307   0.030   6.014 -0.3649 -0.4120 -0.0097
 6970SOL    HW132546   4.324   4.711   5.939  0.9083  2.3298 -1.8085
 6970SOL    HW232547   4.384   0.019   6.069 -0.0496  0.4670 -0.2658
 6971SOL     OW32548   3.274   1.674   0.782 -0.1959  0.2146 -0.7188
 6971SOL    HW132549   3.192   1.675   0.734 -0.1734  2.1088 -0.7208
 6971SOL    HW232550   3.320   1.603   0.738  1.2189  1.5652 -1.4490
 6972SOL     OW32551   1.813   4.558   9.728 -0.1399  0.3122 -0.4555
 6972SOL    HW132552   1.878   4.606   9.677  0.5147 -0.1779 -0.0833
 6972SOL    HW232553   1.862   4.565   9.810  0.9837 -1.5364 -0.9735
 6973SOL     OW32554   1.634   1.768   7.965  0.1464 -0.4415 -0.0300
 6973SOL    HW132555   1.728   1.761   7.977  0.4483 -0.9861 -2.5289
 6973SOL    HW232556   1.592   1.689   8.001 -2.7725  1.1362  0.0165
 6974SOL     OW32557   0.557   2.050   5.368 -0.2968 -0.1569  0.0574
 6974SOL    HW132558   0.477   2.075   5.322  2.3145  2.8102 -2.7834
 6974SOL    HW232559   0.541   1.957   5.386 -2.7533  0.1477 -0.5242
 6975SOL     OW32560   1.456   1.415   0.048 -0.1981 -0.1094 -0.1523
 6975SOL    HW132561   1.474   1.466  17.720 -1.5415  0.2915 -0.1970
 6975SOL    HW232562   1.362   1.405   0.057 -0.3757  1.1322 -0.5425
 6976SOL     OW32563   3.772   3.559   6.455 -0.0238  0.1344  0.5894
 6976SOL    HW132564   3.742   3.548   6.545 -0.7462 -0.4543  0.2823
 6976SOL    HW232565   3.849   3.503   6.449  0.1211  0.4794 -0.8837
 6977SOL     OW32566   0.667   2.351  13.837 -0.0130  0.0544 -0.3269
 6977SOL    HW132567   0.671   2.336  13.931 -1.9460  2.9002  0.1944
 6977SOL    HW232568   0.646   2.266  13.798  1.0556 -0.6689  0.6567
 6978SOL     OW32569   2.730   1.316   4.996  0.3490 -0.4194  0.5228
 6978SOL    HW132570   2.657   1.280   4.946  0.4684 -0.1354  0.1374
 6978SOL    HW232571   2.691   1.336   5.081  0.4638  1.7115  0.0884
 6979SOL     OW32572   4.560   0.864   8.216 -0.1986  0.1320  0.7824
 6979SOL    HW132573   4.478   0.828   8.251  0.5500 -2.0602  0.2530
 6979SOL    HW232574   4.610   0.786   8.195 -0.6419  0.0787 -0.0658
 6980SOL     OW32575   1.251   1.172   1.924  0.2263  0.3593 -0.1112
 6980SOL    HW132576   1.287   1.259   1.903  0.0274  0.8733  1.6909
 6980SOL    HW232577   1.299   1.128   1.854  0.5057 -0.9107  0.8845
 6981SOL     OW32578   1.808   3.163   8.546 -0.4917  0.0414 -0.9114
 6981SOL    HW132579   1.773   3.074   8.545  1.0435 -0.5779 -1.1323
 6981SOL    HW232580   1.839   3.164   8.636 -2.3098  0.2007 -0.3012
 6982SOL     OW32581   0.595   0.722   2.122  0.1135  0.2988  0.2562
 6982SOL    HW132582   0.561   0.674   2.197  1.8431  1.6463  1.9127
 6982SOL    HW232583   0.655   0.657   2.084 -0.6367  0.4698 -1.1994
 6983SOL     OW32584   1.736   1.303  10.553 -0.0589  0.0730  0.4399
 6983SOL    HW132585   1.813   1.357  10.570  1.2193 -2.0223  1.4588
 6983SOL    HW232586   1.768   1.221  10.592 -3.0752 -0.5243  1.6676
 6984SOL     OW32587   3.142   1.538   8.472  0.2256 -0.2282 -0.2682
 6984SOL    HW132588   3.233   1.528   8.498 -0.4186  0.3998  2.2673
 6984SOL    HW232589   3.098   1.505   8.551 -1.2827 -0.1298 -1.0516
 6985SOL     OW32590   0.439   3.083  15.232  0.0478  0.0764 -0.5927
 6985SOL    HW132591   0.486   3.099  15.314 -0.3198  3.7987 -1.0905
 6985SOL    HW232592   0.352   3.053  15.258  0.2308 -0.8288 -1.0353
 6986SOL     OW32593   3.090   1.187  11.877 -0.0467  0.3193  0.7014
 6986SOL    HW132594   3.026   1.118  11.894  2.5511 -2.0158  1.0165
 6986SOL    HW232595   3.164   1.140  11.839 -0.2782 -1.2819  2.2588
 6987SOL     OW32596   0.009   0.121  14.134 -0.8724 -0.5383 -0.0329
 6987SOL    HW132597   0.003   0.091  14.043  1.9207  0.8408 -0.6697
 6987SOL    HW232598   4.660   0.157  14.153  0.1312  1.8210  0.0494
 6988SOL     OW32599   1.079   0.116  10.609 -0.6710  0.4326  0.4744
 6988SOL    HW132600   1.154   0.074  10.567 -1.0760  2.2159 -2.0797
 6988SOL    HW232601   1.096   0.209  10.594 -0.4296  0.2934 -0.1079
 6989SOL     OW32602   2.125   4.712   4.605  0.2495  0.9072  0.2023
 6989SOL    HW132603   2.125   0.030   4.528 -0.6713 -1.3898 -1.4530
 6989SOL    HW232604   2.179   0.028   4.663  0.0802 -0.7636  1.9255
 6990SOL     OW32605   2.040   4.314   6.122 -0.5952 -0.3322  0.3419
 6990SOL    HW132606   2.019   4.327   6.214 -3.0344  2.2315 -0.5648
 6990SOL    HW232607   2.090   4.396   6.115  0.9663 -1.2785  0.3994
 6991SOL     OW32608   3.219   0.750  16.478  0.0477  0.1677  0.5181
 6991SOL    HW132609   3.146   0.688  16.485 -0.3836  0.6994  0.7607
 6991SOL    HW232610   3.291   0.703  16.519  0.6835  1.4818  0.9366
 6992SOL     OW32611   3.123   0.710   8.609  0.2305 -0.4426 -0.2312
 6992SOL    HW132612   3.079   0.795   8.599  0.4128 -0.1944  1.0244
 6992SOL    HW232613   3.086   0.661   8.536  1.6377 -0.6118 -0.8090
 6993SOL     OW32614   0.600   1.756   4.913 -0.0551 -0.7004  0.1462
 6993SOL    HW132615   0.575   1.848   4.922  1.5350 -0.1732 -0.8329
 6993SOL    HW232616   0.545   1.727   4.986 -1.9249  1.0806 -0.5732
 6994SOL     OW32617   3.283   2.656   7.722 -0.2880 -0.3783 -0.1687
 6994SOL    HW132618   3.316   2.725   7.778  0.2265  1.1485 -2.3462
 6994SOL    HW232619   3.348   2.589   7.741 -0.5662  0.1033  2.3779
 6995SOL     OW32620   4.080   2.550   2.137 -0.3171 -0.1815 -0.0085
 6995SOL    HW132621   4.021   2.560   2.063 -1.1937  0.4047  0.7624
 6995SOL    HW232622   4.132   2.478   2.102  0.8764  0.1467  1.0751
 6996SOL     OW32623   3.143   3.162  13.875 -0.0614 -0.4564 -0.8621
 6996SOL    HW132624   3.082   3.190  13.943  1.5792  0.7098  0.1216
 6996SOL    HW232625   3.134   3.070  13.899  0.4237 -0.4649 -0.7045
 6997SOL     OW32626   4.498   3.672   8.767  0.2491  0.4026 -0.5492
 6997SOL    HW132627   4.572   3.623   8.801 -1.6109 -0.5506  2.1649
 6997SOL    HW232628   4.532   3.703   8.683  1.7329  2.9085  0.9609
 6998SOL     OW32629   3.035   3.654   0.941 -0.4081  0.2434 -0.2066
 6998SOL    HW132630   3.041   3.749   0.939 -0.9061  0.2871  0.5375
 6998SOL    HW232631   3.088   3.621   0.869  0.9277  0.0808  0.8443
 6999SOL     OW32632   3.996   3.004   3.236  0.0283 -0.1903 -0.1964
 6999SOL    HW132633   4.089   3.021   3.247  0.4467 -2.4919 -0.1297
 6999SOL    HW232634   3.953   3.088   3.252  3.9266  1.5783  0.7917
 7000SOL     OW32635   3.390   0.787   4.754  0.2743 -0.1001 -0.1382
 7000SOL    HW132636   3.335   0.754   4.683 -1.6306 -2.0119  2.2203
 7000SOL    HW232637   3.474   0.748   4.729  0.3062 -0.5130  0.5987
 7001SOL     OW32638   1.707   1.057  11.238  0.0554 -0.1460  0.0702
 7001SOL    HW132639   1.627   1.034  11.191  0.2909 -0.6309 -0.0996
 7001SOL    HW232640   1.759   1.081  11.161 -3.8750  0.6893 -2.3023
 7002SOL     OW32641   0.291   0.130   2.015 -0.6727  0.3700 -0.0868
 7002SOL    HW132642   0.329   0.048   1.983  1.3569  0.4009  2.3271
 7002SOL    HW232643   0.351   0.149   2.087 -1.3442 -1.9552  1.0659
 7003SOL     OW32644   4.502   0.506   5.783 -0.1020  0.1462 -0.4144
 7003SOL    HW132645   4.452   0.430   5.755  0.2460 -0.1299 -0.2895
 7003SOL    HW232646   4.445   0.580   5.762  0.6068  0.7821 -0.0966
 7004SOL     OW32647   4.087   1.303   2.791 -0.1942 -0.2255 -0.2055
 7004SOL    HW132648   4.132   1.218   2.782  0.0300 -0.0262 -0.9135
 7004SOL    HW232649   4.158   1.362   2.768  0.0373 -0.3216  0.2500
 7005SOL     OW32650   3.120   1.477   5.838  0.3888  0.0689 -0.2356
 7005SOL    HW132651   3.160   1.488   5.924 -0.4807  1.7443 -0.0558
 7005SOL    HW232652   3.047   1.419   5.860  0.7679  0.2154  1.4421
 7006SOL     OW32653   2.776   4.053  10.149 -0.5629 -0.4165 -0.2974
 7006SOL    HW132654   2.760   4.079  10.239  0.0049 -1.0962 -0.0064
 7006SOL    HW232655   2.858   4.004  10.151 -0.2166  0.1494 -0.6188
 7007SOL     OW32656   4.446   1.383   4.205  0.1757  0.0225  0.0961
 7007SOL    HW132657   4.474   1.345   4.121 -0.9642 -1.0534  0.2095
 7007SOL    HW232658   4.531   1.407   4.243 -0.9504  2.0219  1.3382
 7008SOL     OW32659   2.705   3.149   7.874  0.1692  0.8752  0.2720
 7008SOL    HW132660   2.682   3.094   7.800  0.0423 -1.0137  1.7063
 7008SOL    HW232661   2.656   3.227   7.848 -0.7340  0.3512  0.3954
 7009SOL     OW32662   4.523   3.437   2.536  0.0782  0.1248 -0.5414
 7009SOL    HW132663   4.569   3.389   2.469 -0.4072  1.1992 -1.6472
 7009SOL    HW232664   4.546   3.530   2.535 -0.1038  0.1964  0.9711
 7010SOL     OW32665   2.242   0.276   3.952  0.0833 -0.2488 -0.4456
 7010SOL    HW132666   2.272   0.358   3.991 -1.2681  0.9172 -1.8481
 7010SOL    HW232667   2.158   0.310   3.921 -1.8117 -3.7565  0.8193
 7011SOL     OW32668   2.565   2.687   8.379  0.5057 -0.1194  0.3629
 7011SOL    HW132669   2.578   2.609   8.326 -2.0308  0.6631 -1.4208
 7011SOL    HW232670   2.611   2.754   8.328 -1.4311  2.9625  2.6458
 7012SOL     OW32671   0.881   4.689   7.381 -0.2901  0.1973 -0.1202
 7012SOL    HW132672   0.957   4.706   7.326 -0.0228  1.1533  0.5428
 7012SOL    HW232673   0.880   4.594   7.392  0.2541  0.3559  1.2546
 7013SOL     OW32674   3.924   3.678   7.509  0.0653 -0.0988  0.0168
 7013SOL    HW132675   3.998   3.637   7.554 -0.0271  1.1305  1.2899
 7013SOL    HW232676   3.901   3.605   7.451 -2.5529  1.1704 -0.5372
 7014SOL     OW32677   4.186   4.102   2.315 -0.0531  0.0213  0.5428
 7014SOL    HW132678   4.106   4.050   2.322 -1.0442  1.8141  2.3356
 7014SOL    HW232679   4.220   4.103   2.404  0.0715  2.7312  0.4450
 7015SOL     OW32680   3.388   3.872  15.930  0.5712 -0.2729 -0.5178
 7015SOL    HW132681   3.472   3.833  15.906  0.4099 -0.1553 -1.2615
 7015SOL    HW232682   3.386   3.862  16.025 -2.3514 -1.0326 -0.6834
 7016SOL     OW32683   1.652   1.196   3.782  0.7830 -0.1443  0.2208
 7016SOL    HW132684   1.574   1.155   3.744 -0.7363  0.9732  2.0977
 7016SOL    HW232685   1.612   1.229   3.863  0.9610  1.2605 -0.2660
 7017SOL     OW32686   3.075   3.971   7.477  0.5925  0.2349  0.1758
 7017SOL    HW132687   3.167   3.953   7.457  0.1977 -1.0132 -0.5317
 7017SOL    HW232688   3.068   4.054   7.525  1.0599  0.4305 -0.0906
 7018SOL     OW32689   1.157   3.362   7.424 -0.3189  0.1723  1.0151
 7018SOL    HW132690   1.177   3.312   7.503  0.3421  0.7827  1.2341
 7018SOL    HW232691   1.131   3.293   7.362 -0.6341  0.5355  0.7440
 7019SOL     OW32692   4.509   2.468   5.725 -0.1315 -0.3854 -0.1733
 7019SOL    HW132693   4.534   2.405   5.793 -1.0613 -0.6806 -0.1040
 7019SOL    HW232694   4.534   2.548   5.771  1.9429 -1.5318  0.6764
 7020SOL     OW32695   3.128   0.817   3.441 -0.0262 -0.1385  0.1370
 7020SOL    HW132696   3.051   0.822   3.498  0.1074 -1.6477  0.4622
 7020SOL    HW232697   3.082   0.779   3.366 -0.6542 -0.9594  0.9334
 7021SOL     OW32698   4.632   1.956   5.292  0.3380  0.1900  0.1360
 7021SOL    HW132699   4.641   1.996   5.378  1.4552 -1.0157  0.5887
 7021SOL    HW232700   4.551   1.992   5.256 -0.0232  0.9922  1.7303
 7022SOL     OW32701   2.207   4.395   6.924 -0.2872  0.5029 -0.1744
 7022SOL    HW132702   2.114   4.403   6.948 -0.5822 -0.3818 -1.0254
 7022SOL    HW232703   2.238   4.485   6.935 -0.8975  0.6553  0.3301
 7023SOL     OW32704   1.187   2.438   7.953 -0.0121 -0.4360 -0.2407
 7023SOL    HW132705   1.226   2.525   7.942 -0.0333 -0.3858  0.1052
 7023SOL    HW232706   1.210   2.426   8.045 -0.5697 -0.4198 -0.0963
 7024SOL     OW32707   2.655   0.740   2.242  0.0840  0.2620  0.0775
 7024SOL    HW132708   2.683   0.670   2.301  0.3475 -1.3900 -1.9767
 7024SOL    HW232709   2.616   0.797   2.307  1.7974  1.0601  0.4148
 7025SOL     OW32710   2.097   1.250   9.680  0.4318  0.3057  0.0904
 7025SOL    HW132711   2.049   1.327   9.649  0.7254  1.4810  2.5510
 7025SOL    HW232712   2.083   1.188   9.609 -1.3716  0.0258  0.7103
 7026SOL     OW32713   1.064   1.513   9.388  0.6445  0.5061 -0.4818
 7026SOL    HW132714   1.114   1.487   9.465  1.2560 -1.2347 -1.4898
 7026SOL    HW232715   0.971   1.514   9.413  0.9445 -2.1038  0.6964
 7027SOL     OW32716   1.452   3.802   9.243  0.0745 -0.7836 -0.4858
 7027SOL    HW132717   1.462   3.851   9.325 -0.1232 -0.7062 -0.5094
 7027SOL    HW232718   1.392   3.737   9.279 -1.9065  0.3793 -1.7335
 7028SOL     OW32719   3.355   1.299  12.011 -1.1246 -0.0133 -0.0002
 7028SOL    HW132720   3.317   1.305  12.098  0.0276  1.5206  0.3853
 7028SOL    HW232721   3.327   1.210  11.990 -2.2463  0.2756  0.2376
 7029SOL     OW32722   0.422   2.561   4.472  0.4478 -0.4096 -0.2241
 7029SOL    HW132723   0.383   2.607   4.546 -1.4640 -0.9583 -0.8882
 7029SOL    HW232724   0.346   2.568   4.415 -1.1349 -0.1375  1.9195
 7030SOL     OW32725   4.308   4.231   1.844  0.8070 -0.2839 -0.1605
 7030SOL    HW132726   4.290   4.167   1.912  1.1350 -2.1716 -1.8253
 7030SOL    HW232727   4.287   4.316   1.881 -2.0738 -0.9070 -0.3769
 7031SOL     OW32728   1.845   3.021   9.873 -0.2120  0.3134 -0.5542
 7031SOL    HW132729   1.812   2.954   9.813  0.9805 -0.2207 -0.5975
 7031SOL    HW232730   1.769   3.029   9.931  0.1206  0.0269 -0.0866
 7032SOL     OW32731   1.023   2.681   7.497 -0.0410 -0.4724  0.0272
 7032SOL    HW132732   0.942   2.723   7.526  0.2900 -1.4577  2.3841
 7032SOL    HW232733   1.008   2.587   7.506 -0.5353 -0.4649 -0.7287
 7033SOL     OW32734   2.099   4.381   8.514  0.0274  0.1024 -0.5514
 7033SOL    HW132735   2.003   4.382   8.513  0.0463  0.1524 -2.3440
 7033SOL    HW232736   2.112   4.290   8.487 -1.9047 -0.4680  0.4047
 7034SOL     OW32737   3.332   0.141   9.012  0.2883 -0.6902  0.3972
 7034SOL    HW132738   3.388   0.166   8.939  0.8490  0.7231  1.3230
 7034SOL    HW232739   3.341   0.046   9.004  0.2082 -0.5298 -1.6172
 7035SOL     OW32740   2.599   3.725  13.624 -0.1933 -0.5198 -0.2823
 7035SOL    HW132741   2.581   3.746  13.532 -1.5396 -0.9518 -0.1242
 7035SOL    HW232742   2.695   3.721  13.623 -0.2512 -1.6910 -1.4165
 7036SOL     OW32743   0.325   3.731  13.285  0.6964 -0.0365  0.1663
 7036SOL    HW132744   0.335   3.691  13.199 -0.5666  0.1389 -0.0682
 7036SOL    HW232745   0.229   3.728  13.277  0.6579  1.5711  0.1042
 7037SOL     OW32746   3.205   3.129   8.834  0.0289 -0.3667 -0.2092
 7037SOL    HW132747   3.286   3.170   8.864 -0.4881 -0.2767  1.0684
 7037SOL    HW232748   3.212   3.148   8.740 -1.8192 -1.0964 -0.5104
 7038SOL     OW32749   3.227   0.785   6.132 -0.4514  0.9665  0.1807
 7038SOL    HW132750   3.155   0.725   6.153  1.6356 -1.7349 -0.4243
 7038SOL    HW232751   3.178   0.867   6.120  1.2304  1.6258 -2.0898
 7039SOL     OW32752   0.671   1.676   1.491  0.0613 -0.5871  0.1576
 7039SOL    HW132753   0.595   1.703   1.439 -0.3722 -0.2381  0.9761
 7039SOL    HW232754   0.702   1.763   1.516 -0.9584 -0.2110  0.1267
 7040SOL     OW32755   3.475   3.110   6.932 -0.3804  0.5653 -0.1754
 7040SOL    HW132756   3.568   3.127   6.947  0.3121 -1.2117 -2.3767
 7040SOL    HW232757   3.449   3.095   7.023 -2.4769  2.0874 -0.5185
 7041SOL     OW32758   2.942   3.721   3.406  0.9998 -0.5135  0.3573
 7041SOL    HW132759   3.001   3.775   3.354 -0.8590  0.3300 -0.8576
 7041SOL    HW232760   2.861   3.739   3.359  1.9324 -0.3183 -1.1875
 7042SOL     OW32761   2.043   0.108  11.513  0.0329 -0.4619  0.2922
 7042SOL    HW132762   2.122   0.063  11.542 -1.0923 -2.2304  0.6129
 7042SOL    HW232763   2.078   0.132  11.427 -2.1442  2.3863  0.1969
 7043SOL     OW32764   1.957   0.494  12.204 -0.2535  0.5015  0.4026
 7043SOL    HW132765   2.031   0.555  12.203  1.0011 -1.1361 -3.1344
 7043SOL    HW232766   2.004   0.411  12.201 -0.6618  0.1727  2.8068
 7044SOL     OW32767   2.706   4.064  16.004 -0.0647  0.1039 -0.2604
 7044SOL    HW132768   2.677   4.080  15.914 -0.0297 -0.0358 -0.2952
 7044SOL    HW232769   2.713   3.969  16.004 -1.2181  0.0234 -0.4077
 7045SOL     OW32770   3.690   3.321   9.048  0.0854 -0.0601 -0.0338
 7045SOL    HW132771   3.729   3.395   9.094  2.0246 -0.1987 -1.4881
 7045SOL    HW232772   3.759   3.255   9.051 -1.6080 -1.8460 -0.4531
 7046SOL     OW32773   0.657   1.754  13.131 -0.1610  0.1783 -0.1211
 7046SOL    HW132774   0.706   1.778  13.210  1.0746 -0.6843 -0.6237
 7046SOL    HW232775   0.670   1.660  13.128 -0.1281  0.1318  1.4462
 7047SOL     OW32776   0.476   1.442  11.165 -0.1601  1.0340  0.5731
 7047SOL    HW132777   0.532   1.384  11.114  0.5292  0.5871  1.8396
 7047SOL    HW232778   0.521   1.523  11.142 -1.7669  1.0081 -2.6797
 7048SOL     OW32779   0.270   2.352  12.987 -0.4798 -0.3013 -0.4664
 7048SOL    HW132780   0.365   2.352  12.989 -0.4415 -0.7294 -3.3174
 7048SOL    HW232781   0.249   2.346  12.894 -2.4212 -0.6936 -0.0198
 7049SOL     OW32782   1.962   4.634   7.569 -0.3876 -0.0414 -0.2314
 7049SOL    HW132783   1.946   4.720   7.530 -2.5161 -1.4822 -2.4916
 7049SOL    HW232784   1.879   4.589   7.555 -1.0452  1.4244 -1.0649
 7050SOL     OW32785   3.052   2.800  15.263  0.0593 -0.4369 -0.1965
 7050SOL    HW132786   2.968   2.799  15.309  0.3599 -1.2469  0.3292
 7050SOL    HW232787   3.081   2.712  15.285  0.2214 -0.4457 -0.4545
 7051SOL     OW32788   0.689   2.954   3.476  0.6992 -0.4037 -0.0364
 7051SOL    HW132789   0.652   3.016   3.414  0.8638  0.5677  0.8458
 7051SOL    HW232790   0.627   2.881   3.473  1.3099 -0.8377 -1.5973
 7052SOL     OW32791   1.680   1.477  13.794  0.3608  0.2363 -0.4996
 7052SOL    HW132792   1.618   1.491  13.723 -0.4435  0.3959  0.2314
 7052SOL    HW232793   1.635   1.406  13.839 -0.8702  0.5118 -1.2937
 7053SOL     OW32794   2.727   0.410  12.663 -0.5961 -0.1090  0.3382
 7053SOL    HW132795   2.669   0.472  12.707 -1.2145 -0.2431 -0.2774
 7053SOL    HW232796   2.773   0.471  12.605 -0.8786 -0.3402 -0.1345
 7054SOL     OW32797   4.600   1.005   9.870 -0.2045 -0.0909 -0.0349
 7054SOL    HW132798   4.551   0.962   9.940 -1.6802  1.2805 -0.2188
 7054SOL    HW232799   4.647   0.927   9.840 -0.7092 -0.4088  0.0172
 7055SOL     OW32800   0.285   1.267   3.720 -0.5729 -0.1433  0.2798
 7055SOL    HW132801   0.362   1.224   3.758 -0.2793 -0.5244 -0.7375
 7055SOL    HW232802   0.320   1.332   3.659  2.2097 -1.7581  0.1565
 7056SOL     OW32803   2.742   1.660  10.378  0.2510  0.0686  0.0694
 7056SOL    HW132804   2.707   1.616  10.300  0.6873  0.1169 -0.1572
 7056SOL    HW232805   2.785   1.584  10.418 -2.8069 -1.6697  0.0060
 7057SOL     OW32806   4.303   0.725   3.957 -0.4047  0.3114 -0.0476
 7057SOL    HW132807   4.341   0.657   3.901  2.5045  1.5960  0.4000
 7057SOL    HW232808   4.216   0.696   3.987 -0.9000  0.2981 -1.5031
 7058SOL     OW32809   0.818   2.704  12.864  0.1461  0.1303 -0.8265
 7058SOL    HW132810   0.735   2.719  12.820 -0.2919  1.2558  0.3920
 7058SOL    HW232811   0.788   2.661  12.944 -0.4624  0.8989 -0.6428
 7059SOL     OW32812   4.440   2.293  10.790 -0.1367 -0.6397  0.2313
 7059SOL    HW132813   4.514   2.353  10.802 -0.4485 -0.3386  0.6640
 7059SOL    HW232814   4.478   2.223  10.737 -0.7574 -1.4569  0.8819
 7060SOL     OW32815   2.266   3.913  17.610 -0.0891  0.1092  0.0475
 7060SOL    HW132816   2.238   3.830  17.570  0.4383  0.0760 -0.2626
 7060SOL    HW232817   2.285   3.960  17.528 -1.8846 -1.5150 -1.3042
 7061SOL     OW32818   0.883   1.528  14.695  0.4873 -0.5202 -0.4721
 7061SOL    HW132819   0.900   1.435  14.683  2.0357  0.0051 -2.4541
 7061SOL    HW232820   0.792   1.519  14.722  0.9808 -2.2289  0.6299
 7062SOL     OW32821   2.478   1.645  13.178 -0.0780 -0.4180 -0.1076
 7062SOL    HW132822   2.557   1.686  13.211  1.0404 -2.9855  0.3698
 7062SOL    HW232823   2.505   1.562  13.138  2.0711  0.3933 -0.3235
 7063SOL     OW32824   0.671   3.206   3.657  0.3769  0.3768  0.0597
 7063SOL    HW132825   0.740   3.265   3.630  0.3411 -0.6666 -2.3278
 7063SOL    HW232826   0.612   3.223   3.584  1.0575  0.3822 -0.4852
 7064SOL     OW32827   4.062   0.560   4.003  0.3563 -0.0478 -0.0175
 7064SOL    HW132828   4.102   0.499   3.941  0.3955  0.0300 -0.0683
 7064SOL    HW232829   4.070   0.532   4.095  1.2279  0.0460 -0.0643
 7065SOL     OW32830   1.843   1.327  14.220  0.5287  0.4074 -0.1326
 7065SOL    HW132831   1.780   1.382  14.268  0.3714 -1.6438  2.0059
 7065SOL    HW232832   1.788   1.251  14.203 -2.3608  2.1441  1.4735
 7066SOL     OW32833   3.564   3.166   8.749  0.0321  0.0820  0.7287
 7066SOL    HW132834   3.644   3.115   8.762  0.0826 -0.4406 -1.6896
 7066SOL    HW232835   3.528   3.187   8.835  0.2370  0.3541  0.7476
 7067SOL     OW32836   1.163   0.575   6.653 -0.3951  0.0468  0.3055
 7067SOL    HW132837   1.068   0.572   6.638 -0.6949  0.7485  1.9775
 7067SOL    HW232838   1.174   0.573   6.749  1.1904 -1.9362  0.0741
 7068SOL     OW32839   0.387   1.464   8.195  0.0902  0.9132 -0.9509
 7068SOL    HW132840   0.336   1.412   8.133  0.6187 -0.6812 -0.0608
 7068SOL    HW232841   0.469   1.415   8.197  0.4356  1.3735 -3.7097
 7069SOL     OW32842   3.257   3.363  13.686 -0.3220  0.0971  0.5484
 7069SOL    HW132843   3.281   3.433  13.746  0.4342  2.6963 -2.7859
 7069SOL    HW232844   3.219   3.289  13.733 -0.8160 -1.6476 -2.6134
 7070SOL     OW32845   1.741   3.358   5.940  0.0369 -0.7989 -0.4454
 7070SOL    HW132846   1.762   3.290   6.004  1.9049 -0.3332 -0.5513
 7070SOL    HW232847   1.671   3.328   5.882  0.1774  0.9198 -1.5274
 7071SOL     OW32848   1.809   3.393   8.252 -0.0623  0.5994 -0.1510
 7071SOL    HW132849   1.829   3.300   8.264 -0.8345  0.7502  2.1970
 7071SOL    HW232850   1.851   3.431   8.329 -0.8150 -0.0029  0.5559
 7072SOL     OW32851   3.895   4.025  15.460 -0.1446 -0.2740  0.7891
 7072SOL    HW132852   3.991   4.015  15.463  0.0222  0.2931 -2.3395
 7072SOL    HW232853   3.885   4.102  15.405  1.4091 -1.9082 -1.8196
 7073SOL     OW32854   3.619   3.918   5.429 -0.2462  0.0632 -0.2843
 7073SOL    HW132855   3.651   3.862   5.499  0.4328  1.2331  0.3407
 7073SOL    HW232856   3.547   3.962   5.474  1.7302  0.7350  2.1742
 7074SOL     OW32857   0.249   3.579   7.132  0.1725  0.0732 -0.6757
 7074SOL    HW132858   0.248   3.486   7.108  0.3154 -0.2216  0.4426
 7074SOL    HW232859   0.241   3.608   7.041 -0.8891 -0.7321 -0.8313
 7075SOL     OW32860   2.892   2.329   4.677  0.5559 -0.1347 -0.3369
 7075SOL    HW132861   2.834   2.369   4.612 -2.1777 -1.2904  1.4224
 7075SOL    HW232862   2.878   2.236   4.660  0.9391 -0.0438 -1.1476
 7076SOL     OW32863   1.210   4.300   9.432 -0.2631  0.3747 -0.0348
 7076SOL    HW132864   1.148   4.338   9.495  0.2615  0.8539  0.1961
 7076SOL    HW232865   1.266   4.376   9.416 -1.4135  1.4053  0.7720
 7077SOL     OW32866   3.341   2.323  12.568  0.2374 -0.0553 -0.0510
 7077SOL    HW132867   3.377   2.293  12.484 -0.8536  0.6537 -0.7687
 7077SOL    HW232868   3.422   2.350  12.613  2.6100 -3.5152 -2.2530
 7078SOL     OW32869   1.097   1.189   8.101 -0.2810  0.1351 -0.5263
 7078SOL    HW132870   1.058   1.155   8.020 -0.4735  3.5281 -1.8649
 7078SOL    HW232871   1.132   1.114   8.148  0.5758  0.6978 -0.2639
 7079SOL     OW32872   3.092   4.097   5.442  0.0006 -0.6347  0.0805
 7079SOL    HW132873   3.003   4.064   5.446 -1.0262  1.9423 -1.5308
 7079SOL    HW232874   3.089   4.161   5.371  2.8973 -1.0368 -0.4212
 7080SOL     OW32875   0.636   3.732  16.175  0.4645 -0.2329 -0.4055
 7080SOL    HW132876   0.596   3.802  16.124 -1.4299  0.5062  2.0651
 7080SOL    HW232877   0.727   3.736  16.145  1.0744  1.8484  1.7940
 7081SOL     OW32878   0.864   0.434   9.427 -0.6452 -0.4221 -0.4793
 7081SOL    HW132879   0.950   0.397   9.448 -0.9347  0.7697  2.6785
 7081SOL    HW232880   0.814   0.361   9.464 -0.8441 -0.5535 -1.0026
 7082SOL     OW32881   2.142   2.186   2.356 -0.8041 -0.2430 -0.2503
 7082SOL    HW132882   2.062   2.173   2.305  0.3238 -0.4177 -1.9746
 7082SOL    HW232883   2.158   2.099   2.392 -2.8818  0.3379  2.0486
 7083SOL     OW32884   3.278   1.998   5.639  0.1925  0.3846 -0.0092
 7083SOL    HW132885   3.205   1.965   5.690 -0.6339 -1.0041 -2.0823
 7083SOL    HW232886   3.254   1.990   5.546 -1.2997  1.0182  0.3284
 7084SOL     OW32887   3.053   0.855   3.111 -0.0314  0.1208 -0.0135
 7084SOL    HW132888   3.066   0.771   3.156 -0.8910  0.6559  1.2070
 7084SOL    HW232889   3.093   0.827   3.028  0.4866 -1.4878  0.7632
 7085SOL     OW32890   1.465   3.914   6.555 -0.6277  0.6448  0.2195
 7085SOL    HW132891   1.466   3.820   6.541 -0.8513  0.3007  2.5134
 7085SOL    HW232892   1.459   3.951   6.467  1.0391 -0.9179 -0.5423
 7086SOL     OW32893   4.203   1.624  11.709  0.3571 -0.5692  0.8599
 7086SOL    HW132894   4.282   1.575  11.686 -0.2288 -0.8804 -0.4511
 7086SOL    HW232895   4.225   1.656  11.797 -3.4430  2.2325  0.7807
 7087SOL     OW32896   1.072   1.786  11.420 -0.0795 -1.0967  0.9895
 7087SOL    HW132897   1.122   1.717  11.375 -0.1473 -1.7771  1.9447
 7087SOL    HW232898   1.140   1.841  11.459 -0.8555  0.7101 -0.2034
 7088SOL     OW32899   2.752   4.658   2.729 -0.2118 -0.4421 -0.2593
 7088SOL    HW132900   2.742   4.650   2.824 -2.2890 -2.6256 -0.6588
 7088SOL    HW232901   2.665   4.692   2.710  0.7564  1.8636 -0.4754
 7089SOL     OW32902   4.542   0.667   6.511 -0.1299  0.1887 -0.2322
 7089SOL    HW132903   4.628   0.708   6.522 -0.9468  2.7861 -3.5868
 7089SOL    HW232904   4.567   0.581   6.545 -1.3441 -0.5718 -1.2593
 7090SOL     OW32905   3.711   4.443   5.593  0.2866 -0.1201 -0.4774
 7090SOL    HW132906   3.785   4.409   5.543  0.9602  0.8806 -0.1616
 7090SOL    HW232907   3.705   4.528   5.549 -0.4103  0.3081  0.4397
 7091SOL     OW32908   0.617   1.791   7.454  0.4195  0.0072  0.4430
 7091SOL    HW132909   0.675   1.860   7.487 -0.9466  0.5725  1.6832
 7091SOL    HW232910   0.615   1.804   7.360  2.9205 -0.3489  0.3415
 7092SOL     OW32911   4.507   2.201   1.993 -0.2224 -0.2880 -0.0849
 7092SOL    HW132912   4.575   2.135   1.979 -2.4915 -2.0420 -2.5978
 7092SOL    HW232913   4.555   2.283   1.981 -1.1460 -0.0907 -2.3319
 7093SOL     OW32914   0.614   0.955   6.383 -0.0330 -0.4349 -0.1834
 7093SOL    HW132915   0.698   0.911   6.387  1.0090  1.6625  1.0859
 7093SOL    HW232916   0.629   1.035   6.332 -2.0269  0.5830  0.8143
 7094SOL     OW32917   4.506   2.895  15.837  0.0391 -1.0660  0.4218
 7094SOL    HW132918   4.485   2.972  15.784 -1.8784  0.3355  3.2600
 7094SOL    HW232919   4.430   2.844  15.807 -1.5150  1.8385 -0.5704
 7095SOL     OW32920   0.421   2.888  17.505  0.4459  0.0326  0.4326
 7095SOL    HW132921   0.339   2.867  17.549  0.3627 -0.4252  0.0505
 7095SOL    HW232922   0.408   2.976  17.469  2.6434 -0.1325 -0.7622
 7096SOL     OW32923   2.449   2.643  17.699  0.0965  1.0528  0.0941
 7096SOL    HW132924   2.440   2.585  17.624 -1.4536  0.9702  0.3478
 7096SOL    HW232925   2.530   2.611  17.739  0.6673  1.1070 -1.0342
 7097SOL     OW32926   0.687   2.568   8.943  0.0856 -0.1032 -0.1676
 7097SOL    HW132927   0.732   2.622   9.007  0.4479 -1.9273  1.1194
 7097SOL    HW232928   0.709   2.478   8.968 -1.0308 -0.1533  0.6309
 7098SOL     OW32929   2.933   1.859   7.107  0.1044  0.1601 -0.3706
 7098SOL    HW132930   2.889   1.837   7.189  2.0050  0.4485  0.7291
 7098SOL    HW232931   2.853   1.863   7.055 -1.3252 -1.0452  1.7504
 7099SOL     OW32932   2.468   3.529  11.585  0.9059  0.1542  0.0665
 7099SOL    HW132933   2.469   3.560  11.675  2.5382  1.4438 -0.4121
 7099SOL    HW232934   2.553   3.561  11.555 -0.0902  1.8561 -0.9721
 7100SOL     OW32935   4.383   4.581  14.502 -0.6652  0.0295  0.3106
 7100SOL    HW132936   4.463   4.570  14.554 -1.0749 -2.3809  0.4435
 7100SOL    HW232937   4.398   4.656  14.445  0.6512  1.2925  2.3044
 7101SOL     OW32938   3.517   3.687   9.611 -0.5032 -0.1411 -0.2267
 7101SOL    HW132939   3.530   3.599   9.576  0.2448  0.1153 -0.5922
 7101SOL    HW232940   3.564   3.671   9.693  1.4092  2.7158 -0.7738
 7102SOL     OW32941   0.807   1.553   2.981  0.3995 -0.1153 -0.5729
 7102SOL    HW132942   0.750   1.492   2.935 -1.0265  1.2473 -0.6063
 7102SOL    HW232943   0.755   1.630   2.958  0.5051  0.1095 -0.0542
 7103SOL     OW32944   0.772   3.020   7.837  0.2307  0.0030  0.3852
 7103SOL    HW132945   0.792   3.042   7.929 -1.6805  4.3550 -0.2317
 7103SOL    HW232946   0.776   3.104   7.792 -0.4221 -1.2015 -1.9085
 7104SOL     OW32947   1.961   3.936   0.272  0.1837  0.1485  0.1725
 7104SOL    HW132948   2.024   4.008   0.276  0.2954  0.0025  0.9983
 7104SOL    HW232949   2.008   3.872   0.327 -3.6729 -2.9451 -0.1264
 7105SOL     OW32950   2.057   4.691   9.193  0.4393 -0.2186 -0.2320
 7105SOL    HW132951   2.113   0.029   9.206  0.2881  0.0408 -1.1294
 7105SOL    HW232952   2.107   4.624   9.146 -0.6535 -0.4369 -1.1000
 7106SOL     OW32953   4.643   1.922   9.377 -0.2601 -0.2720  0.0207
 7106SOL    HW132954   4.607   1.980   9.310 -2.6793 -0.8725  0.8004
 7106SOL    HW232955   4.598   1.953   9.456 -1.2361  0.9133 -1.0122
 7107SOL     OW32956   1.332   2.285  15.184 -0.3264 -0.0333  0.0585
 7107SOL    HW132957   1.282   2.274  15.265 -0.4994 -1.3341 -0.2190
 7107SOL    HW232958   1.255   2.282  15.127 -2.7963  0.1677  3.4013
 7108SOL     OW32959   0.813   2.404  14.701  0.0020  0.4232  0.8904
 7108SOL    HW132960   0.782   2.492  14.682  0.3028  0.6721  1.5402
 7108SOL    HW232961   0.756   2.353  14.643  1.8559 -1.6383  0.8766
 7109SOL     OW32962   4.570   3.198   3.416  0.2630  0.2518  0.2662
 7109SOL    HW132963   4.543   3.163   3.501 -0.6470  0.6667  0.1459
 7109SOL    HW232964   4.584   3.120   3.362 -1.5573  0.0640  0.0746
 7110SOL     OW32965   3.096   2.489   1.891 -0.0144 -0.2777  0.3274
 7110SOL    HW132966   3.056   2.410   1.852 -1.1160  0.2708  0.3331
 7110SOL    HW232967   3.126   2.469   1.979  1.3478 -3.3563 -0.8349
 7111SOL     OW32968   4.406   2.988   1.133 -0.2398  0.3142 -0.5996
 7111SOL    HW132969   4.464   2.936   1.078 -2.1693 -1.1452 -1.2687
 7111SOL    HW232970   4.475   2.995   1.198 -1.4305  1.6612  0.5257
 7112SOL     OW32971   0.939   0.743   5.408  0.3403 -0.2273  0.2123
 7112SOL    HW132972   0.889   0.771   5.331 -1.3411  0.0317  1.4208
 7112SOL    HW232973   1.025   0.769   5.377  0.3464  0.3186  0.7019
 7113SOL     OW32974   2.597   0.579  17.230 -0.0185  0.0312 -0.1235
 7113SOL    HW132975   2.685   0.583  17.193  0.6539  1.2221  1.6138
 7113SOL    HW232976   2.564   0.656  17.183  1.1579 -0.1917 -1.3207
 7114SOL     OW32977   0.765   3.584   3.816 -0.0456 -0.3251 -0.3947
 7114SOL    HW132978   0.709   3.510   3.839 -0.2835 -0.0155  0.0211
 7114SOL    HW232979   0.777   3.562   3.724  0.4980  0.1268 -0.4316
 7115SOL     OW32980   0.701   0.944   8.954  0.2023 -0.2768  0.1700
 7115SOL    HW132981   0.749   1.021   8.983 -1.8153  1.2290 -0.5125
 7115SOL    HW232982   0.611   0.953   8.987 -0.3183  2.4307 -2.0467
 7116SOL     OW32983   1.293   4.698   6.308 -0.3149  0.3492  0.0584
 7116SOL    HW132984   1.367   0.012   6.340 -0.8143  0.3356  1.2334
 7116SOL    HW232985   1.217   0.009   6.337  0.3494  2.0220 -1.0392
 7117SOL     OW32986   4.392   2.136   1.060 -0.0843  0.4473  0.9494
 7117SOL    HW132987   4.446   2.089   0.997 -1.6430  0.8718 -0.7118
 7117SOL    HW232988   4.444   2.128   1.140  0.8599  1.7014  0.4619
 7118SOL     OW32989   0.152   1.926   8.332  0.0942 -0.0888  0.0100
 7118SOL    HW132990   0.083   1.860   8.326  0.4425 -0.5449  1.2412
 7118SOL    HW232991   0.147   1.971   8.416  2.1446  0.7581 -0.3352
 7119SOL     OW32992   0.954   3.722   9.098  0.4554  0.2300 -0.9448
 7119SOL    HW132993   1.029   3.750   9.046  1.5618  0.6761  0.8718
 7119SOL    HW232994   0.919   3.804   9.132 -1.6901 -0.5928 -1.1772
 7120SOL     OW32995   1.675   1.311   5.343 -0.3634 -0.3273 -0.2720
 7120SOL    HW132996   1.769   1.328   5.354 -0.2230 -0.0313 -1.9518
 7120SOL    HW232997   1.662   1.352   5.258  0.5237 -0.8717 -0.6689
 7121SOL     OW32998   2.161   3.851   6.377  0.8693 -0.0241  0.1350
 7121SOL    HW132999   2.166   3.929   6.432  0.3479  0.3605 -0.3655
 7121SOL    HW233000   2.124   3.889   6.297  2.6890  2.2328  0.3756
 7122SOL     OW33001   1.999   4.079   7.986 -0.3362  0.0161  0.3290
 7122SOL    HW133002   2.056   4.052   8.059 -1.3491 -0.7851  0.8231
 7122SOL    HW233003   2.030   4.168   7.974 -2.0003  0.6010  0.4518
 7123SOL     OW33004   0.995   1.267   3.010  0.4152  0.0961 -0.2478
 7123SOL    HW133005   1.061   1.215   3.055  0.3965 -1.9142 -2.5638
 7123SOL    HW233006   0.980   1.344   3.065  1.7457  0.1949 -0.0151
 7124SOL     OW33007   3.323   4.329   7.584 -0.3016  0.2962 -0.2141
 7124SOL    HW133008   3.336   4.320   7.490 -0.0845  1.4820 -0.3036
 7124SOL    HW233009   3.404   4.358   7.627  0.9922  0.2102 -2.5867
 7125SOL     OW33010   0.460   1.321   1.958 -0.2487  0.0816 -0.0637
 7125SOL    HW133011   0.552   1.295   1.969  0.1256  0.1508 -3.1279
 7125SOL    HW233012   0.443   1.280   1.874 -0.3718  3.1865 -1.5655
 7126SOL     OW33013   2.890   3.742  14.109  0.5690  0.3857  0.0857
 7126SOL    HW133014   2.860   3.755  14.199 -1.3250  2.9160 -0.9177
 7126SOL    HW233015   2.813   3.694  14.079  1.4418 -1.2573  0.4526
 7127SOL     OW33016   1.408   4.526   5.108 -0.0478  0.0251  0.1027
 7127SOL    HW133017   1.465   4.596   5.076  0.9948 -0.2779  1.2940
 7127SOL    HW233018   1.342   4.582   5.149  0.4187 -0.8606  2.0710
 7128SOL     OW33019   2.901   4.283  16.652  0.2368 -0.3466 -0.0477
 7128SOL    HW133020   2.978   4.237  16.688 -0.0966 -0.9130 -0.0506
 7128SOL    HW233021   2.887   4.220  16.581 -1.6703  0.1167 -0.0632
 7129SOL     OW33022   4.570   1.148  17.510 -0.4041 -0.0592 -0.0363
 7129SOL    HW133023   4.511   1.147  17.435 -1.0224 -0.2478  0.4605
 7129SOL    HW233024   4.632   1.218  17.490 -0.6850  0.4070  0.7341
 7130SOL     OW33025   0.496   1.632   2.342 -0.1030  0.2091 -0.5940
 7130SOL    HW133026   0.413   1.670   2.370 -0.2131 -0.2691 -0.2688
 7130SOL    HW233027   0.466   1.603   2.256 -0.0457  0.6495 -0.7660
 7131SOL     OW33028   2.709   3.063   4.567  0.1582 -0.1074  0.7192
 7131SOL    HW133029   2.730   3.087   4.657 -1.2453  1.3216  0.6592
 7131SOL    HW233030   2.788   3.097   4.525 -1.6813  2.4742 -0.6426
 7132SOL     OW33031   1.570   1.130  17.298  0.2939  0.1364  0.1082
 7132SOL    HW133032   1.643   1.099  17.351  0.8860 -0.1362 -0.8552
 7132SOL    HW233033   1.625   1.179  17.237  0.7754  0.6729  0.9749
 7133SOL     OW33034   3.247   2.392   7.122  0.4645 -0.6629 -0.5844
 7133SOL    HW133035   3.263   2.423   7.033  0.1017  1.5281  0.1133
 7133SOL    HW233036   3.206   2.306   7.114 -1.1951  0.0267  0.4014
 7134SOL     OW33037   0.026   2.592   2.791  0.1363 -0.1834  0.3256
 7134SOL    HW133038   0.018   2.688   2.783  1.0457 -0.0583  0.8998
 7134SOL    HW233039   4.688   2.563   2.741  1.7891  0.7743 -2.7594
 7135SOL     OW33040   1.187   1.621  10.419  0.3131  0.0514 -0.0603
 7135SOL    HW133041   1.110   1.606  10.473 -0.2014  2.4969 -0.0942
 7135SOL    HW233042   1.142   1.617  10.334  2.1998  0.2372 -1.0751
 7136SOL     OW33043   2.815   4.069   5.476 -0.2600 -0.2810  0.9964
 7136SOL    HW133044   2.797   4.139   5.539  0.7261  0.6640  0.2322
 7136SOL    HW233045   2.723   4.049   5.462 -0.4389  0.9906  0.3107
 7137SOL     OW33046   3.719   4.236   0.148  0.2164  0.0885 -0.3206
 7137SOL    HW133047   3.773   4.188   0.085 -1.5694 -2.9782  0.4771
 7137SOL    HW233048   3.630   4.223   0.114 -0.5863  1.0561  1.4221
 7138SOL     OW33049   3.626   1.664   5.538 -0.1622  0.5072 -0.2537
 7138SOL    HW133050   3.687   1.644   5.467  0.2681 -1.6092  0.6766
 7138SOL    HW233051   3.544   1.648   5.493  0.1759 -0.4320 -0.5477
 7139SOL     OW33052   0.747   3.209  11.127  0.3556  0.1794 -0.0533
 7139SOL    HW133053   0.796   3.206  11.045 -0.3783  1.7440 -0.5600
 7139SOL    HW233054   0.825   3.206  11.183 -1.6095 -3.1190  2.4666
 7140SOL     OW33055   4.227   2.030   3.945 -0.4077  0.4029 -0.1112
 7140SOL    HW133056   4.131   2.037   3.946 -0.1208  4.5762 -2.4501
 7140SOL    HW233057   4.246   2.115   3.905 -0.4603  1.3297  1.8238
 7141SOL     OW33058   0.409   3.741   6.118  0.0192 -0.5987  0.0391
 7141SOL    HW133059   0.377   3.730   6.207 -0.2593 -1.2479 -0.1370
 7141SOL    HW233060   0.481   3.803   6.122 -1.2904  0.9671 -0.5142
 7142SOL     OW33061   1.638   1.682   4.639  0.1258 -0.5561 -0.2142
 7142SOL    HW133062   1.595   1.720   4.716 -0.2917 -1.9908  0.2621
 7142SOL    HW233063   1.693   1.755   4.613  0.4829 -1.1621 -1.2021
 7143SOL     OW33064   0.783   1.150   0.460 -0.3206 -0.4301  0.2805
 7143SOL    HW133065   0.801   1.214   0.529 -1.2168  1.7450 -1.4998
 7143SOL    HW233066   0.689   1.142   0.473 -0.7791  1.4281 -1.6796
 7144SOL     OW33067   3.032   2.447  13.601  0.2030  0.3264  0.0383
 7144SOL    HW133068   3.039   2.469  13.508  1.3462 -1.8103 -0.3963
 7144SOL    HW233069   3.039   2.351  13.597  0.7246  0.4636 -2.2709
 7145SOL     OW33070   3.931   4.479  17.697  0.3293  0.0235 -0.3564
 7145SOL    HW133071   3.889   4.548  17.645 -0.3599 -0.4834 -0.4749
 7145SOL    HW233072   3.886   4.490   0.031  0.7248 -0.3168 -0.1051
 7146SOL     OW33073   3.961   3.410   8.960 -0.6905  0.0494  0.3499
 7146SOL    HW133074   4.016   3.358   9.018 -0.9765 -0.6429  0.0097
 7146SOL    HW233075   3.963   3.498   8.997  0.2013  0.3363 -0.3861
 7147SOL     OW33076   2.069   0.219   1.751 -0.3052  1.1049 -0.3480
 7147SOL    HW133077   2.119   0.149   1.794 -1.3532  0.1607 -0.6675
 7147SOL    HW233078   2.033   0.273   1.821 -0.3096 -2.2013  2.2187
 7148SOL     OW33079   2.560   0.852   6.714 -0.6977 -0.0646 -0.3724
 7148SOL    HW133080   2.568   0.758   6.728  0.2865 -0.0162 -0.6498
 7148SOL    HW233081   2.651   0.879   6.702 -0.2783 -0.3956  2.0716
 7149SOL     OW33082   0.717   4.368   7.685 -0.3968  0.1648 -0.1378
 7149SOL    HW133083   0.662   4.446   7.692 -1.2590 -0.0946 -3.9427
 7149SOL    HW233084   0.720   4.339   7.776  0.8901 -3.3924 -1.2911
 7150SOL     OW33085   2.081   2.890   0.088  0.0228 -0.4752  0.1673
 7150SOL    HW133086   2.174   2.879   0.070 -0.4380 -0.2490 -2.3465
 7150SOL    HW233087   2.087   2.972   0.138  3.6993 -0.4773 -0.2544
 7151SOL     OW33088   3.890   3.030   0.860 -0.2484  0.0501  0.1140
 7151SOL    HW133089   3.965   2.980   0.891 -0.9074 -0.9057  0.1561
 7151SOL    HW233090   3.820   3.002   0.919 -0.1699  0.1988  0.2766
 7152SOL     OW33091   0.692   1.051   8.704 -0.3986  0.0020  0.1662
 7152SOL    HW133092   0.724   0.981   8.762  0.6689 -0.4627 -0.9877
 7152SOL    HW233093   0.610   1.062   8.752  0.1406  1.3029  0.7966
 7153SOL     OW33094   2.742   3.741   2.095 -0.4103  0.3249  0.2188
 7153SOL    HW133095   2.696   3.678   2.040  0.7194 -0.3553  0.0547
 7153SOL    HW233096   2.825   3.698   2.116 -0.3372 -0.0302 -0.7737
 7154SOL     OW33097   0.579   2.835  14.761  0.1948 -0.2345  0.1441
 7154SOL    HW133098   0.645   2.779  14.801  0.9009  1.6106  1.5738
 7154SOL    HW233099   0.525   2.860  14.835  0.9872 -1.9225  1.2884
 7155SOL     OW33100   3.700   3.897   3.792  0.0895  0.1563  0.2533
 7155SOL    HW133101   3.668   3.972   3.842 -2.1624 -0.7636  0.2072
 7155SOL    HW233102   3.760   3.851   3.850  0.2431 -0.9887 -0.8169
 7156SOL     OW33103   0.572   0.107   8.440 -0.4849 -0.1640  0.3237
 7156SOL    HW133104   0.536   0.162   8.510  0.4086  3.1295 -1.7774
 7156SOL    HW233105   0.580   0.174   8.372 -1.0198  1.5836  1.9736
 7157SOL     OW33106   0.398   2.453   6.392  0.2230 -0.2168 -0.1523
 7157SOL    HW133107   0.328   2.513   6.414 -1.2667 -2.0682  0.1292
 7157SOL    HW233108   0.448   2.456   6.473 -1.0961 -3.3765  0.7918
 7158SOL     OW33109   3.405   2.047   2.851 -0.8592 -0.3101  0.0400
 7158SOL    HW133110   3.323   2.047   2.801 -0.8709 -1.1472  0.0639
 7158SOL    HW233111   3.376   2.009   2.934  1.5407  0.6495  1.3296
 7159SOL     OW33112   1.982   2.591   9.966 -0.3262 -0.3290 -0.1024
 7159SOL    HW133113   2.026   2.565  10.047  0.5854 -2.2670 -1.2018
 7159SOL    HW233114   2.004   2.683   9.958  0.1438 -0.6871 -2.8222
 7160SOL     OW33115   4.032   1.969   2.015 -0.3628  0.4535  0.1672
 7160SOL    HW133116   3.983   1.888   2.029 -2.3313  1.9100  1.8308
 7160SOL    HW233117   4.005   1.995   1.927  1.6279  1.8835 -0.0223
 7161SOL     OW33118   4.024   3.618   0.315 -0.4175  0.2112 -0.3997
 7161SOL    HW133119   4.052   3.584   0.400 -0.0456 -0.8147 -0.9337
 7161SOL    HW233120   4.102   3.665   0.287 -0.0290 -0.4059 -0.3584
 7162SOL     OW33121   4.524   3.837   9.538 -0.5516  0.1214 -0.1204
 7162SOL    HW133122   4.589   3.883   9.486 -1.2210 -0.3044 -1.3447
 7162SOL    HW233123   4.522   3.882   9.623  3.6597 -1.1000  0.6040
 7163SOL     OW33124   0.550   3.756   9.456 -0.4664  0.2305  0.1351
 7163SOL    HW133125   0.478   3.768   9.517 -1.0569  2.5765 -1.0018
 7163SOL    HW233126   0.514   3.687   9.401  2.4230  0.0848 -1.5953
 7164SOL     OW33127   4.530   4.586   1.794 -0.1986  0.4927  1.0404
 7164SOL    HW133128   4.484   4.537   1.862 -0.4827 -1.8681 -0.8393
 7164SOL    HW233129   4.489   4.672   1.799 -2.8414 -0.6795  0.0189
 7165SOL     OW33130   1.180   0.417   4.764 -0.3293 -0.2463 -0.0430
 7165SOL    HW133131   1.257   0.464   4.732 -1.0219  1.3644  0.6586
 7165SOL    HW233132   1.219   0.390   4.847 -1.0780  0.8423  0.6531
 7166SOL     OW33133   2.672   3.183   2.464  0.6266 -0.3225 -0.5935
 7166SOL    HW133134   2.578   3.193   2.446  0.4886 -1.5814 -0.5312
 7166SOL    HW233135   2.687   3.244   2.537  0.4180  0.7124 -1.4111
 7167SOL     OW33136   2.455   4.602   1.484  0.7311 -0.1600  0.0244
 7167SOL    HW133137   2.430   4.509   1.488 -1.1411  0.3180 -0.3940
 7167SOL    HW233138   2.383   4.656   1.517  0.3575 -0.3032 -0.5412
 7168SOL     OW33139   2.331   2.578   6.445 -0.5281  0.2834 -0.2717
 7168SOL    HW133140   2.361   2.639   6.513  0.3086 -1.8318  1.2350
 7168SOL    HW233141   2.282   2.522   6.504  2.5688 -1.7024  0.4074
 7169SOL     OW33142   2.886   3.408   4.343 -0.5194 -0.2165 -0.2078
 7169SOL    HW133143   2.884   3.319   4.378  1.2609  0.2512  1.0597
 7169SOL    HW233144   2.970   3.401   4.297 -0.8792  1.1467 -1.0730
 7170SOL     OW33145   4.687   1.404   4.645  0.0060  0.1733  0.4058
 7170SOL    HW133146   4.725   1.476   4.696 -0.8074  0.6480  0.3392
 7170SOL    HW233147   4.705   1.334   4.709 -1.0665 -0.7334 -0.2908
 7171SOL     OW33148   0.261   1.360   3.003  0.2763  0.7685  0.0824
 7171SOL    HW133149   0.231   1.324   2.919 -2.3973  2.0119  0.5159
 7171SOL    HW233150   0.356   1.351   3.010  0.2499  0.6350  0.2513
 7172SOL     OW33151   2.114   4.533   3.027  0.0359 -0.4291 -0.7560
 7172SOL    HW133152   2.062   4.518   2.948  0.8564 -0.3221 -1.3194
 7172SOL    HW233153   2.082   4.462   3.083  0.3479 -0.0606 -0.1048
 7173SOL     OW33154   0.077   4.003   2.682 -0.0070  0.4371  0.1530
 7173SOL    HW133155   0.002   3.954   2.716  0.5799 -0.4188  0.2108
 7173SOL    HW233156   0.036   4.086   2.708 -0.8453 -0.3706  1.3794
 7174SOL     OW33157   4.318   1.371  13.146  0.0874 -0.4381 -0.0529
 7174SOL    HW133158   4.396   1.397  13.097 -0.9065  0.4094 -1.1890
 7174SOL    HW233159   4.255   1.384  13.075 -0.6406 -2.0383  0.2932
 7175SOL     OW33160   3.855   0.764   7.840 -0.1613  0.6743  0.4188
 7175SOL    HW133161   3.894   0.733   7.759 -0.8996  0.1122  0.2733
 7175SOL    HW233162   3.923   0.824   7.869  1.4211 -0.8711 -0.0733
 7176SOL     OW33163   3.415   3.647   6.562 -0.2172 -0.3065 -0.4014
 7176SOL    HW133164   3.391   3.564   6.520  2.4003 -1.3672  0.1633
 7176SOL    HW233165   3.344   3.653   6.625  0.3974 -0.1201  0.2742
 7177SOL     OW33166   0.385   0.762   7.533 -0.3402  0.8495  0.0817
 7177SOL    HW133167   0.314   0.748   7.596  2.2377 -1.9440  2.3497
 7177SOL    HW233168   0.353   0.751   7.443 -2.0901 -1.3845  0.9622
 7178SOL     OW33169   4.171   4.316   9.473  0.3157 -0.3606 -0.2272
 7178SOL    HW133170   4.234   4.360   9.416 -0.1179  2.2643  1.3080
 7178SOL    HW233171   4.225   4.306   9.551 -2.0461  2.0628  1.7417
 7179SOL     OW33172   1.611   3.302   6.272 -0.1202  0.5289 -0.1453
 7179SOL    HW133173   1.525   3.292   6.313  0.2949  1.2831  0.8988
 7179SOL    HW233174   1.590   3.280   6.181  1.7440 -0.1474 -0.4149
 7180SOL     OW33175   1.698   0.150  17.432  0.1810  0.1049  0.3701
 7180SOL    HW133176   1.783   0.114  17.458 -1.4618 -3.4203  0.8908
 7180SOL    HW233177   1.704   0.121  17.341  0.7480  0.3433  0.3321
 7181SOL     OW33178   1.627   4.640   6.680  0.0783  1.1322 -0.4812
 7181SOL    HW133179   1.632   4.708   6.747  1.1993  1.0293 -0.4684
 7181SOL    HW233180   1.594   4.693   6.607  0.6191  0.2018 -1.3973
 7182SOL     OW33181   0.307   4.062  10.982 -0.2167 -0.3960  0.2471
 7182SOL    HW133182   0.276   4.152  10.992  1.2715  0.0522  0.9024
 7182SOL    HW233183   0.227   4.022  10.950 -0.0467 -0.7401  0.2480
 7183SOL     OW33184   3.834   3.069   6.196 -0.2981 -0.0408  0.4268
 7183SOL    HW133185   3.849   3.117   6.278  2.5213 -1.1623  0.5668
 7183SOL    HW233186   3.750   3.028   6.217 -0.4489 -0.5472 -1.1804
 7184SOL     OW33187   3.412   3.215  11.318 -0.2312 -0.0835 -0.1740
 7184SOL    HW133188   3.351   3.288  11.325 -0.6097 -0.5178  0.9744
 7184SOL    HW233189   3.363   3.153  11.263  0.6024 -1.9672  1.2248
 7185SOL     OW33190   2.895   2.197   8.019  0.2404  0.3817  0.2356
 7185SOL    HW133191   2.903   2.176   8.112 -0.2609 -1.4200 -0.1247
 7185SOL    HW233192   2.875   2.116   7.972  1.9018  0.4770 -0.6293
 7186SOL     OW33193   1.476   1.361   8.595  0.3456  0.0993  0.2926
 7186SOL    HW133194   1.418   1.289   8.620  2.0210 -0.2849  3.0693
 7186SOL    HW233195   1.546   1.309   8.556 -0.5878 -1.0631  0.1839
 7187SOL     OW33196   3.354   1.159   8.108  0.3018  0.5482  0.7066
 7187SOL    HW133197   3.433   1.175   8.159  1.2755  0.0668 -0.6507
 7187SOL    HW233198   3.365   1.236   8.052  3.6067 -0.8854 -0.5925
 7188SOL     OW33199   1.945   0.840   7.194  0.2656 -0.1871 -0.1641
 7188SOL    HW133200   1.907   0.866   7.109 -0.4848  0.0872  0.2531
 7188SOL    HW233201   1.896   0.758   7.205 -0.7298  0.5553  0.8806
 7189SOL     OW33202   3.381   2.337   7.992  0.1619 -0.3285 -0.4243
 7189SOL    HW133203   3.425   2.254   7.978  1.1314 -0.1987  1.8639
 7189SOL    HW233204   3.381   2.379   7.906  0.6423  1.2436  0.3323
 7190SOL     OW33205   4.533   1.066   6.546  0.1321 -0.3536  0.2757
 7190SOL    HW133206   4.584   1.147   6.551  1.3016 -1.1824  1.5189
 7190SOL    HW233207   4.532   1.040   6.638  1.0899  0.8420  0.6216
 7191SOL     OW33208   0.420   1.851   8.246 -0.0085  0.3655  0.0015
 7191SOL    HW133209   0.325   1.857   8.252  0.0093  0.3367  0.3239
 7191SOL    HW233210   0.447   1.939   8.271  1.5341 -0.6987  2.0785
 7192SOL     OW33211   2.435   2.009   7.994 -0.5534 -0.4180  0.0735
 7192SOL    HW133212   2.356   2.000   8.047 -0.2493  1.6704  0.8597
 7192SOL    HW233213   2.398   1.973   7.913  0.1260  0.1191 -0.4693
 7193SOL     OW33214   1.221   2.382   7.356  0.4224 -0.5480 -0.2638
 7193SOL    HW133215   1.138   2.418   7.325  0.7053 -0.2051 -0.6353
 7193SOL    HW233216   1.217   2.392   7.451  1.9342  0.5746 -0.3095
 7194SOL     OW33217   3.666   3.800   1.782 -0.0759  0.0228  0.1843
 7194SOL    HW133218   3.611   3.836   1.712  0.6859 -1.0365 -0.9593
 7194SOL    HW233219   3.747   3.850   1.770 -0.9005  1.4815  0.6226
 7195SOL     OW33220   1.993   1.025   0.862 -0.0661  0.1866 -0.1822
 7195SOL    HW133221   2.003   1.009   0.956  0.0994 -2.2335 -0.6041
 7195SOL    HW233222   2.051   1.101   0.859 -0.8093  0.6547 -2.3094
 7196SOL     OW33223   2.473   4.478   8.066 -0.0898 -0.0340  0.9691
 7196SOL    HW133224   2.415   4.405   8.088  1.5817 -1.6214  0.0657
 7196SOL    HW233225   2.541   4.485   8.133 -0.5880  1.4623  1.3103
 7197SOL     OW33226   4.534   3.911   3.335 -0.0369 -0.1472  0.1118
 7197SOL    HW133227   4.553   3.928   3.427 -0.0894 -3.6125  0.7696
 7197SOL    HW233228   4.596   3.843   3.310 -1.2266 -0.2228 -2.5698
 7198SOL     OW33229   2.213   3.840   6.888  0.0692  0.1328  0.3517
 7198SOL    HW133230   2.272   3.801   6.952 -1.3254 -1.5920  0.5691
 7198SOL    HW233231   2.279   3.877   6.829  2.4038 -3.0249  0.9925
 7199SOL     OW33232   1.557   0.017   7.056 -0.2655 -0.3973 -0.2391
 7199SOL    HW133233   1.582   0.057   6.973 -3.3577  3.9215  0.8902
 7199SOL    HW233234   1.499   0.083   7.094  1.5294 -0.4012  2.5300
 7200SOL     OW33235   4.164   0.803   7.730 -0.0862 -0.2715  0.5073
 7200SOL    HW133236   4.177   0.713   7.757  2.9212  0.4312  1.4062
 7200SOL    HW233237   4.220   0.853   7.789  2.7498  0.3349 -2.6734
 7201SOL     OW33238   1.303   1.621   0.628 -0.2711 -0.1548  0.5027
 7201SOL    HW133239   1.236   1.631   0.696 -0.0964  0.0754  0.6407
 7201SOL    HW233240   1.331   1.540   0.671 -0.8390 -0.7553 -0.2605
 7202SOL     OW33241   4.615   3.994   6.202 -0.4021 -0.8318 -0.3231
 7202SOL    HW133242   4.648   4.073   6.160 -1.7586 -0.3646 -0.4980
 7202SOL    HW233243   4.653   3.932   6.139 -2.4092 -0.3244 -2.0528
 7203SOL     OW33244   2.980   2.136   9.615 -0.4201  0.3677 -0.6030
 7203SOL    HW133245   2.886   2.145   9.626 -0.1099 -0.4034  2.8212
 7203SOL    HW233246   2.980   2.083   9.536 -1.9013  1.1396 -1.1164
 7204SOL     OW33247   3.131   4.052   9.292 -0.2963  0.5318  0.8881
 7204SOL    HW133248   3.187   3.995   9.346 -0.8458  1.2973  2.2729
 7204SOL    HW233249   3.066   4.088   9.352 -0.5628 -1.2157  1.6219
 7205SOL     OW33250   4.280   2.159   9.793  0.3497 -0.2567 -0.1586
 7205SOL    HW133251   4.352   2.223   9.784 -2.2229  2.5254 -1.0758
 7205SOL    HW233252   4.211   2.195   9.737 -0.1607  0.0459  0.6693
 7206SOL     OW33253   0.719   1.127   7.403 -0.1581  0.3931 -0.1569
 7206SOL    HW133254   0.695   1.204   7.454  0.9236 -0.7559  2.0735
 7206SOL    HW233255   0.698   1.067   7.475  1.4231  0.1335  0.0818
 7207SOL     OW33256   4.419   4.374  16.835  0.0727 -0.1605  0.5878
 7207SOL    HW133257   4.344   4.426  16.807  0.9614  0.2664 -1.0076
 7207SOL    HW233258   4.392   4.283  16.821  1.6870 -0.9355  2.4602
 7208SOL     OW33259   3.589   1.994   7.479  0.3953  0.0396 -0.1912
 7208SOL    HW133260   3.672   2.039   7.497  1.1759 -2.0857  1.3712
 7208SOL    HW233261   3.525   2.065   7.481  2.3261  1.8069 -0.8063
 7209SOL     OW33262   2.335   0.779   7.983 -0.0378 -0.4293  0.1023
 7209SOL    HW133263   2.393   0.829   7.925 -0.0306  0.0009  0.4854
 7209SOL    HW233264   2.381   0.695   7.986 -1.8488 -1.3477  3.0002
 7210SOL     OW33265   2.653   4.383  12.875  0.2834  0.2860  0.4583
 7210SOL    HW133266   2.580   4.438  12.846 -0.8522 -0.9354  0.9973
 7210SOL    HW233267   2.604   4.302  12.885 -1.6533  1.2471 -1.0735
 7211SOL     OW33268   1.639   0.578   8.372  0.2320  0.3327 -0.3826
 7211SOL    HW133269   1.697   0.648   8.398  0.2210 -0.1241  0.8478
 7211SOL    HW233270   1.654   0.565   8.278  0.7129  0.5408 -0.3316
 7212SOL     OW33271   0.126   1.859   5.218 -0.0157  0.3805 -0.4527
 7212SOL    HW133272   0.045   1.890   5.258  0.4120 -0.3958  1.0281
 7212SOL    HW233273   0.085   1.802   5.153  0.7094 -2.3621  1.4714
 7213SOL     OW33274   0.922   3.485   8.396  0.0573  0.2177 -0.0279
 7213SOL    HW133275   0.911   3.476   8.491  0.5198 -0.9574 -0.0931
 7213SOL    HW233276   0.856   3.423   8.365  0.1468 -0.1507  0.5219
 7214SOL     OW33277   0.576   2.505  11.736  0.3217 -0.1894 -0.2819
 7214SOL    HW133278   0.575   2.466  11.824  0.1366 -1.5456 -0.8777
 7214SOL    HW233279   0.670   2.518  11.721  0.3917  0.5252  0.7505
 7215SOL     OW33280   4.467   3.833   5.007 -0.2469 -0.0234 -0.3887
 7215SOL    HW133281   4.478   3.739   4.996 -0.2977  0.0671 -1.2243
 7215SOL    HW233282   4.559   3.860   5.010 -0.9600  2.4634 -0.3615
 7216SOL     OW33283   3.305   3.646   2.729 -0.4155  0.4346  0.5142
 7216SOL    HW133284   3.325   3.570   2.675  0.2222  0.1341  1.1710
 7216SOL    HW233285   3.220   3.676   2.694 -2.3150 -2.5821  2.5975
 7217SOL     OW33286   0.933   1.459   1.701  0.2113  0.1734  0.1415
 7217SOL    HW133287   0.872   1.523   1.737  0.4501  0.4088  0.1338
 7217SOL    HW233288   1.005   1.476   1.762  1.8485  1.6969 -2.2087
 7218SOL     OW33289   4.132   3.642   1.488 -0.2860  0.4184  0.5966
 7218SOL    HW133290   4.057   3.700   1.478  0.2205  1.0312  0.4001
 7218SOL    HW233291   4.203   3.705   1.503  0.6431 -0.0162 -2.0044
 7219SOL     OW33292   0.936   4.265   5.022  0.5715  0.1479 -0.5130
 7219SOL    HW133293   0.975   4.190   5.066 -0.8972 -0.3534 -0.0608
 7219SOL    HW233294   0.855   4.229   4.987  0.8317 -2.2986  1.4408
 7220SOL     OW33295   2.990   2.539  17.344  0.3077  0.3300  0.5277
 7220SOL    HW133296   3.017   2.471  17.283 -0.5528 -0.3075  0.8483
 7220SOL    HW233297   3.020   2.611  17.289  3.6629 -1.8189 -0.4177
 7221SOL     OW33298   4.443   3.690   1.280  0.4829  0.3367 -0.5275
 7221SOL    HW133299   4.403   3.725   1.360 -3.2079 -1.5200 -1.5329
 7221SOL    HW233300   4.519   3.747   1.268  1.6662 -1.0857  0.1875
 7222SOL     OW33301   1.982   3.084   4.470 -0.6617 -0.0936 -0.5424
 7222SOL    HW133302   1.912   3.083   4.405  1.2234 -0.2068 -2.6158
 7222SOL    HW233303   1.965   3.004   4.518 -1.7343  1.2628  1.3245
 7223SOL     OW33304   3.208   2.035   7.567  0.2881  0.6479  0.5778
 7223SOL    HW133305   3.184   2.043   7.660  0.9952  0.9176  0.7296
 7223SOL    HW233306   3.283   2.093   7.579  1.8600 -1.0930 -0.8550
 7224SOL     OW33307   0.451   3.568   1.865 -0.3547  0.3775  0.3133
 7224SOL    HW133308   0.500   3.596   1.788  2.0661 -0.7637  1.4358
 7224SOL    HW233309   0.520   3.526   1.916 -0.7134 -0.1207  0.3865
 7225SOL     OW33310   3.028   2.770  14.491 -0.0838 -0.4426 -0.0751
 7225SOL    HW133311   3.091   2.770  14.418 -0.0910 -0.3407 -0.0817
 7225SOL    HW233312   3.027   2.675  14.498 -0.2400 -0.3861  0.6840
 7226SOL     OW33313   3.263   1.457  11.812 -0.2134 -0.4079  0.4344
 7226SOL    HW133314   3.173   1.429  11.829  0.6233 -3.3207  0.1668
 7226SOL    HW233315   3.311   1.403  11.875  1.0789  0.8253  0.4978
 7227SOL     OW33316   0.717   1.247   4.063 -0.2571 -0.1602  1.3470
 7227SOL    HW133317   0.681   1.159   4.054  1.9033 -0.9091  0.0176
 7227SOL    HW233318   0.663   1.287   4.132 -2.0423 -0.5420  0.1769
 7228SOL     OW33319   0.977   3.205   1.565 -0.6574 -0.4495 -0.2489
 7228SOL    HW133320   0.987   3.232   1.657 -2.8377 -2.3405  0.5212
 7228SOL    HW233321   0.891   3.163   1.567 -0.5090 -0.7019  0.9391
 7229SOL     OW33322   1.291   3.546  15.137 -0.0589 -0.0029 -0.2713
 7229SOL    HW133323   1.273   3.562  15.045  0.2281 -0.8049 -0.4643
 7229SOL    HW233324   1.238   3.466  15.143  0.0829 -0.1071 -0.4299
 7230SOL     OW33325   2.867   3.151   7.557 -0.1092  0.1059  0.2812
 7230SOL    HW133326   2.818   3.196   7.488  0.2848  2.3502  1.4753
 7230SOL    HW233327   2.924   3.219   7.592 -1.3728  1.6044 -0.5486
 7231SOL     OW33328   3.729   4.057   4.508 -0.3806 -0.9579 -0.5164
 7231SOL    HW133329   3.690   3.973   4.536  1.1144 -1.9251 -1.3381
 7231SOL    HW233330   3.764   4.104   4.583 -2.5704  0.4548 -0.3729
 7232SOL     OW33331   4.513   3.941   2.365 -0.1166  0.1301  0.3889
 7232SOL    HW133332   4.564   3.947   2.284  0.0872 -2.0202  0.3589
 7232SOL    HW233333   4.444   4.004   2.345 -0.1189 -0.0031 -0.0404
 7233SOL     OW33334   4.329   2.402   5.522 -0.1645 -0.1081 -0.3142
 7233SOL    HW133335   4.269   2.357   5.582 -1.4359  0.9951 -0.7393
 7233SOL    HW233336   4.379   2.447   5.590  2.1309 -3.1749  0.0146
 7234SOL     OW33337   1.233   4.381   3.948 -0.5887 -0.0797 -0.5638
 7234SOL    HW133338   1.313   4.399   3.997 -0.5594 -1.5249 -0.0857
 7234SOL    HW233339   1.189   4.466   3.959 -0.3926 -0.1199  0.5016
 7235SOL     OW33340   3.276   3.609   1.956 -0.0928  0.3789 -0.1658
 7235SOL    HW133341   3.303   3.631   1.867 -2.4497 -1.9315 -1.4570
 7235SOL    HW233342   3.348   3.643   2.009 -2.3822  1.7029  2.1019
 7236SOL     OW33343   2.043   1.011   3.607  0.2033 -0.0931 -0.2380
 7236SOL    HW133344   2.045   1.097   3.567 -2.1940  0.1569  0.1849
 7236SOL    HW233345   1.987   1.034   3.682  0.5294  0.0916 -0.0509
 7237SOL     OW33346   3.314   2.984  17.729  0.1046 -0.5691  0.0372
 7237SOL    HW133347   3.332   2.922   0.049  3.6842 -0.6662 -0.9743
 7237SOL    HW233348   3.394   3.036  17.733 -0.5742  0.4545  0.2265
 7238SOL     OW33349   3.216   3.611   7.956  0.0779  0.1977 -0.5693
 7238SOL    HW133350   3.223   3.706   7.964 -1.1273  0.0801  1.9080
 7238SOL    HW233351   3.138   3.593   8.009  0.3459  2.3998  0.5492
 7239SOL     OW33352   1.847   3.188   6.137  0.3215  0.6324 -0.3029
 7239SOL    HW133353   1.874   3.119   6.076 -1.7300  2.2710 -3.0802
 7239SOL    HW233354   1.789   3.142   6.197 -1.4051 -0.0494 -2.4740
 7240SOL     OW33355   2.987   4.241  15.499  0.6395 -0.0950 -0.0381
 7240SOL    HW133356   3.061   4.198  15.542  1.2370 -0.1139 -1.0913
 7240SOL    HW233357   3.037   4.315  15.463  2.0470 -1.0387 -0.0117
 7241SOL     OW33358   0.824   3.146   4.012  0.3723  0.2173  0.2983
 7241SOL    HW133359   0.856   3.085   3.945 -0.2697 -0.6484  0.7745
 7241SOL    HW233360   0.747   3.181   3.968 -1.0240 -0.2552  2.4066
 7242SOL     OW33361   0.269   0.501   1.847  0.0676  0.7309  0.2547
 7242SOL    HW133362   0.340   0.553   1.810 -0.6298  0.5819 -1.2864
 7242SOL    HW233363   0.187   0.546   1.824 -1.4222 -2.0099  0.1325
 7243SOL     OW33364   1.634   3.194   6.862 -0.1197 -0.2512  0.2305
 7243SOL    HW133365   1.675   3.238   6.936 -2.1976 -0.1487  1.3150
 7243SOL    HW233366   1.581   3.126   6.904 -1.7420  0.8641 -0.0196
 7244SOL     OW33367   3.883   1.787   3.304 -0.0895  0.5068  0.2760
 7244SOL    HW133368   3.880   1.734   3.224  1.9378  0.2585  0.3762
 7244SOL    HW233369   3.856   1.869   3.263 -1.3568 -0.0127  0.0770
 7245SOL     OW33370   3.827   0.305   9.278 -0.2607  0.0010  0.1754
 7245SOL    HW133371   3.901   0.318   9.219 -0.9983  1.3090 -0.4637
 7245SOL    HW233372   3.872   0.251   9.343  0.4129  1.6823  1.1164
 7246SOL     OW33373   0.509   0.015   4.421  0.4841 -0.2588 -0.3149
 7246SOL    HW133374   0.548   4.723   4.503 -2.7507 -1.1214  0.9137
 7246SOL    HW233375   0.460   4.672   4.407  2.0000 -1.3125  0.4038
 7247SOL     OW33376   0.907   3.062   5.486  0.3201  0.1046  0.2539
 7247SOL    HW133377   0.940   2.980   5.450  4.0348  1.1293  1.3711
 7247SOL    HW233378   0.814   3.038   5.493  0.1055  0.7406 -0.3574
 7248SOL     OW33379   0.975   1.426   6.530  0.1427 -0.0643  0.4286
 7248SOL    HW133380   0.971   1.331   6.522 -3.1542  0.0172  1.1336
 7248SOL    HW233381   0.914   1.448   6.459  0.8656  0.6576  0.0365
 7249SOL     OW33382   3.754   2.161   6.165 -0.9464  0.2697  0.4469
 7249SOL    HW133383   3.761   2.110   6.246 -0.2582  1.4452  1.1192
 7249SOL    HW233384   3.803   2.235   6.200 -0.0601 -0.6444  1.1475
 7250SOL     OW33385   3.048   2.779   2.581 -0.3452 -0.2072  0.1633
 7250SOL    HW133386   2.979   2.845   2.568  0.6270  1.0657  1.4708
 7250SOL    HW233387   3.109   2.828   2.637 -0.1867 -0.5138  0.2538
 7251SOL     OW33388   0.594   0.735   7.787 -0.4756  0.1994 -0.1145
 7251SOL    HW133389   0.648   0.696   7.856 -1.0399  1.0425  0.8161
 7251SOL    HW233390   0.546   0.792   7.848  0.0745  1.4866 -0.8793
 7252SOL     OW33391   1.259   1.530   3.991 -0.1086  0.3949  0.1150
 7252SOL    HW133392   1.183   1.585   3.972  0.9338  1.6308 -0.4108
 7252SOL    HW233393   1.245   1.515   4.085  1.0092  0.8189  0.3430
 7253SOL     OW33394   1.880   3.652   8.710  0.3459  0.0187 -0.1717
 7253SOL    HW133395   1.902   3.639   8.802 -1.6810 -1.4584  0.1101
 7253SOL    HW233396   1.787   3.634   8.723  0.3060 -0.2741 -0.8708
 7254SOL     OW33397   1.244   0.966   4.878 -0.0016 -0.8830  0.5223
 7254SOL    HW133398   1.220   0.961   4.786  1.0361 -1.4849  0.2743
 7254SOL    HW233399   1.197   1.044   4.906 -0.6512 -0.4577 -1.7434
 7255SOL     OW33400   1.117   2.179   4.881 -0.3436  0.2707  0.1547
 7255SOL    HW133401   1.046   2.129   4.841  0.5395  0.2927 -1.4263
 7255SOL    HW233402   1.100   2.268   4.849  0.0232  1.2828  2.7527
 7256SOL     OW33403   1.793   3.647  13.570 -0.0760 -0.6725  0.4665
 7256SOL    HW133404   1.824   3.732  13.601  0.8019 -0.6919 -0.3420
 7256SOL    HW233405   1.812   3.661  13.477  0.8114  1.1174  0.9069
 7257SOL     OW33406   0.789   0.553  12.215 -0.4390 -0.6641 -0.5890
 7257SOL    HW133407   0.836   0.511  12.288  0.1543 -1.3432 -1.3511
 7257SOL    HW233408   0.703   0.562  12.256  0.6473  0.7373  1.4167
 7258SOL     OW33409   0.042   3.216   8.603  0.3962 -0.2434 -0.0579
 7258SOL    HW133410   4.701   3.269   8.596  0.0955 -1.2119 -3.6776
 7258SOL    HW233411   0.041   3.176   8.517  1.1796 -1.6799  0.6049
 7259SOL     OW33412   0.857   1.361   8.000 -0.5247  0.4054  0.4331
 7259SOL    HW133413   0.907   1.387   8.076  1.7867  0.0421 -0.9614
 7259SOL    HW233414   0.831   1.272   8.023 -1.3323  0.7333  0.8076
 7260SOL     OW33415   1.777   2.068   1.306  0.0016  0.4666 -0.6554
 7260SOL    HW133416   1.808   1.980   1.282  1.3494  1.9426 -4.2948
 7260SOL    HW233417   1.697   2.064   1.253  0.7486 -0.7213 -1.6959
 7261SOL     OW33418   1.449   3.427   9.612 -0.2144  0.2722  0.2204
 7261SOL    HW133419   1.537   3.416   9.647  0.5386 -2.9072 -2.6312
 7261SOL    HW233420   1.468   3.393   9.524 -1.1698 -1.2230  0.5897
 7262SOL     OW33421   1.828   4.097   3.939  0.4492 -0.2244 -0.1809
 7262SOL    HW133422   1.777   4.030   3.985  1.8056 -0.8671  0.3900
 7262SOL    HW233423   1.853   4.146   4.018  1.3340 -0.4981 -0.2983
 7263SOL     OW33424   4.236   1.545   1.995 -0.4042 -0.2614  0.9027
 7263SOL    HW133425   4.158   1.504   1.958  0.3136 -0.1591 -0.7240
 7263SOL    HW233426   4.279   1.475   2.045  0.1400 -1.2577 -0.9378
 7264SOL     OW33427   1.542   2.602   4.466  0.1545  0.2184  0.6372
 7264SOL    HW133428   1.559   2.560   4.551  1.3532  0.1220  0.3517
 7264SOL    HW233429   1.448   2.621   4.466 -0.0884 -1.0071 -0.9338
 7265SOL     OW33430   0.018   0.857  11.017  0.2640  0.4102  0.7318
 7265SOL    HW133431   4.722   0.946  11.025 -1.7382 -0.5220  2.2632
 7265SOL    HW233432   0.049   0.838  11.105  0.8221 -1.2029  0.1957
 7266SOL     OW33433   1.090   4.491   6.215  0.1057 -0.3328  0.6776
 7266SOL    HW133434   1.072   4.585   6.216 -1.6667 -0.6711 -1.3342
 7266SOL    HW233435   1.126   4.476   6.303  0.7790 -4.2713 -0.2456
 7267SOL     OW33436   0.771   0.255   8.777  0.3558  0.0874 -0.1842
 7267SOL    HW133437   0.841   0.315   8.800 -0.5311  1.6735 -1.6042
 7267SOL    HW233438   0.798   0.248   8.685 -0.4598 -0.1959 -0.4004
 7268SOL     OW33439   3.902   1.453   3.444 -0.3673 -0.2731 -0.5170
 7268SOL    HW133440   3.915   1.547   3.432 -1.6776  0.0020  0.2240
 7268SOL    HW233441   3.812   1.437   3.470  0.0550 -2.0166 -0.1465
 7269SOL     OW33442   0.251   1.169   4.022 -0.5687 -0.0618  0.2421
 7269SOL    HW133443   0.174   1.129   3.982  1.5713 -2.3970 -1.5047
 7269SOL    HW233444   0.259   1.242   3.961 -1.9801 -1.8213 -2.0143
 7270SOL     OW33445   0.422   1.367   6.749  0.1849 -0.2420 -0.0992
 7270SOL    HW133446   0.354   1.302   6.768 -0.3025  1.1518  2.7939
 7270SOL    HW233447   0.498   1.328   6.793 -1.2937 -4.0713 -0.9676
 7271SOL     OW33448   1.047   4.584  11.064  0.5578 -0.4790  0.0037
 7271SOL    HW133449   1.041   4.526  10.988 -3.2697 -0.6308  0.4258
 7271SOL    HW233450   1.123   4.550  11.112 -0.0803 -2.3715 -0.3344
 7272SOL     OW33451   3.972   0.773   5.210  0.5664 -0.3058  0.2478
 7272SOL    HW133452   3.996   0.681   5.218  0.7700 -0.4572 -2.0436
 7272SOL    HW233453   3.894   0.778   5.266  1.3645  0.9512  1.2516
 7273SOL     OW33454   2.373   0.293  11.194  0.1252  0.6720  0.0818
 7273SOL    HW133455   2.320   0.371  11.209  1.4401  1.4955  0.5153
 7273SOL    HW233456   2.387   0.305  11.100  0.0528  2.2839  0.2700
 7274SOL     OW33457   2.331   1.900   9.441  0.5589 -0.1972 -0.1125
 7274SOL    HW133458   2.386   1.914   9.364  2.5145 -2.7103  0.8230
 7274SOL    HW233459   2.314   1.989   9.472 -2.7599  0.1182 -2.8665
 7275SOL     OW33460   2.788   0.995   5.982 -0.1301  0.2952  0.2252
 7275SOL    HW133461   2.779   1.090   5.990 -1.3847  0.2713 -0.7915
 7275SOL    HW233462   2.699   0.969   5.957 -0.4651  0.8362  0.8468
 7276SOL     OW33463   1.071   3.603   1.268  0.6321  0.5611 -0.3411
 7276SOL    HW133464   1.058   3.546   1.343 -0.3918  0.7987 -0.3400
 7276SOL    HW233465   1.162   3.608   1.237  1.5923 -1.9353  2.1300
 7277SOL     OW33466   3.560   3.574   4.600 -0.1666  0.6316 -0.1206
 7277SOL    HW133467   3.569   3.491   4.647 -1.5995  0.1405 -0.7122
 7277SOL    HW233468   3.473   3.562   4.562 -0.8073 -0.9985  1.8521
 7278SOL     OW33469   2.310   2.122   5.027  0.4117 -0.1407  0.0061
 7278SOL    HW133470   2.220   2.150   5.008  0.4708  0.3281  0.4303
 7278SOL    HW233471   2.342   2.201   5.070 -0.3084 -0.7466  1.6602
 7279SOL     OW33472   4.291   2.445   3.586 -0.3544  0.1767  0.1735
 7279SOL    HW133473   4.330   2.421   3.502  0.8395  1.6254  0.3241
 7279SOL    HW233474   4.199   2.463   3.565 -0.7070 -0.2641  1.3734
 7280SOL     OW33475   4.511   1.086  10.548 -0.2005 -0.2478  0.6685
 7280SOL    HW133476   4.599   1.071  10.514 -0.4600 -1.0560  0.3690
 7280SOL    HW233477   4.486   1.176  10.527 -0.0178 -0.7724 -1.7385
 7281SOL     OW33478   2.491   3.702  14.439  0.4821  0.1360 -0.1764
 7281SOL    HW133479   2.493   3.790  14.403 -3.3114 -1.2860 -3.9421
 7281SOL    HW233480   2.407   3.700  14.486  1.2674  1.5993  1.2938
 7282SOL     OW33481   0.626   0.514  12.610 -0.1735 -0.1787  0.0592
 7282SOL    HW133482   0.716   0.514  12.644 -1.0346 -0.5470  2.3090
 7282SOL    HW233483   0.577   0.527  12.690  0.4806 -0.1489  0.4560
 7283SOL     OW33484   2.265   1.274  15.047 -0.4978  0.1877 -0.4197
 7283SOL    HW133485   2.344   1.250  14.998 -2.1164 -0.9191 -2.4747
 7283SOL    HW233486   2.302   1.340  15.106 -0.6996  1.5301 -1.7829
 7284SOL     OW33487   4.075   3.387   6.854  0.4342  0.3101 -0.4005
 7284SOL    HW133488   4.146   3.404   6.916 -0.2644 -0.6118  0.6580
 7284SOL    HW233489   4.114   3.434   6.780  0.7647  0.0519 -0.3879
 7285SOL     OW33490   1.423   0.598   7.718  0.2763  0.4063  0.2030
 7285SOL    HW133491   1.465   0.525   7.764  1.2303  0.5776 -0.3946
 7285SOL    HW233492   1.457   0.670   7.771 -0.4168  3.4546 -3.5231
 7286SOL     OW33493   1.174   3.910   5.032  0.4595 -0.4344  0.1263
 7286SOL    HW133494   1.238   3.927   4.964 -2.6154  1.7716 -2.2555
 7286SOL    HW233495   1.210   3.948   5.112  2.3054 -0.5486 -0.6711
 7287SOL     OW33496   3.821   4.481   4.195 -0.4197  0.2245 -0.3886
 7287SOL    HW133497   3.822   4.552   4.259  3.0592 -0.1832 -0.0011
 7287SOL    HW233498   3.769   4.510   4.120  0.6632 -0.2064 -1.3168
 7288SOL     OW33499   3.889   3.245  12.578 -0.6269 -0.0970  0.1742
 7288SOL    HW133500   3.866   3.333  12.610 -0.3960  0.5193 -1.3791
 7288SOL    HW233501   3.966   3.254  12.522 -1.0761 -0.3044 -0.4687
 7289SOL     OW33502   2.229   0.551   8.500 -0.5907 -0.0655 -1.0525
 7289SOL    HW133503   2.268   0.575   8.415  1.0617  1.5496  0.1632
 7289SOL    HW233504   2.304   0.545   8.559 -1.9504  0.2433  0.6701
 7290SOL     OW33505   1.359   1.065  13.385 -0.2929 -0.1067 -0.6773
 7290SOL    HW133506   1.327   1.152  13.361 -0.3016  0.1159  0.1370
 7290SOL    HW233507   1.280   1.011  13.376 -1.3392  1.6506 -1.9388
 7291SOL     OW33508   0.746   1.854   5.736  0.0391 -0.1364  0.0033
 7291SOL    HW133509   0.699   1.934   5.760  0.1671 -0.2250  0.5506
 7291SOL    HW233510   0.743   1.814   5.823 -0.3617  1.0118  0.5151
 7292SOL     OW33511   4.108   0.727   8.949 -0.2846 -0.1571  0.1133
 7292SOL    HW133512   4.126   0.661   9.016  0.9950 -0.0400 -0.1094
 7292SOL    HW233513   4.013   0.717   8.942 -0.3239 -0.6166  1.2669
 7293SOL     OW33514   0.602   3.027   4.897 -0.4200 -0.2460 -0.2547
 7293SOL    HW133515   0.642   3.113   4.885 -2.6192  0.5882 -1.5718
 7293SOL    HW233516   0.624   2.995   4.809 -2.2922 -0.8388 -0.4984
 7294SOL     OW33517   3.569   1.205   8.253 -0.1795  0.3149  0.3732
 7294SOL    HW133518   3.588   1.250   8.335  1.4344 -1.1173  0.7926
 7294SOL    HW233519   3.606   1.119   8.271  0.2642  0.4191 -0.0357
 7295SOL     OW33520   1.244   3.357  10.824  0.0244 -0.2333  0.0377
 7295SOL    HW133521   1.218   3.422  10.759  1.2285  1.4575  1.2597
 7295SOL    HW233522   1.186   3.377  10.897  0.8264 -1.8570  1.1116
 7296SOL     OW33523   0.634   2.862  12.073 -0.2090 -0.3162  0.8278
 7296SOL    HW133524   0.664   2.771  12.065 -2.4133 -1.0681  1.2872
 7296SOL    HW233525   0.643   2.893  11.983  0.9134  0.4878  1.2107
 7297SOL     OW33526   1.831   0.302   9.622 -0.3096 -0.3385  0.1251
 7297SOL    HW133527   1.818   0.230   9.561 -0.2792  1.7071 -2.3027
 7297SOL    HW233528   1.889   0.366   9.580  0.2238 -1.6015 -1.0338
 7298SOL     OW33529   1.501   3.156   6.064 -0.2819  0.5626  0.3674
 7298SOL    HW133530   1.415   3.184   6.095 -0.6909  0.7972 -0.9946
 7298SOL    HW233531   1.478   3.084   6.005  0.0308  0.0622  0.8610
 7299SOL     OW33532   0.232   4.201   7.374  0.0334 -0.1483 -0.2837
 7299SOL    HW133533   0.183   4.150   7.310 -1.5603  0.6564  0.3021
 7299SOL    HW233534   0.283   4.132   7.418 -0.0136  0.0236  0.0391
 7300SOL     OW33535   2.849   4.315   2.473 -0.0714  0.2477  0.2583
 7300SOL    HW133536   2.788   4.273   2.413  0.9500 -0.2055 -0.4760
 7300SOL    HW233537   2.834   4.273   2.558  0.8316 -2.3062 -0.8417
 7301SOL     OW33538   0.178   2.173  17.195 -0.6102 -0.4149 -0.2290
 7301SOL    HW133539   0.091   2.177  17.155  1.4010  2.6159 -4.2686
 7301SOL    HW233540   0.160   2.098  17.252 -0.0470 -0.4196 -0.0501
 7302SOL     OW33541   1.680   2.236   4.585  0.0199 -0.3996  0.0035
 7302SOL    HW133542   1.620   2.210   4.654  2.0615  0.4160  2.0631
 7302SOL    HW233543   1.646   2.186   4.510 -3.2120  1.5309  0.1581
 7303SOL     OW33544   4.339   4.444   5.317  0.2389  0.0898 -0.1742
 7303SOL    HW133545   4.433   4.442   5.336  0.2977 -3.0400 -0.6786
 7303SOL    HW233546   4.328   4.349   5.327 -1.3448  0.3065  0.1491
 7304SOL     OW33547   1.102   0.866   7.963 -0.4499  0.5406  0.7731
 7304SOL    HW133548   1.049   0.787   7.948  0.9232 -0.3353  0.5378
 7304SOL    HW233549   1.059   0.927   7.903 -3.1088 -1.2137  0.8450
 7305SOL     OW33550   2.844   0.436   1.778  0.3432  0.2238 -0.2395
 7305SOL    HW133551   2.854   0.342   1.791 -2.7747 -0.1698 -0.6670
 7305SOL    HW233552   2.754   0.454   1.805  0.5240  1.0579 -0.2135
 7306SOL     OW33553   1.970   3.907  14.473  0.0604  0.0320 -0.1787
 7306SOL    HW133554   1.884   3.950  14.474 -0.1507 -0.3784 -0.9931
 7306SOL    HW233555   2.031   3.968  14.432  1.3985  0.1509  1.9859
 7307SOL     OW33556   0.850   2.677  11.852 -0.4973  0.0692 -0.1583
 7307SOL    HW133557   0.854   2.603  11.792 -1.5655  0.4272 -0.6680
 7307SOL    HW233558   0.860   2.635  11.937 -0.3834  1.7288  0.6658
 7308SOL     OW33559   4.329   0.005  12.042  0.0003  0.3656  0.3518
 7308SOL    HW133560   4.422   0.028  12.046 -0.1429  0.8252  1.1455
 7308SOL    HW233561   4.297   0.070  12.104  0.9121 -0.8826  2.1368
 7309SOL     OW33562   1.899   2.011   3.959  0.3969  0.6219  0.2725
 7309SOL    HW133563   1.826   1.957   3.990  0.7578 -0.4981 -0.8036
 7309SOL    HW233564   1.899   2.083   4.021 -1.5657  0.6922  0.1894
 7310SOL     OW33565   4.662   2.893   1.689 -1.1223 -0.1999  0.0695
 7310SOL    HW133566   4.703   2.958   1.632  0.5294 -0.9985  0.3345
 7310SOL    HW233567   4.717   2.814   1.682  0.4358  0.8151  0.9001
 7311SOL     OW33568   0.320   3.600   6.361  0.6425  0.3520  0.0045
 7311SOL    HW133569   0.335   3.527   6.421 -1.6523 -0.2409 -0.1562
 7311SOL    HW233570   0.244   3.565   6.314  0.7051  2.8555 -1.9545
 7312SOL     OW33571   2.509   1.526   8.878  0.4521 -0.2429 -0.0776
 7312SOL    HW133572   2.586   1.579   8.856 -0.0577  1.1490  1.5014
 7312SOL    HW233573   2.555   1.443   8.889  0.7912 -0.3351 -2.2552
 7313SOL     OW33574   4.378   3.769   1.533  0.2008 -0.0391 -0.5235
 7313SOL    HW133575   4.403   3.854   1.499  1.4414  0.5199  1.7593
 7313SOL    HW233576   4.355   3.791   1.623 -1.3941 -1.7393 -0.4997
 7314SOL     OW33577   4.096   2.407   5.960 -0.2229 -0.0095 -0.3663
 7314SOL    HW133578   4.157   2.334   5.972 -0.4427  0.1118  1.6297
 7314SOL    HW233579   4.056   2.384   5.877 -0.7154 -1.2629  0.2168
 7315SOL     OW33580   2.209   1.972  13.441  0.0045 -0.0322 -0.2018
 7315SOL    HW133581   2.195   1.950  13.349 -0.7871 -1.7093  0.3042
 7315SOL    HW233582   2.121   1.982  13.478  1.3442 -0.4900  3.1253
 7316SOL     OW33583   4.083   2.217   1.761  0.2938 -0.7770  0.2385
 7316SOL    HW133584   4.021   2.146   1.745  0.6055 -1.2615  1.1939
 7316SOL    HW233585   4.080   2.253   1.673  0.2680 -1.9438 -0.2319
 7317SOL     OW33586   4.411   2.808   5.488 -0.5365 -0.3572 -0.0503
 7317SOL    HW133587   4.346   2.757   5.440 -1.4898  0.3833  0.4655
 7317SOL    HW233588   4.372   2.895   5.497 -1.0813 -0.5514 -0.5249
 7318SOL     OW33589   0.244   1.554   0.107  0.2440  0.3079 -0.8435
 7318SOL    HW133590   0.218   1.486   0.169 -1.1240  0.8976 -0.7729
 7318SOL    HW233591   0.310   1.515   0.049  1.7144 -0.6355  1.4564
 7319SOL     OW33592   1.202   4.356  14.600 -0.1035 -0.1287  0.0651
 7319SOL    HW133593   1.251   4.392  14.526 -3.1843 -0.3560 -2.0594
 7319SOL    HW233594   1.248   4.398  14.673  0.6970 -1.4063  0.3019
 7320SOL     OW33595   3.994   3.285   3.907  0.2754 -0.2820  0.1129
 7320SOL    HW133596   4.017   3.214   3.847 -0.2492  0.1140 -0.5576
 7320SOL    HW233597   3.902   3.259   3.914  0.0162  0.6987  0.4322
 7321SOL     OW33598   1.289   2.958  14.105 -0.0068  0.5238  0.1750
 7321SOL    HW133599   1.223   2.983  14.041  0.2073  1.3528  0.2775
 7321SOL    HW233600   1.363   3.004  14.065 -2.7080  2.5269 -2.4645
 7322SOL     OW33601   4.149   0.400  10.289  0.3463 -0.2286 -0.3104
 7322SOL    HW133602   4.157   0.484  10.335  2.2167 -1.1288  1.0043
 7322SOL    HW233603   4.132   0.426  10.199  0.9964 -0.2572 -0.4410
 7323SOL     OW33604   4.395   0.739   7.223  0.3427 -0.1775 -0.4703
 7323SOL    HW133605   4.486   0.761   7.240  0.6490 -2.0258  0.1740
 7323SOL    HW233606   4.397   0.729   7.128  0.2198 -2.8352 -0.1821
 7324SOL     OW33607   0.407   4.650   1.377  0.5866 -0.0962  0.3198
 7324SOL    HW133608   0.352   4.667   1.301 -1.5545 -1.0459  1.6760
 7324SOL    HW233609   0.395   4.556   1.390 -2.2647  0.2477  0.1365
 7325SOL     OW33610   2.100   3.098   6.382  0.3229  0.2879  0.4482
 7325SOL    HW133611   2.145   3.034   6.437 -2.1523 -0.8940  1.0915
 7325SOL    HW233612   2.035   3.038   6.346  0.2134 -0.2654  1.5519
 7326SOL     OW33613   1.982   4.235  16.429 -0.1448 -0.4369 -0.0170
 7326SOL    HW133614   1.889   4.256  16.440 -0.1613 -1.2109  1.2661
 7326SOL    HW233615   2.024   4.316  16.459 -0.4219 -1.3110  2.7678
 7327SOL     OW33616   3.491   0.361   8.897 -0.1305 -0.3424 -0.3048
 7327SOL    HW133617   3.537   0.340   8.978 -0.2898  1.2219  0.1848
 7327SOL    HW233618   3.564   0.415   8.865  0.4114 -1.2751 -0.6315
 7328SOL     OW33619   1.583   0.410   3.301  0.0599  0.2906  0.1129
 7328SOL    HW133620   1.652   0.370   3.354  1.5961  1.3705 -1.0782
 7328SOL    HW233621   1.636   0.460   3.239  0.1495  1.9975  1.5849
 7329SOL     OW33622   3.488   2.071   5.355  0.5424 -0.4375  0.1943
 7329SOL    HW133623   3.456   2.116   5.434  3.5839  1.1382  0.5353
 7329SOL    HW233624   3.416   2.009   5.344 -1.6240  2.2112 -0.6331
 7330SOL     OW33625   3.337   4.508   2.068  0.5913  0.1386  0.0644
 7330SOL    HW133626   3.331   4.430   2.121 -5.2936 -0.8983 -2.1139
 7330SOL    HW233627   3.256   4.548   2.101  0.3796  0.1782 -0.4956
 7331SOL     OW33628   1.515   3.471   3.213  0.7016 -0.0667 -0.1081
 7331SOL    HW133629   1.598   3.451   3.168  1.1644 -0.6166  0.9907
 7331SOL    HW233630   1.525   3.565   3.225  2.1158 -0.1522 -0.6275
 7332SOL     OW33631   0.900   3.503   7.419 -0.3293 -0.7434 -0.2688
 7332SOL    HW133632   0.893   3.536   7.509 -0.4386 -0.9585 -0.1989
 7332SOL    HW233633   0.989   3.468   7.417 -0.8249 -1.9958 -0.4758
 7333SOL     OW33634   1.245   4.599   2.401  0.3858 -0.0970 -0.2658
 7333SOL    HW133635   1.277   4.609   2.312  1.2205 -0.2763  0.0140
 7333SOL    HW233636   1.183   4.528   2.386 -0.2939  0.3563  0.3567
 7334SOL     OW33637   0.992   4.531   8.212  0.3114 -0.1479  0.9018
 7334SOL    HW133638   1.050   4.518   8.288 -0.2702  0.9464  1.5358
 7334SOL    HW233639   0.907   4.503   8.245  0.4973 -2.2430 -0.4174
 7335SOL     OW33640   0.754   1.799   6.355  0.1491  0.0526  0.3217
 7335SOL    HW133641   0.771   1.873   6.296  1.5578 -0.3714  0.1872
 7335SOL    HW233642   0.685   1.828   6.414  0.2268 -2.3107  1.5808
 7336SOL     OW33643   0.156   3.625  11.117 -0.0295  0.2546 -0.1311
 7336SOL    HW133644   0.155   3.600  11.209 -0.3787 -1.0064 -0.4770
 7336SOL    HW233645   0.145   3.539  11.076 -1.8993  0.6106 -0.4098
 7337SOL     OW33646   4.152   3.307   9.124 -0.2895 -0.1858  0.4298
 7337SOL    HW133647   4.156   3.300   9.219  2.1640 -0.5699  0.3006
 7337SOL    HW233648   4.226   3.362   9.099 -0.4426 -0.4741 -0.6856
 7338SOL     OW33649   2.560   2.497  13.338 -0.1609  0.0419 -0.0959
 7338SOL    HW133650   2.511   2.579  13.344 -0.3855 -0.2145  1.4063
 7338SOL    HW233651   2.624   2.515  13.406 -0.0510  0.5138 -0.3245
 7339SOL     OW33652   1.515   3.060   3.684  0.2476 -0.1782 -0.8797
 7339SOL    HW133653   1.446   3.112   3.644  0.7406  1.3724  0.3072
 7339SOL    HW233654   1.583   3.054   3.617 -0.6275 -2.5204 -1.5673
 7340SOL     OW33655   1.589   2.503   5.147 -0.0332 -0.0224 -0.0594
 7340SOL    HW133656   1.633   2.520   5.063  1.6840 -1.6492  0.5165
 7340SOL    HW233657   1.652   2.550   5.201  0.9734 -2.3793  0.7961
 7341SOL     OW33658   1.632   3.204  15.429 -0.6116  0.4729 -0.2156
 7341SOL    HW133659   1.719   3.238  15.406 -0.8126  0.0056 -1.6830
 7341SOL    HW233660   1.587   3.246  15.356  3.7497  1.6776 -2.2680
 7342SOL     OW33661   0.010   3.724   4.771  0.1884 -0.6972  0.2866
 7342SOL    HW133662   4.694   3.646   4.787 -3.1837  1.3928 -0.9431
 7342SOL    HW233663   0.005   3.774   4.852  4.0305 -1.6735  1.0977
 7343SOL     OW33664   4.053   1.788   3.520 -0.0474 -0.5432 -0.1570
 7343SOL    HW133665   3.980   1.793   3.582 -0.7387 -2.8832 -0.7910
 7343SOL    HW233666   4.016   1.828   3.441 -2.3234 -2.6527 -0.1315
 7344SOL     OW33667   1.593   1.835   8.929 -0.8489 -0.1321  0.2929
 7344SOL    HW133668   1.629   1.777   8.861 -0.5527  0.4481 -0.0466
 7344SOL    HW233669   1.613   1.789   9.010  1.0585  0.8942  0.4013
 7345SOL     OW33670   4.645   1.965   7.777  0.9577 -0.0520 -0.4038
 7345SOL    HW133671   4.602   2.032   7.724  1.3810  0.4638 -0.0974
 7345SOL    HW233672   4.607   1.987   7.862  0.7689  1.0008 -0.7576
 7346SOL     OW33673   1.751   0.365   6.184 -0.3495 -0.4049 -0.1179
 7346SOL    HW133674   1.733   0.358   6.278  2.1622  0.2637  0.3966
 7346SOL    HW233675   1.841   0.333   6.189  0.4272  2.2454  2.9129
 7347SOL     OW33676   3.599   0.337   9.141 -0.0463 -0.1877 -0.5969
 7347SOL    HW133677   3.686   0.316   9.174  0.3373  2.1511 -0.1472
 7347SOL    HW233678   3.545   0.295   9.209 -0.4388  2.9983  1.0446
 7348SOL     OW33679   2.878   4.723  11.338  0.2904  0.1882  0.0022
 7348SOL    HW133680   2.861   4.641  11.292 -1.6045  1.1944 -1.1121
 7348SOL    HW233681   2.897   4.695  11.427 -0.0149  2.2056  0.7130
 7349SOL     OW33682   0.950   2.709   5.988 -0.4206  0.8542 -0.0346
 7349SOL    HW133683   1.036   2.735   5.955  0.7331 -0.7037  1.7300
 7349SOL    HW233684   0.891   2.738   5.919 -2.1952 -0.0701  1.0863
 7350SOL     OW33685   1.464   1.948   3.141 -0.4849  0.0579 -0.5336
 7350SOL    HW133686   1.403   2.000   3.089 -1.1054 -1.3330 -1.1761
 7350SOL    HW233687   1.538   2.009   3.137 -1.1753  1.0413  1.5893
 7351SOL     OW33688   3.223   2.801   5.222 -0.6537 -0.3011 -0.1511
 7351SOL    HW133689   3.234   2.838   5.134 -0.2274 -0.9662 -0.3822
 7351SOL    HW233690   3.314   2.792   5.250 -0.8884  0.5619  0.8551
 7352SOL     OW33691   4.156   3.502   2.237  0.0018 -0.2009 -0.0281
 7352SOL    HW133692   4.170   3.467   2.325  1.2599  1.3952  0.3966
 7352SOL    HW233693   4.246   3.523   2.211 -0.2869 -1.2555 -1.8958
 7353SOL     OW33694   1.704   2.180   5.404  0.5326 -0.1301  0.1326
 7353SOL    HW133695   1.714   2.085   5.396  2.4494  0.2389 -1.7450
 7353SOL    HW233696   1.719   2.205   5.313  0.9334  2.0004  0.7675
 7354SOL     OW33697   4.562   4.424   6.112  0.6241 -0.0170  0.1472
 7354SOL    HW133698   4.582   4.440   6.205  0.1333  1.5481  0.0006
 7354SOL    HW233699   4.476   4.466   6.114  0.8777  0.7127 -4.1142
 7355SOL     OW33700   3.043   2.508   2.542  0.3885 -0.3157 -0.3053
 7355SOL    HW133701   3.136   2.517   2.519  1.0616  0.1883  2.5716
 7355SOL    HW233702   3.030   2.600   2.566  1.5481 -0.2929  0.2520
 7356SOL     OW33703   1.194   3.838  15.013 -0.5018  0.0548  0.0999
 7356SOL    HW133704   1.212   3.747  14.988  0.8252  0.4342 -0.3030
 7356SOL    HW233705   1.130   3.877  14.955  1.1952  1.1520 -1.0490
 7357SOL     OW33706   2.797   3.473  15.765  0.5592  0.1788  0.0764
 7357SOL    HW133707   2.805   3.491  15.671  0.9118 -0.0884  0.0569
 7357SOL    HW233708   2.871   3.520  15.802  0.3311  0.2127  0.4893
 7358SOL     OW33709   1.998   1.691   3.124  0.4885 -0.4488 -0.1593
 7358SOL    HW133710   1.962   1.721   3.040  0.5432 -1.1997 -0.4462
 7358SOL    HW233711   2.088   1.717   3.106  0.5731  0.2572  1.2489
 7359SOL     OW33712   3.871   4.163   7.197 -0.3426  0.3783 -0.0216
 7359SOL    HW133713   3.825   4.082   7.175 -2.4963  1.2547  1.2620
 7359SOL    HW233714   3.928   4.132   7.268 -1.2718 -2.8291 -0.6613
 7360SOL     OW33715   2.120   0.146   6.470 -0.1435 -0.4687  0.3688
 7360SOL    HW133716   2.045   0.176   6.418 -0.0081 -0.5188  0.1477
 7360SOL    HW233717   2.132   0.056   6.439  1.3295 -0.3694  0.6350
 7361SOL     OW33718   4.583   2.318  13.069 -0.2230 -0.2831  0.7062
 7361SOL    HW133719   4.509   2.363  13.109 -0.3232 -1.9519  2.4263
 7361SOL    HW233720   4.658   2.366  13.105  0.4835 -0.6364 -0.2889
 7362SOL     OW33721   0.807   2.596  13.114  0.0149  0.6979 -0.2536
 7362SOL    HW133722   0.764   2.629  13.193 -1.1712 -0.6947 -0.3371
 7362SOL    HW233723   0.897   2.624  13.134  0.9181 -1.6685 -1.0874
 7363SOL     OW33724   2.529   1.759   3.251 -0.1434 -0.1467  0.7943
 7363SOL    HW133725   2.492   1.827   3.195 -1.5831 -1.3141  0.3086
 7363SOL    HW233726   2.478   1.679   3.235 -0.1493 -0.0282  0.2059
 7364SOL     OW33727   2.047   1.652   8.594  0.1844 -0.3824 -0.5828
 7364SOL    HW133728   2.128   1.612   8.560  0.9011  0.1317  0.5164
 7364SOL    HW233729   1.983   1.596   8.550 -0.8921 -0.3250  0.9552
 7365SOL     OW33730   0.648   1.675   0.481  0.1092  0.3310  0.4090
 7365SOL    HW133731   0.584   1.643   0.418 -2.0345  2.5124  1.4923
 7365SOL    HW233732   0.710   1.602   0.487  1.4684  1.3963 -0.8230
 7366SOL     OW33733   2.381   0.912   2.109  0.1713  0.2377 -0.0987
 7366SOL    HW133734   2.308   0.928   2.168 -0.4917 -2.5929 -0.1551
 7366SOL    HW233735   2.436   0.860   2.168 -0.3393 -0.2114 -0.0249
 7367SOL     OW33736   2.499   2.805   5.733  0.7646 -0.7229  0.4457
 7367SOL    HW133737   2.431   2.866   5.763  1.7251 -0.3196  1.8277
 7367SOL    HW233738   2.468   2.716   5.752  0.6350 -0.7282  0.2046
 7368SOL     OW33739   0.580   3.722  13.387 -0.3361 -0.3869  0.0320
 7368SOL    HW133740   0.488   3.717  13.361 -0.4991  2.5715  0.0848
 7368SOL    HW233741   0.581   3.778  13.465  0.6518 -0.9256  0.4072
 7369SOL     OW33742   4.400   4.626   3.207 -0.1678  0.7089 -0.4778
 7369SOL    HW133743   4.494   4.623   3.224 -0.0305 -0.0681 -1.4073
 7369SOL    HW233744   4.368   4.546   3.248 -3.3604  1.3314 -1.7363
 7370SOL     OW33745   4.087   3.803   8.829 -0.1723 -0.7814 -0.2097
 7370SOL    HW133746   4.116   3.861   8.899  1.1107 -0.3566 -1.0933
 7370SOL    HW233747   3.994   3.825   8.821 -0.7532 -2.6172  1.2597
 7371SOL     OW33748   2.452   3.851   9.605  0.4940 -0.5199 -0.4556
 7371SOL    HW133749   2.371   3.902   9.606 -0.5542 -2.2227 -0.1089
 7371SOL    HW233750   2.492   3.870   9.521  0.3072 -0.4831 -0.5348
 7372SOL     OW33751   3.925   1.102   2.025 -0.4377  0.0322 -0.0919
 7372SOL    HW133752   3.865   1.124   2.096 -2.2843 -1.0378 -1.3102
 7372SOL    HW233753   3.861   1.051   1.975 -1.3552  0.2127  0.8980
 7373SOL     OW33754   0.832   0.329   2.369  0.2548 -0.2770  0.1478
 7373SOL    HW133755   0.895   0.274   2.323  2.5044  1.9144  0.6409
 7373SOL    HW233756   0.877   0.383   2.434 -2.4948  2.8647 -0.5415
 7374SOL     OW33757   3.727   2.291   2.739 -0.1708  0.4842  0.0038
 7374SOL    HW133758   3.715   2.357   2.672  2.1141  1.5868  0.6705
 7374SOL    HW233759   3.811   2.250   2.717 -0.3837  0.1829 -0.2464
 7375SOL     OW33760   2.101   4.459   2.171 -0.5570  0.1027  0.8277
 7375SOL    HW133761   2.022   4.414   2.202 -2.4966  3.4908  0.8057
 7375SOL    HW233762   2.065   4.478   2.084  0.1881 -0.8024  0.3182
 7376SOL     OW33763   3.622   2.802   9.494  0.6263  0.2106  0.3928
 7376SOL    HW133764   3.662   2.862   9.432 -1.3257  0.8679 -0.2288
 7376SOL    HW233765   3.591   2.874   9.550 -0.7342 -1.0394  1.2653
 7377SOL     OW33766   0.941   1.245   2.535  0.1022  0.6215 -0.6582
 7377SOL    HW133767   0.859   1.200   2.559  0.1001  0.4087 -1.0673
 7377SOL    HW233768   0.956   1.301   2.612  2.4137 -0.2819 -0.4576
 7378SOL     OW33769   3.709   1.387   3.653 -0.3650  0.2588  0.1696
 7378SOL    HW133770   3.755   1.315   3.611  1.1240 -0.0157  2.2788
 7378SOL    HW233771   3.663   1.346   3.725 -1.9033 -0.8137 -1.4166
 7379SOL     OW33772   4.513   2.133   0.749 -0.2220  0.5766 -0.2002
 7379SOL    HW133773   4.533   2.041   0.732  0.6748  0.2764  2.4553
 7379SOL    HW233774   4.458   2.153   0.673 -1.4030  2.0626  1.0530
 7380SOL     OW33775   2.932   3.249   9.340 -0.2945 -0.1275 -0.5732
 7380SOL    HW133776   2.913   3.155   9.332 -2.2910  0.2707 -0.4989
 7380SOL    HW233777   2.852   3.283   9.300  0.5333  1.3070 -1.0138
 7381SOL     OW33778   0.960   4.050   4.335 -0.1376  1.1160 -0.4883
 7381SOL    HW133779   0.878   4.097   4.345 -0.5034  0.3246  0.2270
 7381SOL    HW233780   1.012   4.102   4.396  1.0309 -2.7917  1.8388
 7382SOL     OW33781   1.133   2.526  13.581 -0.3170  0.1136  0.1651
 7382SOL    HW133782   1.075   2.601  13.567  0.1984  0.7566  1.4097
 7382SOL    HW233783   1.122   2.474  13.502 -0.0183  2.1755 -1.2311
 7383SOL     OW33784   2.930   2.602   3.146 -0.1327 -0.0894 -0.0404
 7383SOL    HW133785   2.855   2.629   3.093  0.3955 -0.3098 -0.9083
 7383SOL    HW233786   2.887   2.534   3.197  1.2429 -0.2517  0.9077
 7384SOL     OW33787   3.335   1.021   4.901 -0.0688  0.1303  0.1997
 7384SOL    HW133788   3.407   1.084   4.902 -1.7437  2.0408  0.7746
 7384SOL    HW233789   3.374   0.951   4.849  1.3020  0.6554  0.5165
 7385SOL     OW33790   4.045   4.028   9.590 -0.2467 -0.2035  0.4034
 7385SOL    HW133791   4.111   4.021   9.659 -0.7165 -1.1455  0.7537
 7385SOL    HW233792   3.990   4.103   9.614 -0.3740 -0.7217  1.6931
 7386SOL     OW33793   1.026   1.799   7.639 -0.5686 -0.7066 -0.0875
 7386SOL    HW133794   0.995   1.782   7.728 -1.9067 -0.4104 -0.5004
 7386SOL    HW233795   1.052   1.709   7.618  1.5204 -0.6714  2.2883
 7387SOL     OW33796   4.003   1.411   1.679  0.5976 -0.4853  0.2710
 7387SOL    HW133797   3.993   1.419   1.584  3.0597 -1.5300 -0.0691
 7387SOL    HW233798   3.936   1.348   1.706 -0.4187 -0.2803 -1.8258
 7388SOL     OW33799   1.729   1.890   7.278 -0.5725  0.3079 -0.0392
 7388SOL    HW133800   1.673   1.896   7.355  1.2327 -0.5269  1.3504
 7388SOL    HW233801   1.698   1.816   7.226  3.1652  0.3974 -2.4657
 7389SOL     OW33802   2.063   0.817   0.671  0.4465  0.2711  0.7530
 7389SOL    HW133803   2.044   0.794   0.762 -2.5744 -1.0726 -0.2318
 7389SOL    HW233804   2.058   0.912   0.679  1.1214  0.3376  0.3916
 7390SOL     OW33805   0.698   4.691  16.470  0.0096  0.0559 -0.2419
 7390SOL    HW133806   0.713   4.616  16.413 -1.6567 -0.5256  0.1049
 7390SOL    HW233807   0.727   4.656  16.554 -2.2684 -0.9206  0.1429
 7391SOL     OW33808   4.641   1.574   6.440  0.1937  0.2138  0.1226
 7391SOL    HW133809   4.691   1.570   6.521 -1.2170  2.1147  1.0668
 7391SOL    HW233810   4.707   1.605   6.378  1.8118 -1.5770  0.9340
 7392SOL     OW33811   3.104   0.569   7.241  0.2749  0.1483  0.2957
 7392SOL    HW133812   3.025   0.599   7.196  0.7283 -1.9042 -1.8915
 7392SOL    HW233813   3.086   0.589   7.332  0.3571  0.8180  0.1652
 7393SOL     OW33814   3.705   4.123   3.176 -0.3685 -0.9950 -0.1046
 7393SOL    HW133815   3.641   4.151   3.241  0.1370  1.3820 -0.6447
 7393SOL    HW233816   3.739   4.046   3.223  0.7126 -0.1188  0.5411
 7394SOL     OW33817   2.818   4.575   7.534 -1.0495  0.4224  0.4594
 7394SOL    HW133818   2.905   4.613   7.524 -0.6984 -0.9748 -1.9256
 7394SOL    HW233819   2.814   4.495   7.480  2.0877 -0.2495  1.2115
 7395SOL     OW33820   2.482   2.063   4.763 -0.0596 -0.2240  0.6718
 7395SOL    HW133821   2.414   2.001   4.735 -2.4865  1.9756  1.6046
 7395SOL    HW233822   2.460   2.075   4.856 -0.3261 -1.9349  0.8285
 7396SOL     OW33823   1.514   4.085   2.500 -0.3345 -0.6893 -0.6526
 7396SOL    HW133824   1.537   4.160   2.444 -0.5388 -0.4785 -0.4566
 7396SOL    HW233825   1.588   4.074   2.561 -1.2304 -1.9710  0.1857
 7397SOL     OW33826   1.647   1.361   6.389  0.0609  0.2637 -0.2885
 7397SOL    HW133827   1.683   1.315   6.313  1.0896  0.3781  0.1272
 7397SOL    HW233828   1.725   1.397   6.431 -0.5996  0.2314  0.9561
 7398SOL     OW33829   0.587   2.127   8.333  0.3755  0.5116  0.1910
 7398SOL    HW133830   0.617   2.115   8.243  0.0067  1.2590 -0.0382
 7398SOL    HW233831   0.640   2.201   8.361  1.2821 -0.8591  2.1063
 7399SOL     OW33832   1.391   4.076  16.353  0.6982 -0.0064  0.5666
 7399SOL    HW133833   1.416   4.165  16.327  0.5389  0.0639  0.6507
 7399SOL    HW233834   1.463   4.022  16.320 -0.9425 -0.6907 -1.8523
 7400SOL     OW33835   3.935   1.972  12.042  0.4320  0.2822  0.4738
 7400SOL    HW133836   3.957   1.957  12.133 -1.2095  1.0550  1.0040
 7400SOL    HW233837   3.922   2.066  12.033 -0.0637  0.2118  0.4439
 7401SOL     OW33838   1.921   4.360   2.496 -0.5242 -0.0171 -0.5350
 7401SOL    HW133839   1.882   4.374   2.410 -0.8552 -0.7902 -0.5157
 7401SOL    HW233840   1.963   4.441   2.524 -1.2253 -0.1141  0.8274
 7402SOL     OW33841   3.380   3.540  12.864  0.5045  0.3957  0.2504
 7402SOL    HW133842   3.337   3.510  12.783 -0.6323  1.2309  0.5342
 7402SOL    HW233843   3.421   3.622  12.837  0.4639  0.5539  0.6739
 7403SOL     OW33844   1.991   0.366   3.124  0.1462  0.3826  0.7216
 7403SOL    HW133845   1.961   0.373   3.215 -1.7958 -0.5945  0.1400
 7403SOL    HW233846   2.019   0.454   3.096  0.6458 -0.1518 -0.4557
 7404SOL     OW33847   2.796   3.596   7.420  0.2250 -0.0599 -0.0032
 7404SOL    HW133848   2.813   3.645   7.501 -2.1815  1.8133 -0.6548
 7404SOL    HW233849   2.854   3.642   7.359 -0.0486 -1.0212 -0.9809
 7405SOL     OW33850   1.406   3.627   0.347  0.0227  0.1097 -0.0947
 7405SOL    HW133851   1.418   3.619   0.441  1.7791  1.9101 -0.1624
 7405SOL    HW233852   1.316   3.659   0.336  0.8442  2.5272  0.2385
 7406SOL     OW33853   3.117   2.761   5.826  0.3085 -0.9389 -0.2159
 7406SOL    HW133854   3.144   2.851   5.808 -3.6515  0.1476 -0.7970
 7406SOL    HW233855   3.182   2.742   5.894  2.4506  1.3377 -1.6221
 7407SOL     OW33856   0.825   3.659   4.929 -0.2602  0.7837  0.4736
 7407SOL    HW133857   0.738   3.695   4.912  1.2375  2.2619 -4.0076
 7407SOL    HW233858   0.838   3.676   5.023 -0.4105 -0.2504  0.6768
 7408SOL     OW33859   3.693   4.501   9.488  0.5740 -0.0043  0.0243
 7408SOL    HW133860   3.684   4.550   9.570  2.3645  2.2643 -1.1339
 7408SOL    HW233861   3.669   4.570   9.426 -2.3200 -1.0190  0.0079
 7409SOL     OW33862   4.032   4.219   7.555  0.6094  0.2693  0.2242
 7409SOL    HW133863   3.939   4.238   7.547 -0.0493 -1.7328  3.0872
 7409SOL    HW233864   4.035   4.232   7.650 -0.5036 -0.5442  0.3616
 7410SOL     OW33865   4.416   1.166   2.732  0.0399  0.4791 -0.2442
 7410SOL    HW133866   4.352   1.096   2.740 -0.8537  1.5735  2.3564
 7410SOL    HW233867   4.459   1.166   2.817 -2.2728  0.4277  0.9324
 7411SOL     OW33868   3.015   3.806   0.277 -0.7130  0.6924 -0.1101
 7411SOL    HW133869   2.998   3.761   0.361 -2.2264  0.5927 -0.4768
 7411SOL    HW233870   3.100   3.768   0.251 -0.9263 -0.1044  0.3287
 7412SOL     OW33871   4.031   2.736   4.866  0.4303 -0.1099 -0.2957
 7412SOL    HW133872   4.122   2.717   4.846  0.8558  2.4795 -0.7852
 7412SOL    HW233873   4.004   2.661   4.918 -0.3755 -0.1298 -0.7288
 7413SOL     OW33874   4.537   0.334   3.107 -0.0265 -0.0373 -0.3044
 7413SOL    HW133875   4.620   0.381   3.108  1.3553 -2.4378 -0.1208
 7413SOL    HW233876   4.529   0.304   3.198 -0.6176  0.1388 -0.2982
 7414SOL     OW33877   2.891   4.252   2.755  0.2515  0.0544  0.3523
 7414SOL    HW133878   2.865   4.160   2.747 -0.3769  0.3937 -1.5220
 7414SOL    HW233879   2.925   4.267   2.842 -2.4231  0.9516  1.2473
 7415SOL     OW33880   3.864   2.933   7.158 -0.0271 -0.1985 -0.0140
 7415SOL    HW133881   3.908   3.010   7.124 -0.1679 -0.0801  0.0732
 7415SOL    HW233882   3.919   2.876   7.103  0.3396  0.2491 -0.1087
 7416SOL     OW33883   4.384   2.234   9.385 -0.2193 -0.4085 -0.6023
 7416SOL    HW133884   4.430   2.308   9.424 -2.6667  0.7466  0.1074
 7416SOL    HW233885   4.299   2.272   9.362 -0.9978 -3.2498 -2.4954
 7417SOL     OW33886   0.951   1.518   4.867 -0.2179  0.2130  0.1794
 7417SOL    HW133887   0.938   1.545   4.958 -1.5975  0.2184 -0.0194
 7417SOL    HW233888   0.860   1.512   4.839 -0.3305 -0.7441  0.7659
 7418SOL     OW33889   1.577   0.783   9.353  0.2353 -0.0267 -0.2955
 7418SOL    HW133890   1.521   0.783   9.276  2.4191 -0.2415 -1.8917
 7418SOL    HW233891   1.658   0.740   9.324 -0.1132 -0.0389 -1.2501
 7419SOL     OW33892   3.400   3.379  13.093  0.1066 -0.4800 -0.1402
 7419SOL    HW133893   3.379   3.299  13.045 -1.8025 -0.6183  0.9324
 7419SOL    HW233894   3.420   3.447  13.028 -3.4770 -1.3075 -2.0634
 7420SOL     OW33895   2.836   2.286  12.869  0.0685  0.0437  0.2733
 7420SOL    HW133896   2.879   2.200  12.872  0.0213 -0.0480 -1.3351
 7420SOL    HW233897   2.793   2.278  12.784 -0.1275 -0.0073  0.3772
 7421SOL     OW33898   3.633   0.828  13.275 -0.4518 -0.0113 -0.1979
 7421SOL    HW133899   3.722   0.797  13.290 -0.8756 -0.9638  0.3035
 7421SOL    HW233900   3.584   0.765  13.327 -0.2374 -1.2246 -1.4739
 7422SOL     OW33901   3.744   4.362  11.880  0.0416  0.2479  0.1100
 7422SOL    HW133902   3.806   4.411  11.935 -0.1179 -0.5392  0.9960
 7422SOL    HW233903   3.739   4.283  11.933 -0.6049  1.1017  1.3450
 7423SOL     OW33904   3.059   2.158  13.573  0.1366  0.5181 -0.2875
 7423SOL    HW133905   3.078   2.082  13.519 -1.0865 -0.6209  0.8973
 7423SOL    HW233906   2.966   2.151  13.594  0.4044 -2.2803 -0.1207
 7424SOL     OW33907   2.702   4.290   4.781 -0.2974  0.1223  0.0682
 7424SOL    HW133908   2.757   4.259   4.852 -1.9231  1.2772  1.8132
 7424SOL    HW233909   2.770   4.328   4.725 -1.1485 -0.7046 -1.5196
 7425SOL     OW33910   0.459   2.145  11.414 -0.5071 -0.3417  0.2567
 7425SOL    HW133911   0.514   2.219  11.439  1.5886 -1.3338 -1.4514
 7425SOL    HW233912   0.504   2.066  11.445  1.6240  1.0054  0.5442
 7426SOL     OW33913   2.809   0.106  13.192 -0.5408 -0.3089  0.1469
 7426SOL    HW133914   2.760   0.171  13.142  0.2340  0.1849  0.0250
 7426SOL    HW233915   2.840   0.046  13.123 -1.1617 -0.5455  0.0722
 7427SOL     OW33916   4.106   0.222  13.014  0.0090 -0.2956 -0.3985
 7427SOL    HW133917   4.094   0.181  13.100  0.3393  0.4078 -0.0178
 7427SOL    HW233918   4.180   0.171  12.983  1.3010  0.0854  2.0975
 7428SOL     OW33919   3.660   1.068   1.343  0.5683 -0.4274 -0.3139
 7428SOL    HW133920   3.713   1.068   1.263  0.2477 -0.7088 -0.5313
 7428SOL    HW233921   3.578   1.044   1.298  0.7153 -0.4745 -0.5564
 7429SOL     OW33922   0.646   1.655   7.088  0.3511 -0.3403  0.0113
 7429SOL    HW133923   0.698   1.729   7.119  0.6185 -0.4017 -0.2917
 7429SOL    HW233924   0.699   1.609   7.022  1.0010 -0.4635  0.6236
 7430SOL     OW33925   1.180   4.630   5.448 -1.1931 -0.1376 -0.5001
 7430SOL    HW133926   1.186   4.643   5.353  1.4862  1.3171 -0.1415
 7430SOL    HW233927   1.168   4.718   5.483  1.8098 -0.0284  0.2522
 7431SOL     OW33928   1.543   2.043   1.157 -0.2529  0.3545 -0.3849
 7431SOL    HW133929   1.559   2.120   1.102 -0.4650 -0.1120 -1.1025
 7431SOL    HW233930   1.500   1.982   1.097  0.8611  0.0906 -0.9057
 7432SOL     OW33931   3.907   0.498  12.743 -0.3307 -0.1988  0.3778
 7432SOL    HW133932   3.961   0.461  12.673  1.3716 -0.1050  1.6375
 7432SOL    HW233933   3.923   0.593  12.744 -0.9376 -0.1117  1.4677
 7433SOL     OW33934   1.487   2.324   1.404  0.2534  0.3767  0.0008
 7433SOL    HW133935   1.543   2.396   1.432  3.3343 -1.7204 -0.7986
 7433SOL    HW233936   1.404   2.352   1.443  0.6202  0.8229  0.4537
 7434SOL     OW33937   1.730   0.361   8.031  0.0009 -0.0625  0.0025
 7434SOL    HW133938   1.796   0.293   8.022 -2.3045 -2.4721  1.3703
 7434SOL    HW233939   1.672   0.327   8.099  0.2541 -1.7805 -0.6481
 7435SOL     OW33940   4.728   4.656   8.368  0.2931  0.6668 -0.3408
 7435SOL    HW133941   0.021   4.647   8.278  0.9375  3.4951 -0.3882
 7435SOL    HW233942   4.635   4.648   8.346  0.0637  1.3890  0.3876
 7436SOL     OW33943   3.153   0.769   1.615  0.4026 -0.0065 -0.4687
 7436SOL    HW133944   3.234   0.817   1.598  0.8765 -0.6302  0.0214
 7436SOL    HW233945   3.117   0.834   1.676  0.1800 -0.1093 -0.4918
 7437SOL     OW33946   3.966   3.139   8.568 -0.0533  0.4026 -0.2578
 7437SOL    HW133947   3.885   3.122   8.615  1.1138  0.6601  1.8549
 7437SOL    HW233948   3.934   3.199   8.501  2.6087 -0.8499 -2.6295
 7438SOL     OW33949   1.227   1.949   8.115 -0.1395  0.5183 -0.0915
 7438SOL    HW133950   1.228   2.037   8.076 -1.7447  0.7819  0.4721
 7438SOL    HW233951   1.139   1.942   8.152 -0.3943  0.0972 -0.7799
 7439SOL     OW33952   2.740   3.461   4.736 -0.2375 -0.5879  0.5574
 7439SOL    HW133953   2.647   3.458   4.758 -0.4820  1.7123 -0.1879
 7439SOL    HW233954   2.739   3.499   4.649 -0.1633 -1.2907  0.2461
 7440SOL     OW33955   2.788   1.758   3.893 -0.2409 -0.1577  0.0607
 7440SOL    HW133956   2.719   1.741   3.957  1.4178 -0.0703  1.8980
 7440SOL    HW233957   2.860   1.768   3.956 -0.4645 -0.8273  0.4203
 7441SOL     OW33958   3.666   3.860   9.017  0.1683 -0.3081  0.0371
 7441SOL    HW133959   3.719   3.904   9.082 -0.2593  0.4337 -0.1213
 7441SOL    HW233960   3.629   3.937   8.975 -0.5252 -0.1496  0.9502
 7442SOL     OW33961   1.797   3.680   4.102 -0.0954  0.3949  0.1588
 7442SOL    HW133962   1.745   3.621   4.048  0.3933 -1.1292  1.3603
 7442SOL    HW233963   1.740   3.693   4.178 -0.2125  0.6172  0.0321
 7443SOL     OW33964   2.381   0.019   8.312  0.3366 -0.1903  0.1479
 7443SOL    HW133965   2.372   0.093   8.372  0.1441 -0.7177  0.7632
 7443SOL    HW233966   2.380   4.685   8.374 -0.7187  1.2230  1.7742
 7444SOL     OW33967   1.892   4.713  16.478  0.8741  0.3365  0.0138
 7444SOL    HW133968   1.931   0.062  16.476  0.2970  0.4888 -5.2789
 7444SOL    HW233969   1.842   4.722  16.559 -0.2343  0.5656 -0.7120
 7445SOL     OW33970   3.591   4.533   8.442  0.5403 -0.0606  0.0942
 7445SOL    HW133971   3.509   4.537   8.393  0.5292  0.7732  0.1874
 7445SOL    HW233972   3.563   4.518   8.532 -0.6746 -0.0788 -0.2817
 7446SOL     OW33973   2.712   2.910   8.299  0.3762 -0.8902  0.0411
 7446SOL    HW133974   2.654   2.905   8.222  1.3683 -0.6124 -0.7216
 7446SOL    HW233975   2.802   2.909   8.267  1.0798 -1.4763  2.0452
 7447SOL     OW33976   1.156   2.229  10.795  0.1787 -0.5232  0.0007
 7447SOL    HW133977   1.231   2.198  10.843  0.5619  1.3311  0.6015
 7447SOL    HW233978   1.149   2.158  10.731  4.0887  1.0305 -2.1811
 7448SOL     OW33979   2.743   1.528   7.034 -0.6268  0.3337 -0.1930
 7448SOL    HW133980   2.813   1.481   7.079 -1.0944  0.5063  0.7070
 7448SOL    HW233981   2.662   1.511   7.080 -0.9818  2.2612 -0.0942
 7449SOL     OW33982   0.590   1.318   7.550 -0.1305  0.1286  0.5037
 7449SOL    HW133983   0.543   1.400   7.536 -0.9379 -0.5470 -0.7496
 7449SOL    HW233984   0.630   1.347   7.632  1.5286 -0.2019 -0.1719
 7450SOL     OW33985   0.966   4.199   9.198  0.5533 -0.4435 -0.3636
 7450SOL    HW133986   0.925   4.147   9.267  2.4845  0.8281  1.7651
 7450SOL    HW233987   0.951   4.148   9.118 -2.0649 -3.1557  1.8268
 7451SOL     OW33988   0.333   2.401   0.169 -0.5253 -0.1941 -0.2501
 7451SOL    HW133989   0.301   2.317   0.135  1.7501 -2.3617  2.9258
 7451SOL    HW233990   0.427   2.379   0.176  0.3299  3.1010 -1.6351
 7452SOL     OW33991   4.486   1.344   4.968 -0.4946  0.6061 -0.5106
 7452SOL    HW133992   4.443   1.304   4.893 -1.1196 -1.2004  0.8426
 7452SOL    HW233993   4.527   1.266   5.005 -3.9671 -0.4739  1.0469
 7453SOL     OW33994   2.092   1.549   2.128  0.0227 -0.0104  0.0255
 7453SOL    HW133995   2.045   1.527   2.047  1.0110 -1.1147 -0.2390
 7453SOL    HW233996   2.169   1.595   2.096  0.0202 -0.6171 -0.8364
 7454SOL     OW33997   1.386   2.275   7.608  0.1530 -0.3031  0.5009
 7454SOL    HW133998   1.460   2.324   7.644  0.4994 -1.4131  1.2944
 7454SOL    HW233999   1.317   2.341   7.618 -0.2648 -0.5753 -0.5952
 7455SOL     OW34000   0.596   0.346  10.763 -0.5079  0.2871  0.5714
 7455SOL    HW134001   0.601   0.266  10.815 -0.5732 -0.6625 -0.8856
 7455SOL    HW234002   0.635   0.415  10.817 -0.0168  1.3543 -1.1447
 7456SOL     OW34003   1.844   3.805   9.683  0.0665  0.3341  0.2171
 7456SOL    HW134004   1.800   3.849   9.755  0.1394 -0.6363  0.8600
 7456SOL    HW234005   1.835   3.712   9.703 -0.2928  0.2218 -0.4464
 7457SOL     OW34006   1.410   2.594   2.406  0.2330  0.1486 -0.3828
 7457SOL    HW134007   1.389   2.683   2.380  2.0877  0.0225 -2.3098
 7457SOL    HW234008   1.415   2.601   2.501 -1.0309 -0.0404 -0.3130
 7458SOL     OW34009   0.671   2.246   5.979  0.4638  0.3083 -0.6545
 7458SOL    HW134010   0.749   2.268   5.929  0.4669  2.3502  0.2479
 7458SOL    HW234011   0.694   2.281   6.065 -0.6676  2.3896 -1.2112
 7459SOL     OW34012   2.782   2.253   2.087  0.5611  0.3953 -0.4292
 7459SOL    HW134013   2.698   2.296   2.102  0.9374  0.9035  0.2096
 7459SOL    HW234014   2.801   2.263   1.994 -0.6194  0.5658 -0.6538
 7460SOL     OW34015   1.219   4.313  11.797 -0.4172  0.1058 -0.2071
 7460SOL    HW134016   1.235   4.284  11.887 -2.0876  0.1547  0.1121
 7460SOL    HW234017   1.124   4.314  11.787 -0.0492 -1.2184 -3.5956
 7461SOL     OW34018   2.360   2.244   3.871 -0.2954 -0.1599  0.3011
 7461SOL    HW134019   2.341   2.231   3.963  0.0144  1.0030  0.5377
 7461SOL    HW234020   2.302   2.318   3.850  0.4008 -0.2311 -1.8996
 7462SOL     OW34021   3.110   3.864  11.048  0.8198  0.0135 -0.3266
 7462SOL    HW134022   3.116   3.937  10.987 -0.7530 -1.0867 -1.7811
 7462SOL    HW234023   3.201   3.855  11.077  1.0758 -0.2495 -1.2437
 7463SOL     OW34024   0.676   2.688  13.343  0.2580 -0.0720  0.0071
 7463SOL    HW134025   0.686   2.783  13.350  0.4588 -0.0860 -0.0642
 7463SOL    HW234026   0.645   2.655  13.427 -0.3484  2.5412  0.7922
 7464SOL     OW34027   2.975   0.982   4.911  0.6612 -0.2768  0.2617
 7464SOL    HW134028   2.885   0.956   4.891  0.4865 -0.4434  1.2734
 7464SOL    HW234029   3.020   0.908   4.870 -0.1111  0.2346 -1.5287
 7465SOL     OW34030   1.822   1.015   2.264 -0.3413  0.2840  0.2839
 7465SOL    HW134031   1.891   1.081   2.258 -0.6708  0.6750  0.6999
 7465SOL    HW234032   1.751   1.074   2.290  0.4434  1.2065  0.3472
 7466SOL     OW34033   2.650   3.101  15.768 -0.1615 -0.4369 -0.0791
 7466SOL    HW134034   2.579   3.103  15.832 -0.8905  0.9914 -0.9360
 7466SOL    HW234035   2.731   3.137  15.804  0.2163  0.6638 -2.0274
 7467SOL     OW34036   3.193   4.111  17.482 -0.0846 -0.5077 -0.1179
 7467SOL    HW134037   3.109   4.095  17.526  0.8756 -2.1679  1.1449
 7467SOL    HW234038   3.246   4.125  17.561 -1.2926  1.1705  0.3756
 7468SOL     OW34039   0.635   4.303   0.215 -0.4094  0.6674 -0.2966
 7468SOL    HW134040   0.700   4.234   0.207  1.5402  2.4297  0.4651
 7468SOL    HW234041   0.581   4.272   0.288 -2.5611  4.4274 -0.2727
 7469SOL     OW34042   1.974   1.332  13.457 -0.0848 -0.2221 -0.0863
 7469SOL    HW134043   1.967   1.399  13.388  0.3570 -0.9395 -0.8318
 7469SOL    HW234044   1.896   1.330  13.511 -0.5355 -0.2139 -0.7381
 7470SOL     OW34045   1.678   2.021   2.800  0.2049  0.4165  0.0946
 7470SOL    HW134046   1.696   2.016   2.894  0.3867 -2.9027 -0.1150
 7470SOL    HW234047   1.593   2.065   2.795 -0.7077 -1.7052 -2.7027
 7471SOL     OW34048   3.531   2.459   9.450 -0.9933 -0.0723 -0.6021
 7471SOL    HW134049   3.522   2.511   9.530  1.5988  1.9626 -1.6255
 7471SOL    HW234050   3.621   2.427   9.455 -0.3689  1.4191 -2.2294
 7472SOL     OW34051   1.981   3.483   8.491  0.0390  0.5235  0.4894
 7472SOL    HW134052   2.072   3.475   8.517 -0.9707 -1.8487  3.3001
 7472SOL    HW234053   1.960   3.537   8.568  1.6267 -0.7104  1.7837
 7473SOL     OW34054   3.848   3.836   8.661 -0.1516  0.7630 -0.0890
 7473SOL    HW134055   3.864   3.754   8.614  1.1312 -0.3300  2.2213
 7473SOL    HW234056   3.907   3.890   8.609 -0.4434  2.2097  1.0693
 7474SOL     OW34057   3.279   1.459   2.952  0.0322  0.2778  0.1151
 7474SOL    HW134058   3.209   1.441   3.014  0.3744 -1.0300  0.1213
 7474SOL    HW234059   3.320   1.373   2.943 -0.9999 -0.1541 -0.5225
 7475SOL     OW34060   3.107   3.842  15.580 -0.2607  0.3814 -0.2461
 7475SOL    HW134061   3.145   3.841  15.492 -0.2052  0.8362 -0.2252
 7475SOL    HW234062   3.159   3.915  15.614 -0.9223 -0.1066  1.8416
 7476SOL     OW34063   3.082   3.314   7.926  0.1496 -0.0270 -0.1242
 7476SOL    HW134064   3.056   3.368   8.001  0.9526  2.9164 -1.9538
 7476SOL    HW234065   3.166   3.276   7.954 -0.2744 -0.0935  1.0651
 7477SOL     OW34066   1.717   4.098  17.702  0.4170 -0.3526  0.2498
 7477SOL    HW134067   1.801   4.095  17.656  1.3865 -0.2197  2.0092
 7477SOL    HW234068   1.656   4.088  17.629 -0.0838  0.2141  0.5845
 7478SOL     OW34069   0.544   3.712   4.825  0.4967 -0.7301  0.0776
 7478SOL    HW134070   0.452   3.693   4.843 -0.3000  0.8951 -2.1797
 7478SOL    HW234071   0.531   3.694   4.732 -1.2465 -3.0511  0.7714
 7479SOL     OW34072   2.292   1.043   4.311  0.5444 -0.2839  0.5363
 7479SOL    HW134073   2.219   0.983   4.296  1.7208 -1.8571  1.1566
 7479SOL    HW234074   2.248   1.124   4.338 -3.5496 -1.6269 -2.0846
 7480SOL     OW34075   1.085   3.448   2.042 -0.1496  0.3087 -0.5136
 7480SOL    HW134076   1.056   3.389   2.111 -3.1570  0.2923 -1.8061
 7480SOL    HW234077   1.064   3.523   2.096  0.0751  0.8377 -1.1533
 7481SOL     OW34078   4.331   2.787  15.646 -0.6846  0.2612  0.4067
 7481SOL    HW134079   4.395   2.754  15.584 -1.1303  1.8559 -0.9051
 7481SOL    HW234080   4.280   2.708  15.664 -2.5348  1.2703 -0.3351
 7482SOL     OW34081   2.201   3.755   3.527  0.0428  0.0002 -0.1297
 7482SOL    HW134082   2.196   3.793   3.614 -0.3614 -1.3152  0.4243
 7482SOL    HW234083   2.139   3.683   3.520 -0.3669  0.1932  1.7327
 7483SOL     OW34084   4.325   1.864   5.850  0.5015  0.5669  0.3315
 7483SOL    HW134085   4.306   1.813   5.928 -0.8086 -1.8065 -1.5302
 7483SOL    HW234086   4.275   1.806   5.793  3.0478 -0.0374 -1.3200
 7484SOL     OW34087   2.151   3.761  12.669  0.5000 -0.0699 -0.3783
 7484SOL    HW134088   2.088   3.690  12.682 -1.9951  2.3044  0.5423
 7484SOL    HW234089   2.088   3.832  12.657 -0.0835 -0.9288 -2.3882
 7485SOL     OW34090   4.716   0.427   4.756  0.1826 -0.2162  0.4950
 7485SOL    HW134091   4.723   0.489   4.828 -0.7475 -1.2215  1.4477
 7485SOL    HW234092   4.710   0.484   4.679  2.3602  2.5565  2.3477
 7486SOL     OW34093   0.608   0.264   8.218 -0.0993 -0.8141  0.4213
 7486SOL    HW134094   0.698   0.277   8.190 -0.4765  3.1564  0.9678
 7486SOL    HW234095   0.571   0.348   8.190  0.9243 -1.3667 -2.5626
 7487SOL     OW34096   4.196   0.682  16.585 -0.3561  0.3126 -0.0434
 7487SOL    HW134097   4.289   0.659  16.588  0.0204  1.8565  0.2655
 7487SOL    HW234098   4.180   0.662  16.492  0.9567 -2.5653  0.3404
 7488SOL     OW34099   3.777   1.935   5.407 -0.5179  0.3067 -0.0116
 7488SOL    HW134100   3.808   2.020   5.438  2.0599 -0.6515 -0.0318
 7488SOL    HW234101   3.687   1.934   5.440 -1.5460  1.2640 -2.7619
 7489SOL     OW34102   3.730   3.108  12.768  0.1754  0.0034 -0.0035
 7489SOL    HW134103   3.664   3.177  12.772  0.7746  0.6944 -2.1870
 7489SOL    HW234104   3.793   3.143  12.705  0.6620  2.2968  1.7875
 7490SOL     OW34105   2.426   1.823   8.583  0.2289 -0.0477 -0.2103
 7490SOL    HW134106   2.491   1.890   8.600  0.8071 -0.4684 -0.7948
 7490SOL    HW234107   2.472   1.741   8.566 -0.7719  0.4280 -5.1295
 7491SOL     OW34108   4.655   1.798   1.940 -0.4572 -0.1120 -0.4360
 7491SOL    HW134109   4.591   1.759   1.999 -0.5375 -1.7534 -1.5978
 7491SOL    HW234110   4.734   1.745   1.953  1.4453  1.9126 -3.5374
 7492SOL     OW34111   3.351   0.713   9.077  0.2698 -0.5394  0.3255
 7492SOL    HW134112   3.430   0.679   9.035  0.7718 -1.4502  1.9872
 7492SOL    HW234113   3.354   0.808   9.078  1.4526 -0.5684 -1.5155
 7493SOL     OW34114   3.956   1.358   7.996  0.3862 -0.4926 -0.3944
 7493SOL    HW134115   3.946   1.326   7.906 -1.0875 -0.2042 -0.3319
 7493SOL    HW234116   3.935   1.280   8.047 -0.1467 -0.7734 -1.0403
 7494SOL     OW34117   0.825   4.517   6.120 -0.1625 -0.2346  0.0839
 7494SOL    HW134118   0.872   4.589   6.163  0.3900 -0.4336 -0.1828
 7494SOL    HW234119   0.892   4.449   6.120  0.9510  0.8460  2.6534
 7495SOL     OW34120   3.608   0.672   8.783 -0.1659  0.1179  0.0671
 7495SOL    HW134121   3.636   0.703   8.697  1.4399  0.4718  0.7110
 7495SOL    HW234122   3.524   0.640   8.750  0.9951 -2.2121 -0.6013
 7496SOL     OW34123   1.297   1.191  17.391  0.1375 -0.4044 -0.5423
 7496SOL    HW134124   1.366   1.175  17.326  0.5903 -1.3515  0.1665
 7496SOL    HW234125   1.220   1.167  17.339 -2.0039 -0.2191  2.5874
 7497SOL     OW34126   2.824   0.029  14.620 -0.4225  0.4367 -0.1496
 7497SOL    HW134127   2.824   0.052  14.528 -0.9124  0.3119 -0.1805
 7497SOL    HW234128   2.772   0.098  14.662 -0.6904 -0.7576  1.5238
 7498SOL     OW34129   2.054   3.818   1.200 -0.6990 -0.2937  0.6540
 7498SOL    HW134130   2.125   3.768   1.239  0.5558  2.0135  1.3285
 7498SOL    HW234131   2.102   3.849   1.123 -1.5295  1.8566  0.9912
 7499SOL     OW34132   0.763   0.216   4.101  0.3642 -0.3096 -0.4723
 7499SOL    HW134133   0.687   0.165   4.074  1.7484 -1.3934 -2.2958
 7499SOL    HW234134   0.717   0.298   4.118  1.0843  0.4317 -2.0842
 7500SOL     OW34135   0.874   0.533  14.722 -0.9396  0.2982 -0.2286
 7500SOL    HW134136   0.830   0.598  14.667 -0.6397  1.6978  1.1509
 7500SOL    HW234137   0.947   0.513  14.663 -1.9436 -0.9966 -1.0128
 7501SOL     OW34138   2.609   2.315   7.672  0.1784 -0.0943  0.0180
 7501SOL    HW134139   2.548   2.242   7.659  0.1620 -0.6666  3.3541
 7501SOL    HW234140   2.690   2.268   7.691 -0.3583 -1.1450 -0.2481
 7502SOL     OW34141   0.798   0.921   2.677  0.0036 -0.2464 -0.7754
 7502SOL    HW134142   0.835   0.895   2.593  0.1260  1.7377 -1.3325
 7502SOL    HW234143   0.820   0.840   2.724 -1.1464 -0.0163  0.1625
 7503SOL     OW34144   4.442   2.328   1.734  0.5780  0.2145  0.0892
 7503SOL    HW134145   4.462   2.284   1.651  1.9922  0.8374  0.0990
 7503SOL    HW234146   4.356   2.288   1.747  0.2692  1.0498  0.5771
 7504SOL     OW34147   2.219   3.628   6.618  0.0423 -0.0589 -0.0130
 7504SOL    HW134148   2.152   3.665   6.675  1.7053 -0.3982  2.1659
 7504SOL    HW234149   2.158   3.592   6.553 -1.0525 -1.5792  1.8649
 7505SOL     OW34150   0.655   4.425   8.219  0.6622 -0.7805  0.4464
 7505SOL    HW134151   0.646   4.330   8.205  1.6905 -1.0010  1.3052
 7505SOL    HW234152   0.644   4.454   8.129 -2.0125 -1.4667  0.5581
 7506SOL     OW34153   2.688   2.857   5.517 -0.7256 -0.5894 -0.9320
 7506SOL    HW134154   2.606   2.806   5.518 -0.3133 -1.2609 -1.2426
 7506SOL    HW234155   2.736   2.803   5.580 -2.4312  1.6095  2.2681
 7507SOL     OW34156   2.748   0.994   1.850  0.0905 -0.5314 -0.4839
 7507SOL    HW134157   2.702   0.940   1.786  1.3829 -1.7370 -0.3935
 7507SOL    HW234158   2.794   0.929   1.904 -1.0875  1.2856  2.6705
 7508SOL     OW34159   2.574   3.816   0.921 -0.4309 -0.0098 -0.6765
 7508SOL    HW134160   2.608   3.733   0.955  0.8155 -0.3450 -2.6999
 7508SOL    HW234161   2.660   3.856   0.908 -1.9206  3.1495 -0.6566
 7509SOL     OW34162   0.923   2.209   3.084  0.2288 -0.0833  0.3915
 7509SOL    HW134163   0.941   2.212   2.990 -2.1779  0.5405 -0.0509
 7509SOL    HW234164   0.827   2.212   3.083  0.2247  0.1177  1.6602
 7510SOL     OW34165   2.850   4.186  16.408  0.3022  0.1465 -0.2320
 7510SOL    HW134166   2.786   4.256  16.415  0.8373  1.0849 -4.8065
 7510SOL    HW234167   2.840   4.164  16.315 -1.5547 -0.4735  0.1213
 7511SOL     OW34168   1.495   1.078   6.199  0.8039 -0.3559  0.2380
 7511SOL    HW134169   1.405   1.090   6.170  0.6046  0.4623  1.1909
 7511SOL    HW234170   1.545   1.141   6.146 -0.1797 -0.8508 -1.2622
 7512SOL     OW34171   1.247   1.736   2.457 -0.0013 -0.6218  0.4766
 7512SOL    HW134172   1.232   1.731   2.363  1.8137 -0.9286  0.2082
 7512SOL    HW234173   1.281   1.649   2.479  0.8030 -0.7899 -1.4450
 7513SOL     OW34174   2.036   3.206   6.709 -0.0949 -0.0924 -0.2329
 7513SOL    HW134175   2.077   3.259   6.641  0.9225  0.2513  0.6477
 7513SOL    HW234176   2.107   3.164   6.759 -2.3421 -0.5748  2.5927
 7514SOL     OW34177   0.752   0.180  11.748  0.4413  0.0784 -0.4493
 7514SOL    HW134178   0.660   0.156  11.757  0.4940  0.3323  0.8358
 7514SOL    HW234179   0.797   0.131  11.818  1.4860  0.5528 -0.7874
 7515SOL     OW34180   4.719   1.490   4.960 -0.0423  0.3848 -0.0946
 7515SOL    HW134181   4.655   1.559   4.972 -0.3863 -0.2562  1.7157
 7515SOL    HW234182   4.655   1.421   4.973 -0.9708  1.5248  1.3004
 7516SOL     OW34183   3.714   3.215   4.763  0.5165 -0.1895  0.0121
 7516SOL    HW134184   3.688   3.228   4.672 -1.0638 -2.0890  0.1985
 7516SOL    HW234185   3.626   3.189   4.791  0.2392  0.4048 -0.3186
 7517SOL     OW34186   3.377   3.407   9.709  0.1585 -0.2517 -0.3033
 7517SOL    HW134187   3.361   3.485   9.656 -2.7157  1.6547  3.3880
 7517SOL    HW234188   3.332   3.350   9.646  2.1113 -1.4679 -0.6137
 7518SOL     OW34189   3.134   3.570   3.079  0.2906 -0.0069 -0.2220
 7518SOL    HW134190   3.099   3.509   3.015  1.6030 -1.0869  0.0861
 7518SOL    HW234191   3.145   3.648   3.025 -0.2461 -1.0479 -1.8411
 7519SOL     OW34192   0.313   3.505  16.932 -0.3521  0.3864 -0.1322
 7519SOL    HW134193   0.318   3.485  17.025 -1.6878  3.0214  0.5248
 7519SOL    HW234194   0.265   3.429  16.900 -0.9567  0.7975 -0.2105
 7520SOL     OW34195   2.435   2.948   1.876  0.1258 -0.0084  0.8685
 7520SOL    HW134196   2.453   2.969   1.785 -0.5594  2.0422  1.2050
 7520SOL    HW234197   2.350   2.984   1.900 -0.3131 -1.4314  1.4609
 7521SOL     OW34198   1.044   1.729   6.441 -0.2089 -0.3542 -0.5924
 7521SOL    HW134199   1.055   1.645   6.485  0.4082 -1.1163 -2.2178
 7521SOL    HW234200   0.953   1.759   6.446  0.0569  0.3976 -0.1595
 7522SOL     OW34201   4.290   4.041   5.123  0.2425 -0.1929  0.0866
 7522SOL    HW134202   4.198   4.037   5.096 -0.2949  0.1698  1.8635
 7522SOL    HW234203   4.326   3.964   5.080  0.8896  0.8712 -1.2883
 7523SOL     OW34204   3.143   4.139  15.030 -0.0387  0.1414  0.3663
 7523SOL    HW134205   3.164   4.227  15.061 -0.4732  1.1129 -2.1478
 7523SOL    HW234206   3.048   4.137  15.025  0.0461  1.3460 -1.5999
 7524SOL     OW34207   3.088   3.358   4.159 -0.1942  0.0553 -0.1391
 7524SOL    HW134208   3.093   3.272   4.117  2.0283  0.9937 -1.7925
 7524SOL    HW234209   3.063   3.417   4.088  0.6820  2.3910  1.5219
 7525SOL     OW34210   4.309   2.178   2.190 -0.0462  0.0108  0.1861
 7525SOL    HW134211   4.228   2.222   2.164  1.5170  1.8800 -1.5107
 7525SOL    HW234212   4.366   2.186   2.113 -0.9528  2.8804 -0.1878
 7526SOL     OW34213   2.491   1.809  13.975 -0.2524  0.8340 -0.3835
 7526SOL    HW134214   2.511   1.849  14.060 -1.0345 -0.4707  0.4349
 7526SOL    HW234215   2.538   1.727  13.991  0.8171  1.8336  1.5990
 7527SOL     OW34216   2.946   3.141   9.995 -0.1623  0.1621  0.0344
 7527SOL    HW134217   2.971   3.057   9.956  0.1644 -0.0274  0.6678
 7527SOL    HW234218   2.923   3.197   9.920 -1.2029 -2.0517 -1.2882
 7528SOL     OW34219   2.913   0.579  10.970 -0.4361  0.3240 -0.1808
 7528SOL    HW134220   2.951   0.500  11.008 -1.2886  0.5507  1.1235
 7528SOL    HW234221   2.998   0.617  10.946 -0.0202 -0.1699  0.4955
 7529SOL     OW34222   0.300   1.704   5.865 -0.2921 -0.5004  0.1198
 7529SOL    HW134223   0.319   1.777   5.807  0.1135  0.2535  1.1959
 7529SOL    HW234224   0.327   1.628   5.814  1.5232  1.6232 -2.0914
 7530SOL     OW34225   3.781   2.142  12.558 -0.0271 -0.0638  0.0974
 7530SOL    HW134226   3.836   2.065  12.569 -0.4260 -0.0495  2.1982
 7530SOL    HW234227   3.731   2.112  12.482 -0.5444 -0.0913  0.4469
 7531SOL     OW34228   1.087   3.440   4.281  0.9050 -0.1510 -0.4036
 7531SOL    HW134229   1.037   3.427   4.361  0.2016 -0.6241 -0.9157
 7531SOL    HW234230   1.026   3.437   4.208  1.7500 -0.6934 -1.0910
 7532SOL     OW34231   3.493   2.366  16.054  0.0381 -0.3840  0.2199
 7532SOL    HW134232   3.473   2.387  16.145  1.0222 -0.4662  0.4546
 7532SOL    HW234233   3.417   2.308  16.045  0.7419 -1.0285 -1.6977
 7533SOL     OW34234   1.729   1.120  11.553 -0.1554 -0.6755 -0.2409
 7533SOL    HW134235   1.656   1.061  11.536 -0.8614 -0.1049  0.7753
 7533SOL    HW234236   1.806   1.088  11.506 -0.1664  0.4874 -1.0499
 7534SOL     OW34237   2.374   0.275   3.146  0.0645  0.2596  0.0036
 7534SOL    HW134238   2.375   0.280   3.050 -0.7023  0.9192  0.0270
 7534SOL    HW234239   2.375   0.183   3.172  0.1578  0.1903 -0.2441
 7535SOL     OW34240   3.905   1.301   7.711  0.6399 -0.0309 -0.2546
 7535SOL    HW134241   3.962   1.347   7.650 -0.0932 -0.3766 -1.2018
 7535SOL    HW234242   3.816   1.333   7.698  0.0374 -1.3381  0.6859
 7536SOL     OW34243   2.043   3.724   4.019  0.1838 -0.3421 -0.2849
 7536SOL    HW134244   2.081   3.738   4.105  0.9211  0.9118 -0.8034
 7536SOL    HW234245   1.949   3.714   4.037  0.0330 -2.8325 -2.3400
 7537SOL     OW34246   1.045   2.858  15.571  0.0574  0.1664 -0.4320
 7537SOL    HW134247   1.048   2.947  15.536 -0.2143 -0.2392 -1.4702
 7537SOL    HW234248   0.968   2.813  15.537  0.8503 -1.3995 -0.1259
 7538SOL     OW34249   1.303   4.398   1.659 -0.2505 -0.7314 -0.1263
 7538SOL    HW134250   1.380   4.404   1.603  2.2212 -0.5411  3.3155
 7538SOL    HW234251   1.292   4.303   1.661  1.9087 -0.9793 -0.2692
 7539SOL     OW34252   0.783   2.540  10.543 -0.0634 -0.0936 -0.0640
 7539SOL    HW134253   0.793   2.491  10.625 -0.9994 -1.5395 -0.8324
 7539SOL    HW234254   0.716   2.491  10.497 -2.0021  1.1584  1.4249
 7540SOL     OW34255   1.290   1.114   2.180 -0.1034  0.6004  0.6725
 7540SOL    HW134256   1.207   1.137   2.220  0.3716  2.5033  0.5639
 7540SOL    HW234257   1.270   1.140   2.090 -0.8768 -2.0386  0.0845
 7541SOL     OW34258   2.920   3.665   5.383 -0.1377  0.0957 -0.3507
 7541SOL    HW134259   2.873   3.704   5.457 -1.2113 -1.9721  0.0395
 7541SOL    HW234260   2.905   3.727   5.311 -0.2573 -0.3712 -0.7318
 7542SOL     OW34261   1.469   4.266   1.296  0.1887  0.1490  0.3839
 7542SOL    HW134262   1.480   4.359   1.275 -0.1250  0.1765  0.3397
 7542SOL    HW234263   1.494   4.229   1.211 -0.0262 -0.4605  0.5872
 7543SOL     OW34264   1.415   4.586  10.745  0.2781  0.5314 -0.6155
 7543SOL    HW134265   1.493   4.640  10.760  1.2931 -0.8961 -0.8028
 7543SOL    HW234266   1.460   4.502  10.739 -2.1948 -0.7966 -0.0747
 7544SOL     OW34267   4.087   1.599   8.002  0.5358 -0.3299 -0.7876
 7544SOL    HW134268   4.165   1.543   8.004 -0.0426 -1.0545  1.2286
 7544SOL    HW234269   4.021   1.531   8.007  0.0724  0.1127 -0.9348
 7545SOL     OW34270   1.529   0.775   3.411  0.4987 -0.3709 -0.1927
 7545SOL    HW134271   1.509   0.741   3.498  0.3435  0.6236  0.1571
 7545SOL    HW234272   1.596   0.838   3.438  0.5434 -2.0410  3.6481
 7546SOL     OW34273   3.097   3.329   6.231 -0.3815  0.0766 -0.2376
 7546SOL    HW134274   3.142   3.304   6.313  1.2169 -1.0907 -1.4550
 7546SOL    HW234275   3.006   3.327   6.261  0.0087  0.2148  0.9549
 7547SOL     OW34276   3.956   2.368   3.263 -0.0364  0.0485  0.0524
 7547SOL    HW134277   3.879   2.340   3.311  1.0603 -2.0753  0.5662
 7547SOL    HW234278   3.988   2.439   3.319  0.9352 -0.5513  0.2662
 7548SOL     OW34279   3.876   3.527  12.650  0.2862  0.6549  0.0847
 7548SOL    HW134280   3.843   3.600  12.598 -0.5296  0.3883  0.2168
 7548SOL    HW234281   3.831   3.543  12.733  0.3139  0.9072  0.0512
 7549SOL     OW34282   3.686   4.719   5.832  0.6017 -0.0541  0.5671
 7549SOL    HW134283   3.683   4.624   5.825  3.6563  0.0460 -2.4065
 7549SOL    HW234284   3.772   0.003   5.798  0.2346 -1.1085 -1.0427
 7550SOL     OW34285   4.010   1.831   8.202  0.3862  0.1871 -0.1541
 7550SOL    HW134286   4.020   1.749   8.154  2.2522 -0.5894  1.5885
 7550SOL    HW234287   3.916   1.841   8.217  0.1851  1.0339 -1.9950
 7551SOL     OW34288   3.320   4.086   2.309  0.0731  0.0586 -0.1349
 7551SOL    HW134289   3.388   4.149   2.286 -0.8043  0.6170 -1.1768
 7551SOL    HW234290   3.244   4.144   2.315 -0.8942 -1.0702 -1.2805
 7552SOL     OW34291   0.477   3.186   5.724  0.0715 -0.0071  0.1414
 7552SOL    HW134292   0.414   3.206   5.656  0.8701 -1.2179 -0.9560
 7552SOL    HW234293   0.517   3.270   5.745 -2.0116  0.6191  1.6416
 7553SOL     OW34294   4.319   1.800   6.577 -0.4005  0.1695  0.3838
 7553SOL    HW134295   4.378   1.767   6.645  0.2654  3.3809  1.3463
 7553SOL    HW234296   4.385   1.820   6.510 -0.4786 -2.0161 -0.3317
 7554SOL     OW34297   3.608   0.952   4.046 -0.0045  0.2068  0.5382
 7554SOL    HW134298   3.575   0.931   3.959  1.1827  0.2416  0.0946
 7554SOL    HW234299   3.631   0.866   4.083  1.3530  1.8719  3.5485
 7555SOL     OW34300   0.751   2.415   7.387 -0.0874 -0.3118  1.0742
 7555SOL    HW134301   0.730   2.360   7.463 -0.0055 -0.4110  1.0242
 7555SOL    HW234302   0.668   2.454   7.358 -0.8451 -2.1117  0.8445
 7556SOL     OW34303   1.409   0.854   2.269  0.4841  0.4337 -0.2112
 7556SOL    HW134304   1.469   0.915   2.226  0.1593  0.9279  0.0363
 7556SOL    HW234305   1.331   0.910   2.275 -1.7969 -2.5884 -1.5743
 7557SOL     OW34306   1.154   2.634   1.421  0.1003 -0.5821  0.0992
 7557SOL    HW134307   1.127   2.585   1.343  0.8903 -0.5718 -0.1896
 7557SOL    HW234308   1.232   2.587   1.450 -0.1161 -1.4479 -0.6978
 7558SOL     OW34309   2.627   4.686   3.678 -0.2365 -0.3386 -0.0085
 7558SOL    HW134310   2.631   0.037   3.645  0.8810 -0.2506  0.3691
 7558SOL    HW234311   2.654   4.640   3.598  2.5853  0.2626  0.5856
 7559SOL     OW34312   2.719   3.628  11.585 -0.8154  0.6805 -0.0287
 7559SOL    HW134313   2.720   3.723  11.594  1.8633  0.4961  1.6517
 7559SOL    HW234314   2.813   3.611  11.591 -0.9173 -0.3883 -1.4718
 7560SOL     OW34315   1.491   3.254   6.627 -0.3495  0.3280 -0.1316
 7560SOL    HW134316   1.535   3.330   6.665 -1.0521  0.9411 -0.5457
 7560SOL    HW234317   1.538   3.186   6.675  1.2530  0.1426 -1.9313
 7561SOL     OW34318   2.492   1.805   9.645 -0.4457  0.5179 -0.4338
 7561SOL    HW134319   2.440   1.845   9.575 -2.3045 -0.4524  0.3920
 7561SOL    HW234320   2.482   1.871   9.714 -0.3893  0.8299 -0.7262
 7562SOL     OW34321   0.644   1.090   4.401 -0.7795 -0.0144 -0.6852
 7562SOL    HW134322   0.613   1.040   4.325  2.5596 -1.3082 -1.1970
 7562SOL    HW234323   0.638   1.178   4.363  2.0330  0.4392 -0.0752
 7563SOL     OW34324   3.581   1.763   4.214 -0.2763  0.1141 -0.0074
 7563SOL    HW134325   3.606   1.689   4.268 -1.6188  0.4184  1.0374
 7563SOL    HW234326   3.519   1.812   4.269 -0.5181 -1.2111  0.8900
 7564SOL     OW34327   3.201   0.629   0.445  0.3489 -0.1680 -0.4981
 7564SOL    HW134328   3.241   0.704   0.401 -1.4996  0.7462 -0.6102
 7564SOL    HW234329   3.241   0.632   0.532 -0.7530 -1.2403  0.0438
 7565SOL     OW34330   1.982   3.395   1.301 -0.3129 -0.2485 -0.4170
 7565SOL    HW134331   1.998   3.311   1.344 -2.7399 -0.1302  0.7080
 7565SOL    HW234332   2.057   3.400   1.240  0.9227 -0.0787  1.1269
 7566SOL     OW34333   0.570   4.667   7.306 -0.4069 -0.4389 -0.2737
 7566SOL    HW134334   0.655   4.709   7.321 -0.9041 -0.4191  2.6254
 7566SOL    HW234335   0.594   4.605   7.237 -0.4908 -0.4024 -0.3348
 7567SOL     OW34336   0.467   3.731   6.977 -0.0006  0.4840  1.0817
 7567SOL    HW134337   0.420   3.812   6.961  0.4525  0.0087 -2.6655
 7567SOL    HW234338   0.478   3.693   6.890  2.1189  1.5481  0.8866
 7568SOL     OW34339   2.299   3.048   2.611 -0.2082  0.4230 -0.2104
 7568SOL    HW134340   2.350   2.967   2.618 -2.2800 -0.3994  4.8081
 7568SOL    HW234341   2.339   3.091   2.535 -1.7289  0.4005 -1.0227
 7569SOL     OW34342   3.681   1.998  12.344 -0.2282  0.2682  0.3426
 7569SOL    HW134343   3.602   1.946  12.356  0.2215  0.1326  2.8368
 7569SOL    HW234344   3.680   2.010  12.249 -1.7367  1.2044  0.4834
 7570SOL     OW34345   1.888   1.185  11.009  0.3686 -0.5065 -0.0176
 7570SOL    HW134346   1.836   1.258  11.043  1.4577  1.3092 -2.2667
 7570SOL    HW234347   1.976   1.220  11.016 -0.9244  2.8091 -0.2517
 7571SOL     OW34348   1.575   2.058   2.443  0.4814 -0.1572 -0.3177
 7571SOL    HW134349   1.518   2.033   2.516 -0.8951  2.8982 -0.3690
 7571SOL    HW234350   1.526   2.019   2.370 -1.8419  0.9409  0.6520
 7572SOL     OW34351   1.673   0.443   5.814 -0.1761  0.1717 -0.2441
 7572SOL    HW134352   1.714   0.530   5.813  2.1934 -0.9304 -0.0242
 7572SOL    HW234353   1.589   0.476   5.847 -1.2655 -1.2025 -1.6662
 7573SOL     OW34354   2.449   4.690  13.050 -0.6768 -0.6395 -0.4696
 7573SOL    HW134355   2.506   4.672  12.976  0.2320  2.0922 -0.4173
 7573SOL    HW234356   2.432   0.045  13.040 -2.0853 -0.7598  0.8232
 7574SOL     OW34357   1.124   0.748   1.728 -0.0806 -0.1557  0.1768
 7574SOL    HW134358   1.063   0.675   1.723 -0.1513 -0.1653  1.1792
 7574SOL    HW234359   1.123   0.760   1.823  1.4286 -3.9535  0.6711
 7575SOL     OW34360   4.414   3.175   8.020  0.9082 -0.4981  0.0497
 7575SOL    HW134361   4.449   3.233   8.087 -2.1991  1.3134  0.1248
 7575SOL    HW234362   4.419   3.225   7.938 -0.3535  1.5639  1.2399
 7576SOL     OW34363   1.917   2.456   8.795  0.1306 -0.0415 -0.0137
 7576SOL    HW134364   1.915   2.416   8.708  0.9884  1.2795 -0.6522
 7576SOL    HW234365   1.831   2.424   8.821 -0.0458  0.7434  0.3770
 7577SOL     OW34366   4.083   2.256   2.042 -0.5473 -0.4429  0.2276
 7577SOL    HW134367   4.026   2.182   2.064 -0.7279  0.1102  1.6124
 7577SOL    HW234368   4.109   2.237   1.952 -0.1789  2.0641 -0.2037
 7578SOL     OW34369   2.087   3.415  11.328  0.3359  0.3850  0.1931
 7578SOL    HW134370   1.999   3.441  11.299 -0.4124  1.9728  3.8722
 7578SOL    HW234371   2.101   3.480  11.397  0.8284 -0.1709  0.6082
 7579SOL     OW34372   3.423   0.914  12.374 -0.3499  0.3933  0.3724
 7579SOL    HW134373   3.468   0.927  12.457  2.7415  1.6488 -1.4824
 7579SOL    HW234374   3.352   0.862  12.412  0.9338 -2.8891 -1.7359
 7580SOL     OW34375   3.690   3.984   9.797  0.0279  0.4706  0.0394
 7580SOL    HW134376   3.739   3.957   9.875 -0.1571  0.6883  0.2288
 7580SOL    HW234377   3.725   4.073   9.800  2.0520 -0.3157 -0.2714
 7581SOL     OW34378   0.487   4.434   3.642  0.2085  0.0516  0.7894
 7581SOL    HW134379   0.529   4.359   3.684  1.2657 -0.3811 -1.0172
 7581SOL    HW234380   0.544   4.455   3.568  2.7554  1.6639  3.2332
 7582SOL     OW34381   4.561   4.143   8.775  0.4601 -0.1926 -0.4257
 7582SOL    HW134382   4.517   4.065   8.808  3.3607 -1.8809 -0.5738
 7582SOL    HW234383   4.488   4.206   8.771  0.3617 -0.3286 -0.7164
 7583SOL     OW34384   4.263   3.125   7.402 -0.3964  0.3206 -0.8098
 7583SOL    HW134385   4.182   3.174   7.417 -0.1214  0.0067  1.7407
 7583SOL    HW234386   4.314   3.168   7.471  0.0980 -1.7453  0.1408
 7584SOL     OW34387   1.634   4.737   1.862 -0.2136 -0.0047 -0.2963
 7584SOL    HW134388   1.675   0.085   1.859 -1.1030  0.4049 -0.8905
 7584SOL    HW234389   1.546   0.019   1.829 -0.2534 -1.0335 -0.8338
 7585SOL     OW34390   1.927   1.805   5.625 -0.7386  0.0187 -0.7338
 7585SOL    HW134391   1.992   1.862   5.586  0.4298 -1.5008 -1.0154
 7585SOL    HW234392   1.976   1.723   5.635 -0.7879 -0.0964 -1.4133
 7586SOL     OW34393   3.949   0.784   2.716  0.3182 -0.2555  0.0126
 7586SOL    HW134394   3.861   0.755   2.743 -0.0868  0.1572 -0.8448
 7586SOL    HW234395   3.974   0.842   2.787 -0.5536  0.9601 -0.6643
 7587SOL     OW34396   0.926   2.728   3.621 -0.1634  0.4903  0.5989
 7587SOL    HW134397   1.008   2.724   3.671  0.8055 -1.7868 -1.1557
 7587SOL    HW234398   0.924   2.820   3.597  1.1680  0.3249 -0.1872
 7588SOL     OW34399   0.559   0.682  15.202 -0.6110 -0.1913  0.4360
 7588SOL    HW134400   0.494   0.619  15.171  0.5643 -1.0792 -0.2578
 7588SOL    HW234401   0.506   0.721  15.271 -0.5068 -1.2301  1.1133
 7589SOL     OW34402   3.083   4.572  12.240  0.1394 -0.0532 -0.3462
 7589SOL    HW134403   3.170   4.612  12.246 -0.7187  1.6735  0.7226
 7589SOL    HW234404   3.104   4.479  12.248  0.1557 -0.1339 -1.3150
 7590SOL     OW34405   2.858   3.311   3.504  0.3426 -0.0167 -0.0001
 7590SOL    HW134406   2.915   3.237   3.484 -1.1796 -0.3302 -3.3357
 7590SOL    HW234407   2.889   3.332   3.592  2.3578 -1.1309 -0.4427
 7591SOL     OW34408   4.027   3.597  17.233 -0.2120 -0.2597  0.3421
 7591SOL    HW134409   3.996   3.624  17.146 -0.1333  1.3323  0.8072
 7591SOL    HW234410   4.104   3.544  17.213  0.5327  0.1460  2.1626
 7592SOL     OW34411   0.871   2.472  10.837  0.0035  0.0814  0.4935
 7592SOL    HW134412   0.830   2.558  10.845  0.1753  0.3672 -1.9329
 7592SOL    HW234413   0.823   2.416  10.898  0.1588  0.1814  0.7051
 7593SOL     OW34414   0.274   3.660  12.599 -0.4656  0.0730 -0.1926
 7593SOL    HW134415   0.242   3.678  12.688 -0.3508 -1.2192  0.0976
 7593SOL    HW234416   0.362   3.624  12.609  0.6173  2.7560  0.0763
 7594SOL     OW34417   3.282   3.309   4.925 -0.3449  0.5312  0.9440
 7594SOL    HW134418   3.251   3.382   4.872 -0.9712  1.0317  2.0057
 7594SOL    HW234419   3.200   3.294   4.972 -1.4734 -1.3944 -1.6768
 7595SOL     OW34420   1.384   3.364   2.049  0.5211  0.0197  0.3530
 7595SOL    HW134421   1.316   3.346   2.114  2.0860 -1.5500  1.6081
 7595SOL    HW234422   1.339   3.357   1.966 -2.1331  2.2212  1.6400
 7596SOL     OW34423   2.938   1.645   4.281  0.6051 -0.2024 -0.8109
 7596SOL    HW134424   3.006   1.681   4.338  3.0532 -3.1034 -1.9394
 7596SOL    HW234425   2.935   1.718   4.219 -3.1875  0.0548 -0.3415
 7597SOL     OW34426   4.718   3.088   2.667 -0.4114 -0.1617  0.2746
 7597SOL    HW134427   0.003   2.996   2.657 -0.3407 -0.1358  0.1931
 7597SOL    HW234428   4.688   3.109   2.578  0.4957  1.8425  0.4257
 7598SOL     OW34429   3.184   0.086   8.046 -0.1978  0.1037  0.2538
 7598SOL    HW134430   3.227   0.075   7.961 -0.0892  2.9717 -0.0632
 7598SOL    HW234431   3.111   0.025   8.032 -0.0047 -0.4687  1.7057
 7599SOL     OW34432   1.072   1.844   4.346  0.2260  0.6487  0.1660
 7599SOL    HW134433   1.080   1.855   4.251  0.5846  1.9508  0.3515
 7599SOL    HW234434   1.141   1.783   4.369 -1.6297 -1.6890 -0.4884
 7600SOL     OW34435   0.948   1.189   6.157 -0.2729  0.0468 -0.0197
 7600SOL    HW134436   0.983   1.099   6.156 -0.4869 -0.0202 -1.3370
 7600SOL    HW234437   0.951   1.208   6.064  1.4102 -0.3420 -0.0454
 7601SOL     OW34438   0.694   2.262   7.588 -0.1393  0.0785  0.2083
 7601SOL    HW134439   0.768   2.248   7.646  0.0658 -0.6319 -0.2362
 7601SOL    HW234440   0.636   2.309   7.649  1.0889  2.0000 -0.0832
 7602SOL     OW34441   2.636   1.040   6.918  0.0742  0.1204  0.0154
 7602SOL    HW134442   2.583   0.963   6.938  0.7229  0.0310  1.3601
 7602SOL    HW234443   2.722   0.998   6.918  0.5637  1.1150 -1.8321
 7603SOL     OW34444   2.657   0.536  11.877 -0.1685 -0.1269  0.4536
 7603SOL    HW134445   2.584   0.504  11.930 -0.8311  0.8446  0.1049
 7603SOL    HW234446   2.679   0.473  11.807  4.0464  2.5957 -0.6572
 7604SOL     OW34447   1.328   0.201   7.485 -0.7237 -0.1333 -0.2747
 7604SOL    HW134448   1.260   0.227   7.547  1.4583  1.2973  1.4876
 7604SOL    HW234449   1.366   0.286   7.462 -1.5790  0.5954  0.9942
 7605SOL     OW34450   0.439   4.419   1.674  0.4272 -0.1577  0.2707
 7605SOL    HW134451   0.529   4.441   1.652  0.2015  2.5727  2.1010
 7605SOL    HW234452   0.457   4.337   1.720 -1.0897 -1.4459 -1.4706
 7606SOL     OW34453   2.645   0.749   7.430 -0.0905 -0.0047 -0.1202
 7606SOL    HW134454   2.573   0.697   7.396  1.0091 -1.3084 -0.4746
 7606SOL    HW234455   2.651   0.818   7.365  1.0562 -0.0977 -0.1139
 7607SOL     OW34456   0.406   4.106   3.686  0.1961 -0.0271  0.4852
 7607SOL    HW134457   0.362   4.163   3.749  1.4659  1.6039 -0.0777
 7607SOL    HW234458   0.500   4.116   3.700  0.8680 -3.0523 -1.8288
 7608SOL     OW34459   0.648   2.702   5.313 -0.3283  0.9394  0.2519
 7608SOL    HW134460   0.603   2.648   5.378  2.8997 -2.1290 -0.0206
 7608SOL    HW234461   0.679   2.640   5.247  1.3481  2.3558 -0.3025
 7609SOL     OW34462   1.186   3.665   3.864 -0.2385  0.0102  0.1487
 7609SOL    HW134463   1.195   3.704   3.951 -1.4457 -2.2450  1.2904
 7609SOL    HW234464   1.131   3.730   3.822 -0.7378 -0.7849 -0.4392
 7610SOL     OW34465   0.444   1.329   0.310 -0.7025  0.3198  0.1031
 7610SOL    HW134466   0.355   1.356   0.330 -0.0825  2.3916  0.0884
 7610SOL    HW234467   0.488   1.402   0.268  0.8458 -0.3773  0.4913
 7611SOL     OW34468   2.505   3.625   7.933 -0.2153  0.2862 -0.5387
 7611SOL    HW134469   2.461   3.657   7.855 -1.0922 -1.7814 -0.8929
 7611SOL    HW234470   2.429   3.618   7.991  0.1260 -1.7292 -0.3353
 7612SOL     OW34471   1.837   4.336   2.891  0.2753 -0.0288 -0.1509
 7612SOL    HW134472   1.853   4.276   2.818 -1.2022 -1.4474  0.6763
 7612SOL    HW234473   1.742   4.346   2.898  0.1435 -2.1629  1.0824
 7613SOL     OW34474   4.690   2.898   4.319  0.4717 -0.1552 -0.3764
 7613SOL    HW134475   4.697   2.893   4.223 -2.5153  0.0959 -0.6095
 7613SOL    HW234476   4.603   2.936   4.328  0.7483  0.7771 -1.5899
 7614SOL     OW34477   0.520   2.259  12.939 -0.0388  1.2169  0.1160
 7614SOL    HW134478   0.596   2.231  12.886 -0.3137  0.5195  0.0891
 7614SOL    HW234479   0.566   2.326  12.991  0.4164  1.6254 -0.8057
 7615SOL     OW34480   0.049   3.510   5.463  0.2358  0.0638 -1.2226
 7615SOL    HW134481   4.730   3.572   5.508  0.2063 -0.4671 -0.5196
 7615SOL    HW234482   4.736   3.429   5.460 -1.6771  1.1964  0.6402
 7616SOL     OW34483   1.907   0.668  11.969  0.2409  0.1827 -0.6043
 7616SOL    HW134484   1.850   0.593  11.984  1.6039 -0.8709 -0.6598
 7616SOL    HW234485   1.979   0.647  12.030  1.2522  0.6431 -1.6328
 7617SOL     OW34486   0.648   0.302   1.935 -0.8539  0.3128  0.2215
 7617SOL    HW134487   0.696   0.336   2.011 -0.3094 -1.7682  0.8147
 7617SOL    HW234488   0.665   0.383   1.887  0.3938  0.4157  0.8322
 7618SOL     OW34489   0.269   3.702   3.376 -0.8335  0.3043  0.1112
 7618SOL    HW134490   0.190   3.698   3.323 -0.6169 -1.3952 -0.0984
 7618SOL    HW234491   0.241   3.762   3.446 -0.8835 -1.8679  1.9620
 7619SOL     OW34492   1.959   4.698  12.679 -0.2085  1.3640  0.7304
 7619SOL    HW134493   1.908   0.037  12.704 -2.0347  0.5335 -0.4323
 7619SOL    HW234494   2.014   4.678  12.755  1.3503 -0.4450 -0.8773
 7620SOL     OW34495   2.477   0.441  12.957 -0.3149 -0.5903  0.4556
 7620SOL    HW134496   2.419   0.513  12.983 -1.2581 -0.9350 -0.7043
 7620SOL    HW234497   2.535   0.484  12.894  1.1768 -1.7562  1.0386
 7621SOL     OW34498   2.025   2.147   1.100  0.0808  0.1685  0.6505
 7621SOL    HW134499   1.995   2.214   1.162 -1.8475  0.2116 -0.3361
 7621SOL    HW234500   2.066   2.200   1.031 -0.2678  0.3922  0.6173
 7622SOL     OW34501   2.648   1.746   8.313  0.0011  0.0879 -0.9137
 7622SOL    HW134502   2.589   1.673   8.296  1.0444 -0.9833  0.0545
 7622SOL    HW234503   2.734   1.703   8.306  0.0060  0.1526 -1.2214
 7623SOL     OW34504   1.691   2.280   3.243 -0.0662 -0.2976  0.5596
 7623SOL    HW134505   1.611   2.303   3.292 -1.6056 -0.2709 -1.9748
 7623SOL    HW234506   1.737   2.224   3.306  0.8410 -0.0593  0.0924
 7624SOL     OW34507   3.668   1.283  16.409  0.2881  0.1778 -0.6296
 7624SOL    HW134508   3.633   1.328  16.331  1.4546  0.2922 -1.0914
 7624SOL    HW234509   3.709   1.212  16.360 -2.4399 -1.9467  0.1901
 7625SOL     OW34510   2.369   0.574  13.528  0.0367 -0.1781 -0.3702
 7625SOL    HW134511   2.342   0.661  13.498  0.6932  0.2281  0.2071
 7625SOL    HW234512   2.423   0.548  13.454  2.4069 -1.8401  1.9325
 7626SOL     OW34513   2.130   0.683   6.161  0.0012  0.5242 -0.0981
 7626SOL    HW134514   2.143   0.589   6.174  1.1156  0.8670  1.2233
 7626SOL    HW234515   2.086   0.692   6.077 -0.5541 -1.5932 -0.0360
 7627SOL     OW34516   4.105   4.181   1.583 -0.2393 -0.0026  0.1709
 7627SOL    HW134517   4.108   4.194   1.488 -2.2473  1.1345  0.2684
 7627SOL    HW234518   4.108   4.272   1.614  2.0889  0.1071 -0.3471
 7628SOL     OW34519   2.207   1.960   6.722 -0.0454 -0.1854 -0.0548
 7628SOL    HW134520   2.234   2.042   6.764 -0.6172  1.0415 -2.1071
 7628SOL    HW234521   2.147   1.994   6.656 -0.8640 -0.5805  0.4922
 7629SOL     OW34522   4.370   4.132   9.057  0.5605 -0.0616 -0.0351
 7629SOL    HW134523   4.355   4.060   8.995  0.7529 -0.9441  0.9491
 7629SOL    HW234524   4.464   4.122   9.066  0.7155  0.5750 -0.9594
 7630SOL     OW34525   1.147   0.057  14.598  0.0956  0.3665  0.0915
 7630SOL    HW134526   1.104   0.113  14.663  0.6352  1.4436 -0.4821
 7630SOL    HW234527   1.095   4.715  14.594 -0.2872  0.6866 -1.3966
 7631SOL     OW34528   2.905   0.069   8.878 -0.3501  0.0426 -0.6234
 7631SOL    HW134529   2.993   0.060   8.843  0.3232 -1.1494  1.3453
 7631SOL    HW234530   2.877   4.717   8.889  1.3520 -0.6461 -2.0495
 7632SOL     OW34531   0.275   3.474   2.641 -0.1758  0.2656 -0.0599
 7632SOL    HW134532   0.196   3.445   2.595 -1.7148 -0.0005  2.7685
 7632SOL    HW234533   0.250   3.562   2.670 -0.9379 -0.5162  1.6624
 7633SOL     OW34534   2.252   2.210  16.358  0.3702  0.3925  0.0718
 7633SOL    HW134535   2.215   2.296  16.378  0.6262  1.2402 -3.1136
 7633SOL    HW234536   2.198   2.146  16.405  3.9467 -0.9821  2.3093
 7634SOL     OW34537   4.264   0.608   1.815 -0.2720  0.1536 -0.0890
 7634SOL    HW134538   4.201   0.664   1.769 -1.3148  0.3696  1.5921
 7634SOL    HW234539   4.314   0.681   1.852 -0.5480 -1.1752  2.9244
 7635SOL     OW34540   1.075   1.168   8.483 -0.0239 -0.1029  0.1629
 7635SOL    HW134541   1.125   1.218   8.419  0.7747 -1.9088 -0.6280
 7635SOL    HW234542   1.118   1.200   8.563 -0.4605 -0.5292  0.5671
 7636SOL     OW34543   3.685   1.623   4.709 -0.0453 -0.1171  0.0179
 7636SOL    HW134544   3.726   1.690   4.655  1.6967  1.2581  3.0580
 7636SOL    HW234545   3.762   1.615   4.765  1.3387  2.6783 -1.5286
 7637SOL     OW34546   1.575   0.365   2.925  0.3285  0.0892 -0.0396
 7637SOL    HW134547   1.662   0.402   2.942 -0.9106  2.9104  0.0826
 7637SOL    HW234548   1.564   0.380   2.831 -2.7006 -0.3976  0.2484
 7638SOL     OW34549   2.500   3.516   4.112  0.6655 -0.3756 -0.7998
 7638SOL    HW134550   2.548   3.510   4.195 -1.6997  1.5776  0.6827
 7638SOL    HW234551   2.573   3.520   4.050  2.4097 -1.6996  1.1613
 7639SOL     OW34552   1.173   1.121  11.254  0.3969  0.2202 -0.1756
 7639SOL    HW134553   1.207   1.109  11.343  0.4643  0.2774 -0.1943
 7639SOL    HW234554   1.079   1.126  11.272  0.0634 -0.1657 -1.8636
 7640SOL     OW34555   2.352   2.729   6.688  0.1837 -0.7300 -0.0632
 7640SOL    HW134556   2.283   2.690   6.742 -1.7878  0.6729 -1.5697
 7640SOL    HW234557   2.426   2.741   6.748  0.2403  1.7450 -0.6210
 7641SOL     OW34558   4.250   3.844  12.083 -0.0001 -0.4556  0.3646
 7641SOL    HW134559   4.214   3.804  12.162  1.8139 -0.8524  1.0131
 7641SOL    HW234560   4.302   3.767  12.060  0.2928 -0.5417  1.2808
 7642SOL     OW34561   3.972   3.295   1.060  0.7628 -0.6450 -0.5235
 7642SOL    HW134562   3.906   3.228   1.076  0.8513 -0.5709  0.1186
 7642SOL    HW234563   4.041   3.252   1.109 -0.3772 -1.5561  0.2829
 7643SOL     OW34564   0.628   0.836   5.746  0.5363 -0.0109  0.3349
 7643SOL    HW134565   0.548   0.876   5.781  0.2029 -0.7550  0.4287
 7643SOL    HW234566   0.697   0.900   5.761  0.2175  0.0196  1.7070
 7644SOL     OW34567   1.850   1.264   7.934 -0.0062 -0.1063 -0.1240
 7644SOL    HW134568   1.801   1.220   7.864 -0.3036 -4.0009  2.5336
 7644SOL    HW234569   1.863   1.352   7.899  1.9681 -0.5072 -0.3689
 7645SOL     OW34570   1.880   2.993   2.610  0.1898  0.6334 -0.4232
 7645SOL    HW134571   1.865   3.075   2.657  1.4466  1.4660 -1.4831
 7645SOL    HW234572   1.794   2.952   2.608  1.3166 -1.7611  0.9622
 7646SOL     OW34573   3.889   4.139   3.436  0.2905  0.6784 -0.0094
 7646SOL    HW134574   3.883   4.054   3.479  0.4989  0.7208  0.1035
 7646SOL    HW234575   3.801   4.164   3.409 -1.4974 -3.2284  2.1597
 7647SOL     OW34576   4.576   0.384   1.961 -0.7298 -0.2022 -0.0040
 7647SOL    HW134577   4.485   0.367   1.987 -1.4813  2.2301 -0.9947
 7647SOL    HW234578   4.604   0.310   1.908 -0.1520 -1.0374  1.4562
 7648SOL     OW34579   1.260   1.424   5.974  0.5660 -0.1005  0.2962
 7648SOL    HW134580   1.288   1.516   5.983 -1.6464  0.4690  1.1308
 7648SOL    HW234581   1.217   1.429   5.889  0.7812 -1.0080  0.1377
 7649SOL     OW34582   1.278   4.109  16.090 -0.2338 -0.0516  0.2985
 7649SOL    HW134583   1.327   4.056  16.152  1.7140  1.6499  0.2169
 7649SOL    HW234584   1.196   4.062  16.104  0.5470 -1.3961  0.2720
 7650SOL     OW34585   0.415   0.961   1.760 -0.4263  0.4008 -0.2492
 7650SOL    HW134586   0.464   1.033   1.722  0.0811 -0.3430 -0.9806
 7650SOL    HW234587   0.336   1.012   1.779 -3.1098 -3.1927 -1.6765
 7651SOL     OW34588   0.213   1.981  12.874  0.3029 -0.2177 -0.1057
 7651SOL    HW134589   0.261   2.063  12.860  1.7169 -0.8035  1.2658
 7651SOL    HW234590   0.234   1.939  12.790 -1.6838 -0.9664 -0.2236
 7652SOL     OW34591   3.772   3.849  12.688  0.5411 -0.8633  0.2409
 7652SOL    HW134592   3.739   3.939  12.686 -1.3156 -1.5269  1.4728
 7652SOL    HW234593   3.801   3.841  12.779  2.6829 -0.2160 -0.3839
 7653SOL     OW34594   2.147   2.167   3.666  0.0952  0.3155  0.1487
 7653SOL    HW134595   2.218   2.103   3.674 -1.2688 -1.2864 -0.5527
 7653SOL    HW234596   2.074   2.106   3.678  1.2799 -1.0298  0.3986
 7654SOL     OW34597   0.616   0.751   8.203  0.4232 -0.2162  0.0028
 7654SOL    HW134598   0.558   0.825   8.215 -0.1718 -0.6170 -0.3908
 7654SOL    HW234599   0.702   0.788   8.223  0.0820 -0.5454  2.0869
 7655SOL     OW34600   4.554   1.148   4.581  0.7530 -0.8445  0.2956
 7655SOL    HW134601   4.490   1.200   4.532  1.0064  1.4743  2.3930
 7655SOL    HW234602   4.635   1.197   4.570  0.7338 -0.0526  3.6972
 7656SOL     OW34603   1.868   2.283  14.943 -0.1835 -0.2335 -0.4454
 7656SOL    HW134604   1.953   2.266  14.984 -0.6071  0.9358  0.9021
 7656SOL    HW234605   1.854   2.371  14.979 -1.1531 -0.0556 -1.2420
 7657SOL     OW34606   4.399   0.097   1.836  0.0942  0.3147  0.1264
 7657SOL    HW134607   4.389   0.135   1.924 -0.1339  1.2663 -0.3105
 7657SOL    HW234608   4.379   0.173   1.782  0.1389  1.9806  2.4479
 7658SOL     OW34609   1.268   0.773   4.411  0.4046 -0.0648  0.7023
 7658SOL    HW134610   1.186   0.746   4.452  0.0737 -0.2057 -0.0605
 7658SOL    HW234611   1.268   0.715   4.335  1.5917 -1.2209  1.5754
 7659SOL     OW34612   0.871   4.652   2.452 -0.1959  0.6342  0.1839
 7659SOL    HW134613   0.819   4.638   2.531 -1.5192  1.4602 -0.5411
 7659SOL    HW234614   0.942   4.708   2.484  0.2107 -1.1170  2.3571
 7660SOL     OW34615   1.090   4.490   4.762  0.1133  0.0614  0.5991
 7660SOL    HW134616   1.163   4.552   4.765  0.0157  0.2563 -0.9608
 7660SOL    HW234617   1.113   4.427   4.831  2.2282  0.8123  0.5620
 7661SOL     OW34618   2.733   0.794   5.587 -0.8660  0.3422  0.5694
 7661SOL    HW134619   2.683   0.712   5.588  0.8718 -0.6932  1.7605
 7661SOL    HW234620   2.822   0.759   5.584 -0.5806  1.0626  0.7244
 7662SOL     OW34621   1.924   0.646   2.366  0.3411 -0.3342 -0.1114
 7662SOL    HW134622   1.841   0.689   2.342  0.2391 -1.2939 -1.4175
 7662SOL    HW234623   1.982   0.721   2.351 -2.0996  1.1745 -2.0398
 7663SOL     OW34624   3.376   3.354   4.176 -0.1649  0.0816 -0.3428
 7663SOL    HW134625   3.335   3.440   4.181 -0.9332 -0.2634 -0.6591
 7663SOL    HW234626   3.351   3.311   4.095  0.5807 -1.0541  0.0326
 7664SOL     OW34627   0.903   3.728  13.807  0.1590  0.5732  0.8013
 7664SOL    HW134628   0.841   3.797  13.832 -0.0815 -0.1264  2.0923
 7664SOL    HW234629   0.839   3.673  13.760  0.6851  0.4232  0.2602
 7665SOL     OW34630   2.666   0.382   5.907  0.3783  0.1848  0.8194
 7665SOL    HW134631   2.707   0.441   5.844 -1.7841  0.2230 -0.5593
 7665SOL    HW234632   2.619   0.453   5.951 -2.1031 -1.7586  1.3308
 7666SOL     OW34633   3.198   2.768   7.432  0.2646  0.2564  0.3812
 7666SOL    HW134634   3.188   2.863   7.444  2.9125  0.3669  1.6225
 7666SOL    HW234635   3.202   2.744   7.525 -1.2370  0.7428  0.5811
 7667SOL     OW34636   0.590   0.543   5.855  0.9044  0.1027 -0.0466
 7667SOL    HW134637   0.504   0.503   5.869  0.8930 -0.1317 -0.7966
 7667SOL    HW234638   0.571   0.637   5.849 -1.4286 -0.4641 -1.3061
 7668SOL     OW34639   1.897   1.481   0.383 -0.1806  0.5174 -0.1339
 7668SOL    HW134640   1.814   1.460   0.426  0.2229 -0.5217  0.1477
 7668SOL    HW234641   1.869   1.464   0.293 -0.8482  1.0855 -0.0366
 7669SOL     OW34642   4.484   3.578   7.359  0.0778  0.0821 -0.0262
 7669SOL    HW134643   4.502   3.668   7.387  0.2228  0.1694 -0.3945
 7669SOL    HW234644   4.537   3.577   7.279  2.0439 -2.5253  1.3183
 7670SOL     OW34645   1.246   3.218   5.720  0.3658 -0.1478 -0.0543
 7670SOL    HW134646   1.273   3.161   5.649  2.3686  2.8084 -1.6836
 7670SOL    HW234647   1.151   3.218   5.707  0.7889 -0.8083 -3.0850
 7671SOL     OW34648   1.020   2.493   1.211 -0.2185 -0.3671 -0.3551
 7671SOL    HW134649   0.974   2.517   1.131  0.1822  0.9834 -0.1793
 7671SOL    HW234650   1.041   2.399   1.205 -2.2750 -0.8433 -0.1391
 7672SOL     OW34651   3.765   1.773  12.012 -0.4279 -0.2550  0.4599
 7672SOL    HW134652   3.813   1.697  11.979  1.1187 -0.0709  2.2675
 7672SOL    HW234653   3.837   1.836  12.006 -1.1169  0.4071 -1.0375
 7673SOL     OW34654   2.112   1.744   6.878 -0.1692 -0.2711  0.5729
 7673SOL    HW134655   2.053   1.790   6.938 -1.6256 -0.0730 -1.0236
 7673SOL    HW234656   2.137   1.816   6.819  0.8796 -0.5362  0.6863
 7674SOL     OW34657   0.168   0.260  10.793  0.1123  0.2037 -0.3505
 7674SOL    HW134658   0.117   0.204  10.735 -0.4465 -0.2823  0.5965
 7674SOL    HW234659   0.199   0.337  10.745 -2.6426  0.8623 -1.0765
 7675SOL     OW34660   0.616   1.774   9.623 -0.1278  0.1459  0.1382
 7675SOL    HW134661   0.624   1.842   9.555  2.2260 -0.3232 -0.0376
 7675SOL    HW234662   0.662   1.823   9.691 -1.5215 -0.6117  1.6336
 7676SOL     OW34663   0.646   0.531   1.816 -0.0874 -0.1060  0.0873
 7676SOL    HW134664   0.702   0.606   1.838  0.2585 -0.3668  0.1031
 7676SOL    HW234665   0.566   0.575   1.789 -0.3485  0.0870  1.1541
 7677SOL     OW34666   0.111   1.471   1.834 -0.0781 -0.1985  0.1583
 7677SOL    HW134667   0.135   1.452   1.924 -1.0578 -1.0619  0.2373
 7677SOL    HW234668   0.143   1.561   1.826  0.8171 -0.6337 -1.0766
 7678SOL     OW34669   0.943   3.230   5.678 -0.2728  0.4052 -0.1825
 7678SOL    HW134670   0.916   3.174   5.606  1.5501 -0.9967  0.2169
 7678SOL    HW234671   0.919   3.316   5.644 -1.2074 -0.1338 -0.8615
 7679SOL     OW34672   0.652   3.750   2.830 -0.0225  0.3954  0.0074
 7679SOL    HW134673   0.635   3.768   2.922  1.4561  0.9027  0.1894
 7679SOL    HW234674   0.625   3.825   2.777 -1.0375 -1.1265 -1.6503
 7680SOL     OW34675   1.600   3.569   2.391  0.3711 -0.4590 -0.2772
 7680SOL    HW134676   1.546   3.645   2.372 -0.4778 -0.9473  0.1837
 7680SOL    HW234677   1.647   3.549   2.310 -1.1466  0.0079 -1.2897
 7681SOL     OW34678   3.596   4.457   7.585 -0.2159  0.2797 -1.0293
 7681SOL    HW134679   3.637   4.538   7.552 -1.6485  1.0449 -0.9444
 7681SOL    HW234680   3.637   4.389   7.532 -0.4892  1.1682 -2.4015
 7682SOL     OW34681   3.574   1.403   9.568  0.0513  0.0559 -0.1678
 7682SOL    HW134682   3.532   1.488   9.552 -0.2380  0.1162  0.9657
 7682SOL    HW234683   3.633   1.434   9.636  1.2448 -1.0692 -0.6779
 7683SOL     OW34684   0.204   4.333   5.754  0.0813 -0.1184 -0.6271
 7683SOL    HW134685   0.142   4.367   5.819 -0.5047 -0.9983 -0.7265
 7683SOL    HW234686   0.272   4.400   5.751 -0.1788  0.2394  1.1072
 7684SOL     OW34687   2.110   4.312   3.167 -0.0375  0.1086 -0.0713
 7684SOL    HW134688   2.050   4.238   3.172  3.3637 -2.5419  0.9865
 7684SOL    HW234689   2.181   4.288   3.227 -1.1298 -1.3089  0.6423
 7685SOL     OW34690   3.086   3.690  12.901 -0.4201  0.0380  0.2632
 7685SOL    HW134691   3.043   3.625  12.958 -0.1293 -0.4274 -0.0439
 7685SOL    HW234692   3.177   3.660  12.894 -0.6771 -0.5371 -0.5678
 7686SOL     OW34693   3.449   3.703   2.349 -0.2478 -0.0824 -0.3792
 7686SOL    HW134694   3.414   3.772   2.404 -0.3022 -0.1010 -0.3905
 7686SOL    HW234695   3.452   3.754   2.268 -2.0710  3.9064  2.0916
 7687SOL     OW34696   0.777   2.770   7.593  0.2110 -0.5679 -0.1051
 7687SOL    HW134697   0.733   2.785   7.509 -0.6849 -2.0635  0.0863
 7687SOL    HW234698   0.724   2.815   7.659  2.3716  0.0341  1.2135
 7688SOL     OW34699   0.753   1.016   5.493 -0.1302 -0.6437  0.5053
 7688SOL    HW134700   0.756   1.059   5.578  0.1819  2.0226 -0.8546
 7688SOL    HW234701   0.833   0.965   5.503  0.6872  0.4936 -0.3101
 7689SOL     OW34702   0.830   0.717  14.145  0.7760  0.3992  0.0760
 7689SOL    HW134703   0.788   0.635  14.169  0.6071  0.5208  0.1974
 7689SOL    HW234704   0.836   0.761  14.230  0.3901 -1.1915  0.9242
 7690SOL     OW34705   3.448   1.031   3.109 -0.1473  0.1336 -0.5577
 7690SOL    HW134706   3.515   1.087   3.150 -1.1768  0.6882  0.3529
 7690SOL    HW234707   3.411   1.091   3.044  0.4834 -0.5494 -1.5431
 7691SOL     OW34708   3.636   3.892   2.211  0.3641 -0.1162 -0.0766
 7691SOL    HW134709   3.601   3.947   2.282 -1.3878 -3.9410  2.0474
 7691SOL    HW234710   3.698   3.832   2.251  0.1312 -0.7325 -0.6471
 7692SOL     OW34711   3.709   1.588  12.219 -0.1002  0.1996  0.2723
 7692SOL    HW134712   3.712   1.678  12.186 -3.1431  0.2757  0.2518
 7692SOL    HW234713   3.687   1.527  12.148  0.3323 -2.0028  2.0311
 7693SOL     OW34714   3.468   1.673   6.113  0.3930  0.4798  0.1496
 7693SOL    HW134715   3.557   1.675   6.077  0.1917  1.1818 -0.3165
 7693SOL    HW234716   3.482   1.693   6.206  0.4147 -1.5218  0.5666
 7694SOL     OW34717   1.150   0.676   7.724  0.2238  0.0195  0.1684
 7694SOL    HW134718   1.238   0.642   7.739  0.7131  1.4882  0.5564
 7694SOL    HW234719   1.169   0.717   7.639 -0.7593 -0.2356 -0.1811
 7695SOL     OW34720   3.336   3.375   6.729 -0.7837 -0.2082  0.2444
 7695SOL    HW134721   3.400   3.400   6.795  1.4008 -4.2344 -0.3273
 7695SOL    HW234722   3.264   3.336   6.777 -2.1759 -0.1508 -1.7897
 7696SOL     OW34723   2.265   0.076  12.754 -0.2198  0.1437 -0.2177
 7696SOL    HW134724   2.250   4.732  12.800  0.3085  0.5169  0.6119
 7696SOL    HW234725   2.281   0.131  12.831  0.5373  2.0713 -1.7495
 7697SOL     OW34726   1.411   4.639   3.115 -0.3108 -0.0309 -0.4985
 7697SOL    HW134727   1.445   4.727   3.136  0.5805 -0.2404 -1.0448
 7697SOL    HW234728   1.490   4.602   3.077  0.1573  1.3570 -0.8866
 7698SOL     OW34729   3.424   3.956   8.283 -0.1217 -0.7262 -0.1869
 7698SOL    HW134730   3.381   3.925   8.203 -0.7829  1.2792 -0.5933
 7698SOL    HW234731   3.349   3.973   8.339  0.7916 -2.2103  1.4668
 7699SOL     OW34732   4.054   2.995   8.883  0.2190  0.1741 -0.0040
 7699SOL    HW134733   4.082   2.991   8.791 -3.4096  3.9234 -1.3187
 7699SOL    HW234734   4.133   3.004   8.936 -0.5234  1.4883  0.8679
 7700SOL     OW34735   2.495   4.158   3.540 -0.4553 -0.0119  0.3448
 7700SOL    HW134736   2.540   4.196   3.464 -0.4209 -0.7808 -0.0237
 7700SOL    HW234737   2.561   4.100   3.578 -1.0870  0.6011  2.3821
 7701SOL     OW34738   2.874   4.733   5.768 -0.3622 -0.3937  0.4017
 7701SOL    HW134739   2.795   0.049   5.774 -1.1490 -1.2692 -2.1284
 7701SOL    HW234740   2.943   0.062   5.771 -0.8864  0.1302  0.6589
 7702SOL     OW34741   1.419   0.776   5.034  0.0338  0.1511 -0.2794
 7702SOL    HW134742   1.356   0.834   4.992 -0.6154 -1.5996 -1.7171
 7702SOL    HW234743   1.432   0.818   5.119  0.9248 -1.3685  0.3456
 7703SOL     OW34744   1.307   1.577   8.682  0.4554 -0.2353  0.3530
 7703SOL    HW134745   1.247   1.520   8.633 -0.4174  0.8527  0.1454
 7703SOL    HW234746   1.384   1.522   8.691 -0.5297 -1.6218  0.3045
 7704SOL     OW34747   3.543   1.692  16.790 -0.4496 -0.1523  0.7959
 7704SOL    HW134748   3.501   1.673  16.705  0.0071 -1.6584  0.9026
 7704SOL    HW234749   3.519   1.782  16.812  1.2238  0.1615  1.2941
 7705SOL     OW34750   2.745   4.626   3.399  0.4737 -0.0748  0.3212
 7705SOL    HW134751   2.736   4.697   3.336  0.2433  0.9803  1.5596
 7705SOL    HW234752   2.828   4.644   3.443  0.3607  1.0289  0.0666
 7706SOL     OW34753   3.058   1.886  13.484  0.0908 -0.0165  0.1968
 7706SOL    HW134754   2.984   1.827  13.495  0.6132 -0.6633  0.2025
 7706SOL    HW234755   3.067   1.897  13.390  0.5038 -0.6606  0.1638
 7707SOL     OW34756   1.434   2.542   0.324  0.0384  0.1558 -0.2978
 7707SOL    HW134757   1.466   2.627   0.294 -1.4105  0.4128 -1.0926
 7707SOL    HW234758   1.464   2.492   0.248 -0.0174 -3.9598  2.3647
 7708SOL     OW34759   0.246   2.879   5.270 -0.0775  0.1315 -0.0199
 7708SOL    HW134760   0.252   2.884   5.365  0.5143 -0.1926 -0.0433
 7708SOL    HW234761   0.217   2.789   5.255  1.0378 -0.3190  0.5300
 7709SOL     OW34762   1.591   2.348   6.826  0.5397  0.3236 -0.5673
 7709SOL    HW134763   1.623   2.406   6.757 -0.9500  1.5429 -0.2147
 7709SOL    HW234764   1.674   2.345   6.874  0.3356  1.2094 -0.1728
 7710SOL     OW34765   4.202   4.189  14.600 -0.1780  0.8324  0.3008
 7710SOL    HW134766   4.159   4.242  14.667 -0.2620  0.3658  0.6194
 7710SOL    HW234767   4.149   4.109  14.596  0.1634  0.5406  1.5750
 7711SOL     OW34768   2.853   1.188   7.831 -0.0480  0.3204  0.0560
 7711SOL    HW134769   2.939   1.229   7.838 -0.3898  0.5691  2.6535
 7711SOL    HW234770   2.846   1.137   7.911  1.5952  1.0451  0.6575
 7712SOL     OW34771   1.899   4.360   3.399 -0.2094 -0.2269  0.0240
 7712SOL    HW134772   1.865   4.389   3.314  0.2005 -0.2338 -0.1447
 7712SOL    HW234773   1.921   4.272   3.368 -0.1721  0.7275 -2.6686
 7713SOL     OW34774   4.368   0.710  16.850  0.2263  0.2452 -0.1304
 7713SOL    HW134775   4.274   0.705  16.831  0.3807  4.6765 -2.0545
 7713SOL    HW234776   4.388   0.794  16.808 -1.3765  0.5112 -0.3485
 7714SOL     OW34777   3.463   1.394   6.308 -0.1499 -0.4608 -0.2550
 7714SOL    HW134778   3.498   1.464   6.364  0.9302  0.2194 -1.7722
 7714SOL    HW234779   3.477   1.429   6.220  2.6261  1.5196  0.9449
 7715SOL     OW34780   3.374   2.744   6.460  0.6893  0.1509  0.3925
 7715SOL    HW134781   3.373   2.692   6.540  1.2478 -3.1695 -1.7541
 7715SOL    HW234782   3.440   2.811   6.479  0.6409  0.7502 -1.4720
 7716SOL     OW34783   0.717   0.052   9.442  0.0317 -0.0566  0.2175
 7716SOL    HW134784   0.789   0.082   9.498  1.1969  0.8077 -1.7079
 7716SOL    HW234785   0.680   4.718   9.492  0.7492 -1.4961 -1.3135
 7717SOL     OW34786   3.051   4.322   5.225 -0.2128 -0.0742  0.0730
 7717SOL    HW134787   2.995   4.379   5.277  1.2619 -0.1695  1.7757
 7717SOL    HW234788   3.140   4.354   5.241  0.4357  0.0259 -3.6644
 7718SOL     OW34789   1.648   4.527  15.628 -0.2444  0.4458  0.5298
 7718SOL    HW134790   1.707   4.504  15.556 -0.9278  1.7114 -0.4402
 7718SOL    HW234791   1.606   4.442  15.641 -1.9121  0.9463 -1.5097
 7719SOL     OW34792   0.495   0.959   3.729  0.1846 -0.3247  0.1346
 7719SOL    HW134793   0.533   1.046   3.715 -0.0407 -0.3284 -0.4927
 7719SOL    HW234794   0.575   0.907   3.726  1.8247  2.2587 -1.0657
 7720SOL     OW34795   0.962   3.912   9.928 -0.3661  0.2369 -0.5095
 7720SOL    HW134796   0.976   3.868   9.844  1.7584 -0.0492  0.0072
 7720SOL    HW234797   1.012   3.992   9.913  0.8499 -0.8548 -2.1334
 7721SOL     OW34798   2.084   1.519   4.433  0.2511  0.0282 -0.3880
 7721SOL    HW134799   2.063   1.530   4.526 -1.4496  1.4674 -0.9367
 7721SOL    HW234800   2.077   1.612   4.410 -4.1613 -0.0773  0.4296
 7722SOL     OW34801   4.362   0.465  11.186  0.0951 -0.8467 -0.2834
 7722SOL    HW134802   4.294   0.483  11.121 -0.6053  0.1741  0.7245
 7722SOL    HW234803   4.436   0.518  11.158 -1.6533  0.2161 -2.8615
 7723SOL     OW34804   2.207   2.463  17.466 -0.5048  0.3620 -0.1481
 7723SOL    HW134805   2.281   2.448  17.407  0.0416  1.0561  0.3773
 7723SOL    HW234806   2.243   2.436  17.550  1.3024 -0.5688 -1.2247
 7724SOL     OW34807   4.282   0.742   3.086 -0.1802 -0.2926  0.1234
 7724SOL    HW134808   4.343   0.816   3.090  0.3693 -0.8290  1.7742
 7724SOL    HW234809   4.330   0.678   3.033 -0.8230 -1.7754  1.3305
 7725SOL     OW34810   1.049   1.022   3.282  0.1185 -0.6268 -0.1724
 7725SOL    HW134811   1.122   0.986   3.333 -1.5654 -0.0664  2.6963
 7725SOL    HW234812   1.101   1.083   3.230 -0.1489  1.7355  2.3159
 7726SOL     OW34813   0.358   4.617   3.835 -0.1849 -0.1733 -0.2220
 7726SOL    HW134814   0.414   4.588   3.763  1.0549  0.5334  0.4655
 7726SOL    HW234815   0.366   4.541   3.891 -1.8413 -0.9356 -1.0185
 7727SOL     OW34816   2.985   4.502   8.438 -0.2327  0.1507  0.3990
 7727SOL    HW134817   2.923   4.440   8.402 -1.3855  0.7515  1.3600
 7727SOL    HW234818   3.070   4.458   8.433 -1.9495 -3.2905  1.1389
 7728SOL     OW34819   4.515   1.636   6.717  0.0774 -0.0307  0.0659
 7728SOL    HW134820   4.506   1.557   6.770 -1.2818  0.1062  0.0403
 7728SOL    HW234821   4.555   1.603   6.636 -0.3395 -0.2352 -0.0606
 7729SOL     OW34822   3.304   0.594   3.467 -0.4380  0.1023  0.2101
 7729SOL    HW134823   3.392   0.611   3.433 -0.4163 -1.0592 -0.3035
 7729SOL    HW234824   3.263   0.680   3.459  0.8399  0.5559 -1.4974
 7730SOL     OW34825   1.706   3.555   7.706 -0.0055 -0.1700  0.1933
 7730SOL    HW134826   1.747   3.492   7.765  0.3120 -0.8734 -0.7827
 7730SOL    HW234827   1.775   3.622   7.704  0.2733 -0.3756  2.4825
 7731SOL     OW34828   3.614   3.277   2.844 -0.5125  0.8917 -0.7302
 7731SOL    HW134829   3.671   3.215   2.800 -1.2253 -0.6885  0.5645
 7731SOL    HW234830   3.521   3.255   2.833 -0.2592  1.1743 -3.4101
 7732SOL     OW34831   0.238   2.056   8.615  0.2796  0.5418 -0.5625
 7732SOL    HW134832   0.294   2.132   8.601  1.1221  0.1386  0.6752
 7732SOL    HW234833   0.305   1.997   8.649  0.7180  0.2972 -1.8495
 7733SOL     OW34834   4.711   3.540   8.867  0.4959 -0.0450  0.6254
 7733SOL    HW134835   4.697   3.575   8.954 -0.9714  0.1963  0.2936
 7733SOL    HW234836   4.675   3.452   8.882 -2.1550  0.8266 -0.6893
 7734SOL     OW34837   4.657   0.674   4.016  0.3278  0.1327  0.4781
 7734SOL    HW134838   4.632   0.611   4.083  1.5447  2.8233  3.4551
 7734SOL    HW234839   0.015   0.673   4.020  0.2352 -0.8637  2.4186
 7735SOL     OW34840   2.179   1.960   8.051 -0.0886 -0.1899  0.1414
 7735SOL    HW134841   2.131   1.988   7.973  0.1560  3.6531  1.3914
 7735SOL    HW234842   2.128   2.008   8.116 -1.5131 -1.0976 -0.2945
 7736SOL     OW34843   2.699   2.705   7.106 -0.3136 -0.0662  0.1444
 7736SOL    HW134844   2.698   2.701   7.201 -0.0794  1.2779  0.1975
 7736SOL    HW234845   2.657   2.790   7.100  0.6516  0.5454  2.1331
 7737SOL     OW34846   3.115   4.005   6.078 -0.4473 -0.3113  0.2919
 7737SOL    HW134847   3.070   4.088   6.088 -1.0069 -0.7866  1.6635
 7737SOL    HW234848   3.199   4.029   6.038 -0.4782 -1.6188 -0.5780
 7738SOL     OW34849   2.055   1.940   2.429 -0.1933  1.0261  0.5409
 7738SOL    HW134850   2.051   1.891   2.511  0.8720 -0.0576 -0.0531
 7738SOL    HW234851   1.971   1.911   2.394  0.6380  0.5743 -1.0445
 7739SOL     OW34852   3.939   0.199   6.582 -0.2908  0.4935 -0.3942
 7739SOL    HW134853   3.846   0.222   6.591 -0.6305 -0.9683 -0.2306
 7739SOL    HW234854   3.936   0.139   6.656  1.6833 -0.5351 -1.1686
 7740SOL     OW34855   4.255   3.298   9.839 -0.5568 -0.1567 -0.2177
 7740SOL    HW134856   4.160   3.309   9.826 -0.9966 -2.7670  0.9635
 7740SOL    HW234857   4.276   3.390   9.856  0.4668 -0.2276 -1.1404
 7741SOL     OW34858   2.618   2.848   9.070 -0.4025  0.4911  0.0392
 7741SOL    HW134859   2.532   2.811   9.051 -1.1887  0.3745  3.8305
 7741SOL    HW234860   2.662   2.826   8.988 -2.2630 -0.8298 -0.6143
 7742SOL     OW34861   2.643   0.878  12.524  0.5480  0.4428  0.3961
 7742SOL    HW134862   2.560   0.860  12.568  0.7530  2.5255  1.6506
 7742SOL    HW234863   2.670   0.792  12.494 -1.1867 -0.6188  1.8568
 7743SOL     OW34864   3.182   4.583   5.111  0.6464 -0.2391 -0.1396
 7743SOL    HW134865   3.201   4.501   5.068  4.0897  0.3655  0.2067
 7743SOL    HW234866   3.195   4.552   5.201 -4.0971 -2.1901 -0.1273
 7744SOL     OW34867   3.948   0.562  10.568 -0.5906  0.8915  0.0033
 7744SOL    HW134868   3.933   0.646  10.611 -0.9193 -0.3711  2.3360
 7744SOL    HW234869   3.954   0.591  10.477  0.6103  0.6414 -0.0045
 7745SOL     OW34870   2.135   1.102   2.610  0.2789 -0.1123  0.1234
 7745SOL    HW134871   2.146   1.195   2.593 -1.8222 -0.1839 -1.6371
 7745SOL    HW234872   2.073   1.105   2.683  0.6620  1.4037  0.3688
 7746SOL     OW34873   1.887   2.303   1.268 -0.0044  0.9799 -0.0156
 7746SOL    HW134874   1.911   2.309   1.361 -5.6816 -2.1048  1.6401
 7746SOL    HW234875   1.837   2.221   1.269  1.5211  0.0526  0.4066
 7747SOL     OW34876   1.093   2.819   8.451 -0.0341 -0.1046 -0.4429
 7747SOL    HW134877   1.134   2.904   8.432 -0.1533 -0.4124 -2.0506
 7747SOL    HW234878   1.161   2.755   8.430  0.6873  0.1142  1.2200
 7748SOL     OW34879   2.453   4.526  10.072 -0.1459  0.1798 -0.4234
 7748SOL    HW134880   2.467   4.593  10.005 -1.5208 -1.6091 -2.4883
 7748SOL    HW234881   2.524   4.466  10.051 -0.8425 -0.3888 -1.1670
 7749SOL     OW34882   3.065   1.021   1.422 -0.0450 -0.2358 -0.3143
 7749SOL    HW134883   2.989   0.998   1.477  1.0620 -1.8442  0.5583
 7749SOL    HW234884   3.051   0.959   1.350  1.0916 -0.7878 -0.0654
 7750SOL     OW34885   4.387   0.996   6.330  0.3544 -0.4144 -0.2846
 7750SOL    HW134886   4.423   1.024   6.414 -2.0009 -0.3566  0.7233
 7750SOL    HW234887   4.386   0.901   6.345 -1.4823 -0.3376  0.0945
 7751SOL     OW34888   4.027   1.492  12.824 -0.1302 -0.3978  0.1890
 7751SOL    HW134889   4.026   1.434  12.747  0.3209  1.9974 -1.6231
 7751SOL    HW234890   4.115   1.523  12.804 -0.7093  0.3538 -1.2588
 7752SOL     OW34891   4.010   1.512   8.823 -0.4478  0.3126  0.0460
 7752SOL    HW134892   4.040   1.458   8.750  1.5029  2.1355 -0.4950
 7752SOL    HW234893   3.920   1.485   8.839 -0.6361  1.6113  1.1503
 7753SOL     OW34894   3.181   2.699   2.315  0.0254  0.5583  0.3937
 7753SOL    HW134895   3.115   2.760   2.280 -0.6052 -0.9986 -1.1249
 7753SOL    HW234896   3.182   2.710   2.410  1.3933  2.2056  0.1900
 7754SOL     OW34897   0.502   1.201   4.967  0.4660  0.0205 -0.1056
 7754SOL    HW134898   0.421   1.151   4.969  0.3358  0.3344  1.9946
 7754SOL    HW234899   0.570   1.151   5.013 -0.0911 -0.7487 -0.1223
 7755SOL     OW34900   0.876   2.739   8.245  0.2924  0.9903 -0.5148
 7755SOL    HW134901   0.941   2.804   8.216  0.4461  0.4699 -1.3415
 7755SOL    HW234902   0.795   2.758   8.198 -0.1237 -0.0001 -0.1928
 7756SOL     OW34903   0.387   1.624   8.411  0.2704  0.3618  0.3435
 7756SOL    HW134904   0.396   1.698   8.351 -1.2108 -0.2712 -0.6719
 7756SOL    HW234905   0.384   1.551   8.349 -2.0048  1.8900 -1.3624
 7757SOL     OW34906   1.116   3.889   1.331 -0.0445 -0.3107  0.3202
 7757SOL    HW134907   1.160   3.946   1.269 -1.6749  1.8194  1.1282
 7757SOL    HW234908   1.072   3.827   1.272  3.0571 -1.0115 -1.2241
 7758SOL     OW34909   1.243   2.802   7.593 -0.5595 -0.0832 -0.0357
 7758SOL    HW134910   1.175   2.764   7.537 -3.9599  2.7253  2.2008
 7758SOL    HW234911   1.178   2.856   7.638 -1.3908 -2.3216  1.5172
 7759SOL     OW34912   0.208   4.313   3.401  0.1676 -0.0375  0.1974
 7759SOL    HW134913   0.171   4.360   3.475  1.0832 -0.4635  0.9266
 7759SOL    HW234914   0.175   4.224   3.414  0.6174 -0.1391  0.6068
 7760SOL     OW34915   3.964   0.005   7.186  0.3231  0.7116 -0.2467
 7760SOL    HW134916   3.964   0.004   7.090  1.1340 -1.1371 -0.2417
 7760SOL    HW234917   3.892   0.064   7.206  1.2058  1.4312  0.8417
 7761SOL     OW34918   1.754   1.989   0.836 -0.2604 -0.2093 -0.5619
 7761SOL    HW134919   1.836   1.980   0.884 -1.6218  0.1395  1.8139
 7761SOL    HW234920   1.771   1.969   0.744 -0.6093 -3.2776  0.0645
 7762SOL     OW34921   3.831   0.682  11.839  0.8937 -0.0935  0.2202
 7762SOL    HW134922   3.809   0.762  11.790  2.7165 -1.2291 -2.4988
 7762SOL    HW234923   3.743   0.671  11.875  0.2821  3.6930 -0.0214
 7763SOL     OW34924   1.462   1.907   1.395 -0.1526 -0.7480  0.0304
 7763SOL    HW134925   1.372   1.893   1.366  0.2471 -0.1534 -1.4770
 7763SOL    HW234926   1.493   1.972   1.332 -0.1051  0.3634  1.1743
 7764SOL     OW34927   3.387   1.833   8.081  0.4626 -0.1545 -0.2121
 7764SOL    HW134928   3.457   1.779   8.118  0.4130 -1.0007 -1.3534
 7764SOL    HW234929   3.341   1.769   8.026  0.6076  0.2395 -0.7917
 7765SOL     OW34930   2.495   0.939   4.918  0.4174 -0.0524 -0.1097
 7765SOL    HW134931   2.442   0.999   4.971 -1.8991 -0.4022 -2.0330
 7765SOL    HW234932   2.428   0.910   4.856  0.2501 -0.0264  0.0560
 7766SOL     OW34933   1.401   4.254  16.658  0.3603  0.2740 -0.2014
 7766SOL    HW134934   1.316   4.297  16.663  1.7448  3.1411 -1.1349
 7766SOL    HW234935   1.451   4.335  16.652  1.4595 -0.5020 -1.5433
 7767SOL     OW34936   1.947   0.190  12.839  0.7687 -0.1441  0.0421
 7767SOL    HW134937   1.953   0.230  12.752 -1.6032 -0.8236 -0.4436
 7767SOL    HW234938   1.852   0.177  12.849  0.5573  2.2801  1.2130
 7768SOL     OW34939   4.244   3.456   2.491  0.4354  0.1484  0.3370
 7768SOL    HW134940   4.257   3.527   2.555 -0.4165  1.6818 -1.1859
 7768SOL    HW234941   4.319   3.399   2.507  0.3256 -0.3058 -0.7634
 7769SOL     OW34942   4.076   4.690   5.039  0.0268  0.1166  0.5829
 7769SOL    HW134943   4.132   4.674   5.115 -0.0088 -3.0584 -0.0464
 7769SOL    HW234944   4.117   0.026   4.994 -0.8554 -0.4754 -1.2197
 7770SOL     OW34945   0.762   0.907  11.505 -0.5521 -0.4974 -0.6507
 7770SOL    HW134946   0.701   0.974  11.536  0.7700 -0.3943  1.7172
 7770SOL    HW234947   0.796   0.874  11.589 -1.7838  1.8861  0.7674
 7771SOL     OW34948   0.293   3.859  17.436  0.3934  0.2314  0.6946
 7771SOL    HW134949   0.232   3.922  17.397  0.6332  1.3962  2.1987
 7771SOL    HW234950   0.374   3.909  17.444 -0.6783  2.3440 -1.9542
 7772SOL     OW34951   0.862   4.303  14.566  0.2916 -0.6348  0.1647
 7772SOL    HW134952   0.791   4.347  14.611 -1.2703 -1.3075 -1.6370
 7772SOL    HW234953   0.814   4.276  14.487  2.8194  0.2289 -1.6825
 7773SOL     OW34954   1.146   2.807   3.762 -0.4240  0.2409 -0.1762
 7773SOL    HW134955   1.151   2.897   3.729 -2.7352  1.1728  1.9744
 7773SOL    HW234956   1.232   2.773   3.736 -1.1333 -0.9743 -0.8982
 7774SOL     OW34957   3.819   1.164   3.517  0.1914  0.0733  0.1311
 7774SOL    HW134958   3.867   1.090   3.479  2.2763  0.8555  1.2177
 7774SOL    HW234959   3.729   1.131   3.521  0.9478 -1.4237  4.3658
 7775SOL     OW34960   3.849   3.723   0.597 -0.4181  0.3705  0.3184
 7775SOL    HW134961   3.885   3.747   0.682 -1.9526  0.4508  0.9380
 7775SOL    HW234962   3.783   3.660   0.624 -0.0043  0.3189  1.2028
 7776SOL     OW34963   3.427   4.189   5.227  0.4498 -0.4287  0.1024
 7776SOL    HW134964   3.519   4.170   5.211  0.7035 -0.5005  1.6892
 7776SOL    HW234965   3.428   4.186   5.322 -0.2683 -1.2741  0.0915
 7777SOL     OW34966   3.127   0.791  16.193  0.3797  0.3687  0.2433
 7777SOL    HW134967   3.179   0.736  16.134  0.2956  0.8420 -0.2709
 7777SOL    HW234968   3.188   0.791  16.267 -1.8386 -0.9169  2.0764
 7778SOL     OW34969   4.664   2.428   8.593 -0.0671  0.6154  0.6621
 7778SOL    HW134970   4.707   2.343   8.587  1.9395  1.5820  1.4193
 7778SOL    HW234971   4.720   2.480   8.536  0.0293 -1.8117 -1.4487
 7779SOL     OW34972   4.281   3.575   9.037 -0.1333 -0.1945  0.4389
 7779SOL    HW134973   4.255   3.642   9.101 -0.6344  1.7440 -1.7805
 7779SOL    HW234974   4.219   3.604   8.970 -0.8612 -0.8579  0.8275
 7780SOL     OW34975   3.651   4.262   4.208 -0.0746 -0.3662  0.5274
 7780SOL    HW134976   3.707   4.340   4.213  0.6397 -0.9212  1.0325
 7780SOL    HW234977   3.710   4.205   4.158  1.4303  0.3991  1.4359
 7781SOL     OW34978   1.892   1.985   1.922 -0.2080 -0.3361  0.5062
 7781SOL    HW134979   1.915   1.953   1.835  2.6520  1.3476  0.6400
 7781SOL    HW234980   1.978   1.991   1.963 -0.7647  0.6662  1.5463
 7782SOL     OW34981   2.736   1.082   2.296  0.5189 -0.0268  0.0938
 7782SOL    HW134982   2.803   1.015   2.305  0.3719 -0.6291 -3.4434
 7782SOL    HW234983   2.657   1.039   2.329  1.0645 -2.5943 -2.0441
 7783SOL     OW34984   0.626   4.637  11.544  0.4496 -0.0642  0.0531
 7783SOL    HW134985   0.536   4.608  11.558  0.5240 -1.1714 -1.8357
 7783SOL    HW234986   0.625   4.636  11.448 -1.7879 -1.6723  0.0912
 7784SOL     OW34987   3.669   2.269  12.190 -0.3194  0.0353 -0.0877
 7784SOL    HW134988   3.761   2.258  12.166 -0.1522  2.3764 -0.5397
 7784SOL    HW234989   3.632   2.247  12.104  0.7267  1.4306 -0.9013
 7785SOL     OW34990   2.594   0.397   1.911 -0.0836  0.4753 -0.4654
 7785SOL    HW134991   2.549   0.384   1.995 -3.0531  0.8960 -2.0238
 7785SOL    HW234992   2.620   0.308   1.887 -1.7202 -0.1710  0.2304
 7786SOL     OW34993   0.917   1.215   0.238  0.5788  0.0255 -0.0830
 7786SOL    HW134994   0.993   1.231   0.295  1.5147 -2.4757 -0.5927
 7786SOL    HW234995   0.856   1.178   0.302  0.6767  2.8577  1.6502
 7787SOL     OW34996   1.419   2.724   0.881  0.0201  0.0147  0.1706
 7787SOL    HW134997   1.425   2.718   0.976  2.2930  2.0137  0.1602
 7787SOL    HW234998   1.509   2.753   0.863  0.1759 -0.3598  0.3458
 7788SOL     OW34999   2.912   4.645   4.665  0.3647 -0.4718 -0.2353
 7788SOL    HW135000   3.004   4.670   4.667 -0.1029  1.4200 -2.0458
 7788SOL    HW235001   2.922   4.556   4.630  0.8518  0.0477 -1.4049
 7789SOL     OW35002   4.149   1.159   0.571 -0.2485 -0.2991 -0.0426
 7789SOL    HW135003   4.239   1.178   0.595 -1.1748  2.8123  0.9446
 7789SOL    HW235004   4.122   1.240   0.526  0.6056  0.6383  1.1401
 7790SOL     OW35005   3.232   0.215  13.351 -0.7385 -0.0495  0.0777
 7790SOL    HW135006   3.245   0.276  13.422  0.9157  0.1217 -0.3762
 7790SOL    HW235007   3.140   0.189  13.346 -0.3434 -1.5526  0.5981
 7791SOL     OW35008   2.328   0.719  12.896  0.0772  0.4324 -0.7762
 7791SOL    HW135009   2.317   0.762  12.981 -1.0314  0.2938 -0.8609
 7791SOL    HW235010   2.249   0.665  12.893 -0.0845  0.5218  1.8912
 7792SOL     OW35011   1.011   2.545  15.745 -0.7088 -0.2092 -0.0411
 7792SOL    HW135012   0.968   2.460  15.748  0.4828 -0.8719 -1.3392
 7792SOL    HW235013   1.086   2.519  15.691 -0.8132  3.9022 -2.1907
 7793SOL     OW35014   2.223   1.019   5.365  0.0809  0.1309  0.3605
 7793SOL    HW135015   2.217   0.999   5.458 -0.8654  3.5085  1.0221
 7793SOL    HW235016   2.219   0.936   5.316  1.5405  0.6797 -0.6727
 7794SOL     OW35017   3.655   1.376   0.637  0.1379  0.1879  0.7746
 7794SOL    HW135018   3.573   1.425   0.645 -0.0161  0.6948 -3.6939
 7794SOL    HW235019   3.620   1.289   0.656 -1.1922  0.3475 -0.8827
 7795SOL     OW35020   0.779   3.064   6.748 -0.7338 -0.2136 -0.6260
 7795SOL    HW135021   0.763   3.007   6.673 -0.2126 -1.6882  0.3742
 7795SOL    HW235022   0.730   3.141   6.721 -3.3142 -2.1806 -1.5665
 7796SOL     OW35023   3.183   2.848  17.500 -0.3630 -0.3577 -0.2357
 7796SOL    HW135024   3.208   2.894  17.580 -3.6871  1.2245 -0.1411
 7796SOL    HW235025   3.268   2.855  17.455  0.5173  0.8344  1.5731
 7797SOL     OW35026   3.261   1.374   3.875  0.3744  0.2561  0.5887
 7797SOL    HW135027   3.353   1.400   3.869  0.7572 -1.5245 -1.4420
 7797SOL    HW235028   3.246   1.391   3.968  1.2759  0.7264  0.6463
 7798SOL     OW35029   0.214   3.085   4.789 -0.4352 -0.0522  0.0824
 7798SOL    HW135030   0.135   3.031   4.790 -0.4500 -0.0085  1.2626
 7798SOL    HW235031   0.278   3.037   4.841 -0.7138 -0.0966  0.3810
 7799SOL     OW35032   2.985   2.746   5.082  0.2535 -0.4339 -0.0551
 7799SOL    HW135033   3.034   2.677   5.037  1.7431  2.1119 -2.3913
 7799SOL    HW235034   3.038   2.767   5.159 -0.6729  0.2804  0.3834
 7800SOL     OW35035   3.542   3.997  12.965  0.1841  0.2592 -0.2724
 7800SOL    HW135036   3.593   3.930  13.010  1.4523  1.1145 -0.4541
 7800SOL    HW235037   3.504   4.049  13.035  0.3759  0.0050  0.0210
 7801SOL     OW35038   1.158   1.818   3.413 -0.1142 -0.2428 -0.1695
 7801SOL    HW135039   1.114   1.876   3.475 -0.0680 -1.9722  1.4675
 7801SOL    HW235040   1.194   1.756   3.477  3.7758  0.1510 -2.0205
 7802SOL     OW35041   1.968   2.480   4.123 -0.0626 -0.0468  0.0220
 7802SOL    HW135042   1.964   2.523   4.209  1.1263 -3.6470  1.8452
 7802SOL    HW235043   2.037   2.416   4.141  0.1533  0.2403  0.2283
 7803SOL     OW35044   3.386   2.339   6.519 -0.1531  0.3423 -0.1308
 7803SOL    HW135045   3.385   2.415   6.576 -1.1885 -0.0327  0.3548
 7803SOL    HW235046   3.296   2.332   6.485 -0.1941 -1.4067  0.3345
 7804SOL     OW35047   1.424   1.848   0.494 -0.4275  0.0382  0.0193
 7804SOL    HW135048   1.483   1.901   0.548  1.0101 -1.2526 -0.2667
 7804SOL    HW235049   1.389   1.791   0.562 -1.4885  1.1906  0.4480
 7805SOL     OW35050   0.356   2.869   0.160 -0.2554  0.0770  0.5000
 7805SOL    HW135051   0.442   2.890   0.124 -0.2811  1.5321  1.2870
 7805SOL    HW235052   0.353   2.910   0.247 -0.0883  1.0298  0.0486
 7806SOL     OW35053   1.388   1.960   5.560 -0.0233  0.1072 -0.5396
 7806SOL    HW135054   1.379   2.003   5.475  0.4502  1.2056 -0.0281
 7806SOL    HW235055   1.449   2.022   5.600  0.9289 -0.4284 -1.1514
 7807SOL     OW35056   1.758   3.357   7.064  0.2852 -0.6437  0.4188
 7807SOL    HW135057   1.672   3.398   7.057  1.0750  0.5306 -2.3410
 7807SOL    HW235058   1.802   3.419   7.122 -1.5679  1.9428 -0.9244
 7808SOL     OW35059   2.872   3.468  16.592  0.4401  0.1719  0.4822
 7808SOL    HW135060   2.890   3.558  16.564 -0.5494 -0.3048 -1.6954
 7808SOL    HW235061   2.940   3.412  16.555 -0.0049 -2.1417  3.1752
 7809SOL     OW35062   0.711   0.793   6.083 -0.2745 -0.0450  0.4118
 7809SOL    HW135063   0.750   0.729   6.144 -0.5796 -0.3856  0.2524
 7809SOL    HW235064   0.789   0.818   6.033 -0.8907  0.9071 -0.0525
 7810SOL     OW35065   0.030   1.482   5.457  0.0672  0.2624  0.2810
 7810SOL    HW135066   4.706   1.544   5.419  1.3440  2.3294  1.5600
 7810SOL    HW235067   4.738   1.467   5.546 -2.0714 -0.4685 -0.5793
 7811SOL     OW35068   0.514   0.760   8.452 -0.5923  0.5255  0.2525
 7811SOL    HW135069   0.547   0.726   8.369  0.7935  0.3335  0.8760
 7811SOL    HW235070   0.435   0.802   8.417 -2.0957 -1.4518  1.2891
 7812SOL     OW35071   0.553   3.043   5.191  0.4410 -0.2235  0.1646
 7812SOL    HW135072   0.624   2.981   5.176 -0.5457 -1.0566 -1.0699
 7812SOL    HW235073   0.527   3.057   5.100  0.9670 -1.4849 -0.1740
 7813SOL     OW35074   2.405   3.865  15.370 -0.4657 -0.1336 -0.0005
 7813SOL    HW135075   2.364   3.869  15.457  1.1825 -1.2188  0.8221
 7813SOL    HW235076   2.396   3.958  15.350 -2.6742 -0.1747  0.7228
 7814SOL     OW35077   3.590   4.113   1.989  0.0577 -1.0285 -0.0051
 7814SOL    HW135078   3.651   4.121   2.062 -0.3713  0.6980  0.1789
 7814SOL    HW235079   3.618   4.036   1.940  1.1675 -1.6036  1.5606
 7815SOL     OW35080   2.318   2.920  12.147 -0.0247  0.2098  0.2550
 7815SOL    HW135081   2.378   2.854  12.111  1.6083  1.6347  0.3562
 7815SOL    HW235082   2.330   2.994  12.088  0.2670  0.6968  0.9229
 7816SOL     OW35083   0.822   1.729   1.785  0.4479 -0.3619  0.1695
 7816SOL    HW135084   0.853   1.789   1.853 -1.5221  0.2024  0.5632
 7816SOL    HW235085   0.878   1.760   1.714 -1.1055 -0.8130 -1.2354
 7817SOL     OW35086   1.140   1.858  14.385 -0.0671 -0.7997  0.2748
 7817SOL    HW135087   1.175   1.791  14.444  0.4322 -0.9769 -0.2237
 7817SOL    HW235088   1.150   1.938  14.436 -1.6438 -1.4312  1.5834
 7818SOL     OW35089   3.730   0.777   5.353 -0.5426  0.1427 -0.2621
 7818SOL    HW135090   3.737   0.682   5.345 -2.6069  0.1202 -1.8410
 7818SOL    HW235091   3.673   0.791   5.278 -2.6174 -2.4994  0.8069
 7819SOL     OW35092   3.311   4.596   2.435 -0.2407 -0.1047 -0.2696
 7819SOL    HW135093   3.243   4.542   2.396 -1.6020 -0.4637  2.6272
 7819SOL    HW235094   3.326   4.557   2.521  0.8208  0.8154 -0.0356
 7820SOL     OW35095   0.154   3.835   2.423  0.2532  0.0558  0.0155
 7820SOL    HW135096   0.203   3.801   2.348  0.0078 -0.2251 -0.0160
 7820SOL    HW235097   0.134   3.921   2.386  2.0941  0.9172  1.0205
 7821SOL     OW35098   3.130   2.402  12.023 -0.3904 -0.1080  0.4256
 7821SOL    HW135099   3.151   2.358  12.105 -1.6453 -0.7038  0.4348
 7821SOL    HW235100   3.216   2.424  11.987 -0.6704  0.1421 -0.0937
 7822SOL     OW35101   2.903   4.578   4.934 -0.1032  0.1946  0.6021
 7822SOL    HW135102   2.892   4.600   4.842  0.0159  0.2253  0.5952
 7822SOL    HW235103   2.992   4.614   4.938  0.7342 -1.8210  0.1311
 7823SOL     OW35104   0.161   2.515   6.102  0.6759  0.6322  0.1238
 7823SOL    HW135105   0.138   2.607   6.094 -2.6828 -0.3080 -1.1088
 7823SOL    HW235106   0.256   2.509   6.105  0.6222 -0.7835 -1.0594
 7824SOL     OW35107   1.797   1.906   0.578 -0.1274  0.6286  0.1977
 7824SOL    HW135108   1.873   1.854   0.554 -2.3884 -1.7435 -1.8778
 7824SOL    HW235109   1.820   1.969   0.511  0.9286 -1.4860 -1.4220
 7825SOL     OW35110   4.080   4.716   3.245  0.3112 -0.8746 -0.0566
 7825SOL    HW135111   4.137   4.730   3.170 -1.9789 -2.6586 -2.1111
 7825SOL    HW235112   4.067   4.621   3.250 -0.5914 -0.7347  0.2387
 7826SOL     OW35113   2.196   0.019   1.885 -0.1354  0.7190  0.0733
 7826SOL    HW135114   2.222   0.042   1.974  0.1662  1.0461 -0.1004
 7826SOL    HW235115   2.139   4.681   1.895  0.5306  0.4006  1.4578
 7827SOL     OW35116   2.464   4.411   7.791  0.2176  0.5356  0.2150
 7827SOL    HW135117   2.489   4.489   7.841 -1.0810  0.3098  1.2380
 7827SOL    HW235118   2.458   4.342   7.857 -0.0751 -0.0287 -0.4090
 7828SOL     OW35119   4.243   4.021   2.039  0.3010  0.2094  0.2634
 7828SOL    HW135120   4.245   4.059   2.126 -3.7463 -1.4133  1.0906
 7828SOL    HW235121   4.210   3.935   2.068 -0.1792 -0.0099 -0.9354
 7829SOL     OW35122   4.428   4.679  14.899 -0.5970 -0.0339  0.1744
 7829SOL    HW135123   4.481   4.709  14.973 -2.9134  0.9307  1.4433
 7829SOL    HW235124   4.340   4.701  14.927 -1.0101  0.2913 -1.3752
 7830SOL     OW35125   2.574   3.127  13.043  0.0476 -0.3444  0.0557
 7830SOL    HW135126   2.553   3.063  13.112 -0.9409 -0.2583 -0.1696
 7830SOL    HW235127   2.498   3.113  12.987 -1.2260  0.7470  1.5154
 7831SOL     OW35128   3.753   4.081  13.562 -0.3772 -0.1017 -0.3954
 7831SOL    HW135129   3.764   4.128  13.479 -1.1257  0.6651 -0.0436
 7831SOL    HW235130   3.838   4.036  13.573  0.2161  0.4617 -2.6076
 7832SOL     OW35131   1.310   3.673   9.595 -0.5664 -0.7558 -0.1119
 7832SOL    HW135132   1.261   3.649   9.516 -1.9242 -1.3623  0.9284
 7832SOL    HW235133   1.344   3.588   9.622 -0.1431  0.0168  1.7394
 7833SOL     OW35134   0.011   0.662   4.623 -0.2399  0.1923  0.5164
 7833SOL    HW135135   0.037   0.651   4.532  1.0439 -0.4734  0.9630
 7833SOL    HW235136   4.722   0.753   4.617 -0.3447  0.2535  1.8010
 7834SOL     OW35137   1.757   1.461   2.001 -0.1360 -0.2818 -0.0438
 7834SOL    HW135138   1.822   1.390   1.997  0.0344 -0.0252 -1.7862
 7834SOL    HW235139   1.787   1.521   1.932 -1.7099  0.9175  0.3236
 7835SOL     OW35140   4.320   2.449   8.099  0.4140  0.4979  0.1808
 7835SOL    HW135141   4.230   2.423   8.116  0.6514 -0.4132  0.0691
 7835SOL    HW235142   4.354   2.359   8.104  0.5078  0.5346  0.2001
 7836SOL     OW35143   0.875   3.486  16.113  0.1225 -0.0108  0.4588
 7836SOL    HW135144   0.867   3.391  16.102 -0.8235  0.3235 -1.8592
 7836SOL    HW235145   0.882   3.504  16.019  0.8308  2.8246  1.0474
 7837SOL     OW35146   2.176   1.184   4.795  0.0649 -0.2768  0.2020
 7837SOL    HW135147   2.218   1.110   4.751 -1.0733 -0.8680  0.0954
 7837SOL    HW235148   2.097   1.142   4.830 -1.3971  0.8999 -1.6594
 7838SOL     OW35149   2.464   4.347   5.000 -0.0153 -0.3632  0.1823
 7838SOL    HW135150   2.458   4.431   4.955  0.7943 -1.3070 -1.6792
 7838SOL    HW235151   2.421   4.291   4.936  0.8970 -1.4620  0.5450
 7839SOL     OW35152   4.108   0.650  16.982  0.5932 -0.1490 -0.2212
 7839SOL    HW135153   4.172   0.590  17.020  1.1163  0.0922 -0.7331
 7839SOL    HW235154   4.041   0.645  17.051 -0.3362 -0.0401 -1.1154
 7840SOL     OW35155   4.684   4.088   7.243 -0.2383  0.5182 -0.2473
 7840SOL    HW135156   4.692   4.048   7.157  1.8336  0.2847  0.0641
 7840SOL    HW235157   4.735   4.165   7.220  2.3731 -1.6620 -1.7400
 7841SOL     OW35158   3.097   2.237   6.418 -0.5225  0.3320 -0.1429
 7841SOL    HW135159   3.086   2.297   6.344 -3.2282  1.5124  1.2108
 7841SOL    HW235160   3.030   2.265   6.480 -0.7934  1.0548 -0.7626
 7842SOL     OW35161   3.680   2.606   3.938 -0.6267 -0.2180 -0.4946
 7842SOL    HW135162   3.717   2.608   4.026 -0.9968 -1.2818 -0.3138
 7842SOL    HW235163   3.692   2.698   3.913 -2.0218  0.4828  1.4745
 7843SOL     OW35164   2.001   4.482   1.929 -0.0658  0.4765 -0.0342
 7843SOL    HW135165   1.967   4.476   1.839 -0.1339 -0.1734  0.0341
 7843SOL    HW235166   1.924   4.522   1.969 -0.1863  0.4573 -0.2447
 7844SOL     OW35167   3.336   3.917   8.683 -1.0027 -0.2545  0.1030
 7844SOL    HW135168   3.414   3.884   8.727  0.0686  0.1019 -1.5486
 7844SOL    HW235169   3.351   3.903   8.590 -1.3545 -1.4130  0.2173
 7845SOL     OW35170   0.899   0.741  12.062  0.7580 -0.2268  0.5640
 7845SOL    HW135171   0.880   0.667  12.119 -0.6375 -0.5893 -0.3605
 7845SOL    HW235172   0.963   0.699  12.004  1.2421  0.4002  0.6333
 7846SOL     OW35173   4.378   2.912   8.076  0.5815  0.4894  0.5724
 7846SOL    HW135174   4.295   2.933   8.119  0.8261 -0.1653  1.3562
 7846SOL    HW235175   4.406   3.002   8.067 -0.3239  0.8156  0.9840
 7847SOL     OW35176   0.935   4.492  11.990  0.2881 -0.4060 -0.1275
 7847SOL    HW135177   0.844   4.468  12.006 -0.0607  2.4325  2.0936
 7847SOL    HW235178   0.950   4.435  11.915  0.0278  1.6535 -1.7472
 7848SOL     OW35179   1.670   1.307  16.481  0.0552 -0.5187 -0.5536
 7848SOL    HW135180   1.634   1.276  16.564  2.2532 -1.9582 -0.1302
 7848SOL    HW235181   1.666   1.401  16.496  1.4220 -0.4911 -0.2956
 7849SOL     OW35182   1.471   1.360   4.711 -0.1806 -0.0702  0.5053
 7849SOL    HW135183   1.406   1.428   4.729  0.2037  0.5091 -0.2468
 7849SOL    HW235184   1.473   1.301   4.785  1.4856 -2.9913 -1.8667
 7850SOL     OW35185   0.327   4.033  16.213 -0.1312  0.2322  0.4237
 7850SOL    HW135186   0.370   3.963  16.261  0.8632 -0.1303 -0.9940
 7850SOL    HW235187   0.244   4.018  16.258  1.7068  0.0404  3.7189
 7851SOL     OW35188   2.906   4.529   5.357  0.2825 -0.0063  0.0616
 7851SOL    HW135189   2.823   4.566   5.325 -0.2724 -2.5482 -1.4307
 7851SOL    HW235190   2.946   4.596   5.412 -0.4506  0.4225  0.0813
 7852SOL     OW35191   2.443   3.767  13.871 -0.0580 -0.1692  0.8161
 7852SOL    HW135192   2.507   3.702  13.901  1.2800  1.1981  0.8902
 7852SOL    HW235193   2.488   3.801  13.794 -0.0752 -0.9380  0.4587
 7853SOL     OW35194   0.093   3.993   3.093  0.1578  0.4205 -0.0852
 7853SOL    HW135195   0.163   3.973   3.031  2.3782  0.3178  2.4069
 7853SOL    HW235196   0.090   4.088   3.108  0.2322  0.7577 -2.3056
 7854SOL     OW35197   3.581   4.600  15.303  0.3303 -0.4886 -0.1850
 7854SOL    HW135198   3.545   4.572  15.219 -1.1112  2.5119 -0.5740
 7854SOL    HW235199   3.572   4.695  15.295 -1.4773 -0.6899 -0.5093
 7855SOL     OW35200   4.233   3.157  11.422 -0.0730 -0.4019 -0.3122
 7855SOL    HW135201   4.225   3.215  11.498  1.2666 -0.3151 -0.2457
 7855SOL    HW235202   4.256   3.075  11.465  0.7375  0.6237  1.2416
 7856SOL     OW35203   3.790   4.696   8.268  0.7974 -0.2572 -0.0974
 7856SOL    HW135204   3.761   4.693   8.176  1.4510  2.0640 -0.3594
 7856SOL    HW235205   3.720   4.648   8.313  0.6862 -1.1063 -1.1651
 7857SOL     OW35206   2.241   3.795   4.233 -0.1795 -0.1145 -0.0782
 7857SOL    HW135207   2.319   3.741   4.238 -0.6310 -0.8151 -0.6686
 7857SOL    HW235208   2.203   3.807   4.321 -0.7945 -0.1173 -0.3434
 7858SOL     OW35209   1.321   0.626   2.191 -0.6728  0.2104  0.0107
 7858SOL    HW135210   1.342   0.712   2.226  0.7775 -0.1819  0.0850
 7858SOL    HW235211   1.356   0.630   2.102 -0.0544  2.6911  0.3706
 7859SOL     OW35212   0.341   3.088   6.892  0.1777 -0.0603 -0.1854
 7859SOL    HW135213   0.359   3.114   6.801  0.4497 -0.1328 -0.1524
 7859SOL    HW235214   0.246   3.080   6.887  0.1615 -0.1841  0.3907
 7860SOL     OW35215   2.517   4.199  14.810 -0.1745 -0.2653 -0.3902
 7860SOL    HW135216   2.457   4.233  14.744 -1.5516 -1.7477  0.0868
 7860SOL    HW235217   2.600   4.230  14.773 -0.3379  0.8511  0.1972
 7861SOL     OW35218   0.321   4.487   2.296  0.2041  0.3424 -0.2213
 7861SOL    HW135219   0.344   4.412   2.352 -1.4656 -0.3457 -0.4698
 7861SOL    HW235220   0.346   4.455   2.209 -1.5133 -0.6129 -0.3637
 7862SOL     OW35221   2.334   4.529   4.106 -0.2199  0.1954  0.5093
 7862SOL    HW135222   2.380   4.520   4.022  0.7116  0.0299  1.0442
 7862SOL    HW235223   2.305   4.620   4.105  0.9781  0.5853  1.5965
 7863SOL     OW35224   0.638   2.248   3.016 -0.0551 -0.0573 -0.0197
 7863SOL    HW135225   0.551   2.288   3.012  0.7459  1.8846  2.4133
 7863SOL    HW235226   0.617   2.164   2.975 -1.7349 -0.2240  1.1727
 7864SOL     OW35227   1.204   0.750   3.173  0.3608 -0.0276 -0.2259
 7864SOL    HW135228   1.160   0.787   3.097 -0.8299  0.9282  0.9108
 7864SOL    HW235229   1.295   0.766   3.150  0.2599  0.8905  0.0073
 7865SOL     OW35230   0.733   2.989   8.855  0.0755  0.4619  0.7035
 7865SOL    HW135231   0.718   2.916   8.915  1.0163 -0.0905  0.2716
 7865SOL    HW235232   0.680   3.061   8.889 -0.5617  0.4120 -0.1751
 7866SOL     OW35233   2.751   1.464   3.840 -0.7674 -0.0829 -0.7862
 7866SOL    HW135234   2.777   1.549   3.804  2.7891 -0.6095  0.5955
 7866SOL    HW235235   2.827   1.409   3.823  0.0024  1.1135 -1.1502
 7867SOL     OW35236   0.968   0.019   7.761  0.2512 -0.0441 -0.4663
 7867SOL    HW135237   0.984   4.703   7.838 -2.2311  1.6241  1.2185
 7867SOL    HW235238   1.031   0.087   7.787  1.2325 -1.3870  0.6510
 7868SOL     OW35239   3.701   1.067  16.204 -0.3301  0.5610 -0.1343
 7868SOL    HW135240   3.795   1.065  16.217 -0.1445 -0.0102 -1.5078
 7868SOL    HW235241   3.684   0.973  16.191  2.4614  0.2713 -1.7733
 7869SOL     OW35242   0.744   2.166   7.019 -0.2368 -0.9005  0.2635
 7869SOL    HW135243   0.678   2.107   7.056  0.4469 -3.2162 -2.2028
 7869SOL    HW235244   0.781   2.195   7.102  2.2780 -3.7725  0.1698
 7870SOL     OW35245   1.064   4.279   2.622 -0.2763  0.6271  0.5273
 7870SOL    HW135246   1.070   4.353   2.683 -0.1318  0.8924  0.1888
 7870SOL    HW235247   1.005   4.225   2.675 -0.6414 -1.2667 -1.8164
 7871SOL     OW35248   3.158   1.903   0.599 -0.1062 -0.4492 -0.1279
 7871SOL    HW135249   3.112   1.828   0.636  1.4374 -0.3350  1.9848
 7871SOL    HW235250   3.079   1.939   0.560  0.1544 -0.0427 -0.2887
 7872SOL     OW35251   3.461   3.460  13.940 -0.0814  0.2261  0.2574
 7872SOL    HW135252   3.463   3.517  13.863  1.1041  1.6174  1.3349
 7872SOL    HW235253   3.410   3.514  14.001 -2.5040  0.3924 -1.8867
 7873SOL     OW35254   1.439   3.050   9.597 -0.2561 -0.7072 -0.3668
 7873SOL    HW135255   1.374   3.090   9.540  1.2417  1.4934 -0.5697
 7873SOL    HW235256   1.496   3.127   9.604 -0.7374 -0.5322  1.7044
 7874SOL     OW35257   2.601   2.327  16.291  0.0060  0.1404  0.1373
 7874SOL    HW135258   2.612   2.392  16.221 -1.7472 -2.1983 -2.3270
 7874SOL    HW235259   2.560   2.381  16.359  1.8575  0.9072  0.6417
 7875SOL     OW35260   0.004   2.417   3.810  0.4440  0.1040  0.3064
 7875SOL    HW135261   0.050   2.351   3.861 -3.5028 -0.3260  3.2967
 7875SOL    HW235262   4.670   2.445   3.867  0.2181 -2.3141  1.2304
 7876SOL     OW35263   3.137   4.575   9.197 -0.3945 -0.4144  0.0534
 7876SOL    HW135264   3.226   4.552   9.222 -0.0614  0.5197 -0.2728
 7876SOL    HW235265   3.127   4.538   9.109 -2.2814 -0.5528  0.3294
 7877SOL     OW35266   2.578   4.185   3.151  0.4346 -0.4547 -0.0136
 7877SOL    HW135267   2.536   4.114   3.200  2.1151 -0.5636  1.2578
 7877SOL    HW235268   2.653   4.131   3.127 -0.0651 -0.3397 -1.8555
 7878SOL     OW35269   3.996   2.450  13.046  0.1200 -0.0039  0.1174
 7878SOL    HW135270   3.954   2.379  12.998  1.8360 -1.3648  0.6389
 7878SOL    HW235271   3.937   2.524  13.032 -0.0713 -0.1377  0.2031
 7879SOL     OW35272   4.169   3.343   7.759 -0.0942 -0.3271 -0.2078
 7879SOL    HW135273   4.179   3.405   7.831  0.7320 -0.4794 -0.1881
 7879SOL    HW235274   4.095   3.294   7.795 -1.3169  2.3757  1.0014
 7880SOL     OW35275   2.033   0.184  13.444 -0.3494 -1.0329 -0.1262
 7880SOL    HW135276   1.944   0.199  13.412 -1.4586 -1.9681  2.5761
 7880SOL    HW235277   2.069   0.263  13.486  0.5560 -2.1968  1.2998
 7881SOL     OW35278   1.997   0.329  13.070 -0.1936  0.7976  0.8689
 7881SOL    HW135279   2.015   0.277  12.993  1.2314 -0.3065  1.9580
 7881SOL    HW235280   1.902   0.321  13.081 -0.3364  0.2045 -0.9427
 7882SOL     OW35281   4.441   4.519   8.893  0.1357 -0.1336 -0.0805
 7882SOL    HW135282   4.531   4.528   8.924  0.6529  0.4677 -1.7433
 7882SOL    HW235283   4.457   4.566   8.811 -1.0312 -0.6236 -0.5984
 7883SOL     OW35284   1.545   2.333  12.768 -0.0976 -0.1949  0.7564
 7883SOL    HW135285   1.536   2.389  12.691 -1.9064 -0.8584  0.4903
 7883SOL    HW235286   1.637   2.308  12.757  1.1584  4.0856  1.3668
 7884SOL     OW35287   0.099   0.614   6.809 -0.0999  0.1267 -0.6366
 7884SOL    HW135288   0.018   0.569   6.785 -0.5853  1.0811 -0.8167
 7884SOL    HW235289   0.160   0.540   6.801 -1.1940 -0.8347 -0.0507
 7885SOL     OW35290   0.871   0.810   0.543 -0.2921  0.3677  0.1270
 7885SOL    HW135291   0.913   0.830   0.459 -1.6353  0.1626 -0.5917
 7885SOL    HW235292   0.864   0.896   0.585 -0.1405  1.1793 -1.4910
 7886SOL     OW35293   3.345   1.091  14.859  0.2947  0.2554 -0.0772
 7886SOL    HW135294   3.351   1.186  14.854 -0.4937  0.2582 -0.9372
 7886SOL    HW235295   3.346   1.069  14.952  0.5665  0.8637  0.0648
 7887SOL     OW35296   1.467   4.112   5.675  0.0817  0.0200  0.1846
 7887SOL    HW135297   1.424   4.169   5.738 -1.9929  0.2756 -1.4739
 7887SOL    HW235298   1.544   4.082   5.724  0.7058  2.8678  0.9314
 7888SOL     OW35299   4.164   0.144   9.211 -0.4103  0.2649 -0.9357
 7888SOL    HW135300   4.113   0.184   9.141  2.4218  2.0823 -1.9377
 7888SOL    HW235301   4.243   0.120   9.162 -0.8460 -1.0240 -0.9912
 7889SOL     OW35302   0.223   0.256  12.651  0.2405  0.0606 -0.2871
 7889SOL    HW135303   0.258   0.316  12.718 -0.4243  0.9158 -0.7009
 7889SOL    HW235304   0.156   0.314  12.615  0.3636 -0.0545 -0.6948
 7890SOL     OW35305   3.651   0.964   9.051 -0.3208  0.7664 -0.3953
 7890SOL    HW135306   3.583   0.994   9.111  0.0671  2.6721 -0.9177
 7890SOL    HW235307   3.721   0.959   9.115  0.5590  0.3948 -1.3918
 7891SOL     OW35308   1.448   3.900   3.811 -0.0532  0.3001  0.1830
 7891SOL    HW135309   1.488   3.984   3.790 -0.0982  0.6176  1.4000
 7891SOL    HW235310   1.493   3.833   3.759  2.4303  3.2149 -1.4213
 7892SOL     OW35311   1.555   1.097   7.983  0.1633 -0.1221 -0.4104
 7892SOL    HW135312   1.569   1.179   8.029  0.1945  1.2472 -2.8311
 7892SOL    HW235313   1.574   1.036   8.054 -2.3573 -1.1025 -0.5746
 7893SOL     OW35314   3.972   2.396   2.368 -0.2672  0.1305  0.0496
 7893SOL    HW135315   3.998   2.308   2.340  3.6660  1.7943 -1.4487
 7893SOL    HW235316   4.003   2.453   2.298 -0.0249 -2.1729 -1.7165
 7894SOL     OW35317   3.949   3.346   1.942  0.3779  0.3674 -0.6828
 7894SOL    HW135318   3.868   3.397   1.942  0.1021 -0.0662 -2.7209
 7894SOL    HW235319   3.995   3.383   1.867  0.6016  1.6005  0.0749
 7895SOL     OW35320   0.568   2.544   4.111 -0.6613  0.1030 -0.3805
 7895SOL    HW135321   0.495   2.587   4.065  0.9056  2.7351 -0.3801
 7895SOL    HW235322   0.633   2.613   4.100  1.0720 -1.6721 -1.1875
 7896SOL     OW35323   3.907   4.314   5.405 -0.1715 -0.6658  0.0152
 7896SOL    HW135324   3.972   4.350   5.345  0.3074  0.8643  1.4448
 7896SOL    HW235325   3.962   4.257   5.458  0.8495 -1.0712 -1.4731
 7897SOL     OW35326   4.103   3.224   5.201 -0.3992 -0.1282 -0.0048
 7897SOL    HW135327   4.110   3.222   5.106  0.4222 -0.1910  0.0564
 7897SOL    HW235328   4.016   3.187   5.217  0.3889 -1.5394  1.1310
 7898SOL     OW35329   1.967   4.214   7.320  0.0745  0.1070  0.7767
 7898SOL    HW135330   1.958   4.217   7.416 -2.0660  2.8698  0.5029
 7898SOL    HW235331   2.035   4.149   7.306 -1.4286 -1.4950  0.8161
 7899SOL     OW35332   4.222   0.495   7.342 -0.0722  0.0080 -0.3316
 7899SOL    HW135333   4.193   0.578   7.381 -1.9715 -0.8058  0.0122
 7899SOL    HW235334   4.295   0.524   7.288  1.1726 -1.0757  0.7334
 7900SOL     OW35335   3.412   3.190   1.614 -0.3015 -0.7719 -0.1859
 7900SOL    HW135336   3.484   3.246   1.586 -0.9469 -0.4302 -1.1545
 7900SOL    HW235337   3.389   3.224   1.700  0.3701 -1.0373  0.1008
 7901SOL     OW35338   3.859   1.399   5.998 -0.0874 -0.3825 -0.3537
 7901SOL    HW135339   3.918   1.472   5.979  0.0313 -0.2867  0.3662
 7901SOL    HW235340   3.911   1.328   5.960 -1.3157 -1.3446 -0.2585
 7902SOL     OW35341   1.733   3.996  11.638  0.1087 -0.0777 -0.2363
 7902SOL    HW135342   1.679   4.060  11.592  4.1637  1.3431 -3.0048
 7902SOL    HW235343   1.676   3.972  11.711 -0.0342 -0.5755 -0.5170
 7903SOL     OW35344   2.325   0.723   0.669 -0.3897 -0.1864  0.7293
 7903SOL    HW135345   2.301   0.667   0.743 -0.1156  0.5241  1.3713
 7903SOL    HW235346   2.237   0.753   0.648 -0.8244  0.8231  3.8680
 7904SOL     OW35347   1.227   1.445  17.269  0.3424 -0.3770 -0.9414
 7904SOL    HW135348   1.136   1.416  17.275 -0.1245  0.9682 -1.5752
 7904SOL    HW235349   1.254   1.448  17.361  0.4004  0.4946 -0.9909
 7905SOL     OW35350   3.076   3.031   2.346 -0.4667  0.1329  0.2987
 7905SOL    HW135351   3.022   3.005   2.421  0.5469 -3.1640 -0.1073
 7905SOL    HW235352   3.032   2.981   2.277 -1.1295 -0.4256  1.1149
 7906SOL     OW35353   1.724   2.260   2.353 -0.4998  0.0574 -0.0917
 7906SOL    HW135354   1.681   2.218   2.427  1.3181 -0.3332  0.7452
 7906SOL    HW235355   1.658   2.252   2.284  0.3654 -1.8446 -0.6970
 7907SOL     OW35356   3.909   3.898   5.766 -0.1373 -0.2592 -0.2616
 7907SOL    HW135357   3.892   3.888   5.860  2.0413  0.6934  0.2225
 7907SOL    HW235358   3.898   3.993   5.767 -1.2753 -0.4002  0.1952
 7908SOL     OW35359   3.235   1.965   1.961  0.4109  0.6448 -0.3234
 7908SOL    HW135360   3.142   1.944   1.971  0.8945 -1.2403  0.3169
 7908SOL    HW235361   3.249   1.913   1.882 -3.5104 -0.1513 -0.5222
 7909SOL     OW35362   2.277   2.439   7.901  0.2983  0.5591  0.2116
 7909SOL    HW135363   2.360   2.467   7.940 -0.1241  0.1665  1.3931
 7909SOL    HW235364   2.254   2.369   7.961  0.7437  0.1910 -0.0477
 7910SOL     OW35365   2.369   1.727   1.947  0.1354  0.0093  0.1840
 7910SOL    HW135366   2.353   1.638   1.980  0.7884 -0.8275 -1.7855
 7910SOL    HW235367   2.436   1.749   2.011  1.9738 -0.1260 -1.6974
 7911SOL     OW35368   1.735   3.875   9.443 -0.1277  0.6751 -0.1943
 7911SOL    HW135369   1.754   3.864   9.536  1.2147 -0.5833 -0.6195
 7911SOL    HW235370   1.641   3.859   9.452 -0.0688  0.1645 -0.4971
 7912SOL     OW35371   4.561   1.752   2.623  0.2984  0.3433  0.2524
 7912SOL    HW135372   4.525   1.833   2.659  1.7057  2.3230 -2.7759
 7912SOL    HW235373   4.565   1.694   2.699  0.5927 -3.1214 -2.3943
 7913SOL     OW35374   0.063   1.403   2.567 -0.7685 -0.2776  0.1213
 7913SOL    HW135375   4.731   1.340   2.548  0.2196 -1.4952  0.5478
 7913SOL    HW235376   0.116   1.359   2.633  0.5579  0.5678 -0.3719
 7914SOL     OW35377   4.328   1.831   7.422 -0.0105  0.3054  0.3416
 7914SOL    HW135378   4.350   1.806   7.512  4.6845  2.9104 -0.1023
 7914SOL    HW235379   4.233   1.839   7.428 -0.0589  0.7386 -0.9260
 7915SOL     OW35380   1.038   0.626  16.836 -0.0759  0.3117 -0.0711
 7915SOL    HW135381   1.041   0.633  16.931 -1.1187  3.1679 -0.2232
 7915SOL    HW235382   1.090   0.548  16.821 -2.8370 -1.3562 -1.0576
 7916SOL     OW35383   4.504   2.292   5.312  0.3049  0.4856  0.1491
 7916SOL    HW135384   4.592   2.323   5.335  1.3077 -1.6036 -0.8000
 7916SOL    HW235385   4.438   2.325   5.372  1.4407  0.9309  1.1529
 7917SOL     OW35386   2.576   1.500   4.066  0.0587  0.0106  0.2583
 7917SOL    HW135387   2.636   1.450   4.011  0.7857  2.1273 -0.8765
 7917SOL    HW235388   2.612   1.467   4.149  1.4026 -1.1237 -0.7772
 7918SOL     OW35389   0.355   0.219   1.454 -0.4182  0.2542 -0.4900
 7918SOL    HW135390   0.338   0.213   1.548 -1.4126 -1.0749 -0.7485
 7918SOL    HW235391   0.344   0.128   1.424 -3.8622 -0.4776  3.0043
 7919SOL     OW35392   1.458   3.831   2.411  0.0117  0.1234 -0.2868
 7919SOL    HW135393   1.467   3.850   2.317 -0.5018  1.3872 -0.0747
 7919SOL    HW235394   1.469   3.919   2.447  1.7208  0.1035 -0.7121
 7920SOL     OW35395   4.169   2.728   3.995  0.0126 -0.1001  0.2528
 7920SOL    HW135396   4.092   2.731   3.939  0.9040 -0.2478 -0.9927
 7920SOL    HW235397   4.244   2.757   3.942 -0.8647 -1.5481 -1.7531
 7921SOL     OW35398   1.036   1.306   0.833  0.2659  0.0691  0.2217
 7921SOL    HW135399   0.995   1.220   0.825 -0.1251  0.4414 -1.5883
 7921SOL    HW235400   1.074   1.298   0.921  0.4985  0.0827  0.1228
 7922SOL     OW35401   1.495   0.718  17.293 -0.5464 -1.0757 -0.5257
 7922SOL    HW135402   1.586   0.720  17.263 -1.0610 -4.6738 -2.3119
 7922SOL    HW235403   1.498   0.784  17.362 -0.2180 -0.9131 -0.6959
 7923SOL     OW35404   1.162   2.240   5.708 -0.4018 -0.1635  0.0300
 7923SOL    HW135405   1.224   2.306   5.677 -0.1255 -0.9477 -1.0825
 7923SOL    HW235406   1.085   2.267   5.659 -1.2564 -1.6403  0.5649
 7924SOL     OW35407   2.381   3.344  13.691 -0.4162 -0.2111 -0.2839
 7924SOL    HW135408   2.365   3.255  13.723  0.8070 -0.0340  0.8294
 7924SOL    HW235409   2.431   3.329  13.610  0.7322 -1.0293  0.5890
 7925SOL     OW35410   2.471   0.180  13.469 -0.1967 -0.1797 -0.0007
 7925SOL    HW135411   2.497   0.231  13.391 -1.0223 -0.4285 -0.4387
 7925SOL    HW235412   2.413   0.236  13.521 -1.2514 -1.7095  0.4526
 7926SOL     OW35413   1.032   1.704   2.638 -0.2731  0.2027 -0.0406
 7926SOL    HW135414   0.968   1.768   2.605  1.0386  0.7947 -1.3980
 7926SOL    HW235415   1.099   1.707   2.570 -1.8635 -2.0227 -1.6989
 7927SOL     OW35416   2.975   1.889  14.532 -0.1077  0.6734  0.7509
 7927SOL    HW135417   3.006   1.863  14.619  0.0841  0.1429  0.5201
 7927SOL    HW235418   3.061   1.890  14.491 -0.4630 -1.7501 -0.0724
 7928SOL     OW35419   4.665   1.591   3.429  0.0018 -0.2722  0.4277
 7928SOL    HW135420   0.008   1.641   3.439  0.4320 -1.0305  0.7020
 7928SOL    HW235421   4.696   1.524   3.369  0.4264 -0.5009  0.8995
 7929SOL     OW35422   2.138   3.171   8.802  1.1437 -0.1880 -0.1681
 7929SOL    HW135423   2.056   3.217   8.816  0.5960 -0.8932 -1.0963
 7929SOL    HW235424   2.162   3.190   8.711 -2.0292  0.1343 -0.9080
 7930SOL     OW35425   1.277   3.012  10.666  0.6181 -0.1207 -0.3052
 7930SOL    HW135426   1.364   3.011  10.707  0.9880  1.2178 -1.0374
 7930SOL    HW235427   1.300   3.094  10.622  1.2057  0.4201  1.0014
 7931SOL     OW35428   1.114   3.405   3.217  0.1079  0.1825 -0.5225
 7931SOL    HW135429   1.052   3.364   3.277  0.5887 -0.7352 -0.6443
 7931SOL    HW235430   1.111   3.496   3.244  0.7507 -0.2140  0.9154
 7932SOL     OW35431   4.642   1.066   7.549 -0.2585 -0.2748  0.2476
 7932SOL    HW135432   4.639   0.983   7.596  1.6351 -1.2618 -1.3487
 7932SOL    HW235433   4.659   1.118   7.627  0.3955 -0.2140  0.0613
 7933SOL     OW35434   0.285   4.305   4.329 -0.3994 -0.2306  0.4596
 7933SOL    HW135435   0.288   4.373   4.396 -0.9688  0.6296 -0.3912
 7933SOL    HW235436   0.353   4.249   4.367 -1.4058 -0.9818  1.1641
 7934SOL     OW35437   1.984   4.548   8.204  0.0771 -0.5270  0.1119
 7934SOL    HW135438   2.075   4.571   8.182 -0.0692 -0.3977 -0.3552
 7934SOL    HW235439   1.960   4.603   8.278 -1.9754 -1.1494 -0.0999
 7935SOL     OW35440   4.598   4.291   1.076 -0.1824  0.6469 -0.2368
 7935SOL    HW135441   4.580   4.384   1.080  0.8277  0.7325  2.8265
 7935SOL    HW235442   4.511   4.253   1.062  0.6146 -1.0136 -0.7141
 7936SOL     OW35443   2.839   1.451   8.037  0.2664 -0.1024  0.1318
 7936SOL    HW135444   2.754   1.423   8.004 -0.6766  2.1974  0.6139
 7936SOL    HW235445   2.811   1.483   8.123  2.8043  0.8761  0.6087
 7937SOL     OW35446   2.798   1.917   3.650  0.0092 -0.2997  0.2082
 7937SOL    HW135447   2.794   1.885   3.739  3.3791  2.1420  1.2406
 7937SOL    HW235448   2.874   1.869   3.616  0.3967  0.5292 -0.1037
 7938SOL     OW35449   0.956   2.242   0.072 -0.2046  0.5491 -0.4771
 7938SOL    HW135450   0.996   2.301   0.136  2.6781 -1.7921 -0.1173
 7938SOL    HW235451   1.039   2.196   0.068 -0.2553  0.4893 -0.8616
 7939SOL     OW35452   2.814   0.922   6.659  0.6614  0.2043  0.4075
 7939SOL    HW135453   2.857   0.842   6.629  0.8484  1.1135 -1.7148
 7939SOL    HW235454   2.888   0.976   6.687 -2.4861  3.5829  2.3147
 7940SOL     OW35455   1.567   2.822   2.124  0.2596 -0.1764 -0.0242
 7940SOL    HW135456   1.490   2.878   2.131 -0.0488 -0.7639  1.3856
 7940SOL    HW235457   1.531   2.734   2.119 -1.6946  0.5906  0.6209
 7941SOL     OW35458   2.924   2.028  13.279  0.0352  0.2437 -0.2477
 7941SOL    HW135459   2.986   2.086  13.236 -0.1858  1.5717  1.2123
 7941SOL    HW235460   2.842   2.072  13.255  0.0852  1.9113  2.5539
 7942SOL     OW35461   2.225   2.720   2.430  0.6615 -0.4830  0.0361
 7942SOL    HW135462   2.197   2.647   2.375 -0.4585 -0.4613  0.5809
 7942SOL    HW235463   2.300   2.686   2.479  0.6723 -0.5320 -0.0140
 7943SOL     OW35464   2.395   1.619   5.027  0.6643  0.4450 -0.5574
 7943SOL    HW135465   2.412   1.534   5.069  0.0988  0.5367 -0.1463
 7943SOL    HW235466   2.429   1.598   4.940 -0.5080 -0.9188 -0.6932
 7944SOL     OW35467   3.915   3.065  12.970 -0.5018 -0.3177  0.8975
 7944SOL    HW135468   3.842   3.084  12.912  1.1166  2.7339 -0.1726
 7944SOL    HW235469   3.910   3.145  13.023 -1.5720 -0.9549  1.7595
 7945SOL     OW35470   0.209   3.642  12.131 -0.1720 -0.2027  0.2174
 7945SOL    HW135471   0.147   3.695  12.082 -1.4136 -0.5435  1.4095
 7945SOL    HW235472   0.286   3.654  12.075  0.0846 -1.0200  0.4071
 7946SOL     OW35473   3.358   3.613   4.039 -0.0013  0.1645  0.5375
 7946SOL    HW135474   3.365   3.702   4.003 -2.7990  1.1861  2.5204
 7946SOL    HW235475   3.402   3.622   4.123 -0.0787  0.2768  0.5664
 7947SOL     OW35476   1.926   3.182  12.255  0.3970 -0.5376  0.0288
 7947SOL    HW135477   1.843   3.155  12.295 -0.0233 -0.6220 -0.8979
 7947SOL    HW235478   1.961   3.094  12.241 -0.7047 -1.5642  3.5671
 7948SOL     OW35479   2.043   2.272   5.525 -0.5467  0.3309  0.5589
 7948SOL    HW135480   2.031   2.332   5.598  0.8344 -1.5518  2.3224
 7948SOL    HW235481   2.011   2.320   5.449 -0.0419  0.2882  0.3174
 7949SOL     OW35482   4.258   3.221   1.962 -0.7127  0.5841 -0.2757
 7949SOL    HW135483   4.179   3.269   1.986 -0.5227 -0.4177  2.3740
 7949SOL    HW235484   4.254   3.236   1.867  0.4740 -1.4773 -0.6706
 7950SOL     OW35485   1.045   3.082   2.926  0.5866  0.5408  0.0431
 7950SOL    HW135486   1.137   3.078   2.950  1.2281 -0.1532 -2.5721
 7950SOL    HW235487   1.036   3.153   2.863  2.5683  0.3767 -0.3914
 7951SOL     OW35488   1.739   1.452   4.541  0.5508  0.0813  0.1356
 7951SOL    HW135489   1.694   1.526   4.581 -0.6187  0.6024 -2.1620
 7951SOL    HW235490   1.790   1.411   4.610 -0.8064 -0.1093  1.0276
 7952SOL     OW35491   2.188   1.662   9.904 -0.2340  0.5612  0.1258
 7952SOL    HW135492   2.127   1.590   9.891 -0.3470  1.1339 -2.5430
 7952SOL    HW235493   2.141   1.740   9.874 -2.0234 -0.9645 -1.0170
 7953SOL     OW35494   0.017   1.097   4.275  0.1587  0.3942  0.1539
 7953SOL    HW135495   0.098   1.064   4.235 -0.0327  0.8539 -0.6114
 7953SOL    HW235496   4.680   1.059   4.230 -0.1901  2.8854 -1.3842
 7954SOL     OW35497   3.751   2.436  11.016  0.2824 -0.3840  0.2228
 7954SOL    HW135498   3.731   2.429  11.110  1.6153 -0.3343  0.5141
 7954SOL    HW235499   3.821   2.372  11.007  0.0715 -0.5172 -0.4159
 7955SOL     OW35500   3.259   2.453  14.606  0.0720  0.1323  0.2237
 7955SOL    HW135501   3.310   2.491  14.535 -0.2250  1.3580  0.6651
 7955SOL    HW235502   3.331   2.412  14.654 -0.6189  1.2064  2.1966
 7956SOL     OW35503   1.664   1.186   4.476  0.0853  0.5287 -0.0267
 7956SOL    HW135504   1.644   1.273   4.512 -2.8768 -0.9143  1.8595
 7956SOL    HW235505   1.600   1.176   4.405  1.1235  2.9580 -1.3210
 7957SOL     OW35506   3.701   1.192   6.306 -0.1234  0.0412  0.3808
 7957SOL    HW135507   3.659   1.133   6.243 -1.9241  0.9976  0.6794
 7957SOL    HW235508   3.625   1.248   6.320 -0.7816 -1.0470  1.2338
 7958SOL     OW35509   0.897   0.690  15.614  0.0723  0.1634  0.2104
 7958SOL    HW135510   0.884   0.728  15.700 -2.1514  0.4158 -0.2407
 7958SOL    HW235511   0.986   0.718  15.591  0.1987  2.0166  3.0705
 7959SOL     OW35512   1.304   1.840  11.528  0.6038  0.2754 -0.2384
 7959SOL    HW135513   1.369   1.785  11.484 -0.1686 -1.5613  0.8938
 7959SOL    HW235514   1.343   1.926  11.543 -0.6957  1.2815 -2.6554
 7960SOL     OW35515   4.681   0.900   4.973  0.3081  0.3377  0.3607
 7960SOL    HW135516   4.625   0.955   4.918 -1.5116  0.1204  2.0207
 7960SOL    HW235517   4.632   0.914   5.054 -0.8355  1.0841 -0.4647
 7961SOL     OW35518   0.440   0.125   2.672  0.0039 -0.2771 -0.0269
 7961SOL    HW135519   0.517   0.174   2.643 -1.0343  1.3245 -0.0869
 7961SOL    HW235520   0.440   0.126   2.767  1.3125 -0.3263 -0.0365
 7962SOL     OW35521   3.347   0.977   0.686 -0.1716 -0.6219 -0.3148
 7962SOL    HW135522   3.257   0.950   0.706 -0.6272  0.5871 -0.7528
 7962SOL    HW235523   3.358   0.949   0.595 -0.2256  0.9858 -0.8197
 7963SOL     OW35524   3.620   4.703   9.327 -0.2439 -0.4086 -0.0361
 7963SOL    HW135525   3.639   0.023   9.401  0.3573 -3.1915  1.9931
 7963SOL    HW235526   3.600   0.029   9.259 -4.8266 -0.1551  1.5600
 7964SOL     OW35527   1.564   0.698   8.752  0.2470  0.8675 -0.0660
 7964SOL    HW135528   1.508   0.623   8.730  0.3914  0.7642 -0.0833
 7964SOL    HW235529   1.537   0.772   8.697  1.2573  1.2589 -0.0299
 7965SOL     OW35530   1.210   3.187  11.511 -0.6323  0.7069  0.3869
 7965SOL    HW135531   1.189   3.178  11.604 -0.4059 -1.2532  0.2485
 7965SOL    HW235532   1.239   3.104  11.473 -0.9779  1.1193 -0.7721
 7966SOL     OW35533   0.998   0.536   8.548 -0.2702  0.7721  0.0458
 7966SOL    HW135534   1.008   0.538   8.453 -1.2408 -0.8196 -0.0914
 7966SOL    HW235535   0.954   0.452   8.563  4.1272 -1.8176 -1.7806
 7967SOL     OW35536   2.223   0.776   9.495 -0.2645  0.0583  0.4972
 7967SOL    HW135537   2.317   0.786   9.479 -0.3577 -0.0122 -0.0784
 7967SOL    HW235538   2.221   0.715   9.568 -1.0554  1.1631  1.4040
 7968SOL     OW35539   3.199   1.043   4.122 -0.3039  0.6273 -0.4455
 7968SOL    HW135540   3.248   1.097   4.060 -1.7194  0.6234 -1.5837
 7968SOL    HW235541   3.109   1.071   4.108 -0.4346  1.5800  2.3399
 7969SOL     OW35542   4.395   1.881   5.066  0.0290 -0.6775 -0.5911
 7969SOL    HW135543   4.333   1.935   5.115 -0.4456 -1.6623 -0.1056
 7969SOL    HW235544   4.336   1.805   5.059 -0.3412 -0.6754  2.4842
 7970SOL     OW35545   1.227   3.427   2.500  0.4399  0.5146  0.3048
 7970SOL    HW135546   1.309   3.443   2.546  0.4445 -0.1768  0.5405
 7970SOL    HW235547   1.245   3.337   2.474  0.0055  0.4083  0.3679
 7971SOL     OW35548   3.800   3.424   2.499 -0.2356 -0.2901  0.2411
 7971SOL    HW135549   3.874   3.364   2.506 -0.3116 -0.3039  0.9516
 7971SOL    HW235550   3.793   3.456   2.589 -1.2851 -0.3153  0.1655
 7972SOL     OW35551   0.045   3.395  16.873  0.2232  0.3902  0.6288
 7972SOL    HW135552   0.003   3.324  16.921 -1.0386  0.1931 -0.7617
 7972SOL    HW235553   0.048   3.375  16.779 -1.4233 -2.1774  1.1284
 7973SOL     OW35554   4.238   1.992   3.545 -0.4103 -0.0320 -0.5460
 7973SOL    HW135555   4.170   1.924   3.544 -0.0678 -0.3696 -0.9310
 7973SOL    HW235556   4.191   2.063   3.591 -0.0490 -1.2228  1.6714
 7974SOL     OW35557   0.468   1.938   3.148  0.2920 -0.2451  0.3423
 7974SOL    HW135558   0.442   2.023   3.184 -0.4891 -0.6252  0.6899
 7974SOL    HW235559   0.530   1.920   3.218  0.2709 -1.3437  0.0719
 7975SOL     OW35560   4.648   4.022   4.385  0.3383  0.0566  0.8864
 7975SOL    HW135561   4.683   3.934   4.393  0.6512  0.0924 -0.0401
 7975SOL    HW235562   4.643   4.016   4.289 -0.9784 -1.2949  1.0391
 7976SOL     OW35563   2.895   4.279   4.982 -0.2596  0.2067  0.0993
 7976SOL    HW135564   2.907   4.267   5.077 -1.4684 -0.9463  0.1120
 7976SOL    HW235565   2.890   4.374   4.972 -0.9177  0.1482 -0.1057
 7977SOL     OW35566   0.133   0.912   7.400  0.2970 -0.0712  0.3558
 7977SOL    HW135567   0.093   0.988   7.358 -0.1196 -1.0233 -0.9702
 7977SOL    HW235568   0.108   0.935   7.489  0.7046  0.9427  0.2100
 7978SOL     OW35569   0.809   1.157   8.441  0.5132  0.2683  0.2392
 7978SOL    HW135570   0.762   1.128   8.519 -1.5541 -0.7855 -1.3930
 7978SOL    HW235571   0.900   1.146   8.469  1.0011  2.9896 -0.2825
 7979SOL     OW35572   2.027   1.725   1.543  0.2182  0.4637 -0.4581
 7979SOL    HW135573   1.993   1.768   1.464 -2.4288  2.4722  1.7894
 7979SOL    HW235574   2.025   1.805   1.595 -1.2725 -0.3196  0.6914
 7980SOL     OW35575   0.803   1.965   4.443  0.1867  0.2145 -0.7003
 7980SOL    HW135576   0.824   1.876   4.472 -0.7634 -0.0451 -0.8115
 7980SOL    HW235577   0.792   1.960   4.348 -0.9867 -1.6893 -0.4594
 7981SOL     OW35578   0.606   4.159   8.168 -0.0802 -0.0048  0.4802
 7981SOL    HW135579   0.645   4.094   8.227  0.7681 -0.7451 -0.8909
 7981SOL    HW235580   0.521   4.117   8.153 -0.8610  0.3812  3.8350
 7982SOL     OW35581   0.686   0.796   0.989 -0.3324 -0.3137 -0.2474
 7982SOL    HW135582   0.593   0.792   1.009  0.0781 -2.2351  1.3532
 7982SOL    HW235583   0.678   0.837   0.904  1.6104 -0.5588 -0.5533
 7983SOL     OW35584   4.565   4.329   1.662 -0.5704 -0.1126 -0.2455
 7983SOL    HW135585   4.578   4.423   1.668 -0.5707 -0.0036 -1.9427
 7983SOL    HW235586   4.647   4.307   1.618 -1.5816 -0.4254 -1.9713
 7984SOL     OW35587   3.746   1.342   9.385 -0.7165  0.1601 -0.1159
 7984SOL    HW135588   3.673   1.362   9.444 -0.6109  0.6548 -0.1536
 7984SOL    HW235589   3.723   1.251   9.365 -3.5011  0.6729  0.7086
 7985SOL     OW35590   0.203   3.506   5.241  0.2415 -0.4236  0.7991
 7985SOL    HW135591   0.129   3.517   5.302  1.8708  0.3054  2.6324
 7985SOL    HW235592   0.225   3.417   5.268 -0.7238 -1.3368 -1.4058
 7986SOL     OW35593   4.614   2.126  15.149 -0.1672  0.0755 -0.7345
 7986SOL    HW135594   4.650   2.203  15.105  2.0947  0.3980  1.6785
 7986SOL    HW235595   4.630   2.147  15.241  0.8693 -1.4213 -0.5847
 7987SOL     OW35596   0.980   3.326  12.586  0.1615  0.2126 -0.4319
 7987SOL    HW135597   1.036   3.314  12.509 -2.0454  2.9642 -2.4635
 7987SOL    HW235598   1.059   3.347  12.635 -0.9479 -0.8019  1.8365
 7988SOL     OW35599   4.282   4.274   8.069 -0.1748 -0.0575  0.5547
 7988SOL    HW135600   4.311   4.195   8.115 -1.5390 -0.4843  0.6646
 7988SOL    HW235601   4.334   4.254   7.991  1.3342 -1.7250  1.9674
 7989SOL     OW35602   3.845   3.197   1.352  0.1533 -0.0797 -0.5202
 7989SOL    HW135603   3.906   3.269   1.336 -0.0310  0.6822  2.2622
 7989SOL    HW235604   3.894   3.149   1.419 -1.5642 -0.7021  0.2880
 7990SOL     OW35605   0.469   2.529   6.685 -0.4114  0.1183 -0.1064
 7990SOL    HW135606   0.550   2.489   6.717  0.2114  2.2328  0.9853
 7990SOL    HW235607   0.409   2.456   6.698 -0.5448 -0.1836 -2.4159
 7991SOL     OW35608   1.687   2.315   8.813  0.4565  0.0601 -0.1560
 7991SOL    HW135609   1.653   2.298   8.725  0.4670 -0.7024 -0.0105
 7991SOL    HW235610   1.656   2.241   8.865 -3.3349  1.5689 -0.3197
 7992SOL     OW35611   0.323   3.735   4.109  0.7359  0.4538  0.4099
 7992SOL    HW135612   0.401   3.765   4.062  1.3725 -1.6221  0.1513
 7992SOL    HW235613   0.262   3.720   4.036 -1.9788 -0.1471  2.8268
 7993SOL     OW35614   1.215   2.608   0.489  0.4851  0.2860 -0.6539
 7993SOL    HW135615   1.149   2.544   0.516 -0.3079  1.2117 -0.4146
 7993SOL    HW235616   1.287   2.549   0.465 -1.3344 -2.6424  1.1263
 7994SOL     OW35617   4.088   0.516   2.746 -0.4051 -0.5570  0.7467
 7994SOL    HW135618   4.183   0.515   2.733 -0.5917  1.1116 -0.6997
 7994SOL    HW235619   4.055   0.602   2.722 -0.0564 -0.7392 -0.3787
 7995SOL     OW35620   0.197   2.067   7.765  0.2116 -0.2416 -0.3588
 7995SOL    HW135621   0.256   2.005   7.806 -0.9526 -0.0020  1.6659
 7995SOL    HW235622   0.114   2.040   7.805 -0.7542  0.4365 -1.8858
 7996SOL     OW35623   1.880   1.631  14.789  0.2845  0.1959  0.1307
 7996SOL    HW135624   1.945   1.562  14.791  1.5524  1.3426 -1.4458
 7996SOL    HW235625   1.859   1.628  14.696 -2.1398  0.8656  0.6581
 7997SOL     OW35626   1.535   0.781   3.147 -0.5072  0.1488 -0.0751
 7997SOL    HW135627   1.586   0.708   3.111  0.5665 -0.3853  2.4871
 7997SOL    HW235628   1.542   0.779   3.242 -0.6963  1.5241 -0.0318
 7998SOL     OW35629   0.138   2.817  12.063  0.0836 -0.0272 -0.3556
 7998SOL    HW135630   0.120   2.907  12.090  1.6010  0.2341 -0.2600
 7998SOL    HW235631   0.048   2.783  12.063  0.1509 -0.2042  1.0906
 7999SOL     OW35632   3.268   3.917   5.344  0.3600 -0.1615 -0.0607
 7999SOL    HW135633   3.242   4.007   5.365  2.4677  0.4665 -0.1302
 7999SOL    HW235634   3.293   3.921   5.252 -1.0397 -3.0434 -0.5612
 8000SOL     OW35635   3.455   3.152   0.555  0.2600 -0.5198 -0.2325
 8000SOL    HW135636   3.517   3.199   0.610  0.3553 -1.5495  0.5310
 8000SOL    HW235637   3.493   3.161   0.468 -2.2952  1.8639 -1.1325
 8001SOL     OW35638   1.236   0.394  13.343 -0.7678  0.2028  0.1431
 8001SOL    HW135639   1.180   0.466  13.370 -1.8399  0.1828 -2.0687
 8001SOL    HW235640   1.184   0.319  13.373  0.5977 -0.2052  1.5294
 8002SOL     OW35641   0.708   3.098   1.551 -0.1333 -0.3063  0.0927
 8002SOL    HW135642   0.674   3.127   1.466 -1.4251  3.0423  1.7682
 8002SOL    HW235643   0.637   3.097   1.614 -0.5289 -2.8675 -0.3744
 8003SOL     OW35644   1.679   3.245   9.593 -0.5058 -0.3667  0.4201
 8003SOL    HW135645   1.730   3.289   9.660  0.4930 -1.4829  0.3881
 8003SOL    HW235646   1.734   3.263   9.517  0.9650 -3.3587  0.7953
 8004SOL     OW35647   2.086   0.723   2.067  0.1662  0.1325  0.2128
 8004SOL    HW135648   2.099   0.741   2.160  0.5592  0.2912  0.1270
 8004SOL    HW235649   2.168   0.677   2.045 -0.0862 -0.3620  0.3135
 8005SOL     OW35650   4.681   4.375   9.043 -0.2525 -0.1959 -0.2215
 8005SOL    HW135651   0.010   4.361   8.976 -0.9173 -2.9773 -0.2929
 8005SOL    HW235652   4.642   4.289   9.029  1.4185 -0.7574 -1.4881
 8006SOL     OW35653   0.298   4.702   1.667  0.3823 -0.2210  0.0663
 8006SOL    HW135654   0.321   4.693   1.759  0.0289 -0.7958  0.1017
 8006SOL    HW235655   0.343   4.623   1.636 -2.0107 -1.9905  1.0989
 8007SOL     OW35656   2.959   2.952  10.234  0.5314 -0.1987 -0.5111
 8007SOL    HW135657   2.972   3.039  10.198 -0.2745  0.7873  1.5512
 8007SOL    HW235658   2.931   2.910  10.153  2.1287  0.2133 -1.2713
 8008SOL     OW35659   4.429   4.003   1.738  0.8322  0.2653  0.2453
 8008SOL    HW135660   4.444   4.070   1.805 -0.7437 -0.0392  0.9052
 8008SOL    HW235661   4.411   4.049   1.656 -3.3527  1.1788  1.6983
 8009SOL     OW35662   2.580   4.624  14.400 -0.7812 -0.2752 -0.0031
 8009SOL    HW135663   2.489   4.616  14.372 -0.6959 -2.9280  0.4391
 8009SOL    HW235664   2.604   4.532  14.415  4.0591  1.3406  2.4240
 8010SOL     OW35665   0.144   1.003   7.710 -0.8273  0.2848  0.1608
 8010SOL    HW135666   0.103   1.041   7.788 -0.4350  0.1385  0.4417
 8010SOL    HW235667   0.138   0.910   7.731 -0.8949  0.3434  0.4019
 8011SOL     OW35668   4.526   2.118   8.382 -0.0795 -0.0221  0.3058
 8011SOL    HW135669   4.493   2.029   8.394  0.7620 -0.4502 -0.6100
 8011SOL    HW235670   4.550   2.136   8.473 -0.7345  0.6859  0.3424
 8012SOL     OW35671   2.934   3.459  10.755 -0.0883  0.2296  0.6911
 8012SOL    HW135672   2.869   3.415  10.810 -0.0597  0.5764  1.0027
 8012SOL    HW235673   2.946   3.540  10.806  0.2419  0.0476  0.9061
 8013SOL     OW35674   2.965   1.881   2.058  0.0638 -0.1283  0.3273
 8013SOL    HW135675   3.014   1.800   2.044  0.1700 -0.2243  1.2578
 8013SOL    HW235676   2.930   1.866   2.145  1.6250  1.2825  1.2056
 8014SOL     OW35677   3.092   3.355   0.067 -0.0277  0.6374  1.1583
 8014SOL    HW135678   3.006   3.315   0.058  0.9751 -1.2994  0.0407
 8014SOL    HW235679   3.130   3.335  17.731 -1.3148  0.2153  0.6857
 8015SOL     OW35680   1.211   0.693  14.670  0.1890  0.1042  0.1167
 8015SOL    HW135681   1.194   0.704  14.576  0.7309  1.1152  0.1330
 8015SOL    HW235682   1.172   0.607  14.687 -0.4630  0.5036  0.6179
 8016SOL     OW35683   3.101   2.320   6.842  0.9784  0.4479 -0.3866
 8016SOL    HW135684   3.165   2.261   6.804  1.1271  0.3407  0.0324
 8016SOL    HW235685   3.035   2.258   6.874  1.5692 -0.1959 -0.4269
 8017SOL     OW35686   3.681   3.485   6.698  0.3762 -0.2986  0.2054
 8017SOL    HW135687   3.695   3.392   6.685  1.9180  0.2512 -2.0693
 8017SOL    HW235688   3.588   3.479   6.720  0.3637 -0.4021  0.1239
 8018SOL     OW35689   0.868   3.074   6.096 -0.0097 -0.2305 -0.1721
 8018SOL    HW135690   0.904   3.042   6.013 -0.7969 -0.1376 -0.5394
 8018SOL    HW235691   0.825   3.152   6.062  0.3654 -0.0037 -0.1335
 8019SOL     OW35692   2.336   1.928   1.745 -0.2730  0.2411  0.0211
 8019SOL    HW135693   2.385   1.860   1.790 -0.5708 -0.8550 -1.3107
 8019SOL    HW235694   2.354   2.001   1.805  0.0180 -0.6904  1.0558
 8020SOL     OW35695   3.932   0.472   4.611  0.8194  0.4723  0.2062
 8020SOL    HW135696   3.926   0.568   4.612  1.3299  0.5184 -0.7557
 8020SOL    HW235697   4.009   0.463   4.555  0.4753 -0.0663 -0.1845
 8021SOL     OW35698   2.347   0.082   4.880  0.0867 -0.9260 -0.3300
 8021SOL    HW135699   2.410   0.137   4.835 -1.6896  0.0252 -1.6677
 8021SOL    HW235700   2.320   0.161   4.928  1.3110  0.9368 -2.7745
 8022SOL     OW35701   3.180   0.009   5.484 -0.3060  0.1617  0.0139
 8022SOL    HW135702   3.146   4.717   5.400  0.5774 -1.1656  0.1412
 8022SOL    HW235703   3.205   0.100   5.471 -1.4930  0.6389  1.0732
 8023SOL     OW35704   4.192   3.333   8.791  0.1916  0.1701 -0.1008
 8023SOL    HW135705   4.195   3.419   8.749 -0.5023  0.8219  1.1850
 8023SOL    HW235706   4.106   3.345   8.831 -0.4788 -2.1366 -0.8579
 8024SOL     OW35707   2.513   2.540   1.319 -0.2925 -0.1314  0.3573
 8024SOL    HW135708   2.519   2.602   1.246 -1.7859  0.4350  0.7136
 8024SOL    HW235709   2.474   2.579   1.398  1.3265  1.4882  0.3551
 8025SOL     OW35710   3.396   2.338   4.574  0.3268 -0.2394  0.3826
 8025SOL    HW135711   3.450   2.301   4.644  1.1192 -2.6719 -1.5532
 8025SOL    HW235712   3.318   2.357   4.626  1.0003  0.9294  0.9658
 8026SOL     OW35713   0.422   4.549   0.236 -0.1048  0.3512  0.1424
 8026SOL    HW135714   0.446   4.548   0.144  0.1848  2.2157  0.1930
 8026SOL    HW235715   0.483   4.483   0.268  2.3034  2.8516  0.7427
 8027SOL     OW35716   1.958   3.634   0.965 -0.1980  0.3298  0.5436
 8027SOL    HW135717   1.873   3.678   0.970 -2.1961 -3.7029  1.7540
 8027SOL    HW235718   2.002   3.680   1.036  0.6378 -1.3811  1.1222
 8028SOL     OW35719   2.500   4.013   5.497 -0.0012  0.3663  0.2952
 8028SOL    HW135720   2.423   4.006   5.440  1.2425 -5.0682 -0.7345
 8028SOL    HW235721   2.457   4.051   5.573 -0.2209 -0.1382  0.4267
 8029SOL     OW35722   0.128   2.695   2.080  0.4476 -0.5444  0.2726
 8029SOL    HW135723   0.199   2.755   2.103 -0.0643  0.3713 -0.5331
 8029SOL    HW235724   0.128   2.695   1.984 -0.8264 -0.1003  0.2641
 8030SOL     OW35725   2.965   4.440  16.870 -0.3036  0.3033  0.8750
 8030SOL    HW135726   2.919   4.384  16.808 -2.0009  2.2498  0.3748
 8030SOL    HW235727   2.941   4.395  16.951  0.9760  2.2443  2.3465
 8031SOL     OW35728   0.715   2.259  10.707  0.3340  0.3088  0.1917
 8031SOL    HW135729   0.713   2.306  10.790  0.4254 -2.1530  1.5939
 8031SOL    HW235730   0.638   2.204  10.721 -1.1257  1.7773 -2.0865
 8032SOL     OW35731   1.864   2.889   7.705  0.1336  0.4654 -0.8019
 8032SOL    HW135732   1.800   2.960   7.703 -2.6011 -1.9893 -1.5751
 8032SOL    HW235733   1.814   2.821   7.752 -1.0985  1.8672 -0.0851
 8033SOL     OW35734   4.530   3.049   4.845 -0.3678 -0.8908  0.2098
 8033SOL    HW135735   4.540   3.084   4.756 -0.2507 -1.0345  0.1661
 8033SOL    HW235736   4.589   2.974   4.835  0.2067 -0.1958 -1.7846
 8034SOL     OW35737   0.854   3.148  15.737  0.2894  0.0315 -0.1607
 8034SOL    HW135738   0.861   3.143  15.642 -3.3367 -0.3271 -0.4267
 8034SOL    HW235739   0.760   3.130  15.739  0.4880 -1.1625 -1.6890
 8035SOL     OW35740   3.627   3.017   1.291  0.1088 -0.3765  0.8746
 8035SOL    HW135741   3.581   3.016   1.374 -0.4892 -4.1811  0.4723
 8035SOL    HW235742   3.675   3.099   1.306 -0.5077  0.0315  0.6233
 8036SOL     OW35743   3.524   1.448  10.572  0.4226  0.5424  0.3733
 8036SOL    HW135744   3.509   1.432  10.479 -1.7114  1.5740  0.5187
 8036SOL    HW235745   3.616   1.472  10.575  0.6348 -0.2144 -0.2607
 8037SOL     OW35746   4.022   2.011   8.395  0.2139  0.2573  0.4419
 8037SOL    HW135747   4.028   1.945   8.326  0.2671 -0.0263  0.7178
 8037SOL    HW235748   3.945   1.985   8.446 -0.1937 -0.9653 -0.8049
 8038SOL     OW35749   3.653   4.097   0.380 -0.0580 -0.5073 -0.1811
 8038SOL    HW135750   3.655   4.002   0.367  2.5327 -0.3438 -1.0191
 8038SOL    HW235751   3.694   4.129   0.300  0.8020 -0.0043  0.4559
 8039SOL     OW35752   4.506   3.986   2.874 -0.2293  0.3765 -0.3249
 8039SOL    HW135753   4.470   3.911   2.922  3.9774 -0.6559  1.1687
 8039SOL    HW235754   4.498   3.948   2.786  1.4703 -1.6398  0.3993
 8040SOL     OW35755   2.874   3.289   1.135  0.0713 -0.9141  0.5233
 8040SOL    HW135756   2.825   3.229   1.078  1.8611  0.2458 -2.2519
 8040SOL    HW235757   2.925   3.218   1.174 -0.9586 -1.8716  0.1442
 8041SOL     OW35758   4.079   0.779   8.181  0.0274 -0.6649 -0.1380
 8041SOL    HW135759   4.003   0.798   8.237  0.4224  2.1200 -0.5480
 8041SOL    HW235760   4.062   0.840   8.109 -0.8237  0.0846  0.6850
 8042SOL     OW35761   3.932   1.417   9.179 -0.9251 -0.1061  0.1605
 8042SOL    HW135762   3.858   1.413   9.118 -1.2609  1.4502  0.4654
 8042SOL    HW235763   3.880   1.393   9.256  0.6837 -0.2871  1.2076
 8043SOL     OW35764   2.973   4.665   8.152  0.2127 -0.0725  0.2461
 8043SOL    HW135765   2.900   4.699   8.204  0.6897  0.3741  0.6239
 8043SOL    HW235766   3.045   4.699   8.206 -1.0138 -0.0490  1.8505
 8044SOL     OW35767   4.149   0.676   2.328 -0.2683  0.3491 -0.2321
 8044SOL    HW135768   4.221   0.712   2.276 -1.7049  1.7573 -1.2514
 8044SOL    HW235769   4.185   0.678   2.417  2.9292  2.6933 -1.5620
 8045SOL     OW35770   3.802   0.862   3.302 -0.0454 -0.3228 -0.0315
 8045SOL    HW135771   3.736   0.833   3.240 -2.0734  1.1272  1.4607
 8045SOL    HW235772   3.859   0.787   3.320  2.2665  1.3430 -0.4853
 8046SOL     OW35773   2.579   3.980   8.229 -0.9936  0.2060 -0.3572
 8046SOL    HW135774   2.662   4.025   8.248 -0.3494 -0.3709 -1.7608
 8046SOL    HW235775   2.542   3.988   8.317 -1.8752 -0.5745 -0.6537
 8047SOL     OW35776   3.140   1.995   3.600 -0.4722  0.0884 -0.0599
 8047SOL    HW135777   3.195   1.925   3.634  2.4656  1.4468 -2.0060
 8047SOL    HW235778   3.180   2.066   3.651  0.9552 -0.8273  0.0876
 8048SOL     OW35779   3.814   1.693   7.910  0.4709 -0.5570 -0.0122
 8048SOL    HW135780   3.908   1.682   7.922  1.2545  1.0582 -4.4374
 8048SOL    HW235781   3.809   1.784   7.880  4.3064 -0.3546 -0.1087
 8049SOL     OW35782   3.909   3.631   9.680 -0.5677  0.2208 -0.5565
 8049SOL    HW135783   3.920   3.689   9.604  2.0946 -1.8388 -1.7148
 8049SOL    HW235784   3.824   3.663   9.709 -1.3763 -1.7744 -0.7036
 8050SOL     OW35785   4.728   0.746  13.757 -0.1473  0.1033 -0.2676
 8050SOL    HW135786   4.733   0.658  13.795  1.6069 -0.5625 -2.0676
 8050SOL    HW235787   0.046   0.803  13.808 -0.2870  0.8172 -0.9028
 8051SOL     OW35788   2.962   0.307   5.660 -0.0275 -0.1486 -0.1507
 8051SOL    HW135789   2.873   0.337   5.643  0.6405  0.9633 -1.6255
 8051SOL    HW235790   2.970   0.240   5.592 -0.4662 -1.8414  1.4688
 8052SOL     OW35791   0.363   1.413   4.458  0.3765  0.1703  0.9665
 8052SOL    HW135792   0.413   1.472   4.514  0.1141 -0.2883  1.6740
 8052SOL    HW235793   0.324   1.355   4.523 -1.6451  2.5015  1.8775
 8053SOL     OW35794   2.174   2.482  16.429 -0.0803 -0.3552  0.5638
 8053SOL    HW135795   2.266   2.495  16.454 -0.1511 -0.1422  0.7126
 8053SOL    HW235796   2.151   2.567  16.391  0.5667 -0.3997  0.0687
 8054SOL     OW35797   3.808   0.125   2.332 -0.0121  0.0476 -0.2697
 8054SOL    HW135798   3.901   0.104   2.324  0.3847  0.8071  2.3074
 8054SOL    HW235799   3.806   0.112   2.427  1.2923  1.7366 -0.0146
 8055SOL     OW35800   3.181   2.064   7.886 -0.4631  0.4916 -0.1797
 8055SOL    HW135801   3.109   2.029   7.833 -0.5566  0.8363 -0.2775
 8055SOL    HW235802   3.168   2.026   7.973  1.8989 -1.5935 -0.7430
 8056SOL     OW35803   2.585   1.500  17.116 -0.6672  0.1275 -0.0702
 8056SOL    HW135804   2.600   1.526  17.207  1.5668  3.3417 -1.3709
 8056SOL    HW235805   2.491   1.510  17.105 -0.4594  2.0918 -0.0628
 8057SOL     OW35806   3.200   0.603   5.525 -0.4993  0.2088 -0.3233
 8057SOL    HW135807   3.296   0.608   5.529 -0.5318 -0.2895  1.1793
 8057SOL    HW235808   3.188   0.622   5.432  2.8864 -0.9295 -1.0152
 8058SOL     OW35809   3.988   2.865   2.386 -0.0823 -0.9431  0.1161
 8058SOL    HW135810   4.049   2.826   2.323  1.6943  1.7893  0.1348
 8058SOL    HW235811   3.958   2.945   2.343  0.0316 -1.4423 -0.8936
 8059SOL     OW35812   1.649   4.287   6.485  0.4875  0.6367  0.4416
 8059SOL    HW135813   1.695   4.370   6.479  2.3816 -0.1862  3.3324
 8059SOL    HW235814   1.654   4.235   6.404 -0.4129  3.3472 -1.3268
 8060SOL     OW35815   1.610   4.578   1.631 -0.2928 -0.4174 -0.3342
 8060SOL    HW135816   1.654   4.592   1.547 -0.8710 -1.4479 -0.8043
 8060SOL    HW235817   1.643   4.651   1.684 -0.4549 -0.8434  0.3549
 8061SOL     OW35818   0.335   2.627  12.087 -0.0506 -0.4827 -0.1559
 8061SOL    HW135819   0.287   2.556  12.045  0.4306 -1.5773  1.1276
 8061SOL    HW235820   0.285   2.704  12.061  1.3703  0.3786 -0.3649
 8062SOL     OW35821   0.020   2.212  16.128  0.1554 -0.3047 -0.0424
 8062SOL    HW135822   0.004   2.303  16.155 -2.5764 -2.3061  5.0013
 8062SOL    HW235823   0.065   2.218  16.043  1.3321 -0.7940  0.5472
 8063SOL     OW35824   1.201   1.270   3.627  0.2667 -0.1993  0.6242
 8063SOL    HW135825   1.223   1.209   3.557  0.6646  1.4238 -0.6598
 8063SOL    HW235826   1.252   1.344   3.593 -1.0302  1.6237  2.5713
 8064SOL     OW35827   3.404   4.592  13.402 -0.2035 -0.0390 -0.3433
 8064SOL    HW135828   3.360   4.637  13.330  0.3486 -0.1936 -0.7783
 8064SOL    HW235829   3.370   4.651  13.470 -0.9492  0.9015 -1.5238
 8065SOL     OW35830   1.807   0.626   4.428  0.2940 -0.3121  0.2006
 8065SOL    HW135831   1.713   0.638   4.419  0.7607  1.4747 -2.1761
 8065SOL    HW235832   1.832   0.709   4.470  0.4870 -1.2332  1.9259
 8066SOL     OW35833   0.896   4.197   7.462 -0.4257  0.2040 -0.5770
 8066SOL    HW135834   0.826   4.263   7.465 -0.2494  0.3841 -0.4240
 8066SOL    HW235835   0.960   4.229   7.525  0.1361 -2.1742  0.0427
 8067SOL     OW35836   2.109   0.151  16.777  0.1122 -0.2511  1.1226
 8067SOL    HW135837   2.055   0.165  16.699  0.1154 -2.7664  0.6410
 8067SOL    HW235838   2.189   0.194  16.748 -0.3564 -0.2979 -0.2792
 8068SOL     OW35839   1.357   4.310  13.448 -0.4183 -0.2778 -0.6197
 8068SOL    HW135840   1.417   4.235  13.443 -1.6359 -1.3613  1.1609
 8068SOL    HW235841   1.348   4.331  13.541  0.1748  1.5385 -0.9823
 8069SOL     OW35842   3.560   0.310  12.298  0.8614  0.6905  0.5450
 8069SOL    HW135843   3.596   0.282  12.382  1.3989 -1.9339 -0.5685
 8069SOL    HW235844   3.572   0.233  12.242 -1.5938  0.8815 -0.2169
 8070SOL     OW35845   4.036   1.972   4.262  0.2111  0.2635 -0.0017
 8070SOL    HW135846   4.049   1.877   4.262  1.3428  0.4169  0.5856
 8070SOL    HW235847   3.974   1.971   4.189  3.2019 -1.5914 -2.5005
 8071SOL     OW35848   1.160   3.124   3.347 -0.1502  0.0785 -0.2149
 8071SOL    HW135849   1.091   3.158   3.290 -1.7407 -0.5321  1.3121
 8071SOL    HW235850   1.099   3.085   3.410  2.5377 -0.3386  2.1108
 8072SOL     OW35851   1.370   0.080   1.788 -0.5604  0.3519  0.0110
 8072SOL    HW135852   1.357   0.139   1.714  1.8665 -0.9603 -1.4451
 8072SOL    HW235853   1.299   0.015   1.787  0.0179 -0.2632 -1.2147
 8073SOL     OW35854   0.267   2.135   8.182  0.6156 -0.1543 -0.6768
 8073SOL    HW135855   0.267   2.103   8.272 -1.7947  0.2083 -0.5543
 8073SOL    HW235856   0.181   2.177   8.189 -0.3813 -2.3175  0.1517
 8074SOL     OW35857   0.341   0.938   2.304 -0.6232  0.6695  0.3233
 8074SOL    HW135858   0.266   0.997   2.316 -2.2761 -1.4822  0.4682
 8074SOL    HW235859   0.328   0.907   2.215 -0.0408  0.2618  0.3808
 8075SOL     OW35860   3.295   3.759   4.817 -0.4594  0.4295  0.1222
 8075SOL    HW135861   3.388   3.736   4.819 -1.1076 -1.8502  2.5160
 8075SOL    HW235862   3.242   3.686   4.850 -2.0573  1.8797  0.7806
 8076SOL     OW35863   2.715   1.178   1.366 -0.4004  0.2215 -0.6107
 8076SOL    HW135864   2.664   1.096   1.359  0.3246 -0.0745 -2.3125
 8076SOL    HW235865   2.748   1.179   1.277  2.8835 -0.1743  0.6127
 8077SOL     OW35866   1.337   0.437   3.047 -0.1100 -0.0320 -0.1683
 8077SOL    HW135867   1.344   0.520   3.001  0.7787 -0.2665 -0.4593
 8077SOL    HW235868   1.420   0.398   3.018 -0.4676 -0.9207 -0.0103
 8078SOL     OW35869   0.836   1.908   3.217 -0.0829 -0.6047 -0.3131
 8078SOL    HW135870   0.766   1.855   3.255  0.7464 -0.2939  1.6302
 8078SOL    HW235871   0.878   1.944   3.295  1.6006  0.6357 -1.7805
 8079SOL     OW35872   1.451   1.635  14.964  0.0924  0.1762 -0.8286
 8079SOL    HW135873   1.490   1.714  15.002  2.5904 -1.8182  0.7763
 8079SOL    HW235874   1.486   1.576  15.031  1.0728 -0.4182 -1.8532
 8080SOL     OW35875   1.100   2.259  17.484  0.4616  0.0106 -0.1394
 8080SOL    HW135876   1.061   2.321  17.545  0.1466 -1.3111  0.9942
 8080SOL    HW235877   1.042   2.259  17.408  0.5197 -3.4717 -0.2071
 8081SOL     OW35878   0.038   1.842   2.919  0.0540 -0.0259 -0.0584
 8081SOL    HW135879   4.693   1.815   2.878 -1.1002  0.0130  2.2648
 8081SOL    HW235880   0.098   1.792   2.864  0.2012 -1.5971  1.5245
 8082SOL     OW35881   1.815   3.764   2.534 -0.1737 -0.0752 -0.2285
 8082SOL    HW135882   1.787   3.848   2.569 -2.5847 -0.7237 -0.6234
 8082SOL    HW235883   1.742   3.728   2.484 -0.6154  1.4693 -0.7017
 8083SOL     OW35884   0.234   1.974   0.017 -0.0968 -0.1836  0.0168
 8083SOL    HW135885   0.244   1.887   0.056  2.9121 -0.0651 -0.4496
 8083SOL    HW235886   0.282   2.021   0.086  0.5247 -0.7318 -0.0439
 8084SOL     OW35887   4.265   2.828   6.533 -0.5903  0.4900  0.0300
 8084SOL    HW135888   4.235   2.790   6.451  1.8362 -2.5164  0.5528
 8084SOL    HW235889   4.304   2.904   6.492 -2.9840  0.0932 -2.9926
 8085SOL     OW35890   2.279   1.018   6.411  0.5838 -0.1853 -0.0884
 8085SOL    HW135891   2.334   0.939   6.406  3.1231  1.4584  2.0275
 8085SOL    HW235892   2.342   1.084   6.383  0.5464  0.2501  0.8800
 8086SOL     OW35893   0.053   3.705   8.037  0.4686  0.4263 -0.2610
 8086SOL    HW135894   0.011   3.681   8.120 -1.0557 -0.0256 -1.1548
 8086SOL    HW235895   0.131   3.649   8.044  2.0751  2.7299 -0.0168
 8087SOL     OW35896   1.028   3.476  17.185  0.0873  0.4194 -0.1321
 8087SOL    HW135897   0.968   3.412  17.222  1.1899 -0.9563 -0.7416
 8087SOL    HW235898   1.018   3.553  17.241 -2.0294 -0.8407  1.2410
 8088SOL     OW35899   0.589   3.394  10.249  0.1763 -1.0431 -0.1831
 8088SOL    HW135900   0.550   3.318  10.293 -0.6312 -0.7339 -0.3598
 8088SOL    HW235901   0.653   3.348  10.195  0.1871 -0.4680 -0.6627
 8089SOL     OW35902   3.480   0.238   3.419  0.1870 -0.1737 -0.0787
 8089SOL    HW135903   3.539   0.288   3.362  0.0195  1.5999  1.2936
 8089SOL    HW235904   3.531   0.228   3.499 -0.3531  1.0797  0.4389
 8090SOL     OW35905   2.806   2.907   4.993 -0.6527 -0.2538  0.0737
 8090SOL    HW135906   2.882   2.861   5.026  0.1456  1.4308  0.5918
 8090SOL    HW235907   2.771   2.946   5.073  0.3480 -0.4293  0.5893
 8091SOL     OW35908   2.950   2.889   3.157 -0.6129 -0.6879 -0.0770
 8091SOL    HW135909   2.950   2.796   3.137 -1.7648 -0.4851 -1.0379
 8091SOL    HW235910   2.972   2.915   3.068  1.3559  0.5936  0.7745
 8092SOL     OW35911   2.017   1.748   6.435 -0.6961  0.2210  0.3321
 8092SOL    HW135912   1.957   1.746   6.510 -2.8782 -0.4226 -1.4125
 8092SOL    HW235913   2.059   1.834   6.429 -2.2612  0.9291 -0.3817
 8093SOL     OW35914   2.870   1.604   2.916  0.1299  0.4882  0.1956
 8093SOL    HW135915   2.910   1.612   2.829 -1.1521 -2.1433 -0.6357
 8093SOL    HW235916   2.905   1.516   2.934 -0.1078  0.0037 -1.7053
 8094SOL     OW35917   1.189   2.050   5.905 -0.1555  0.5400  0.1698
 8094SOL    HW135918   1.192   2.123   5.842 -2.9528  0.9595  0.5121
 8094SOL    HW235919   1.173   1.974   5.849  4.0681 -0.7995  0.7630
 8095SOL     OW35920   0.044   1.100  10.433  0.2375 -0.1968 -0.0455
 8095SOL    HW135921   0.089   1.018  10.455 -3.7720 -2.4897 -0.2913
 8095SOL    HW235922   0.121   1.156  10.426  0.2309 -0.2390 -0.4335
 8096SOL     OW35923   3.331   0.679   5.033  0.0486  0.4092  0.3816
 8096SOL    HW135924   3.338   0.650   4.942 -0.3225 -0.6369  0.6823
 8096SOL    HW235925   3.302   0.769   5.024 -0.2545  0.2810  0.0335
 8097SOL     OW35926   2.174   0.111   4.393  0.5276 -0.6518 -0.0491
 8097SOL    HW135927   2.100   0.088   4.338 -0.1860  1.7531 -0.0937
 8097SOL    HW235928   2.239   0.091   4.325 -1.5282 -0.3339 -2.1105
 8098SOL     OW35929   1.755   0.349   8.664  0.5435  0.1199 -0.1105
 8098SOL    HW135930   1.749   0.263   8.621 -0.2828 -0.3820  1.0075
 8098SOL    HW235931   1.739   0.334   8.757  1.0946 -1.0310 -0.1995
 8099SOL     OW35932   4.058   0.296   7.241 -0.3510 -0.5660  0.0360
 8099SOL    HW135933   4.124   0.356   7.275 -0.8647 -0.3069  0.5747
 8099SOL    HW235934   4.007   0.280   7.320  0.2704 -1.4094  0.2499
 8100SOL     OW35935   2.085   4.321   0.541 -0.3304  0.0351 -0.3597
 8100SOL    HW135936   2.007   4.290   0.587  0.5051 -1.2160  0.2225
 8100SOL    HW235937   2.097   4.254   0.474  2.2775  0.0420  0.0727
 8101SOL     OW35938   0.942   1.428   2.735  0.4529 -0.6155  0.7580
 8101SOL    HW135939   0.940   1.519   2.706  0.5356 -0.6710  0.5835
 8101SOL    HW235940   0.916   1.448   2.825  0.8888 -0.3274  0.8184
 8102SOL     OW35941   4.647   1.279   9.451 -0.0628  0.6857 -0.2416
 8102SOL    HW135942   4.675   1.258   9.361  0.6402  0.0116  0.1293
 8102SOL    HW235943   4.557   1.248   9.437  0.9751 -2.8018  0.6247
 8103SOL     OW35944   2.933   0.358   3.392  0.4750  0.8023 -0.1775
 8103SOL    HW135945   2.990   0.377   3.318  0.9546 -1.0989 -0.2968
 8103SOL    HW235946   2.999   0.377   3.459  0.7658  2.4551 -0.9265
 8104SOL     OW35947   2.649   2.064   9.052  0.7513 -0.3602 -0.2062
 8104SOL    HW135948   2.706   2.107   8.988 -1.7320  2.6701 -0.3961
 8104SOL    HW235949   2.581   2.039   8.989 -0.4521 -0.0834  0.9882
 8105SOL     OW35950   3.718   4.640   0.419 -0.1453 -0.0662  0.6000
 8105SOL    HW135951   3.752   4.551   0.410 -1.0653 -0.4084  0.4858
 8105SOL    HW235952   3.666   4.643   0.338  1.1594 -0.0077 -0.2353
 8106SOL     OW35953   2.271   2.906   8.209  0.5464 -0.7433 -0.5184
 8106SOL    HW135954   2.349   2.902   8.153 -0.9564 -0.4643 -2.6147
 8106SOL    HW235955   2.252   2.815   8.233 -0.1280 -0.1388  1.2175
 8107SOL     OW35956   2.397   1.611   7.985  0.4439 -0.4831 -0.3625
 8107SOL    HW135957   2.470   1.673   7.986  1.2614 -1.4247 -2.3521
 8107SOL    HW235958   2.448   1.546   7.937  1.2651 -0.8033  0.9502
 8108SOL     OW35959   4.126   2.420   9.872 -0.5330  0.3402  0.3714
 8108SOL    HW135960   4.150   2.499   9.824 -1.9761  0.5040 -0.0587
 8108SOL    HW235961   4.151   2.457   9.956  1.5197 -0.5985  0.1759
 8109SOL     OW35962   1.448   2.137   6.006 -0.0245 -0.4837 -0.4487
 8109SOL    HW135963   1.410   2.219   5.974  1.9970 -0.3544 -2.5203
 8109SOL    HW235964   1.374   2.082   5.977  1.0185 -3.1199  1.9145
 8110SOL     OW35965   0.737   0.498   3.578 -0.0135 -0.3173 -0.4324
 8110SOL    HW135966   0.709   0.417   3.621  1.8449 -0.1405  1.1211
 8110SOL    HW235967   0.696   0.487   3.492 -0.9846  0.8296 -0.1232
 8111SOL     OW35968   1.276   3.351  11.803 -0.7790 -0.0821  0.3352
 8111SOL    HW135969   1.293   3.258  11.794  0.3242 -0.0615  2.2650
 8111SOL    HW235970   1.326   3.384  11.729 -0.9578  1.0837  0.7216
 8112SOL     OW35971   4.696   2.322   3.304  0.0517  0.5565  0.5856
 8112SOL    HW135972   4.645   2.242   3.296  1.4035 -0.3185  0.5784
 8112SOL    HW235973   4.688   2.351   3.395  1.6153 -0.4969  1.0643
 8113SOL     OW35974   4.052   2.805   9.398 -0.1455 -0.6204 -0.2442
 8113SOL    HW135975   4.144   2.798   9.425 -1.1297  1.0507  3.4443
 8113SOL    HW235976   3.997   2.802   9.476  1.0333  0.5154  0.6328
 8114SOL     OW35977   4.210   2.814  13.276  0.1861 -0.5406 -0.2611
 8114SOL    HW135978   4.173   2.891  13.319  0.6149 -0.0985 -0.6734
 8114SOL    HW235979   4.154   2.802  13.200 -0.7678  0.1637  0.3342
 8115SOL     OW35980   3.128   2.863   4.552 -0.6758  0.4063 -0.7843
 8115SOL    HW135981   3.102   2.854   4.644  1.2769  0.2948 -0.2578
 8115SOL    HW235982   3.223   2.853   4.547 -0.5396  1.1996  0.0782
 8116SOL     OW35983   4.471   0.812   8.532  0.3045  0.3108  0.6121
 8116SOL    HW135984   4.438   0.789   8.445  0.4523  1.0369  0.3633
 8116SOL    HW235985   4.403   0.872   8.563 -2.0562 -1.3696 -1.4239
 8117SOL     OW35986   4.119   3.949   8.445 -0.5950  0.2775 -0.1046
 8117SOL    HW135987   4.117   3.854   8.459  0.8162  0.1349 -0.8215
 8117SOL    HW235988   4.030   3.957   8.412  0.2477  0.0811 -2.4119
 8118SOL     OW35989   2.012   4.464   7.193 -0.0323  0.6679  0.3614
 8118SOL    HW135990   1.981   4.388   7.242 -1.6333  1.2962  0.3070
 8118SOL    HW235991   2.058   4.515   7.259 -0.2374 -2.0324  2.5864
 8119SOL     OW35992   3.686   3.803   9.441  0.1541  0.0837 -0.5232
 8119SOL    HW135993   3.640   3.723   9.467  0.9234 -0.5004 -0.9408
 8119SOL    HW235994   3.624   3.862   9.484  0.5270  1.6677 -2.1539
 8120SOL     OW35995   3.298   4.333   5.044  0.7220  0.3863 -0.0505
 8120SOL    HW135996   3.356   4.282   5.100 -0.1263  0.7650  1.1821
 8120SOL    HW235997   3.250   4.255   5.015 -1.2784  0.5213  2.8646
 8121SOL     OW35998   4.283   4.538   7.607 -0.3834 -0.2739 -0.1554
 8121SOL    HW135999   4.370   4.564   7.576 -1.1440  3.6374  0.9806
 8121SOL    HW236000   4.249   4.624   7.632  0.6795  0.2202 -0.4216
 8122SOL     OW36001   4.150   0.543   3.427  0.0804 -0.4465  0.3706
 8122SOL    HW136002   4.144   0.452   3.396 -1.5413 -0.1265 -0.2744
 8122SOL    HW236003   4.245   0.554   3.422 -0.0990  0.1871 -2.0278
 8123SOL     OW36004   1.926   0.105   3.851  0.3892  0.0377 -0.2817
 8123SOL    HW136005   1.877   0.088   3.932  1.6253  2.5383  0.9778
 8123SOL    HW236006   1.866   0.063   3.790  0.4010  2.5483 -2.0206
 8124SOL     OW36007   1.666   3.730   8.183  0.3771  0.2501 -0.1800
 8124SOL    HW136008   1.674   3.765   8.272  1.1972  0.0355 -0.1705
 8124SOL    HW236009   1.759   3.716   8.168  0.1162  0.0898 -1.7000
 8125SOL     OW36010   1.802   2.773  12.461  0.4710  0.0587  0.2348
 8125SOL    HW136011   1.851   2.712  12.406  0.1065 -0.0740  0.0573
 8125SOL    HW236012   1.718   2.728  12.473 -1.2735  3.4370  0.6800
 8126SOL     OW36013   2.887   3.317   3.030  0.0930  0.4387 -0.7385
 8126SOL    HW136014   2.898   3.249   2.964 -1.7551 -0.4869 -0.0950
 8126SOL    HW236015   2.912   3.388   2.972  0.7746 -0.1728 -1.1837
 8127SOL     OW36016   1.434   0.376   1.298  0.4697 -0.4673  0.3831
 8127SOL    HW136017   1.356   0.342   1.255 -0.7155  1.3251  1.1089
 8127SOL    HW236018   1.404   0.450   1.350  1.0596  0.2877 -0.3380
 8128SOL     OW36019   0.627   2.976   4.326 -0.2782 -0.2596  0.1165
 8128SOL    HW136020   0.588   3.060   4.350  0.6274  0.1463  0.1484
 8128SOL    HW236021   0.670   2.994   4.242 -0.8869  0.6028 -0.0018
 8129SOL     OW36022   3.233   1.540   6.114 -0.0482  0.2398 -0.1507
 8129SOL    HW136023   3.207   1.534   6.206 -0.4106 -0.2296 -0.2822
 8129SOL    HW236024   3.321   1.574   6.129  0.1954 -0.1706 -0.6654
 8130SOL     OW36025   0.330   3.909   4.338 -0.1696  0.1795  0.1557
 8130SOL    HW136026   0.310   3.856   4.416  1.3230  1.7262  1.6082
 8130SOL    HW236027   0.333   3.844   4.268 -0.8226 -0.4057  0.6679
 8131SOL     OW36028   4.611   3.991  10.645  0.0086 -0.6052 -0.2833
 8131SOL    HW136029   4.686   3.938  10.618  0.4691  0.6650 -1.4731
 8131SOL    HW236030   4.660   4.065  10.681  0.5756 -0.7683 -0.7176
 8132SOL     OW36031   3.977   4.511   3.784 -0.6777  1.1785  0.1117
 8132SOL    HW136032   4.064   4.510   3.823 -0.5579  2.1749 -0.1493
 8132SOL    HW236033   3.974   4.415   3.773 -1.6506  1.1968  0.2279
 8133SOL     OW36034   4.107   4.193   7.814  0.6724 -0.3671 -0.0199
 8133SOL    HW136035   4.192   4.222   7.846 -0.0518  0.5058  1.1011
 8133SOL    HW236036   4.115   4.098   7.823 -1.3815 -0.7789 -2.5150
 8134SOL     OW36037   2.199   0.846   5.150 -0.4873  0.4430  0.7923
 8134SOL    HW136038   2.237   0.921   5.106 -0.2037 -0.1046  0.0982
 8134SOL    HW236039   2.165   0.798   5.074 -0.5878 -0.4895  1.4274
 8135SOL     OW36040   1.582   1.488   6.706 -0.0734  0.5914  0.1240
 8135SOL    HW136041   1.531   1.492   6.787  0.8148  1.0591  0.6508
 8135SOL    HW236042   1.533   1.424   6.653 -1.6560  1.4191  0.5974
 8136SOL     OW36043   4.508   0.523   9.502 -0.1793 -0.2253  0.3962
 8136SOL    HW136044   4.445   0.560   9.564 -0.0020  1.4295 -0.4321
 8136SOL    HW236045   4.476   0.433   9.507 -0.8819  0.0848  1.5869
 8137SOL     OW36046   4.178   0.296  17.545  0.1116 -0.3146  0.1750
 8137SOL    HW136047   4.096   0.309  17.592 -0.0019 -0.8965  0.1457
 8137SOL    HW236048   4.241   0.313  17.615 -1.2698  0.9536  1.0885
 8138SOL     OW36049   1.420   3.199   7.244 -0.4882  0.5223  0.5989
 8138SOL    HW136050   1.462   3.184   7.160 -2.4783  1.2380 -0.5333
 8138SOL    HW236051   1.341   3.243   7.214  0.5607  2.0315  0.0873
 8139SOL     OW36052   4.670   2.770  16.662 -0.2708 -0.1665  0.3687
 8139SOL    HW136053   0.002   2.833  16.646  0.8305 -1.3998  0.3373
 8139SOL    HW236054   4.708   2.736  16.742  2.1824  0.6536 -0.4558
 8140SOL     OW36055   0.686   4.648   1.816  0.0757  0.4049  0.7340
 8140SOL    HW136056   0.629   4.677   1.745  0.2501 -2.1134 -0.4220
 8140SOL    HW236057   0.730   4.727   1.847  0.8668  0.8066 -1.4194
 8141SOL     OW36058   0.601   3.887   1.722  0.1897 -0.3180 -0.1023
 8141SOL    HW136059   0.684   3.901   1.768 -0.1188  2.3662 -0.3463
 8141SOL    HW236060   0.631   3.841   1.643 -1.2623 -1.0188 -0.2607
 8142SOL     OW36061   2.470   1.752   6.819 -0.1565  0.0504  0.3396
 8142SOL    HW136062   2.411   1.818   6.856 -1.2609 -0.9378  0.3276
 8142SOL    HW236063   2.468   1.773   6.726 -0.6875 -0.1915  0.2939
 8143SOL     OW36064   1.766   1.926   0.154 -0.2057 -0.5103  1.0396
 8143SOL    HW136065   1.701   1.855   0.152 -1.5827  0.7742  0.4536
 8143SOL    HW236066   1.728   1.993   0.097  1.3719 -0.9414 -0.5301
 8144SOL     OW36067   3.244   1.737   2.762  0.4627  0.1438 -0.4703
 8144SOL    HW136068   3.326   1.714   2.718  0.3642  0.8046 -0.9903
 8144SOL    HW236069   3.252   1.694   2.847 -0.6816 -0.8025 -0.8385
 8145SOL     OW36070   0.352   3.440  17.436 -0.7895  0.3544  0.1698
 8145SOL    HW136071   0.297   3.512  17.466  0.4874  1.8991 -1.1935
 8145SOL    HW236072   0.431   3.493  17.441 -1.0089  0.8047 -1.3274
 8146SOL     OW36073   4.647   0.500   2.346 -0.1785 -0.3434  0.0785
 8146SOL    HW136074   4.668   0.406   2.349 -1.3395 -0.6063 -0.0418
 8146SOL    HW236075   4.627   0.520   2.255 -0.7585  1.3038  0.5731
 8147SOL     OW36076   0.862   2.062  12.202  0.1230 -0.4934  0.0677
 8147SOL    HW136077   0.940   2.093  12.249 -0.9416 -1.5687  2.5135
 8147SOL    HW236078   0.891   1.973  12.185  1.1374  0.0282 -0.9650
 8148SOL     OW36079   2.156   3.601   9.806 -0.7021  0.6758 -1.0154
 8148SOL    HW136080   2.197   3.588   9.892 -0.3288  1.8563 -1.0196
 8148SOL    HW236081   2.140   3.509   9.784 -0.0777  0.3815 -0.2284
 8149SOL     OW36082   1.238   3.211   1.238  0.1557  0.1515  0.0709
 8149SOL    HW136083   1.271   3.125   1.211 -1.1944 -0.1459 -0.6609
 8149SOL    HW236084   1.209   3.247   1.154  2.8560  1.8518 -0.1148
 8150SOL     OW36085   2.698   0.025   6.823  0.5618  0.0200  0.2369
 8150SOL    HW136086   2.718   0.110   6.861  0.8987  0.1126 -0.1467
 8150SOL    HW236087   2.786   4.727   6.819 -0.4117 -2.2632 -0.9649
 8151SOL     OW36088   1.347   3.640   6.575 -0.1597  0.0180  0.4460
 8151SOL    HW136089   1.422   3.602   6.622  0.9462 -0.7463 -1.9458
 8151SOL    HW236090   1.295   3.560   6.572 -1.2231  0.7937 -1.8907
 8152SOL     OW36091   2.496   4.419   6.759  0.3765 -0.8474  0.2514
 8152SOL    HW136092   2.591   4.430   6.765  0.5428 -2.1061  0.0995
 8152SOL    HW236093   2.486   4.369   6.840 -2.8077 -0.8276 -0.1594
 8153SOL     OW36094   2.901   1.680   4.722  0.1459  0.4246 -0.4368
 8153SOL    HW136095   2.809   1.707   4.717  0.1482  0.3844 -0.6720
 8153SOL    HW236096   2.904   1.669   4.817  0.3211  0.2215 -0.4663
 8154SOL     OW36097   1.252   2.063   7.738  0.6141  0.3532 -0.2478
 8154SOL    HW136098   1.296   2.131   7.688  0.7021  0.3383 -0.1913
 8154SOL    HW236099   1.258   1.993   7.673 -1.5472  0.5631 -0.6537
 8155SOL     OW36100   0.875   0.470  10.110 -0.5992 -0.3967 -0.0767
 8155SOL    HW136101   0.941   0.505  10.170 -0.0299 -1.6046  0.0072
 8155SOL    HW236102   0.800   0.459  10.169  0.6082 -1.7812  1.2111
 8156SOL     OW36103   3.674   2.796   6.526  0.3734 -0.0499 -0.4558
 8156SOL    HW136104   3.685   2.722   6.585 -1.8025 -0.0703 -0.0828
 8156SOL    HW236105   3.697   2.750   6.445  1.1911 -0.6428  0.1151
 8157SOL     OW36106   0.469   4.332   0.423 -0.0203 -0.0526 -0.2432
 8157SOL    HW136107   0.408   4.336   0.496  0.2469 -0.6165  0.0145
 8157SOL    HW236108   0.542   4.375   0.467 -0.7000  0.3210  0.5002
 8158SOL     OW36109   1.256   0.926   3.427 -0.1598  0.5018 -0.6417
 8158SOL    HW136110   1.309   1.006   3.434 -2.1046  1.8087 -1.0306
 8158SOL    HW236111   1.323   0.876   3.381  0.4995 -0.2916  1.1636
 8159SOL     OW36112   0.443   3.444   6.074 -0.0955 -0.3766  0.4106
 8159SOL    HW136113   0.496   3.523   6.087 -1.2285  0.5177 -0.4294
 8159SOL    HW236114   0.381   3.466   6.005 -0.9736 -0.2976  1.2230
 8160SOL     OW36115   3.468   3.921   6.970 -0.5368 -0.1223 -0.1332
 8160SOL    HW136116   3.460   3.981   6.896 -1.0935 -0.8623 -0.6710
 8160SOL    HW236117   3.562   3.930   6.987 -0.2526 -0.0466 -1.8097
 8161SOL     OW36118   3.504   4.506   8.698 -0.3830 -0.2714  0.1507
 8161SOL    HW136119   3.518   4.590   8.740 -0.0440  0.1996 -0.9081
 8161SOL    HW236120   3.466   4.464   8.775  0.4113 -1.5682 -0.1741
 8162SOL     OW36121   1.586   2.603  12.985 -0.2749  0.2307  0.0004
 8162SOL    HW136122   1.651   2.556  12.934 -0.0344  1.4401 -0.7846
 8162SOL    HW236123   1.557   2.525  13.033 -0.9626 -0.3349 -1.3487
 8163SOL     OW36124   2.142   0.175   9.785 -0.2365 -0.2066 -0.2615
 8163SOL    HW136125   2.236   0.180   9.803 -0.2807  0.0732 -0.1114
 8163SOL    HW236126   2.109   0.235   9.852 -1.0575 -0.0550 -0.8021
 8164SOL     OW36127   3.748   0.981   1.603  0.0553 -0.0630 -0.5718
 8164SOL    HW136128   3.839   0.953   1.592  0.9554  2.5201  0.1376
 8164SOL    HW236129   3.712   1.024   1.525  1.8976 -0.2066 -1.4970
 8165SOL     OW36130   0.244   2.708   7.371  0.6050 -0.2593  0.3522
 8165SOL    HW136131   0.238   2.721   7.276  1.3033 -1.2116  0.1862
 8165SOL    HW236132   0.223   2.615   7.377  0.1070 -0.2083 -0.6376
 8166SOL     OW36133   2.211   0.746   9.212  0.3948  0.2585 -0.2509
 8166SOL    HW136134   2.258   0.663   9.223  1.5464  0.6112 -2.4676
 8166SOL    HW236135   2.235   0.795   9.291 -1.7697 -0.7752  1.0398
 8167SOL     OW36136   1.983   2.604  12.298 -0.3102  0.2554  0.5018
 8167SOL    HW136137   1.942   2.519  12.283  1.8465 -0.5667 -0.6859
 8167SOL    HW236138   2.065   2.592  12.251 -1.8860  0.5084 -2.3094
 8168SOL     OW36139   1.810   3.942   8.689 -0.0905  0.1565 -0.6406
 8168SOL    HW136140   1.761   3.869   8.727 -0.4754  0.4601 -0.5556
 8168SOL    HW236141   1.844   3.980   8.770  2.4388  1.7203 -2.4392
 8169SOL     OW36142   3.922   3.504   9.382  0.1520  0.6529  0.3601
 8169SOL    HW136143   3.997   3.514   9.440 -1.1771 -0.1746  2.2234
 8169SOL    HW236144   3.942   3.555   9.303 -0.5005  0.1513 -0.1306
 8170SOL     OW36145   4.583   1.414   7.510  0.1065  0.1305  0.2118
 8170SOL    HW136146   4.538   1.334   7.535 -0.5452  0.2868 -0.4968
 8170SOL    HW236147   4.644   1.424   7.584  1.5787 -2.9699 -0.5882
 8171SOL     OW36148   0.404   2.168   1.318  0.4973 -0.2460 -0.3490
 8171SOL    HW136149   0.450   2.223   1.254  0.0287 -2.7900 -2.8498
 8171SOL    HW236150   0.434   2.208   1.400 -0.0095  1.6359 -1.0656
 8172SOL     OW36151   0.925   2.575  14.269  0.1291 -0.5387  0.4532
 8172SOL    HW136152   0.911   2.670  14.277 -2.4537 -0.7652 -1.3240
 8172SOL    HW236153   0.968   2.561  14.185 -1.2277  2.2064 -0.6997
 8173SOL     OW36154   2.676   4.644  13.408 -0.1854 -0.0011  0.0778
 8173SOL    HW136155   2.690   4.703  13.334 -1.2908 -0.5429 -0.5708
 8173SOL    HW236156   2.686   4.561  13.361 -0.7382  0.2604 -0.5000
 8174SOL     OW36157   3.178   1.521  16.483 -0.3749  0.1435 -0.4679
 8174SOL    HW136158   3.126   1.506  16.404 -1.5715 -2.2823  0.7645
 8174SOL    HW236159   3.118   1.489  16.550  2.2298  0.2546  1.9481
 8175SOL     OW36160   2.751   0.678  16.403 -0.1053 -0.2332  0.1851
 8175SOL    HW136161   2.839   0.663  16.368 -0.3475 -1.0843 -0.0522
 8175SOL    HW236162   2.714   0.591  16.393 -2.8715  0.8185  1.4078
 8176SOL     OW36163   1.437   1.303   6.541 -0.1003  0.3311  0.3477
 8176SOL    HW136164   1.516   1.317   6.489  0.5147 -4.0301  0.0811
 8176SOL    HW236165   1.374   1.322   6.471  1.4828  1.4606 -0.7574
 8177SOL     OW36166   3.024   2.634   0.993  0.0912 -0.1754  0.4381
 8177SOL    HW136167   3.051   2.701   0.930 -0.3854 -0.5894 -0.2082
 8177SOL    HW236168   3.096   2.572   0.994  0.3741  0.1651  1.3777
 8178SOL     OW36169   3.070   0.990   7.254  0.1009 -0.2771  0.3383
 8178SOL    HW136170   2.993   1.038   7.284 -1.1460 -2.8083  1.1981
 8178SOL    HW236171   3.075   0.933   7.331  1.4116  0.0945  0.5336
 8179SOL     OW36172   0.486   2.770   3.485 -0.3137  0.2817 -0.1834
 8179SOL    HW136173   0.395   2.780   3.514 -0.1633 -0.0031  0.4022
 8179SOL    HW236174   0.481   2.696   3.425  0.8353 -0.0400  0.1125
 8180SOL     OW36175   3.206   0.442   8.931  0.5417 -0.1673 -0.2431
 8180SOL    HW136176   3.296   0.411   8.933 -0.2011 -2.1694  2.3386
 8180SOL    HW236177   3.171   0.461   9.018 -1.2538  1.2309 -1.2551
 8181SOL     OW36178   1.739   0.454  11.942  0.0138  0.0940 -0.4357
 8181SOL    HW136179   1.671   0.390  11.964 -0.7841  0.8203 -0.7995
 8181SOL    HW236180   1.723   0.469  11.849 -0.2272  1.8499 -0.1045
 8182SOL     OW36181   4.670   2.551  15.024 -0.4749  0.2688 -0.4137
 8182SOL    HW136182   4.674   2.617  15.092  2.6194 -0.6209  0.2583
 8182SOL    HW236183   4.677   2.597  14.940  4.0055  2.9241  1.4301
 8183SOL     OW36184   3.353   2.430   3.934 -0.2223 -0.2524 -0.3677
 8183SOL    HW136185   3.435   2.384   3.912  0.5483 -0.0978  2.1021
 8183SOL    HW236186   3.350   2.407   4.027  1.7735 -0.1885 -0.2779
 8184SOL     OW36187   1.335   3.203   3.520 -0.3793 -0.4485  0.0875
 8184SOL    HW136188   1.287   3.168   3.446 -0.1217 -0.4497 -0.0797
 8184SOL    HW236189   1.289   3.286   3.530 -0.1961 -0.1401 -1.7527
 8185SOL     OW36190   2.156   2.018   7.572  0.6595  0.0797  0.6083
 8185SOL    HW136191   2.192   1.944   7.524 -2.1338 -2.4053  2.3243
 8185SOL    HW236192   2.119   2.079   7.508  1.3897  1.2682  1.3247
 8186SOL     OW36193   0.280   4.127   4.109 -0.2141  0.1066  0.6447
 8186SOL    HW136194   0.238   4.053   4.154  0.2868  0.9618  2.5445
 8186SOL    HW236195   0.294   4.193   4.177  0.4969 -1.6593  2.1975
 8187SOL     OW36196   2.389   2.574   7.189 -0.2063 -0.3363  0.8991
 8187SOL    HW136197   2.351   2.643   7.134  1.6054  0.4718  0.6315
 8187SOL    HW236198   2.391   2.616   7.274  0.3706  1.0526  0.2076
 8188SOL     OW36199   1.927   2.779   7.479 -0.3128 -0.4789 -0.0322
 8188SOL    HW136200   2.018   2.807   7.466 -0.3531 -0.1975  0.2901
 8188SOL    HW236201   1.910   2.814   7.566 -2.1533  0.7958 -0.9221
 8189SOL     OW36202   3.586   3.726   3.087 -0.1740 -0.0080  0.2438
 8189SOL    HW136203   3.536   3.673   3.150  0.3939 -2.2550 -1.1675
 8189SOL    HW236204   3.586   3.669   3.010  4.1397  0.0305  0.2250
 8190SOL     OW36205   2.185   2.478   1.529 -0.4226  0.0546 -0.1816
 8190SOL    HW136206   2.274   2.488   1.560 -1.2906 -0.0116  2.3468
 8190SOL    HW236207   2.152   2.566   1.545 -1.4703 -0.0756 -1.6129
 8191SOL     OW36208   2.865   4.539  15.491  0.2692  0.3314 -0.3703
 8191SOL    HW136209   2.839   4.522  15.401 -0.5476  0.5462 -0.1760
 8191SOL    HW236210   2.782   4.530  15.538  0.5741 -0.7939 -0.0534
 8192SOL     OW36211   2.147   3.652   3.140  0.2733 -0.7724  0.0416
 8192SOL    HW136212   2.179   3.625   3.055  1.5316 -1.8174  0.8499
 8192SOL    HW236213   2.126   3.571   3.187  0.6709 -0.2318  1.1758
 8193SOL     OW36214   1.181   4.215   2.007  0.3569 -0.2545 -0.1309
 8193SOL    HW136215   1.118   4.267   2.058 -0.5204 -1.6384  0.1864
 8193SOL    HW236216   1.146   4.128   2.024  1.7366 -0.6571  0.5620
 8194SOL     OW36217   3.407   3.025   4.492  0.0977  0.2088  0.7306
 8194SOL    HW136218   3.485   2.995   4.445 -0.1197  0.8841 -0.0460
 8194SOL    HW236219   3.380   3.100   4.439 -3.6579 -1.9208 -0.3768
 8195SOL     OW36220   3.943   2.694   5.629  0.0898 -0.0857 -0.6744
 8195SOL    HW136221   4.031   2.659   5.635 -0.3565 -0.8197  1.6301
 8195SOL    HW236222   3.898   2.621   5.586  0.3062 -0.5177 -0.1688
 8196SOL     OW36223   0.900   4.572   3.053 -0.0776 -0.2237  0.6499
 8196SOL    HW136224   0.914   4.667   3.053  0.9141 -0.3655 -2.5176
 8196SOL    HW236225   0.981   4.541   3.012 -0.3791  1.2004 -1.0482
 8197SOL     OW36226   1.433   3.749  17.680 -0.4359  0.1222  0.0860
 8197SOL    HW136227   1.472   3.806  17.746 -0.4519 -0.6820  0.7943
 8197SOL    HW236228   1.345   3.785  17.686 -0.3580  0.9231 -3.2350
 8198SOL     OW36229   0.052   3.078   1.096  0.0239 -0.0022  0.2692
 8198SOL    HW136230   0.135   3.100   1.138  0.1518  3.5077 -1.7855
 8198SOL    HW236231   0.001   3.029   1.160  1.6888 -2.1588 -0.0629
 8199SOL     OW36232   2.234   0.404   8.837 -0.0609  0.1271  0.0366
 8199SOL    HW136233   2.146   0.435   8.856  0.5049  0.6942  1.6624
 8199SOL    HW236234   2.212   0.325   8.787 -1.2016  0.1374  0.5324
 8200SOL     OW36235   1.560   1.492   5.705 -0.1668 -0.1333 -0.1931
 8200SOL    HW136236   1.559   1.520   5.613 -1.6570 -1.2044 -0.4994
 8200SOL    HW236237   1.549   1.573   5.755  0.0782  0.1969 -0.6684
 8201SOL     OW36238   2.832   4.505  15.235 -0.2610 -0.8393  0.2057
 8201SOL    HW136239   2.869   4.516  15.147  1.5469  0.3969  1.0880
 8201SOL    HW236240   2.793   4.418  15.230  0.6316 -1.0673 -2.6863
 8202SOL     OW36241   3.616   2.325   9.174  0.2360  0.1966  0.2384
 8202SOL    HW136242   3.607   2.385   9.247 -0.1378  1.8287 -1.1341
 8202SOL    HW236243   3.637   2.242   9.216  0.8802  0.6698  0.8437
 8203SOL     OW36244   0.386   2.711   2.358 -0.0034 -0.2868  0.3142
 8203SOL    HW136245   0.327   2.786   2.364 -0.7033 -0.7711 -0.6678
 8203SOL    HW236246   0.451   2.754   2.302  0.7528  0.3529  1.6559
 8204SOL     OW36247   2.530   2.521   4.193 -0.1211  0.5836 -0.5578
 8204SOL    HW136248   2.622   2.547   4.189  0.9045 -2.8841  0.0412
 8204SOL    HW236249   2.530   2.440   4.140  0.2703  1.7846 -2.3973
 8205SOL     OW36250   2.008   1.911   0.951 -0.4931 -0.2958  0.2773
 8205SOL    HW136251   2.091   1.875   0.920  0.6251  2.1422  0.4278
 8205SOL    HW236252   2.019   1.982   1.015 -2.7790 -0.2540  0.6308
 8206SOL     OW36253   3.977   2.367   1.300  0.4581 -0.4446  0.3344
 8206SOL    HW136254   3.899   2.369   1.355 -0.1138 -0.4649 -0.4607
 8206SOL    HW236255   4.039   2.314   1.350 -2.4321 -2.8969  1.2990
 8207SOL     OW36256   0.429   0.827   4.821  0.5728  0.4006 -0.1852
 8207SOL    HW136257   0.442   0.879   4.742 -0.1720  1.1419  0.1766
 8207SOL    HW236258   0.520   0.820   4.848  0.6038 -0.7387 -0.5801
 8208SOL     OW36259   0.918   2.181   7.720  0.0089 -0.5266  0.1078
 8208SOL    HW136260   0.941   2.273   7.730 -3.9955  0.5218 -0.4279
 8208SOL    HW236261   0.993   2.132   7.753 -0.4069 -1.2842 -0.0635
 8209SOL     OW36262   1.855   2.312   6.600  0.1331  0.4753  0.5450
 8209SOL    HW136263   1.785   2.249   6.583 -1.5232  2.5932 -0.5221
 8209SOL    HW236264   1.814   2.395   6.575  0.2331 -0.0472 -1.3341
 8210SOL     OW36265   3.308   1.141   7.719 -0.0998  0.2554 -0.0964
 8210SOL    HW136266   3.401   1.126   7.737  0.2745  0.1426 -2.0984
 8210SOL    HW236267   3.290   1.063   7.668  0.3859 -0.4087  0.7539
 8211SOL     OW36268   4.578   4.089   1.311 -0.1409 -0.1125 -0.1627
 8211SOL    HW136269   4.531   4.148   1.369  0.4366 -1.6315  1.8561
 8211SOL    HW236270   4.590   4.151   1.239 -1.6648 -0.5493 -0.7822
 8212SOL     OW36271   4.085   1.600   5.971 -0.2835 -0.6028  0.4297
 8212SOL    HW136272   4.013   1.654   6.002 -2.3954 -1.9097 -2.1328
 8212SOL    HW236273   4.158   1.648   6.011 -1.1901 -0.7243  2.2312
 8213SOL     OW36274   2.440   3.877   7.287 -0.3438 -0.4095  0.4964
 8213SOL    HW136275   2.367   3.844   7.339 -0.1257 -0.4693  0.7623
 8213SOL    HW236276   2.462   3.961   7.327  3.0460 -1.0147 -0.0936
 8214SOL     OW36277   4.535   2.972  12.263  0.4444 -0.7174 -0.0428
 8214SOL    HW136278   4.460   2.931  12.307 -0.9285  0.3281 -1.4398
 8214SOL    HW236279   4.566   2.910  12.197 -0.9952 -0.5202 -0.8966
 8215SOL     OW36280   2.743   0.301   3.954  0.1509  0.1380 -0.2338
 8215SOL    HW136281   2.670   0.283   3.895 -0.4392 -0.2130  0.6059
 8215SOL    HW236282   2.810   0.243   3.918 -0.4512  0.9774 -2.7389
 8216SOL     OW36283   1.473   0.294  10.404  0.4983 -0.3771 -0.7920
 8216SOL    HW136284   1.400   0.233  10.419  1.9036 -1.8842 -0.0826
 8216SOL    HW236285   1.534   0.238  10.357  0.0237 -0.4033 -1.3665
 8217SOL     OW36286   3.845   2.287   9.768 -0.2183 -0.1175  0.0360
 8217SOL    HW136287   3.798   2.224   9.713 -0.2973 -0.3250  0.3397
 8217SOL    HW236288   3.931   2.285   9.726  1.0018  2.2744  2.4200
 8218SOL     OW36289   4.402   3.559   6.803 -0.3976 -1.0587 -0.1227
 8218SOL    HW136290   4.328   3.532   6.749  0.3714 -1.0669 -1.1847
 8218SOL    HW236291   4.386   3.519   6.888 -1.0147 -1.8962 -0.6368
 8219SOL     OW36292   2.599   0.783   3.898  0.1388  0.5222 -0.0299
 8219SOL    HW136293   2.686   0.743   3.899 -0.5784 -1.1113 -1.5251
 8219SOL    HW236294   2.606   0.849   3.967  2.5227  0.2044  0.0542
 8220SOL     OW36295   3.583   2.374   5.480 -0.1315  0.1130 -0.1770
 8220SOL    HW136296   3.555   2.295   5.526  0.7672 -0.3696 -0.4594
 8220SOL    HW236297   3.531   2.361   5.400 -0.2994 -0.3331  0.0009
 8221SOL     OW36298   1.021   2.341   0.592 -0.3088 -0.3241  0.0042
 8221SOL    HW136299   0.926   2.348   0.607 -0.1265 -2.6046  2.3209
 8221SOL    HW236300   1.010   2.284   0.516  1.1389  0.5394 -0.8407
 8222SOL     OW36301   1.010   3.437   4.912  0.1710  0.0333 -0.6350
 8222SOL    HW136302   0.937   3.499   4.915 -0.4957 -0.7691 -0.3005
 8222SOL    HW236303   1.080   3.498   4.891  0.2386 -0.8614 -2.9066
 8223SOL     OW36304   0.326   1.951   2.118  0.4252 -0.2025 -0.8343
 8223SOL    HW136305   0.370   1.951   2.034  0.4401 -1.8247 -0.8255
 8223SOL    HW236306   0.261   2.022   2.113  2.8553  2.0360 -0.9719
 8224SOL     OW36307   2.464   4.363   4.665  0.6025 -0.4434  0.5424
 8224SOL    HW136308   2.395   4.301   4.687  0.7183 -0.1758  1.6887
 8224SOL    HW236309   2.532   4.326   4.722  0.6072 -0.1740  0.7107
 8225SOL     OW36310   4.156   4.159   4.581 -0.1769 -0.0432  0.2002
 8225SOL    HW136311   4.156   4.065   4.597 -3.7402  0.4846  3.1168
 8225SOL    HW236312   4.073   4.171   4.535  2.5144  1.2422 -4.3782
 8226SOL     OW36313   2.573   4.602   0.165 -0.3299 -0.0003 -0.4782
 8226SOL    HW136314   2.510   4.661   0.123  0.6252 -1.0881 -3.3946
 8226SOL    HW236315   2.569   4.641   0.253  0.2659 -0.9467 -0.0394
 8227SOL     OW36316   4.098   0.092   8.676  0.0391  0.5218 -0.4322
 8227SOL    HW136317   4.046   0.016   8.703 -0.9317  2.0392  2.0469
 8227SOL    HW236318   4.155   0.056   8.608 -0.2828 -2.7515  1.0082
 8228SOL     OW36319   4.395   2.807   3.448  0.7376 -0.1361 -0.0788
 8228SOL    HW136320   4.384   2.756   3.528  1.4199 -0.8636 -0.4516
 8228SOL    HW236321   4.343   2.881   3.481  1.7653  0.7698 -0.4964
 8229SOL     OW36322   0.899   3.319  11.743 -0.1192 -0.3215  0.0353
 8229SOL    HW136323   0.808   3.302  11.768 -0.1439  1.2199  0.9995
 8229SOL    HW236324   0.887   3.299  11.650 -2.1411  1.5968 -0.1274
 8230SOL     OW36325   0.007   2.331   9.575  0.7668 -0.3514  0.0562
 8230SOL    HW136326   0.047   2.346   9.661  1.8546  0.5432 -0.6224
 8230SOL    HW236327   0.011   2.235   9.573  1.1289 -0.3456  0.4756
 8231SOL     OW36328   3.221   3.907   7.096  0.0226  0.3502 -0.2166
 8231SOL    HW136329   3.305   3.919   7.050 -0.5552  2.9410 -0.6066
 8231SOL    HW236330   3.198   3.816   7.077  0.3716 -0.1635  1.8063
 8232SOL     OW36331   0.630   4.406   3.256 -0.4781  0.2529  0.1562
 8232SOL    HW136332   0.716   4.367   3.264 -0.7810 -0.4530 -0.0651
 8232SOL    HW236333   0.585   4.327   3.285  1.0135 -0.6362  0.0184
 8233SOL     OW36334   3.362   2.375   4.208  0.3279  0.3493  0.7096
 8233SOL    HW136335   3.322   2.365   4.295  0.2568  2.4779  0.9214
 8233SOL    HW236336   3.356   2.282   4.186 -1.7091  1.1210 -1.9877
 8234SOL     OW36337   1.761   3.224   3.861  0.0903 -0.0553  0.6847
 8234SOL    HW136338   1.790   3.169   3.788  0.4227  1.8370 -0.6127
 8234SOL    HW236339   1.713   3.164   3.918 -0.4262  0.2844  0.6014
 8235SOL     OW36340   1.580   3.479  17.400 -0.1017 -0.5562  0.2431
 8235SOL    HW136341   1.639   3.482  17.476 -0.4008  1.3638  0.4049
 8235SOL    HW236342   1.538   3.395  17.418  0.4528 -0.7814  0.4926
 8236SOL     OW36343   4.038   3.341  10.956 -0.2428  0.4730 -0.0489
 8236SOL    HW136344   4.009   3.408  11.018 -1.8111 -1.2746  1.1411
 8236SOL    HW236345   4.115   3.316  11.006  1.2517  1.2848 -1.9629
 8237SOL     OW36346   0.229   3.604   8.424  0.1343  0.0097 -0.0039
 8237SOL    HW136347   0.139   3.576   8.407  0.2149 -0.5262  0.4553
 8237SOL    HW236348   0.217   3.628   8.516  1.3367 -2.3496  0.7791
 8238SOL     OW36349   4.009   4.293   4.920 -0.5624 -0.3201  0.3053
 8238SOL    HW136350   3.956   4.372   4.914  0.1442  0.2722  1.8900
 8238SOL    HW236351   4.081   4.293   4.857 -1.9375  3.1123 -1.2833
 8239SOL     OW36352   0.669   2.113  14.872  0.4273 -0.2297  1.3054
 8239SOL    HW136353   0.586   2.072  14.895  0.2336 -0.1614  0.7273
 8239SOL    HW236354   0.658   2.156  14.787 -0.9299 -0.9619  1.1178
 8240SOL     OW36355   4.251   2.634   5.332  0.2768  0.1939 -0.0374
 8240SOL    HW136356   4.160   2.636   5.301 -0.6264  1.1435  2.6556
 8240SOL    HW236357   4.255   2.550   5.377  1.1467  0.8051  1.0222
 8241SOL     OW36358   4.359   2.400   7.349  0.1499 -0.6654 -0.3046
 8241SOL    HW136359   4.454   2.402   7.342  0.1411 -3.7328 -1.0709
 8241SOL    HW236360   4.352   2.349   7.429  1.9686  0.0184  0.2982
 8242SOL     OW36361   3.717   3.766   6.950 -0.0642 -0.1744  0.5243
 8242SOL    HW136362   3.647   3.785   6.887  1.7894  0.0303 -1.4897
 8242SOL    HW236363   3.790   3.746   6.892 -1.0649 -0.6358 -0.5941
 8243SOL     OW36364   0.552   0.454   5.482  0.3301  0.1613 -0.5389
 8243SOL    HW136365   0.601   0.535   5.468  1.8250 -0.7819 -0.7500
 8243SOL    HW236366   0.622   0.406   5.526 -0.1146 -0.1519 -0.1708
 8244SOL     OW36367   4.243   0.967   2.840  0.0858 -0.2763  0.2727
 8244SOL    HW136368   4.306   0.923   2.897  1.0664 -1.2725 -1.5663
 8244SOL    HW236369   4.161   0.938   2.880  0.3369 -2.2598 -0.5944
 8245SOL     OW36370   2.760   3.335  13.129 -0.3824  0.1986 -0.3908
 8245SOL    HW136371   2.697   3.406  13.117 -1.4811 -0.5598  0.9401
 8245SOL    HW236372   2.702   3.264  13.100  0.0792 -0.3941  0.1347
 8246SOL     OW36373   0.454   0.180  11.075  0.5346  0.2779  0.2691
 8246SOL    HW136374   0.465   0.272  11.099 -0.3291  0.4583 -0.0499
 8246SOL    HW236375   0.522   0.157  11.012 -0.1718 -0.4199 -0.2303
 8247SOL     OW36376   0.478   3.966   3.964  0.2842 -0.8347 -0.3916
 8247SOL    HW136377   0.453   4.020   3.889 -2.5278 -1.9652 -0.2457
 8247SOL    HW236378   0.406   3.988   4.022 -1.0837  0.4570 -2.5702
 8248SOL     OW36379   4.676   1.909   1.443 -0.4831  0.3473  0.8021
 8248SOL    HW136380   4.608   1.959   1.398 -0.3009  0.2911  0.4592
 8248SOL    HW236381   4.708   1.979   1.499 -0.9711 -0.3142  1.8974
 8249SOL     OW36382   3.463   4.375   3.892  0.3328  0.3805  0.0043
 8249SOL    HW136383   3.411   4.356   3.970  1.9015 -3.2040  0.1971
 8249SOL    HW236384   3.526   4.439   3.926  1.9713 -1.5071  0.5492
 8250SOL     OW36385   4.668   1.995   3.571 -0.0832 -0.2782  0.2641
 8250SOL    HW136386   4.612   2.072   3.569  2.9410  1.9384  0.4428
 8250SOL    HW236387   4.608   1.924   3.548 -0.5812 -0.2343  1.4221
 8251SOL     OW36388   3.407   4.115   6.052  0.4110 -0.3705 -0.7354
 8251SOL    HW136389   3.428   4.126   5.959 -0.9584  0.2209 -0.9727
 8251SOL    HW236390   3.390   4.206   6.077  1.1220 -0.4446  0.0266
 8252SOL     OW36391   0.886   1.185  11.024 -0.5579 -0.7085  0.4343
 8252SOL    HW136392   0.816   1.245  11.049 -0.4620  0.4194 -1.9305
 8252SOL    HW236393   0.957   1.215  11.081 -1.9185 -1.0359  2.2954
 8253SOL     OW36394   3.592   3.276   9.997  0.3301 -0.5033  0.1382
 8253SOL    HW136395   3.661   3.209   9.997  0.0271 -0.8083  1.0851
 8253SOL    HW236396   3.620   3.334   9.926  0.1658  1.6085  1.8000
 8254SOL     OW36397   1.835   4.252   0.635 -0.2076 -0.3984  0.4914
 8254SOL    HW136398   1.758   4.258   0.579  0.0121  0.1491  0.2510
 8254SOL    HW236399   1.805   4.283   0.721  2.6808  2.7092  0.3635
 8255SOL     OW36400   3.484   3.797   6.358 -0.3603 -0.3139  0.0961
 8255SOL    HW136401   3.434   3.750   6.424 -1.0630 -2.0633 -1.6988
 8255SOL    HW236402   3.480   3.735   6.285  0.4554  0.6601 -0.7877
 8256SOL     OW36403   1.633   3.254   3.467  0.4901 -0.2632 -0.5181
 8256SOL    HW136404   1.576   3.322   3.432  1.1060 -0.9846 -2.9311
 8256SOL    HW236405   1.607   3.181   3.411  2.5324 -1.6914  0.3928
 8257SOL     OW36406   3.202   4.642   8.698  0.1381  0.3211 -0.3428
 8257SOL    HW136407   3.267   4.582   8.662  2.1641  1.8502  0.7579
 8257SOL    HW236408   3.231   4.637   8.790  1.9263 -0.0779 -0.9248
 8258SOL     OW36409   3.931   3.811  12.951 -0.0888  0.6202 -0.4059
 8258SOL    HW136410   3.970   3.883  12.902 -0.5143  1.6418  0.7878
 8258SOL    HW236411   4.000   3.749  12.925 -0.4212 -0.4336  1.2378
 8259SOL     OW36412   0.674   3.989   8.857 -0.0877 -0.5034  0.9229
 8259SOL    HW136413   0.639   3.974   8.945 -1.3489 -1.3812  0.2779
 8259SOL    HW236414   0.637   4.074   8.834 -0.5880 -0.8286  0.5337
 8260SOL     OW36415   2.223   1.768   2.299 -0.0507 -0.0090  0.8514
 8260SOL    HW136416   2.183   1.807   2.376 -1.7365  1.1075 -0.5747
 8260SOL    HW236417   2.241   1.847   2.246 -0.6446 -2.0188 -2.3742
 8261SOL     OW36418   2.979   1.603   2.083 -0.0939 -0.0824  0.4698
 8261SOL    HW136419   3.040   1.546   2.130  0.8178  0.7423  0.2927
 8261SOL    HW236420   2.981   1.551   2.003 -1.0256 -0.9411  1.0187
 8262SOL     OW36421   0.105   0.629   4.347 -0.2760  0.2726  0.4514
 8262SOL    HW136422   0.096   0.712   4.300 -0.2179 -1.5400 -2.7603
 8262SOL    HW236423   0.053   0.567   4.297  0.6147 -0.0956 -0.0066
 8263SOL     OW36424   3.786   2.009   8.564 -0.2650 -0.7614 -0.0834
 8263SOL    HW136425   3.812   2.101   8.568  3.0006 -1.7205  1.1319
 8263SOL    HW236426   3.697   2.016   8.597 -0.4044 -1.7534 -0.2502
 8264SOL     OW36427   4.207   0.968   8.516 -0.5417 -0.3284  0.1595
 8264SOL    HW136428   4.208   0.954   8.611  0.4586  1.1823  0.3593
 8264SOL    HW236429   4.120   1.005   8.501 -0.7260 -0.7714  0.1205
 8265SOL     OW36430   3.659   0.318   7.561  0.9384 -0.2448 -0.2094
 8265SOL    HW136431   3.579   0.365   7.538  1.2916 -0.4590 -1.8414
 8265SOL    HW236432   3.640   0.286   7.650 -1.3289 -1.6085 -1.1869
 8266SOL     OW36433   0.884   3.778  10.122 -0.0838 -0.1604 -0.7557
 8266SOL    HW136434   0.926   3.837  10.059 -0.4604  0.4903 -0.3926
 8266SOL    HW236435   0.946   3.764  10.194  0.0264 -0.9141 -0.9939
 8267SOL     OW36436   4.504   2.432   6.967 -0.0676 -0.0410 -0.2826
 8267SOL    HW136437   4.526   2.360   6.908  1.1018 -1.3153  1.6940
 8267SOL    HW236438   4.590   2.449   7.006  0.8799 -0.5047 -2.1551
 8268SOL     OW36439   2.957   0.964  12.446  0.2482 -0.5234 -0.0687
 8268SOL    HW136440   3.028   1.028  12.446 -1.0122  0.8710  0.3351
 8268SOL    HW236441   2.969   0.928  12.359 -0.2012  1.5992 -1.0228
 8269SOL     OW36442   4.112   4.565  15.699  0.4141  0.1710  0.7274
 8269SOL    HW136443   4.099   4.589  15.790  0.3498 -0.1803  0.8090
 8269SOL    HW236444   4.036   4.508  15.703  1.8083 -1.7712 -0.5284
 8270SOL     OW36445   3.049   2.301   8.852  0.3476  1.2578 -0.5603
 8270SOL    HW136446   3.094   2.364   8.908 -0.6172  1.9596 -0.5771
 8270SOL    HW236447   3.058   2.342   8.767 -2.0352 -1.3299 -2.0678
 8271SOL     OW36448   1.979   2.053   2.947  0.4254 -0.1822 -0.4038
 8271SOL    HW136449   1.982   2.095   2.861 -1.3640  0.6579 -0.0544
 8271SOL    HW236450   1.962   1.961   2.929 -2.3117  0.0222  1.2536
 8272SOL     OW36451   1.398   3.889  14.690  0.9250  0.2845 -0.2096
 8272SOL    HW136452   1.412   3.817  14.752 -0.2492  0.7683  0.5913
 8272SOL    HW236453   1.388   3.967  14.743  0.2441  0.4564 -0.5916
 8273SOL     OW36454   0.886   4.405  10.762  0.1322 -0.1213 -0.3646
 8273SOL    HW136455   0.982   4.409  10.761  0.0315  2.5597 -0.4977
 8273SOL    HW236456   0.856   4.495  10.751  1.2514  0.1972 -0.8741
 8274SOL     OW36457   4.553   0.252  11.335 -0.2753  0.0433  0.1410
 8274SOL    HW136458   4.614   0.314  11.294 -1.4679  1.0574 -0.1208
 8274SOL    HW236459   4.472   0.301  11.351  0.9982  3.2276 -3.0885
 8275SOL     OW36460   2.900   2.861   9.969 -0.1590 -0.4395 -0.0083
 8275SOL    HW136461   2.823   2.867   9.913 -0.1139 -2.0406 -0.2347
 8275SOL    HW236462   2.955   2.798   9.922  1.0554  1.7189 -1.4455
 8276SOL     OW36463   1.038   3.797   4.347 -0.5234  0.2624 -0.2873
 8276SOL    HW136464   0.951   3.762   4.328  0.1136 -0.9276 -1.0293
 8276SOL    HW236465   1.022   3.889   4.326  0.9461  0.1358 -1.9589
 8277SOL     OW36466   4.279   3.435   7.019  0.0611 -0.5080 -0.3847
 8277SOL    HW136467   4.327   3.364   7.063  0.3526 -0.3592 -0.4632
 8277SOL    HW236468   4.270   3.505   7.083  3.1782 -1.1255  0.7121
 8278SOL     OW36469   2.268   2.992   8.482 -0.0300  0.0190  0.5132
 8278SOL    HW136470   2.247   3.085   8.481  0.9867  0.2333 -0.8859
 8278SOL    HW236471   2.281   2.971   8.390 -2.7069 -1.1535  0.4046
 8279SOL     OW36472   2.402   2.619   3.049  1.0973 -0.4799 -0.0942
 8279SOL    HW136473   2.341   2.692   3.050  2.6463  0.8206  0.1623
 8279SOL    HW236474   2.354   2.555   3.100 -0.7490  2.6322  2.0950
 8280SOL     OW36475   2.054   4.318   9.739  0.0650  0.8966 -0.5060
 8280SOL    HW136476   2.110   4.275   9.804  0.5648  1.1946 -0.7465
 8280SOL    HW236477   2.020   4.244   9.688  0.8671 -0.0746  0.3707
 8281SOL     OW36478   4.233   3.615   8.731  0.6172  0.5391 -0.3162
 8281SOL    HW136479   4.324   3.635   8.751  0.3178 -0.8993  2.5073
 8281SOL    HW236480   4.201   3.701   8.759 -0.2638 -0.2912  1.2426
 8282SOL     OW36481   4.271   2.855   5.992 -0.1198 -0.1789  0.4618
 8282SOL    HW136482   4.189   2.808   6.008 -1.5238  1.6523 -1.3603
 8282SOL    HW236483   4.249   2.912   5.918  3.2848 -1.0654 -1.2335
 8283SOL     OW36484   4.645   3.410   6.627 -0.8311 -0.2670 -0.2587
 8283SOL    HW136485   4.571   3.382   6.574 -0.9770 -0.8461  0.2526
 8283SOL    HW236486   4.652   3.502   6.602  1.9962 -0.4183 -0.0047
 8284SOL     OW36487   2.794   1.198   4.428  0.4992  0.5314 -0.9638
 8284SOL    HW136488   2.759   1.132   4.368  0.2625 -0.9400  0.8126
 8284SOL    HW236489   2.801   1.277   4.374  1.5123  0.2305 -1.2658
 8285SOL     OW36490   1.824   3.506   3.134  0.3358  0.0273 -0.5039
 8285SOL    HW136491   1.914   3.488   3.162  0.2094 -1.2016 -0.8752
 8285SOL    HW236492   1.788   3.417   3.129  1.0680 -0.2536 -0.7222
 8286SOL     OW36493   0.110   4.318   3.088  0.1764 -0.1407  0.0589
 8286SOL    HW136494   0.150   4.354   3.009  1.9255 -3.0582 -0.3961
 8286SOL    HW236495   0.184   4.317   3.149 -1.1999 -1.2267  1.7488
 8287SOL     OW36496   0.573   1.346   8.755 -0.0975 -0.3306 -0.8146
 8287SOL    HW136497   0.633   1.368   8.827  1.9289 -2.3252 -1.8930
 8287SOL    HW236498   0.494   1.322   8.803 -0.9446 -0.1598 -2.1333
 8288SOL     OW36499   2.806   1.816  17.337 -0.1812 -0.0098  0.0744
 8288SOL    HW136500   2.800   1.844  17.246 -0.8188 -0.3591  0.0092
 8288SOL    HW236501   2.748   1.741  17.340 -1.1663  0.6597 -2.2260
 8289SOL     OW36502   0.308   1.199   5.420  0.7726  0.4785 -0.2809
 8289SOL    HW136503   0.219   1.171   5.398  1.9958 -1.5235 -2.6725
 8289SOL    HW236504   0.337   1.249   5.344 -1.7865 -1.6479 -2.6743
 8290SOL     OW36505   2.670   1.430  13.305 -0.7340  0.2383  0.3819
 8290SOL    HW136506   2.602   1.456  13.367 -0.8952 -1.7885  1.0691
 8290SOL    HW236507   2.750   1.467  13.341  0.3767 -1.3789 -0.3929
 8291SOL     OW36508   2.360   0.588   2.334 -0.8455  0.0073 -0.0446
 8291SOL    HW136509   2.445   0.603   2.293 -0.4961  0.2542  0.7740
 8291SOL    HW236510   2.377   0.513   2.390  1.1118  1.0436  0.7388
 8292SOL     OW36511   3.402   2.746   2.835 -0.2572 -0.2007 -0.2133
 8292SOL    HW136512   3.496   2.759   2.820 -0.2429  0.0574  0.1140
 8292SOL    HW236513   3.397   2.670   2.893 -0.0009  0.3537  0.5274
 8293SOL     OW36514   3.021   2.405   6.193  0.0288  0.3484  0.2107
 8293SOL    HW136515   3.067   2.396   6.110 -0.5341 -0.5110 -0.0063
 8293SOL    HW236516   3.030   2.500   6.197  1.5619  0.1451  1.8515
 8294SOL     OW36517   2.694   2.428   5.901 -0.4332 -0.2349  0.7413
 8294SOL    HW136518   2.642   2.401   5.826 -0.6778 -0.2189  0.9069
 8294SOL    HW236519   2.780   2.407   5.865 -1.1060 -0.4755 -0.7192
 8295SOL     OW36520   4.136   2.629   7.663 -0.6672  0.0510 -0.3056
 8295SOL    HW136521   4.212   2.646   7.719 -2.3495 -0.4988  2.1565
 8295SOL    HW236522   4.149   2.535   7.646  0.8257 -0.1622  1.9917
 8296SOL     OW36523   1.974   2.300   3.066 -0.1259 -0.1875  1.1982
 8296SOL    HW136524   2.043   2.341   3.014  2.1147 -3.2934  1.6550
 8296SOL    HW236525   1.995   2.208   3.048 -0.9200  0.2745 -2.0760
 8297SOL     OW36526   1.234   2.466  10.554  0.0208 -0.3326 -0.3949
 8297SOL    HW136527   1.301   2.415  10.508 -1.5462 -2.7089 -0.0383
 8297SOL    HW236528   1.216   2.544  10.502 -2.4971 -0.1720  0.7357
 8298SOL     OW36529   3.006   1.779   9.620  0.0173  0.0299 -0.2802
 8298SOL    HW136530   3.074   1.825   9.569  0.2996 -0.2544 -0.1613
 8298SOL    HW236531   2.981   1.709   9.560 -1.5968 -0.9883  1.5946
 8299SOL     OW36532   0.306   0.529   7.063  0.1192  0.5349 -0.1804
 8299SOL    HW136533   0.318   0.588   7.138 -0.6401  1.0615 -0.4847
 8299SOL    HW236534   0.268   0.454   7.109 -0.6916  0.6839 -0.6091
 8300SOL     OW36535   2.991   4.324   6.646 -0.0336  0.1314 -0.7409
 8300SOL    HW136536   3.070   4.379   6.639  0.9417 -1.3350 -1.1676
 8300SOL    HW236537   3.017   4.240   6.608 -1.5086 -0.0990 -1.2250
 8301SOL     OW36538   2.038   0.993  15.083 -0.1792  0.3749 -0.0500
 8301SOL    HW136539   2.049   0.907  15.042 -0.7660  0.1597  0.2462
 8301SOL    HW236540   1.942   0.999  15.088 -0.1009  0.9300  0.8303
 8302SOL     OW36541   1.109   4.697  13.279 -0.5107 -0.1967 -0.6658
 8302SOL    HW136542   1.079   4.608  13.256 -1.5076  0.3580 -1.5084
 8302SOL    HW236543   1.199   4.677  13.306 -0.1478  2.1796 -0.1470
 8303SOL     OW36544   1.231   2.082   2.987  0.1774 -0.0455  0.5364
 8303SOL    HW136545   1.222   2.166   3.031  0.9296  0.1469  0.3172
 8303SOL    HW236546   1.181   2.021   3.041  0.6438 -1.8682 -1.0420
 8304SOL     OW36547   1.015   4.234   7.966 -0.3519  0.1051  0.4167
 8304SOL    HW136548   1.088   4.208   8.022 -1.1561 -1.8299  0.5851
 8304SOL    HW236549   1.006   4.329   7.968  0.2252  0.1678  0.1946
 8305SOL     OW36550   3.950   3.820   9.457 -0.2171  0.0921  0.0506
 8305SOL    HW136551   3.854   3.824   9.451 -0.3245  1.0967  2.6167
 8305SOL    HW236552   3.972   3.910   9.482  1.0337  0.2848 -1.7260
 8306SOL     OW36553   3.810   1.001   4.557 -0.5333 -0.5881  0.8532
 8306SOL    HW136554   3.735   1.057   4.576  0.2362  0.5333  0.5588
 8306SOL    HW236555   3.792   0.926   4.614 -0.3430 -0.6520  0.8288
 8307SOL     OW36556   2.922   0.856   6.323 -0.9792 -0.2983  0.3372
 8307SOL    HW136557   2.845   0.909   6.345 -0.0008 -0.0708  3.2778
 8307SOL    HW236558   2.959   0.911   6.255  1.4461  0.2474  2.0908
 8308SOL     OW36559   4.678   2.079   5.529 -0.2258  0.2457 -0.5337
 8308SOL    HW136560   4.612   2.138   5.566 -0.0391  1.7286 -2.5178
 8308SOL    HW236561   0.016   2.125   5.565  0.5376 -1.0444 -0.5014
 8309SOL     OW36562   1.634   0.688   9.028 -0.0396 -0.2725 -0.3549
 8309SOL    HW136563   1.615   0.685   8.934 -1.2253  1.4156 -0.1708
 8309SOL    HW236564   1.548   0.678   9.070 -0.2636  0.4073 -0.6575
 8310SOL     OW36565   1.429   4.153   1.897  0.0285 -0.3006  0.4470
 8310SOL    HW136566   1.340   4.179   1.920 -0.5359 -1.2975 -0.6026
 8310SOL    HW236567   1.429   4.067   1.856 -1.0137 -1.7911  3.6244
 8311SOL     OW36568   0.758   0.951  17.578 -0.3487 -0.3908  0.1838
 8311SOL    HW136569   0.682   0.935  17.522  0.6177  1.1015 -1.5451
 8311SOL    HW236570   0.712   0.965  17.661 -1.3083  1.8155 -0.7251
 8312SOL     OW36571   1.425   0.458  17.338  0.0938 -0.2389 -0.2594
 8312SOL    HW136572   1.417   0.438  17.244  1.7163  0.0333 -0.4457
 8312SOL    HW236573   1.447   0.550  17.323  0.4954 -0.0602  1.4822
 8313SOL     OW36574   0.453   2.496   3.804 -0.5606  0.5445  0.2606
 8313SOL    HW136575   0.467   2.405   3.777  2.1608  0.7389  0.9918
 8313SOL    HW236576   0.529   2.539   3.765 -0.4370 -0.6174 -0.7915
 8314SOL     OW36577   3.429   0.695   7.689 -0.0708  0.4961  0.3804
 8314SOL    HW136578   3.486   0.642   7.745  0.9137 -0.4991 -1.5405
 8314SOL    HW236579   3.461   0.782   7.715  4.3029 -1.1025  0.4058
 8315SOL     OW36580   2.268   2.194   5.672 -0.0417  0.2980  0.3218
 8315SOL    HW136581   2.277   2.227   5.761 -0.9672  0.3349  0.4089
 8315SOL    HW236582   2.173   2.181   5.669  0.0233 -0.1339  0.0427
 8316SOL     OW36583   0.274   3.792   3.829 -0.1337  0.1835  0.4201
 8316SOL    HW136584   0.356   3.800   3.781 -0.8369  1.3350 -0.5926
 8316SOL    HW236585   0.231   3.738   3.763  0.1154  0.2541  0.2040
 8317SOL     OW36586   0.508   3.753   8.669  0.6442  0.9646 -0.2678
 8317SOL    HW136587   0.572   3.806   8.716  0.5478 -1.2561  2.3367
 8317SOL    HW236588   0.556   3.670   8.675  1.2646  1.4042  0.8337
 8318SOL     OW36589   0.798   4.489   1.213  0.6967  0.1989  0.7668
 8318SOL    HW136590   0.865   4.521   1.274 -0.0351 -0.9238  2.1553
 8318SOL    HW236591   0.780   4.567   1.159  2.0653 -0.9413 -1.3607
 8319SOL     OW36592   1.720   1.160   0.511  0.1173 -0.1546 -0.2571
 8319SOL    HW136593   1.658   1.164   0.439  0.1282 -0.8977 -0.3121
 8319SOL    HW236594   1.707   1.247   0.548  0.1326 -0.0676 -0.4579
 8320SOL     OW36595   0.608   0.407   1.541  0.0464 -0.0419 -0.2529
 8320SOL    HW136596   0.648   0.422   1.627  0.7117 -1.8509 -0.2280
 8320SOL    HW236597   0.567   0.320   1.548 -0.7236  0.2358 -1.3380
 8321SOL     OW36598   3.000   3.089   8.996 -0.3253 -0.0500  0.0971
 8321SOL    HW136599   3.066   3.105   8.928  2.3288 -0.9669  2.4406
 8321SOL    HW236600   2.997   2.994   8.998  0.8972 -0.0746  0.7345
 8322SOL     OW36601   1.631   1.247   4.046 -0.2262 -0.6516 -0.0435
 8322SOL    HW136602   1.602   1.202   4.125  2.1639  1.0940  1.8342
 8322SOL    HW236603   1.648   1.334   4.081  3.2750 -1.7659  0.9921
 8323SOL     OW36604   3.756   2.675   7.895 -0.2134  0.1732 -0.2864
 8323SOL    HW136605   3.817   2.699   7.825  0.2703 -1.3123 -0.3753
 8323SOL    HW236606   3.792   2.715   7.974  0.7384 -0.8463 -0.2014
 8324SOL     OW36607   4.352   4.132  16.743  0.2074  0.5480 -0.4699
 8324SOL    HW136608   4.288   4.064  16.765  1.6611 -1.2656 -1.8914
 8324SOL    HW236609   4.389   4.103  16.660  1.8138 -0.7438  0.6995
 8325SOL     OW36610   1.606   1.170  17.717  0.0450 -0.0625  0.1006
 8325SOL    HW136611   1.604   1.265  17.732 -0.0647 -0.1439  0.5826
 8325SOL    HW236612   1.513   1.147  17.721  0.7444 -2.9671 -0.5515
 8326SOL     OW36613   4.152   2.649   9.729 -0.9309  0.0769  0.1538
 8326SOL    HW136614   4.073   2.687   9.689 -0.2415  0.4486 -0.8614
 8326SOL    HW236615   4.192   2.612   9.650 -0.7568  0.6906 -0.0475
 8327SOL     OW36616   2.618   2.073   6.217 -0.2761 -0.1403 -0.1034
 8327SOL    HW136617   2.639   2.023   6.296  1.7346  1.9273  0.6645
 8327SOL    HW236618   2.702   2.077   6.170 -0.7680  0.2074 -0.9541
 8328SOL     OW36619   2.570   3.011   5.124 -0.2242  0.2251  0.1846
 8328SOL    HW136620   2.552   2.963   5.205  0.5686  1.0054  0.8163
 8328SOL    HW236621   2.489   2.989   5.077  1.1759 -0.1981 -1.9802
 8329SOL     OW36622   4.532   3.574   6.161 -0.7772 -0.1548 -0.4780
 8329SOL    HW136623   4.499   3.484   6.158  0.4373 -0.5794 -0.7969
 8329SOL    HW236624   4.513   3.604   6.072  0.0591  0.1025 -0.5739
 8330SOL     OW36625   4.498   4.673   5.024  0.1979 -0.0358 -0.5142
 8330SOL    HW136626   4.555   0.011   5.012  1.9441 -1.3362 -0.5834
 8330SOL    HW236627   4.522   4.624   4.946 -1.1373 -0.5855 -0.5666
 8331SOL     OW36628   2.791   2.361   3.210 -0.0962  0.2758  0.1867
 8331SOL    HW136629   2.726   2.344   3.141  1.5211  0.2759 -1.3368
 8331SOL    HW236630   2.744   2.347   3.292 -1.3007  2.2415 -0.1668
 8332SOL     OW36631   1.673   4.137   2.103  0.3991 -0.1069 -0.4584
 8332SOL    HW136632   1.611   4.154   2.032  0.5443 -1.4939 -0.9168
 8332SOL    HW236633   1.755   4.138   2.053  0.9025 -2.1797  0.3336
 8333SOL     OW36634   2.148   1.799   2.696 -0.6450 -0.3410 -0.2885
 8333SOL    HW136635   2.230   1.841   2.723 -1.0905 -0.9133  1.9215
 8333SOL    HW236636   2.163   1.707   2.675 -2.2196 -0.7436  0.4265
 8334SOL     OW36637   1.550   4.688  13.254  0.0056 -0.7193  0.1780
 8334SOL    HW136638   1.641   4.680  13.281  0.3073  1.2748 -0.2448
 8334SOL    HW236639   1.530   0.042  13.273 -3.4891 -1.6765  1.1544
 8335SOL     OW36640   1.703   3.403  13.534 -0.7126 -0.3255 -0.3160
 8335SOL    HW136641   1.638   3.445  13.478 -1.1217 -0.3310  0.1595
 8335SOL    HW236642   1.747   3.485  13.558 -1.5810  0.5664 -1.7507
 8336SOL     OW36643   0.420   3.397   4.609 -0.5614 -0.6414 -0.3704
 8336SOL    HW136644   0.453   3.348   4.684  0.8162 -1.3367 -1.4355
 8336SOL    HW236645   0.500   3.392   4.557 -0.3494 -0.4133 -0.0708
 8337SOL     OW36646   0.173   1.158   8.294 -0.2607 -0.2453  0.4374
 8337SOL    HW136647   0.137   1.167   8.382 -0.4434  0.2961  0.3042
 8337SOL    HW236648   0.208   1.068   8.295  1.0183  0.2715  1.5852
 8338SOL     OW36649   1.832   3.373   2.419 -0.2914 -0.0843  0.4732
 8338SOL    HW136650   1.879   3.305   2.371 -1.5616  1.3417 -2.8195
 8338SOL    HW236651   1.769   3.413   2.358 -0.7397  0.6938  1.4461
 8339SOL     OW36652   0.918   0.267   8.556  0.1298  0.2225  0.7358
 8339SOL    HW136653   0.886   0.235   8.472  0.4174 -1.3461  1.2203
 8339SOL    HW236654   1.003   0.225   8.571  0.7431  1.1082 -0.3194
 8340SOL     OW36655   3.424   0.132   1.446  0.4369 -0.1687 -0.0951
 8340SOL    HW136656   3.392   0.204   1.500 -1.0094 -0.6441 -0.3247
 8340SOL    HW236657   3.443   0.071   1.518 -0.5910  0.3590  0.6116
 8341SOL     OW36658   3.792   3.235   8.389  0.5926 -0.4374 -0.0687
 8341SOL    HW136659   3.742   3.272   8.462 -0.0428  0.1944 -0.8146
 8341SOL    HW236660   3.735   3.259   8.316 -0.7613 -2.8611  0.1548
 8342SOL     OW36661   2.962   1.956   4.661 -0.0809 -0.4276 -0.4406
 8342SOL    HW136662   2.952   1.870   4.700  1.9816  0.2957  1.7076
 8342SOL    HW236663   2.871   1.987   4.656  0.3718  1.1207  0.7468
 8343SOL     OW36664   3.902   2.754   8.937  0.2896 -0.4055 -0.4451
 8343SOL    HW136665   3.974   2.813   8.913 -0.3156  1.5891  2.6794
 8343SOL    HW236666   3.929   2.735   9.027 -0.8543  0.7633  0.1328
 8344SOL     OW36667   4.084   4.246   5.620 -0.1783 -0.3498  0.2459
 8344SOL    HW136668   4.135   4.320   5.587  1.4989 -1.6479 -0.0431
 8344SOL    HW236669   4.118   4.177   5.563 -0.0594 -0.8994  0.9925
 8345SOL     OW36670   3.686   4.691   7.463  0.6714 -0.6193 -0.2356
 8345SOL    HW136671   3.635   4.727   7.391  0.7986  0.3528  0.1631
 8345SOL    HW236672   3.745   0.023   7.489  0.7961 -0.6787 -0.3561
 8346SOL     OW36673   3.087   3.177   0.788  0.0317 -0.9777  0.3144
 8346SOL    HW136674   3.127   3.120   0.722  0.0156 -1.1904  0.4901
 8346SOL    HW236675   3.162   3.236   0.797 -1.5606  1.1957 -0.7333
 8347SOL     OW36676   2.182   4.058   5.528  0.4604 -0.2941 -0.3931
 8347SOL    HW136677   2.167   3.985   5.588  1.0723 -1.4617 -1.6478
 8347SOL    HW236678   2.228   4.121   5.583  2.3858 -1.4863 -0.6105
 8348SOL     OW36679   2.177   0.191  12.532  0.1289 -0.2338  0.6192
 8348SOL    HW136680   2.085   0.203  12.556  0.6952  0.6464  2.3607
 8348SOL    HW236681   2.205   0.148  12.613  1.6970 -1.3479 -0.4969
 8349SOL     OW36682   4.379   0.068   9.056 -0.4288 -0.0267  0.0868
 8349SOL    HW136683   4.472   0.076   9.035 -0.8143  0.3782 -1.4680
 8349SOL    HW236684   4.337   0.098   8.976  1.9224  0.7152 -0.8465
 8350SOL     OW36685   4.531   0.679   8.947  0.0349  0.2895  0.2376
 8350SOL    HW136686   4.548   0.588   8.925  3.0865  1.0657 -0.6118
 8350SOL    HW236687   4.549   0.685   9.041  0.3452 -2.4571  0.3624
 8351SOL     OW36688   3.388   2.570   9.206 -0.4184 -0.2429  0.0449
 8351SOL    HW136689   3.482   2.587   9.210 -0.6826  1.1895  0.4145
 8351SOL    HW236690   3.358   2.614   9.285 -3.1806  0.3794 -1.3573
 8352SOL     OW36691   0.030   3.353   9.483  0.1872 -0.2761 -0.0255
 8352SOL    HW136692   0.073   3.294   9.545 -1.9824 -1.0148  0.7947
 8352SOL    HW236693   4.734   3.418   9.545 -1.3681  0.4972 -1.6966
 8353SOL     OW36694   3.554   2.999   6.229 -0.3123 -0.4582  0.4021
 8353SOL    HW136695   3.463   2.996   6.258 -0.9271  0.4657 -1.4327
 8353SOL    HW236696   3.578   2.907   6.230 -3.2832 -1.2375 -0.8158
 8354SOL     OW36697   3.495   1.637   9.102 -0.3659 -0.6515  0.5729
 8354SOL    HW136698   3.416   1.635   9.157 -0.3479  3.6801  0.7833
 8354SOL    HW236699   3.492   1.733   9.099 -1.0742 -0.6013  2.7727
 8355SOL     OW36700   4.308   1.905   2.565 -0.1350  0.5082 -0.1157
 8355SOL    HW136701   4.328   1.973   2.500 -0.1104 -0.2368 -0.8797
 8355SOL    HW236702   4.357   1.935   2.642  1.0702  0.3748 -0.8252
 8356SOL     OW36703   2.249   3.497   4.363  0.3628 -0.8924  0.0488
 8356SOL    HW136704   2.156   3.502   4.342  0.5407 -0.6128 -0.6726
 8356SOL    HW236705   2.247   3.408   4.399 -1.9203 -0.4371  1.0345
 8357SOL     OW36706   2.686   0.519  15.669  0.0325 -0.4101  0.2573
 8357SOL    HW136707   2.615   0.479  15.719  0.1410  1.2002  1.6967
 8357SOL    HW236708   2.669   0.613  15.678 -1.2044 -0.6926  0.7569
 8358SOL     OW36709   4.298   3.657   3.763  0.0381 -0.3679 -0.0500
 8358SOL    HW136710   4.243   3.610   3.826 -0.6308  0.9670  0.3588
 8358SOL    HW236711   4.238   3.721   3.726  2.6670  0.8037 -2.2973
 8359SOL     OW36712   2.150   4.554   6.673  0.2448  0.2376  0.0384
 8359SOL    HW136713   2.093   4.550   6.749 -0.3480  0.7218 -0.3823
 8359SOL    HW236714   2.215   4.485   6.686  0.0576 -0.0453 -0.5114
 8360SOL     OW36715   4.326   0.313   2.047  0.0108 -0.4953  0.3969
 8360SOL    HW136716   4.344   0.261   2.125  1.0087 -0.4545  0.1852
 8360SOL    HW236717   4.250   0.363   2.077 -1.0383 -1.2860 -0.8678
 8361SOL     OW36718   0.010   3.835   8.983  0.2508 -0.6606  0.0067
 8361SOL    HW136719   0.093   3.809   9.024  0.4407 -1.3805 -0.8326
 8361SOL    HW236720   4.679   3.795   9.035  0.6162 -2.2461 -0.7011
 8362SOL     OW36721   3.320   0.533  13.263  0.2634 -0.5022 -0.8664
 8362SOL    HW136722   3.322   0.584  13.344 -2.2307  0.3660 -1.3512
 8362SOL    HW236723   3.401   0.482  13.268  0.8461  0.4099 -0.9914
 8363SOL     OW36724   1.282   2.725   3.064 -0.0498 -0.2666 -0.3285
 8363SOL    HW136725   1.278   2.789   3.135  2.1717  0.4527 -0.8667
 8363SOL    HW236726   1.200   2.745   3.019  0.6740  1.6441 -0.7639
 8364SOL     OW36727   0.142   2.262   2.781 -0.3851  0.3488 -0.6981
 8364SOL    HW136728   0.104   2.347   2.759 -0.1953  1.3411  2.7795
 8364SOL    HW236729   0.121   2.229   2.694 -1.1789  2.0742 -1.1533
 8365SOL     OW36730   3.704   0.394  14.160 -0.4349  0.4203  0.0755
 8365SOL    HW136731   3.632   0.437  14.207 -1.6496 -3.3895  1.7421
 8365SOL    HW236732   3.664   0.307  14.159 -2.1064  1.1778  1.1537
 8366SOL     OW36733   2.128   3.899   0.864  0.2928 -0.4690  0.4361
 8366SOL    HW136734   2.153   3.990   0.845  1.3929 -0.5973  1.2522
 8366SOL    HW236735   2.041   3.908   0.826  1.4261  0.7606 -1.8584
 8367SOL     OW36736   1.668   3.968   7.311  0.2174 -0.2677 -0.0754
 8367SOL    HW136737   1.685   3.884   7.353  1.1075 -0.6602 -1.2141
 8367SOL    HW236738   1.580   3.947   7.280  0.2496 -0.1160 -0.2729
 8368SOL     OW36739   2.953   4.006   1.558  0.0354 -0.2499  0.2748
 8368SOL    HW136740   2.928   3.921   1.522  1.4570 -0.4324 -0.2969
 8368SOL    HW236741   2.871   4.044   1.587  0.1735  0.3905 -0.1673
 8369SOL     OW36742   2.989   1.298   6.081  0.4282  0.1390  0.3574
 8369SOL    HW136743   3.027   1.371   6.130 -1.4691  1.6349 -0.4191
 8369SOL    HW236744   2.903   1.311   6.120  0.8078 -0.1098  1.2946
 8370SOL     OW36745   0.859   2.234   3.429  0.0740  0.6110 -0.3437
 8370SOL    HW136746   0.841   2.325   3.450  0.8609  1.2007 -2.1509
 8370SOL    HW236747   0.920   2.250   3.356 -1.1878  1.1134 -1.2957
 8371SOL     OW36748   0.396   4.504  14.656  0.4069  0.0835 -0.1689
 8371SOL    HW136749   0.322   4.526  14.712  1.6227 -0.9184  1.8328
 8371SOL    HW236750   0.375   4.559  14.581 -1.5462  1.5892  1.4790
 8372SOL     OW36751   2.011   1.083   2.028 -0.2317 -0.2544  0.0929
 8372SOL    HW136752   1.924   1.105   2.060 -0.1079 -1.7641  1.4736
 8372SOL    HW236753   2.020   0.998   2.072  5.1699  0.9882  1.3925
 8373SOL     OW36754   0.193   4.066   8.071  0.3285  0.3347  0.3607
 8373SOL    HW136755   0.249   4.143   8.065 -1.3526  1.4457 -1.3549
 8373SOL    HW236756   0.239   4.013   8.136 -0.7138 -0.9149  0.0768
 8374SOL     OW36757   4.211   4.326   9.743 -0.2820  0.4147 -0.5190
 8374SOL    HW136758   4.148   4.378   9.794 -0.7638  0.1363 -0.8267
 8374SOL    HW236759   4.289   4.381   9.748  1.5542 -2.1764 -0.9935
 8375SOL     OW36760   0.094   4.713  16.949 -0.5886 -0.1612  0.5560
 8375SOL    HW136761   0.041   4.649  16.903  1.3653 -0.7680 -0.8602
 8375SOL    HW236762   0.026   0.016  17.002 -2.8144 -3.1462  0.0214
 8376SOL     OW36763   0.808   1.702   7.832 -0.1034 -0.2178  0.2772
 8376SOL    HW136764   0.753   1.725   7.906 -1.4712 -1.0581 -0.4782
 8376SOL    HW236765   0.855   1.785   7.827  0.5661 -0.6310 -0.4514
 8377SOL     OW36766   0.898   0.659   0.771 -0.7003  0.3924  0.0633
 8377SOL    HW136767   0.973   0.609   0.740  1.3502  2.0635  2.3399
 8377SOL    HW236768   0.896   0.719   0.696  1.5456 -1.0310 -1.1387
 8378SOL     OW36769   3.969   2.847   8.559  0.4041  0.4389 -0.1310
 8378SOL    HW136770   3.984   2.940   8.544 -1.1043  0.7281  0.1648
 8378SOL    HW236771   4.051   2.838   8.608  0.4474  2.8112  0.2232
 8379SOL     OW36772   1.465   0.139  16.954  0.9606  0.9583  0.1166
 8379SOL    HW136773   1.458   0.122  17.048 -3.0158 -0.4033 -0.4585
 8379SOL    HW236774   1.373   0.151  16.933  0.5048 -1.5365  0.6963
 8380SOL     OW36775   1.184   1.072  15.739  0.5190 -0.6744 -0.2067
 8380SOL    HW136776   1.279   1.066  15.752  0.6276  2.3633  0.2923
 8380SOL    HW236777   1.177   1.035  15.651  0.8360 -0.5361 -0.2897
 8381SOL     OW36778   4.078   2.565   8.194 -0.1314 -0.3768 -1.2069
 8381SOL    HW136779   4.010   2.627   8.166  0.7805  0.6917 -1.0897
 8381SOL    HW236780   4.067   2.565   8.289 -0.0895 -1.4553 -1.2006
 8382SOL     OW36781   3.645   2.637   3.188 -0.2575  0.3041 -0.2959
 8382SOL    HW136782   3.705   2.612   3.118 -0.7869 -0.4174 -0.4952
 8382SOL    HW236783   3.655   2.731   3.201 -0.3563  0.2536  0.1658
 8383SOL     OW36784   1.546   3.396   4.978  0.3799 -0.0834  0.2930
 8383SOL    HW136785   1.545   3.307   5.013 -0.0101 -0.8418 -1.6353
 8383SOL    HW236786   1.634   3.401   4.942  0.4834  2.8061  0.9427
 8384SOL     OW36787   1.860   0.103   9.967 -0.2882  0.1461 -0.5219
 8384SOL    HW136788   1.865   0.086  10.061 -0.2719  2.0476 -0.1815
 8384SOL    HW236789   1.919   0.033   9.939  0.6035  0.1963  1.3045
 8385SOL     OW36790   1.026   4.452   9.081  0.2901 -0.3607 -0.0529
 8385SOL    HW136791   1.062   4.398   9.151  2.1301  1.2170  0.1893
 8385SOL    HW236792   0.972   4.384   9.040 -1.1432  1.2054 -0.7710
 8386SOL     OW36793   1.434   3.464   8.438 -0.9790 -0.0018  0.0810
 8386SOL    HW136794   1.483   3.428   8.365  0.5368  1.3288  0.4322
 8386SOL    HW236795   1.354   3.475   8.387 -0.4089  1.7474 -0.4381
 8387SOL     OW36796   0.989   3.433   4.002 -0.6939  0.1182  0.2251
 8387SOL    HW136797   0.899   3.409   3.984 -0.5594  0.0223 -0.3251
 8387SOL    HW236798   0.993   3.529   4.000 -1.3090  0.1023 -1.6034
 8388SOL     OW36799   3.539   2.515  13.397 -0.1957  0.4954 -0.4610
 8388SOL    HW136800   3.596   2.450  13.357 -0.5035  0.5577 -0.9996
 8388SOL    HW236801   3.508   2.563  13.321 -1.4258  1.7604  0.8345
 8389SOL     OW36802   0.146   4.718  15.817  0.3340  0.6053  0.2017
 8389SOL    HW136803   0.199   4.695  15.894 -0.6690  1.5559  1.1660
 8389SOL    HW236804   0.100   0.057  15.850  1.3197  1.4153 -0.2922
 8390SOL     OW36805   4.728   3.184   6.292  0.1427 -0.9572 -0.3717
 8390SOL    HW136806   0.049   3.259   6.285  1.6051 -1.8894  2.0341
 8390SOL    HW236807   4.698   3.179   6.201 -0.6826 -0.4852 -0.1197
 8391SOL     OW36808   2.768   0.476   7.457  0.3209 -0.3028  0.0410
 8391SOL    HW136809   2.750   0.473   7.363  0.3839 -1.6394  0.0765
 8391SOL    HW236810   2.703   0.413   7.490  0.6471 -0.4944  0.3115
 8392SOL     OW36811   2.727   2.919   4.337 -0.3844 -0.2229 -0.2272
 8392SOL    HW136812   2.682   2.847   4.381 -1.2396  0.8852  0.7083
 8392SOL    HW236813   2.715   2.992   4.398  1.0674 -2.2881  2.4913
 8393SOL     OW36814   1.291   0.557   4.215 -0.1869 -0.2214 -0.0752
 8393SOL    HW136815   1.362   0.531   4.157  1.4426  3.1148  0.4149
 8393SOL    HW236816   1.253   0.473   4.240 -1.4730  0.0722 -1.0640
 8394SOL     OW36817   3.720   1.170   2.234  0.2592  0.1274 -0.1502
 8394SOL    HW136818   3.647   1.123   2.195  0.5080 -1.0652  0.8527
 8394SOL    HW236819   3.719   1.139   2.324 -1.6141 -0.7249 -0.4563
 8395SOL     OW36820   2.121   3.768   9.036  0.0220  0.0249  0.1297
 8395SOL    HW136821   2.053   3.812   9.087  1.1437  1.1200  0.6963
 8395SOL    HW236822   2.164   3.717   9.104  0.5729  1.9459  1.2329
 8396SOL     OW36823   0.301   1.306   2.720  0.8041 -0.4386  0.0636
 8396SOL    HW136824   0.335   1.395   2.733 -1.3109  0.4274 -0.2732
 8396SOL    HW236825   0.321   1.282   2.630  0.0308  0.1091 -0.2594
 8397SOL     OW36826   1.608   1.796  13.529  0.1943 -0.0561 -0.0079
 8397SOL    HW136827   1.664   1.719  13.537  1.1184  0.4542 -1.5959
 8397SOL    HW236828   1.548   1.761  13.463  0.1207  0.9569 -0.4772
 8398SOL     OW36829   1.316   2.551   3.765 -0.0478  0.3958  0.1966
 8398SOL    HW136830   1.372   2.474   3.761 -0.7927 -0.2132  1.4437
 8398SOL    HW236831   1.239   2.516   3.720  0.6270  0.0825 -0.7083
 8399SOL     OW36832   1.890   0.797   9.688 -0.0593 -0.4465  0.4552
 8399SOL    HW136833   1.961   0.859   9.704  2.8970 -3.5681 -0.3000
 8399SOL    HW236834   1.905   0.782   9.594 -0.1473  1.4993  0.1371
 8400SOL     OW36835   3.733   2.755   8.456 -0.4535  0.1037  0.2181
 8400SOL    HW136836   3.824   2.780   8.467 -0.6279  0.4728  0.8324
 8400SOL    HW236837   3.712   2.754   8.550  1.3730  0.6044  0.6363
 8401SOL     OW36838   3.469   0.207   2.176 -0.0889  0.3191 -0.0813
 8401SOL    HW136839   3.482   0.158   2.257  1.7959  4.6351  2.2572
 8401SOL    HW236840   3.434   0.290   2.210 -2.0771 -0.3869 -0.3898
 8402SOL     OW36841   3.939   1.488   0.663 -0.2779 -0.7353  0.2043
 8402SOL    HW136842   3.917   1.397   0.684  0.9962 -1.0659  0.1200
 8402SOL    HW236843   3.984   1.525   0.739  1.0951 -0.4558 -0.7484
 8403SOL     OW36844   4.528   2.806   2.649 -0.2204 -0.2966  0.6646
 8403SOL    HW136845   4.492   2.765   2.728  0.2004 -0.6139  0.6899
 8403SOL    HW236846   4.457   2.809   2.585 -0.8233 -0.4823  1.3240
 8404SOL     OW36847   1.333   0.290   6.722 -0.1913 -0.3826  0.2342
 8404SOL    HW136848   1.280   0.211   6.726  0.7589 -0.9205  2.7183
 8404SOL    HW236849   1.258   0.349   6.731 -0.7382 -1.0260 -0.1714
 8405SOL     OW36850   2.506   3.537   7.455  0.3315  0.7007 -0.3945
 8405SOL    HW136851   2.565   3.582   7.394  0.5217  1.3932  0.3127
 8405SOL    HW236852   2.515   3.604   7.522 -1.0120 -0.9469  1.4427
 8406SOL     OW36853   4.492   0.680   4.724 -0.5072  0.1798  0.0032
 8406SOL    HW136854   4.570   0.653   4.676 -1.0577 -0.5352 -0.4898
 8406SOL    HW236855   4.442   0.731   4.659  0.0061  0.9052  0.1758
 8407SOL     OW36856   1.983   2.621  12.997 -0.0003  0.2937 -0.6763
 8407SOL    HW136857   1.964   2.654  13.085 -0.7081 -0.5801 -0.5048
 8407SOL    HW236858   2.058   2.681  12.987 -0.7290  0.8693 -2.5088
 8408SOL     OW36859   4.346   0.915   3.735 -0.0750 -0.7590 -0.2619
 8408SOL    HW136860   4.322   0.858   3.808  1.9074 -2.3847 -0.8642
 8408SOL    HW236861   4.441   0.922   3.746 -0.5105  2.0009  1.9048
 8409SOL     OW36862   4.053   1.205   7.333  0.6192  0.2510 -0.3186
 8409SOL    HW136863   3.973   1.243   7.368  1.0848  0.0376  0.9715
 8409SOL    HW236864   4.027   1.135   7.272 -0.9623  1.0126 -0.5149
 8410SOL     OW36865   1.232   0.544   6.937  0.0289 -0.0368 -0.3372
 8410SOL    HW136866   1.228   0.501   7.022  1.9315 -1.7778 -1.1354
 8410SOL    HW236867   1.166   0.613   6.939  1.5372  1.4379 -1.1751
 8411SOL     OW36868   2.844   3.442   8.363  0.2275 -0.2380  0.0332
 8411SOL    HW136869   2.821   3.352   8.341  1.5709 -0.5786  0.0377
 8411SOL    HW236870   2.786   3.493   8.306  1.1575  1.3358  0.5109
 8412SOL     OW36871   0.348   3.656  13.026 -0.3652 -0.1502  0.1709
 8412SOL    HW136872   0.370   3.569  12.995  0.6169  0.8997 -2.0954
 8412SOL    HW236873   0.435   3.695  13.014 -0.6610  0.0996 -1.1306
 8413SOL     OW36874   1.690   3.182   2.010  0.3607 -0.3058 -0.4036
 8413SOL    HW136875   1.673   3.274   1.991 -1.3474 -0.1159  2.0311
 8413SOL    HW236876   1.637   3.146   1.938  1.0025  0.0762 -1.0677
 8414SOL     OW36877   2.365   1.596   3.525  0.4552  0.0469  0.6944
 8414SOL    HW136878   2.372   1.579   3.430  0.3905  1.6949  0.3974
 8414SOL    HW236879   2.418   1.675   3.531  0.0561  0.3379  0.3730
 8415SOL     OW36880   3.676   1.109  17.102 -0.1389  0.1389 -0.9295
 8415SOL    HW136881   3.733   1.147  17.035  0.3995 -1.4598 -1.3637
 8415SOL    HW236882   3.627   1.184  17.136 -1.8119 -0.9255 -1.0050
 8416SOL     OW36883   1.218   3.354   1.475 -0.0603 -0.4322 -0.4923
 8416SOL    HW136884   1.234   3.299   1.551 -2.7037 -0.4552  0.0644
 8416SOL    HW236885   1.283   3.328   1.410  2.4339  0.6454  1.5789
 8417SOL     OW36886   3.001   1.809  15.668  0.1865  0.6202  0.1330
 8417SOL    HW136887   2.964   1.811  15.757 -1.1002  0.0698 -0.3952
 8417SOL    HW236888   3.084   1.765  15.685 -1.2703 -2.2977 -0.1889
 8418SOL     OW36889   3.454   0.632   6.225  0.3761 -0.3215 -0.2547
 8418SOL    HW136890   3.476   0.659   6.314 -1.6462 -0.6679  0.3469
 8418SOL    HW236891   3.369   0.672   6.203 -0.1377  0.6842  3.6045
 8419SOL     OW36892   3.152   3.250   9.150 -0.5423 -0.1244  0.0132
 8419SOL    HW136893   3.093   3.254   9.225 -0.4400 -0.4514  0.1118
 8419SOL    HW236894   3.105   3.191   9.090 -0.7307 -1.9735  1.9787
 8420SOL     OW36895   3.299   0.586   2.193  0.0087 -0.0382 -0.5976
 8420SOL    HW136896   3.353   0.576   2.114 -0.0661 -0.2730 -0.6208
 8420SOL    HW236897   3.348   0.531   2.255 -1.2380 -1.7237 -1.1121
 8421SOL     OW36898   3.603   3.837   5.157 -0.0044  0.0266  0.3693
 8421SOL    HW136899   3.553   3.762   5.190 -1.2810  0.8583  0.3487
 8421SOL    HW236900   3.610   3.896   5.233 -1.6825 -1.4532  1.6677
 8422SOL     OW36901   0.574   0.471   6.329  0.4048 -0.2168  0.0582
 8422SOL    HW136902   0.542   0.561   6.318 -0.5426 -0.5234  0.3214
 8422SOL    HW236903   0.507   0.433   6.386 -0.3179  2.1254  0.7717
 8423SOL     OW36904   4.178   4.618   7.293 -0.3831  0.2614 -0.0521
 8423SOL    HW136905   4.163   4.528   7.322 -2.0662  0.4383 -0.3415
 8423SOL    HW236906   4.093   4.650   7.264 -0.1155  0.0642 -1.0802
 8424SOL     OW36907   4.606   4.269   3.260 -0.1182  0.1482  0.4093
 8424SOL    HW136908   4.653   4.247   3.341 -0.0589 -1.8363 -0.1717
 8424SOL    HW236909   4.682   4.285   3.205  0.1311  0.9353  0.9658
 8425SOL     OW36910   1.096   1.596   1.912 -0.3911  0.3697  0.0946
 8425SOL    HW136911   1.097   1.619   2.005 -3.4169  0.5564  0.0856
 8425SOL    HW236912   1.156   1.656   1.868 -0.5696  0.2685 -0.2891
 8426SOL     OW36913   3.608   2.974   9.704  0.2169  0.8113  0.3825
 8426SOL    HW136914   3.645   2.960   9.791  1.1399 -1.2402 -0.3435
 8426SOL    HW236915   3.518   2.988   9.735 -0.2086  0.8026 -0.8577
 8427SOL     OW36916   2.028   0.475  15.331  0.6176 -0.0366 -0.4427
 8427SOL    HW136917   2.054   0.487  15.240  0.4936 -2.9474 -0.8552
 8427SOL    HW236918   2.029   0.381  15.349  0.8432  0.0222 -0.1383
 8428SOL     OW36919   2.422   0.418  13.299  0.0185  1.1105 -0.6205
 8428SOL    HW136920   2.485   0.392  13.233 -0.7369 -3.8470  0.6327
 8428SOL    HW236921   2.343   0.432  13.246  1.6435  2.3384 -2.7086
 8429SOL     OW36922   0.585   1.292   8.238  0.3043  0.6310 -0.1212
 8429SOL    HW136923   0.668   1.250   8.215 -1.7974 -3.5875  0.0792
 8429SOL    HW236924   0.601   1.333   8.323  0.1778  0.8274 -0.1932
 8430SOL     OW36925   1.562   0.196  10.756  0.5492  0.2618 -0.0176
 8430SOL    HW136926   1.608   0.275  10.727  1.1157 -0.6673 -1.6084
 8430SOL    HW236927   1.616   0.126  10.720  1.5627  1.0831 -0.0864
 8431SOL     OW36928   4.215   0.346   7.587 -0.2613  0.7380 -0.3362
 8431SOL    HW136929   4.176   0.383   7.508  0.6764  0.8371 -0.7509
 8431SOL    HW236930   4.238   0.418   7.646 -1.8573 -0.0937  1.3116
 8432SOL     OW36931   1.713   2.053   3.074  0.1962 -0.6519  0.3116
 8432SOL    HW136932   1.696   2.134   3.122 -1.5201 -0.6076 -0.3945
 8432SOL    HW236933   1.809   2.057   3.075  0.1970 -0.5591 -0.3427
 8433SOL     OW36934   1.100   0.582   9.003 -0.1173  0.1454 -0.0509
 8433SOL    HW136935   1.047   0.662   8.993 -1.1575 -0.3468  1.5266
 8433SOL    HW236936   1.047   0.541   9.071 -0.2810  0.8468  0.2420
 8434SOL     OW36937   3.491   0.695  13.470  0.0102  0.0388  0.6624
 8434SOL    HW136938   3.542   0.736  13.541 -0.3332  1.4445  0.0843
 8434SOL    HW236939   3.415   0.668  13.521 -1.8292  0.6666 -1.7727
 8435SOL     OW36940   3.116   3.201   3.200 -0.5589 -1.1028 -0.2437
 8435SOL    HW136941   3.035   3.248   3.181  0.8893  1.6276  0.3779
 8435SOL    HW236942   3.094   3.139   3.270 -1.1784 -0.9884 -0.3370
 8436SOL     OW36943   3.395   1.873   4.802  0.5710 -0.0731  0.4943
 8436SOL    HW136944   3.457   1.820   4.852  0.9877  0.8227  0.9392
 8436SOL    HW236945   3.442   1.879   4.719 -2.2088  0.8523 -1.0193
 8437SOL     OW36946   3.860   3.594   7.820  0.4601  0.2702  0.2157
 8437SOL    HW136947   3.934   3.650   7.843  0.2628 -0.2950  2.2278
 8437SOL    HW236948   3.814   3.661   7.770  0.3707  0.6619  0.8208
 8438SOL     OW36949   0.917   1.167   6.548  0.2128 -0.1194  0.3602
 8438SOL    HW136950   0.871   1.090   6.515  2.4782  0.0203 -3.0739
 8438SOL    HW236951   0.984   1.126   6.603 -0.5046 -0.9450  0.6157
 8439SOL     OW36952   1.576   0.190   8.191  0.5751 -0.3494 -0.2127
 8439SOL    HW136953   1.553   0.230   8.275  0.9020  2.3291 -1.3741
 8439SOL    HW236954   1.612   0.105   8.216  0.1803 -0.4794 -0.0801
 8440SOL     OW36955   4.340   0.701   6.340  0.1105 -0.8347  0.0064
 8440SOL    HW136956   4.334   0.652   6.259  2.7243 -2.4143  0.7674
 8440SOL    HW236957   4.424   0.676   6.378  1.2641  0.2205 -1.8564
 8441SOL     OW36958   1.653   3.570  13.794  0.2709 -0.2037 -0.4818
 8441SOL    HW136959   1.669   3.591  13.702  1.7817 -0.5216 -0.3059
 8441SOL    HW236960   1.614   3.648  13.833 -0.3073 -0.9027  0.3393
 8442SOL     OW36961   1.861   1.358   3.041  0.4465 -0.0455 -0.6935
 8442SOL    HW136962   1.841   1.435   2.988 -2.7153  0.5095  1.2975
 8442SOL    HW236963   1.772   1.330   3.061  1.6198 -2.1104  1.7182
 8443SOL     OW36964   1.451   3.282   4.012  0.0838  0.0433  0.1583
 8443SOL    HW136965   1.356   3.273   4.016  0.0071 -0.3867 -2.4041
 8443SOL    HW236966   1.467   3.196   3.974 -0.1483 -0.5065  1.3055
 8444SOL     OW36967   3.467   2.195   3.532  0.3572  0.2362 -0.0517
 8444SOL    HW136968   3.421   2.196   3.448  1.6607 -0.0406 -0.7651
 8444SOL    HW236969   3.508   2.281   3.529  0.7819 -0.0020 -1.0990
 8445SOL     OW36970   2.562   2.124   5.831  0.1670 -0.2232 -0.1830
 8445SOL    HW136971   2.476   2.162   5.851 -0.6151 -1.5455 -0.9862
 8445SOL    HW236972   2.607   2.202   5.798 -0.3474  0.3537  0.4624
 8446SOL     OW36973   3.488   2.021   1.673  0.3241 -0.2403  0.0712
 8446SOL    HW136974   3.438   1.942   1.691  0.9751 -0.7197 -0.2074
 8446SOL    HW236975   3.446   2.072   1.603 -0.1613 -0.8304 -0.0572
 8447SOL     OW36976   1.765   3.308   5.205 -0.4636 -0.4306 -0.1774
 8447SOL    HW136977   1.671   3.293   5.219 -0.5558  1.0043  0.8472
 8447SOL    HW236978   1.803   3.221   5.211 -0.2286 -0.3693 -0.8352
 8448SOL     OW36979   4.341   2.967   2.046 -0.4839 -0.5991  0.5183
 8448SOL    HW136980   4.249   2.973   2.071  0.0358 -1.8912  2.7582
 8448SOL    HW236981   4.353   3.035   1.980  0.4753  1.4662  2.8311
 8449SOL     OW36982   3.692   2.091   3.741  0.2301  0.3096  0.0335
 8449SOL    HW136983   3.720   2.062   3.654 -0.9604 -1.9562  0.3939
 8449SOL    HW236984   3.614   2.139   3.716 -0.6090 -0.7684  0.5635
 8450SOL     OW36985   2.319   3.765  12.909 -0.1893  0.0612  0.1568
 8450SOL    HW136986   2.295   3.764  12.817  2.3398  0.8509 -0.4866
 8450SOL    HW236987   2.386   3.832  12.918  0.4691 -0.9003  2.5620
 8451SOL     OW36988   0.693   2.909  11.791 -0.0357  0.2094  0.6534
 8451SOL    HW136989   0.680   2.914  11.696  0.0207  1.3813  0.7061
 8451SOL    HW236990   0.747   2.830  11.802  0.3076  0.5153  1.2053
 8452SOL     OW36991   1.618   1.965  13.165 -0.6064  0.1002 -0.5632
 8452SOL    HW136992   1.628   1.873  13.190 -1.1447  0.0845 -0.4068
 8452SOL    HW236993   1.670   1.963  13.085  1.4820  2.3599  0.7299
 8453SOL     OW36994   3.235   0.748   2.409  0.2704 -0.1684  0.8649
 8453SOL    HW136995   3.249   0.719   2.318  2.7729 -0.3737  1.3160
 8453SOL    HW236996   3.321   0.760   2.448  0.8000  0.4854 -0.4832
 8454SOL     OW36997   0.502   1.925   2.362  0.1609 -0.7976 -1.2653
 8454SOL    HW136998   0.409   1.903   2.353  0.2811 -2.1495  0.5898
 8454SOL    HW236999   0.513   1.959   2.274 -1.8635 -0.2682 -1.3190
 8455SOL     OW37000   0.501   0.768   3.033 -0.1905  0.1895  0.2701
 8455SOL    HW137001   0.502   0.857   3.069 -1.5764 -0.7084  2.5398
 8455SOL    HW237002   0.557   0.727   3.099 -1.7726 -2.7346 -0.2141
 8456SOL     OW37003   1.798   1.387  11.332  0.3547 -0.0914  0.7943
 8456SOL    HW137004   1.716   1.348  11.363  0.0232 -1.7853 -2.2162
 8456SOL    HW237005   1.855   1.369  11.407  1.0402 -0.8387  0.0922
 8457SOL     OW37006   1.332   3.342   2.875 -0.1549  0.1575  0.2770
 8457SOL    HW137007   1.392   3.299   2.937 -0.5869 -0.3660  0.3335
 8457SOL    HW237008   1.393   3.385   2.816 -0.3586  1.4350  0.9866
 8458SOL     OW37009   3.221   3.843   8.119  0.4103  0.4756  0.0500
 8458SOL    HW137010   3.137   3.887   8.105  0.7066  1.0897  0.2017
 8458SOL    HW237011   3.210   3.797   8.202 -1.9281 -0.2080 -0.6525
 8459SOL     OW37012   1.741   3.085   4.351 -0.0068 -0.4604 -0.0013
 8459SOL    HW137013   1.680   3.121   4.415 -0.6298 -2.3448  0.4491
 8459SOL    HW237014   1.710   3.144   4.282 -0.4797 -0.4607  0.2092
 8460SOL     OW37015   1.494   3.033   2.520 -0.4244 -0.4759  0.2142
 8460SOL    HW137016   1.546   3.061   2.445  1.6888  1.7500  2.5290
 8460SOL    HW237017   1.547   2.959   2.548 -0.7312 -1.0684 -0.7584
 8461SOL     OW37018   1.993   0.096   5.336 -0.2682 -0.0446  0.3564
 8461SOL    HW137019   2.080   0.094   5.297 -0.4112  0.9817 -0.0267
 8461SOL    HW237020   2.016   0.119   5.426  1.9568 -0.5729 -0.0802
 8462SOL     OW37021   4.517   3.374   7.802  1.0480 -0.1037  0.6954
 8462SOL    HW137022   4.563   3.458   7.808 -0.3523  0.7157 -0.1142
 8462SOL    HW237023   4.592   3.314   7.811  1.5535  0.7323  2.0701
 8463SOL     OW37024   3.416   0.319   7.823 -0.0168  0.1795  0.1550
 8463SOL    HW137025   3.352   0.372   7.775 -1.6578  0.7345  2.9157
 8463SOL    HW237026   3.420   0.237   7.773 -0.4959  1.3529 -1.8128
 8464SOL     OW37027   2.114   1.451   2.975 -0.0991  0.3107 -0.0097
 8464SOL    HW137028   2.104   1.357   2.960  0.6609 -0.1325  2.2716
 8464SOL    HW237029   2.038   1.468   3.031 -0.8189 -0.6637 -0.6922
 8465SOL     OW37030   3.625   1.184  15.974  0.0806  0.3408  0.0872
 8465SOL    HW137031   3.575   1.133  15.911  0.0117  0.6345 -0.0946
 8465SOL    HW237032   3.641   1.116  16.039 -1.0009 -0.7456 -0.7826
 8466SOL     OW37033   3.062   2.614  17.594 -0.5955 -0.0556  0.4446
 8466SOL    HW137034   3.025   2.586  17.511 -0.5089  0.4577  0.2333
 8466SOL    HW237035   3.116   2.691  17.571 -0.1326 -0.2607  0.8429
 8467SOL     OW37036   4.041   2.215   3.618 -0.6148 -0.0780  0.4052
 8467SOL    HW137037   4.067   2.305   3.601 -0.0175 -0.5276 -1.0827
 8467SOL    HW237038   4.015   2.215   3.710 -0.6397 -0.9514  0.4014
 8468SOL     OW37039   1.543   3.356  13.911 -0.0902 -0.1799 -0.3390
 8468SOL    HW137040   1.582   3.417  13.848 -0.6963 -0.8452 -1.3638
 8468SOL    HW237041   1.531   3.404  13.993  3.4510  0.2851 -0.0878
 8469SOL     OW37042   4.211   3.248  16.063  0.0469 -0.2429  0.1751
 8469SOL    HW137043   4.201   3.327  16.117  2.2912  0.1589  0.0140
 8469SOL    HW237044   4.166   3.181  16.115  0.1265  0.3831  1.0445
 8470SOL     OW37045   1.517   0.107   6.501 -0.6907 -0.4441  0.5496
 8470SOL    HW137046   1.582   0.176   6.490 -0.7162 -0.2764  1.4201
 8470SOL    HW237047   1.458   0.147   6.565  0.7669  0.4141  1.3544
 8471SOL     OW37048   0.775   0.726   4.609 -0.0984 -0.1684  0.5177
 8471SOL    HW137049   0.696   0.707   4.560 -1.9092 -0.3136  3.4736
 8471SOL    HW237050   0.754   0.692   4.696  1.5746 -0.6357  0.7472
 8472SOL     OW37051   3.804   3.028   8.758  0.0728  0.3828  0.6007
 8472SOL    HW137052   3.878   3.025   8.819 -0.9855 -1.8183  1.7728
 8472SOL    HW237053   3.803   2.937   8.729 -0.2363 -0.0570  1.9846
 8473SOL     OW37054   0.734   4.211   4.388 -0.1263  0.4761 -0.1811
 8473SOL    HW137055   0.648   4.169   4.397 -0.1602 -0.0663 -3.1484
 8473SOL    HW237056   0.714   4.286   4.332  0.4335  1.3225  0.7546
 8474SOL     OW37057   0.500   0.979   6.100 -0.9042 -0.6011 -0.0845
 8474SOL    HW137058   0.468   0.998   6.012  0.1868  2.3175  0.1740
 8474SOL    HW237059   0.580   0.927   6.089  0.1590  1.2311 -0.8802
 8475SOL     OW37060   0.034   1.225   7.340  0.2314  0.4256  0.6238
 8475SOL    HW137061   0.024   1.268   7.425 -0.7920 -0.7704  1.1153
 8475SOL    HW237062   0.040   1.306   7.289  0.6001 -0.9202 -1.4790
 8476SOL     OW37063   2.822   1.002   1.558 -0.0992  0.1190 -0.0485
 8476SOL    HW137064   2.830   1.095   1.578 -2.8440  0.5421 -1.0180
 8476SOL    HW237065   2.734   0.999   1.595 -0.0793 -0.4416 -0.0415
 8477SOL     OW37066   0.380   0.495  15.122  0.0650 -0.8435 -0.3179
 8477SOL    HW137067   0.408   0.477  15.032 -2.1049  1.8973 -1.5406
 8477SOL    HW237068   0.298   0.446  15.122 -1.3191  1.4731 -0.8015
 8478SOL     OW37069   2.297   0.530   4.066  0.1679  0.6053  0.0396
 8478SOL    HW137070   2.306   0.601   4.130 -0.2300 -0.3583  1.1627
 8478SOL    HW237071   2.202   0.526   4.067  0.0752  2.6284  0.2723
 8479SOL     OW37072   4.626   2.941   1.350 -0.2867 -0.1648 -0.2682
 8479SOL    HW137073   4.674   2.974   1.425 -0.1144 -0.1974 -0.3620
 8479SOL    HW237074   4.566   2.876   1.386 -0.2348  0.2394  0.5215
 8480SOL     OW37075   1.905   2.665   0.099 -0.5740  0.5763 -0.5355
 8480SOL    HW137076   1.962   2.742   0.089 -0.4896  0.5579 -0.1940
 8480SOL    HW237077   1.920   2.614   0.019 -1.2096  0.1690 -0.3903
 8481SOL     OW37078   1.982   3.188   0.476  0.0462  0.1367  0.2495
 8481SOL    HW137079   1.962   3.177   0.569 -2.4032  2.3892  0.0099
 8481SOL    HW237080   1.936   3.269   0.453 -2.3102 -0.9779  0.9788
 8482SOL     OW37081   0.439   1.554   7.911  0.5551  0.2891 -0.2533
 8482SOL    HW137082   0.509   1.530   7.849  0.7044 -0.0839  0.0631
 8482SOL    HW237083   0.359   1.540   7.860  1.4889  1.5539 -2.0891
 8483SOL     OW37084   2.477   3.849  15.795  0.7136 -0.6471  0.1873
 8483SOL    HW137085   2.512   3.936  15.776 -0.6972  0.3640  2.2045
 8483SOL    HW237086   2.407   3.853  15.729  1.1618  0.3613 -0.2222
 8484SOL     OW37087   3.881   0.282   4.808 -0.5703  0.3553 -0.3862
 8484SOL    HW137088   3.790   0.276   4.779 -1.4270  1.3167  2.1467
 8484SOL    HW237089   3.908   0.350   4.746  1.7399  1.5435  1.9057
 8485SOL     OW37090   3.307   4.466   2.704 -0.6387 -0.2805 -0.1855
 8485SOL    HW137091   3.349   4.381   2.688 -0.6588 -0.4965  0.8823
 8485SOL    HW237092   3.384   4.519   2.727 -1.6557  1.2714 -0.3569
 8486SOL     OW37093   0.525   2.002   8.616  0.5568  0.0393 -0.1658
 8486SOL    HW137094   0.579   2.006   8.537  0.9477 -0.8077  0.0650
 8486SOL    HW237095   0.530   1.911   8.646 -1.8111 -0.6262 -1.7040
 8487SOL     OW37096   1.252   2.133   2.053  0.0925  0.1834 -0.0375
 8487SOL    HW137097   1.299   2.059   2.015 -0.5734  1.0864 -2.5674
 8487SOL    HW237098   1.164   2.119   2.020  0.2210 -0.6810  0.0012
 8488SOL     OW37099   2.344   2.849  15.667 -0.5315 -0.0481 -0.1084
 8488SOL    HW137100   2.435   2.874  15.653 -0.9512  0.6420 -1.5299
 8488SOL    HW237101   2.295   2.927  15.643  0.5749 -0.1932 -2.8665
 8489SOL     OW37102   4.182   3.105   1.035  0.0311  0.0915  0.1101
 8489SOL    HW137103   4.257   3.061   1.075  0.9161  0.0093 -1.6480
 8489SOL    HW237104   4.174   3.051   0.957  0.9001 -0.7780  0.6174
 8490SOL     OW37105   0.703   1.308  13.959  0.0158 -0.2419  0.3386
 8490SOL    HW137106   0.634   1.313  13.893  2.7552  1.0803 -2.4386
 8490SOL    HW237107   0.726   1.216  13.950  2.2323  0.1812  1.8575
 8491SOL     OW37108   0.484   2.396   9.118 -0.1641 -0.7801  0.9255
 8491SOL    HW137109   0.401   2.432   9.148  0.5377  0.8223  0.9703
 8491SOL    HW237110   0.471   2.387   9.023  3.6850  1.7881  0.1345
 8492SOL     OW37111   3.869   0.121   3.118 -0.6384  0.0890 -0.2442
 8492SOL    HW137112   3.842   0.201   3.162 -0.2821  1.1721 -2.0169
 8492SOL    HW237113   3.943   0.099   3.176  1.3996  2.0060 -2.1352
 8493SOL     OW37114   4.526   2.203  14.819 -0.2550  0.5165 -0.2256
 8493SOL    HW137115   4.478   2.264  14.876  1.3842  1.8672 -0.2905
 8493SOL    HW237116   4.602   2.258  14.806  0.3481  0.0278  1.1677
 8494SOL     OW37117   3.058   3.170   3.927 -0.5082  0.6005  0.2135
 8494SOL    HW137118   3.103   3.087   3.943  2.0605  1.8236 -0.7569
 8494SOL    HW237119   3.055   3.185   3.833  0.9221  1.4147  0.3018
 8495SOL     OW37120   0.491   3.976   2.294  0.3421  0.4357 -0.5472
 8495SOL    HW137121   0.531   4.063   2.300  0.1376  0.5722 -1.1700
 8495SOL    HW237122   0.518   3.945   2.208 -1.2261  0.0847 -0.8948
 8496SOL     OW37123   3.449   2.814   7.944  0.2999  0.1911 -0.0095
 8496SOL    HW137124   3.501   2.763   7.883 -1.2467 -0.4976 -0.7538
 8496SOL    HW237125   3.493   2.899   7.933 -1.5166  1.1015 -0.2175
 8497SOL     OW37126   4.528   0.165   8.207  0.3460  0.0366 -0.0546
 8497SOL    HW137127   4.469   0.240   8.212  0.6730  0.2255  0.9417
 8497SOL    HW237128   4.489   0.103   8.268  0.1305 -0.5719 -0.7993
 8498SOL     OW37129   2.400   3.835   1.758 -0.5857 -0.0604 -0.3007
 8498SOL    HW137130   2.422   3.747   1.729 -1.5845 -0.3893 -0.0418
 8498SOL    HW237131   2.450   3.858   1.836 -0.1280 -1.2004 -0.2663
 8499SOL     OW37132   0.433   3.223   7.425  0.2190 -0.5385 -0.2348
 8499SOL    HW137133   0.356   3.243   7.372  1.0465  0.5926 -1.0076
 8499SOL    HW237134   0.501   3.243   7.361  1.4552  0.3967  1.3792
 8500SOL     OW37135   3.150   1.161  11.083 -0.2584 -0.3581  0.0749
 8500SOL    HW137136   3.222   1.174  11.145 -0.1817 -1.3536  0.2061
 8500SOL    HW237137   3.150   1.239  11.029  0.2378  0.3750  1.1339
 8501SOL     OW37138   0.415   2.069   2.691 -0.4774  0.5716  0.2226
 8501SOL    HW137139   0.419   2.163   2.710  0.9311  1.0510 -2.4823
 8501SOL    HW237140   0.326   2.053   2.660  0.0675  1.7914 -1.9481
 8502SOL     OW37141   2.546   2.808  17.107  0.3460  0.5663 -0.3259
 8502SOL    HW137142   2.503   2.861  17.174 -1.7944 -0.5652 -0.8044
 8502SOL    HW237143   2.487   2.733  17.094 -1.3158  1.2749  3.0816
 8503SOL     OW37144   1.782   3.577   9.894 -0.4507  0.3386  0.0573
 8503SOL    HW137145   1.704   3.631   9.884  0.0272  1.3266  1.6851
 8503SOL    HW237146   1.777   3.531   9.977  1.5065  0.5734  0.3054
 8504SOL     OW37147   3.997   2.495   3.581 -0.2260 -0.1143  0.1769
 8504SOL    HW137148   4.008   2.562   3.649 -0.7216 -1.5189  1.6221
 8504SOL    HW237149   3.928   2.541   3.533  1.5724  2.2202 -0.1484
 8505SOL     OW37150   3.242   2.911   3.949 -0.4000  0.0443 -0.2132
 8505SOL    HW137151   3.154   2.878   3.963 -0.8559  1.2598 -0.1866
 8505SOL    HW237152   3.283   2.835   3.907  1.1687  1.7055 -1.6803
 8506SOL     OW37153   0.504   3.909  17.164  0.2194  0.4115 -0.6296
 8506SOL    HW137154   0.555   3.979  17.121  1.5280 -0.9219 -1.2790
 8506SOL    HW237155   0.554   3.889  17.243 -0.2920 -1.8379 -0.8783
 8507SOL     OW37156   3.940   1.336   9.568  0.7486 -0.2275 -0.0051
 8507SOL    HW137157   3.874   1.334   9.499  0.8544  0.4140 -0.1242
 8507SOL    HW237158   3.918   1.423   9.602 -1.8920 -0.9470  0.1196
 8508SOL     OW37159   2.941   2.470   5.477 -0.4470 -0.0930  0.3641
 8508SOL    HW137160   2.932   2.564   5.495  0.9937  0.0072  0.5752
 8508SOL    HW237161   2.869   2.457   5.415 -1.3816  2.5258  0.8944
 8509SOL     OW37162   1.519   3.501  14.148 -0.3310 -0.0509  0.0652
 8509SOL    HW137163   1.599   3.495  14.201  0.3730 -0.1020 -1.0006
 8509SOL    HW237164   1.471   3.561  14.205 -0.3160 -0.6494  0.7093
 8510SOL     OW37165   3.228   0.312   5.505  0.1835  0.0618  0.3302
 8510SOL    HW137166   3.180   0.364   5.570  0.4956 -0.6412  1.1265
 8510SOL    HW237167   3.321   0.323   5.527  0.7434 -1.1110 -1.4466
 8511SOL     OW37168   2.461   4.585   5.288 -0.0862  0.6524  0.0669
 8511SOL    HW137169   2.542   4.600   5.239 -0.2171 -1.3280 -0.7364
 8511SOL    HW237170   2.463   4.490   5.281 -1.2338  0.4732  2.1778
 8512SOL     OW37171   0.593   0.169   1.705  0.4001  0.0662 -0.5277
 8512SOL    HW137172   0.503   0.136   1.713  0.4255 -0.1266 -1.0362
 8512SOL    HW237173   0.606   0.209   1.791 -1.7165  0.0923 -0.2082
 8513SOL     OW37174   1.931   4.699   4.350  0.2992 -0.5727 -0.0321
 8513SOL    HW137175   1.993   4.644   4.302  0.1561 -1.2390  0.5437
 8513SOL    HW237176   1.897   4.625   4.402 -1.2075 -0.4699 -0.8490
 8514SOL     OW37177   3.349   2.138   7.236  0.2662 -0.5035 -0.0112
 8514SOL    HW137178   3.405   2.213   7.256 -1.4729  0.7013  0.3374
 8514SOL    HW237179   3.402   2.087   7.176  0.5433  1.7859 -1.6850
 8515SOL     OW37180   3.532   2.288   2.937  0.4402 -0.4605 -0.6471
 8515SOL    HW137181   3.489   2.227   2.877 -1.8612 -0.1772  0.6888
 8515SOL    HW237182   3.602   2.311   2.876  0.1367  2.9326  0.2813
 8516SOL     OW37183   0.956   3.115   4.421 -0.7548  0.0340 -0.0559
 8516SOL    HW137184   1.033   3.061   4.402  0.3539  0.9240  1.8924
 8516SOL    HW237185   0.995   3.182   4.476 -1.8317  0.7144 -0.1268
 8517SOL     OW37186   0.520   3.381   2.310 -0.4578  0.1020 -0.1563
 8517SOL    HW137187   0.458   3.309   2.322 -1.3111  1.3362  2.7885
 8517SOL    HW237188   0.578   3.351   2.240 -1.5168 -0.7230 -0.6900
 8518SOL     OW37189   4.607   2.071   2.571  0.0420  0.3180 -0.0144
 8518SOL    HW137190   4.515   2.079   2.549  0.2449  0.6902 -0.7110
 8518SOL    HW237191   4.637   2.128   2.500 -1.0566  1.7647  0.6814
 8519SOL     OW37192   0.955   0.029   5.630  0.1526 -0.1769 -0.1403
 8519SOL    HW137193   1.000   4.703   5.685  1.2835  0.5946 -0.1552
 8519SOL    HW237194   0.942   0.101   5.692 -2.2443 -0.9382  0.2185
 8520SOL     OW37195   4.703   4.436   5.863  0.4456  0.5702 -0.4442
 8520SOL    HW137196   4.628   4.439   5.804  1.2572  0.2767 -1.4899
 8520SOL    HW237197   4.659   4.436   5.948 -2.7526 -0.2555 -2.1220
 8521SOL     OW37198   2.430   1.543  13.732  0.1035  0.0881 -0.4678
 8521SOL    HW137199   2.340   1.544  13.700 -0.3598 -0.7503  0.8075
 8521SOL    HW237200   2.419   1.511  13.821  2.9217  0.1117 -0.1077
 8522SOL     OW37201   2.996   0.612   6.836 -0.0818 -0.3120 -0.4942
 8522SOL    HW137202   2.945   0.603   6.756 -0.2635 -0.8335 -0.3193
 8522SOL    HW237203   3.061   0.673   6.801 -0.7586 -0.6947 -2.4099
 8523SOL     OW37204   3.554   3.522   3.829  0.2512 -0.0883 -0.3743
 8523SOL    HW137205   3.502   3.499   3.906  1.6476  1.5746  1.0691
 8523SOL    HW237206   3.488   3.496   3.765 -2.4853 -0.1610  2.4274
 8524SOL     OW37207   2.303   3.382   7.423  0.0741  0.3084 -0.1867
 8524SOL    HW137208   2.278   3.364   7.513 -0.3874  0.9244 -0.1942
 8524SOL    HW237209   2.380   3.440   7.427 -0.5257  1.2326 -2.3015
 8525SOL     OW37210   2.421   2.686  11.969 -0.0788 -0.3029 -0.0837
 8525SOL    HW137211   2.452   2.624  11.903 -0.9835 -0.3431 -0.4674
 8525SOL    HW237212   2.507   2.697  12.009 -0.7905  1.8510  0.8515
 8526SOL     OW37213   4.044   2.819  13.081  0.0966 -0.1073 -0.4546
 8526SOL    HW137214   4.020   2.907  13.050  0.9131  0.6945  1.2096
 8526SOL    HW237215   3.974   2.768  13.041 -0.5104  1.2841 -1.1399
 8527SOL     OW37216   4.395   4.367   2.415  0.3547 -0.0322 -0.2767
 8527SOL    HW137217   4.426   4.332   2.331 -0.5654 -1.1224 -0.1620
 8527SOL    HW237218   4.473   4.372   2.469 -0.2417  0.3641  0.5516
 8528SOL     OW37219   1.715   2.788   4.704  0.9171  0.2397  0.0695
 8528SOL    HW137220   1.633   2.832   4.683  0.5138 -1.6055 -2.2069
 8528SOL    HW237221   1.738   2.732   4.629 -1.7253  0.7661 -1.1246
 8529SOL     OW37222   1.192   0.503   8.094  0.8138  0.2602  0.3016
 8529SOL    HW137223   1.214   0.581   8.145  0.7824 -0.1331  0.9037
 8529SOL    HW237224   1.267   0.445   8.103  0.3111 -0.2687  1.0402
 8530SOL     OW37225   0.012   2.724   4.103  0.1148  0.1062  0.0435
 8530SOL    HW137226   0.011   2.781   4.027  1.3559 -0.4091 -0.3631
 8530SOL    HW237227   0.106   2.708   4.113 -0.1897 -0.9862  1.1286
 8531SOL     OW37228   0.271   2.863   3.645 -0.0176  0.1482 -0.2269
 8531SOL    HW137229   0.352   2.908   3.670 -1.1349  0.9465  2.0362
 8531SOL    HW237230   0.222   2.847   3.726 -2.1316  3.0272 -0.9379
 8532SOL     OW37231   4.638   0.571   8.483 -0.1763 -0.8106  0.0357
 8532SOL    HW137232   4.566   0.626   8.513  1.1702  1.1967 -0.3578
 8532SOL    HW237233   4.589   0.493   8.459 -1.5737 -0.2112  0.9230
 8533SOL     OW37234   0.205   1.263   8.561 -0.1715 -0.1327 -0.9327
 8533SOL    HW137235   0.197   1.168   8.563  1.0584 -0.2269 -0.4466
 8533SOL    HW237236   0.300   1.259   8.549 -0.2477 -0.4754 -1.4256
 8534SOL     OW37237   3.150   3.037   5.832 -0.0171 -1.0515  0.0424
 8534SOL    HW137238   3.148   3.061   5.924 -2.7611  1.8841 -0.8156
 8534SOL    HW237239   3.077   3.088   5.799 -1.4977 -2.9953  0.3000
 8535SOL     OW37240   3.435   0.064   7.335  0.1957  0.2286  0.1210
 8535SOL    HW137241   3.340   0.068   7.345  0.2575 -2.0603  1.4135
 8535SOL    HW237242   3.447   4.714   7.300 -1.3635 -0.5906  1.6189
 8536SOL     OW37243   4.202   2.774   2.254 -0.2784 -0.7822  0.6877
 8536SOL    HW137244   4.156   2.697   2.222 -0.1634 -0.6191  0.1369
 8536SOL    HW237245   4.266   2.796   2.186 -2.1366  2.3310 -0.0298
 8537SOL     OW37246   0.016   4.555   3.975  0.0291 -0.5413 -0.0309
 8537SOL    HW137247   4.695   4.482   3.955 -1.0087  0.6772 -1.3851
 8537SOL    HW237248   4.687   4.618   4.002  1.3512 -0.0422  2.0684
 8538SOL     OW37249   3.475   3.639   8.063 -0.4569 -0.5384  0.1281
 8538SOL    HW137250   3.386   3.609   8.046 -0.7319 -0.4023  1.4011
 8538SOL    HW237251   3.526   3.586   8.001  0.5288  1.4806 -0.7980
 8539SOL     OW37252   0.891   4.671  10.752 -0.6055 -0.6570 -0.1058
 8539SOL    HW137253   0.887   4.720  10.834  1.3501  2.8841 -2.1537
 8539SOL    HW237254   0.941   4.723  10.689 -0.3477  1.8118  2.1238
 8540SOL     OW37255   1.565   0.451   4.630 -0.2536  0.0304  0.0753
 8540SOL    HW137256   1.500   0.520   4.616 -1.7874 -1.0681  1.7183
 8540SOL    HW237257   1.581   0.465   4.723 -0.1260 -1.5321  0.2935
 8541SOL     OW37258   1.710   4.368   3.589  0.0942  0.0962  0.1696
 8541SOL    HW137259   1.782   4.355   3.526  1.6752 -2.1895  2.4568
 8541SOL    HW237260   1.758   4.375   3.671 -0.1143 -0.9661  0.3920
 8542SOL     OW37261   4.648   0.000  15.100  0.1629 -0.6525  0.5565
 8542SOL    HW137262   4.728   0.051  15.112  1.8405 -2.8361 -1.5648
 8542SOL    HW237263   4.622   4.718  15.190 -1.9037 -0.2816  0.0450
 8543SOL     OW37264   1.242   1.812   2.819 -0.1955  0.4911 -0.0370
 8543SOL    HW137265   1.164   1.770   2.783  0.5069  0.2526 -1.2769
 8543SOL    HW237266   1.248   1.767   2.904  0.8183 -0.1581 -0.4485
 8544SOL     OW37267   1.218   2.070  14.922 -0.5653  0.2446  0.0171
 8544SOL    HW137268   1.267   2.042  14.999  0.6885  2.4547  0.0255
 8544SOL    HW237269   1.284   2.071  14.853 -0.6121 -1.0343 -0.0468
 8545SOL     OW37270   3.017   0.616   6.199 -0.2361 -0.5267  0.0089
 8545SOL    HW137271   2.951   0.551   6.175  0.1517 -1.2146  0.7956
 8545SOL    HW237272   2.961   0.673   6.253  0.6925  0.1723  0.2478
 8546SOL     OW37273   3.579   2.457  10.783  0.3957  0.0923  0.3303
 8546SOL    HW137274   3.646   2.471  10.850 -1.2625 -0.8281  2.1684
 8546SOL    HW237275   3.631   2.462  10.703 -1.3982  0.1253 -0.8296
 8547SOL     OW37276   3.789   0.531   4.244  0.2343 -0.5820  0.6368
 8547SOL    HW137277   3.716   0.561   4.297 -0.8675  0.1298 -1.2779
 8547SOL    HW237278   3.758   0.445   4.217 -1.7564  0.0641  0.9149
 8548SOL     OW37279   2.021   2.441   7.039  0.2862  0.1299 -0.4515
 8548SOL    HW137280   2.001   2.519   7.091  1.4326 -1.5258  2.4985
 8548SOL    HW237281   2.107   2.418   7.076  1.4984  1.9693 -2.1080
 8549SOL     OW37282   2.943   1.309  12.218  0.6071 -0.2734  0.3582
 8549SOL    HW137283   2.852   1.287  12.196  1.0235 -0.0562 -1.6211
 8549SOL    HW237284   2.929   1.306  12.312 -2.3502 -2.3658 -0.1324
 8550SOL     OW37285   2.801   1.681  13.103 -0.2984 -0.6518  0.0955
 8550SOL    HW137286   2.892   1.706  13.088 -0.7882 -0.4656 -2.5197
 8550SOL    HW237287   2.762   1.735  13.172 -1.8560 -0.4799 -0.9090
 8551SOL     OW37288   4.029   3.450  11.198  0.0575  0.6949  0.9064
 8551SOL    HW137289   4.019   3.537  11.235 -1.9419  0.6169  0.5299
 8551SOL    HW237290   3.958   3.400  11.239  0.8342 -0.8997  0.3225
 8552SOL     OW37291   0.694   0.260   7.827  0.5135  0.6294  0.5637
 8552SOL    HW137292   0.666   0.176   7.791 -1.1059  1.2665  0.3597
 8552SOL    HW237293   0.617   0.284   7.878 -2.0936 -1.3508 -2.5005
 8553SOL     OW37294   0.385   1.846   0.524  0.1286  0.2535  1.1891
 8553SOL    HW137295   0.407   1.939   0.512  2.1738 -0.1411  1.8209
 8553SOL    HW237296   0.471   1.815   0.550 -0.6752 -2.5255  0.5073
 8554SOL     OW37297   2.978   4.369   3.583  0.1340 -0.1923  0.1642
 8554SOL    HW137298   3.000   4.318   3.505 -1.5148  1.1317 -1.1700
 8554SOL    HW237299   3.053   4.342   3.636  1.0292  1.2897 -0.3811
 8555SOL     OW37300   2.596   0.162  11.303 -0.3155  0.1427 -0.2113
 8555SOL    HW137301   2.552   0.101  11.362  1.1377 -0.8956 -0.2084
 8555SOL    HW237302   2.531   0.227  11.278  1.7546  2.2710 -0.0506
 8556SOL     OW37303   0.147   1.303   7.591 -0.3655 -0.1278 -0.1292
 8556SOL    HW137304   0.225   1.257   7.558  0.3092  0.5991  0.4309
 8556SOL    HW237305   0.121   1.252   7.667  1.0681  1.5251  1.4579
 8557SOL     OW37306   1.973   0.210   6.207 -0.2136  0.0207  0.3266
 8557SOL    HW137307   2.045   0.233   6.150  0.0947 -1.4901  0.1155
 8557SOL    HW237308   1.958   0.117   6.187  0.4488 -0.0813  0.3263
 8558SOL     OW37309   4.393   2.048   8.698 -0.8097 -0.2183  0.0618
 8558SOL    HW137310   4.316   2.086   8.656 -0.0857 -0.7993 -1.7834
 8558SOL    HW237311   4.441   2.131   8.707 -1.3143  0.1341 -0.5196
 8559SOL     OW37312   1.925   2.020   3.701  0.0524  0.2334 -0.0374
 8559SOL    HW137313   1.847   2.063   3.667 -0.4331 -1.4355 -1.0629
 8559SOL    HW237314   1.895   1.979   3.782  1.0506 -1.7908 -0.6904
 8560SOL     OW37315   3.695   4.398   5.141  0.3511  0.6559  0.1073
 8560SOL    HW137316   3.768   4.460   5.150  1.0140 -0.2055  0.6601
 8560SOL    HW237317   3.627   4.464   5.151  1.0211  1.4620 -0.5737
 8561SOL     OW37318   4.354   3.044   5.044  0.1935 -0.3521  0.0924
 8561SOL    HW137319   4.402   3.047   4.961  2.9414  0.3812  1.7032
 8561SOL    HW237320   4.385   2.958   5.073  1.8683  0.0233 -0.5755
 8562SOL     OW37321   1.230   1.491   6.417 -0.3206  0.3330  0.1856
 8562SOL    HW137322   1.155   1.444   6.454  0.9374  0.1703  2.5547
 8562SOL    HW237323   1.226   1.444   6.333  0.0801  0.7776 -0.0811
 8563SOL     OW37324   1.464   4.164  10.216 -0.1679 -0.5835  0.4262
 8563SOL    HW137325   1.533   4.103  10.191 -0.9179 -1.7314  1.1533
 8563SOL    HW237326   1.396   4.144  10.153  0.4486  1.3816 -0.8646
 8564SOL     OW37327   3.530   1.409   4.230  0.2484 -0.4240  0.3496
 8564SOL    HW137328   3.524   1.478   4.295 -0.4395 -0.6944  0.5658
 8564SOL    HW237329   3.547   1.330   4.282  0.1268 -1.0602 -0.5614
 8565SOL     OW37330   1.795   3.868   4.752 -0.1520 -0.0279  0.0588
 8565SOL    HW137331   1.776   3.775   4.763  2.0540 -0.4239  0.4338
 8565SOL    HW237332   1.725   3.901   4.810 -1.0825  1.0298 -1.6670
 8566SOL     OW37333   3.901   3.506   8.230 -0.2117  0.0398 -0.8980
 8566SOL    HW137334   3.992   3.480   8.245 -0.6248 -1.6474 -1.2902
 8566SOL    HW237335   3.866   3.504   8.319 -0.9253  3.4138 -1.1174
 8567SOL     OW37336   1.818   3.524   7.297 -0.8154  0.4212 -0.5930
 8567SOL    HW137337   1.753   3.489   7.358 -1.2057  0.7286 -0.8310
 8567SOL    HW237338   1.892   3.470   7.325  0.4851  1.7342 -1.5378
 8568SOL     OW37339   1.638   2.562   6.649 -0.1306 -0.5258 -0.0622
 8568SOL    HW137340   1.654   2.648   6.610  2.0389 -0.5427  0.7827
 8568SOL    HW237341   1.587   2.600   6.721  1.1966  0.3823  0.4117
 8569SOL     OW37342   3.269   4.524   8.027  0.3041  0.1524  0.0163
 8569SOL    HW137343   3.209   4.508   7.954  0.2345  0.3216  0.0361
 8569SOL    HW237344   3.249   4.453   8.088 -0.2369  1.4191  1.3179
 8570SOL     OW37345   0.371   3.558   1.430 -0.1581  0.2577  0.0728
 8570SOL    HW137346   0.368   3.623   1.359  0.9101 -1.2332 -1.3317
 8570SOL    HW237347   0.459   3.555   1.466  0.3734  1.9047 -1.0700
 8571SOL     OW37348   0.829   4.456   5.862 -0.3045 -0.5907  0.6132
 8571SOL    HW137349   0.765   4.523   5.837  0.4447 -0.3364 -0.6639
 8571SOL    HW237350   0.831   4.461   5.958 -1.6535 -1.6556  0.6870
 8572SOL     OW37351   0.907   0.243   5.794  0.0473  0.1838 -0.0675
 8572SOL    HW137352   0.857   0.284   5.864  0.8483 -1.8893  1.7274
 8572SOL    HW237353   0.999   0.243   5.822  0.1026 -1.4354 -0.2419
 8573SOL     OW37354   0.133   3.293   2.159  0.0204 -0.1502 -0.3145
 8573SOL    HW137355   0.076   3.241   2.102  0.4607 -2.6422  1.5532
 8573SOL    HW237356   0.153   3.352   2.086  0.0233 -0.6826 -0.7464
 8574SOL     OW37357   2.289   3.374   5.506 -0.1006 -0.5175 -0.0126
 8574SOL    HW137358   2.267   3.441   5.442 -0.5129 -0.8590 -0.2238
 8574SOL    HW237359   2.381   3.357   5.486 -0.3773 -0.7532 -1.0793
 8575SOL     OW37360   0.855   2.476   1.464 -0.5952  0.0228 -0.2235
 8575SOL    HW137361   0.834   2.559   1.507 -0.5774  0.7608 -1.6530
 8575SOL    HW237362   0.904   2.517   1.392  0.0271 -0.1763  0.0795
 8576SOL     OW37363   0.018   3.885   5.003  0.5287 -0.3607 -0.0222
 8576SOL    HW137364   0.045   3.838   5.082 -0.5011 -2.9401 -1.1983
 8576SOL    HW237365   0.037   3.974   5.031 -0.3093 -0.1424 -0.1292
 8577SOL     OW37366   3.582   1.373   6.067 -0.2520 -0.7027 -0.2677
 8577SOL    HW137367   3.524   1.414   6.003 -0.0882  2.6086  1.7265
 8577SOL    HW237368   3.672   1.393   6.042  0.2462 -2.4087  0.1733
 8578SOL     OW37369   2.703   1.307   5.396 -0.2174  0.3013  0.3879
 8578SOL    HW137370   2.776   1.249   5.375 -1.1745 -0.5805 -0.4919
 8578SOL    HW237371   2.713   1.303   5.491  0.9937 -1.1813  0.1834
 8579SOL     OW37372   4.048   2.304  16.314 -0.3695  0.5733  0.3693
 8579SOL    HW137373   4.021   2.220  16.350 -0.1161 -0.1459 -1.1318
 8579SOL    HW237374   3.972   2.326  16.261  0.0941  1.7264  0.1697
 8580SOL     OW37375   3.800   2.325   2.111  0.4274  0.2235  0.2437
 8580SOL    HW137376   3.804   2.263   2.183 -1.1482  0.7846  0.8188
 8580SOL    HW237377   3.790   2.406   2.160 -1.1964 -0.2786  0.7505
 8581SOL     OW37378   2.708   1.149   4.140  0.3704  0.1658 -0.1357
 8581SOL    HW137379   2.637   1.121   4.198  0.5025 -0.9640 -0.5095
 8581SOL    HW237380   2.660   1.144   4.057  1.9884 -1.3190 -0.9682
 8582SOL     OW37381   1.676   3.161   7.942  0.2290  0.5052 -0.1524
 8582SOL    HW137382   1.653   3.124   7.857  0.6408 -0.9063  0.3552
 8582SOL    HW237383   1.606   3.108   7.981 -1.3992  0.7286 -2.7857
 8583SOL     OW37384   3.217   4.402   8.376  0.4934 -0.0839 -0.7838
 8583SOL    HW137385   3.268   4.481   8.365  0.6878 -0.0819  0.1118
 8583SOL    HW237386   3.288   4.349   8.412  1.1406  1.7609  0.6910
 8584SOL     OW37387   2.482   3.505   8.828  0.3028 -0.0708 -0.2170
 8584SOL    HW137388   2.417   3.574   8.821  1.6878  1.0127 -2.3262
 8584SOL    HW237389   2.535   3.545   8.759 -1.9933  2.6684 -0.3755
 8585SOL     OW37390   2.746   1.230   6.471 -0.3345  0.4674  0.0920
 8585SOL    HW137391   2.841   1.220   6.468 -0.2004  1.5377  0.6504
 8585SOL    HW237392   2.728   1.276   6.553  0.9069  2.1840 -0.5995
 8586SOL     OW37393   3.659   1.537  13.988  0.2961  0.2909 -0.5003
 8586SOL    HW137394   3.648   1.624  13.951  1.5863 -0.3062 -2.3026
 8586SOL    HW237395   3.572   1.520  14.024  0.5002 -2.4516 -1.2531
 8587SOL     OW37396   0.120   3.038  14.944 -0.2836  0.0159  0.5383
 8587SOL    HW137397   0.168   3.064  14.865 -3.2476  1.2523 -0.8763
 8587SOL    HW237398   0.057   2.972  14.916 -0.1239 -0.6769  1.8400
 8588SOL     OW37399   0.537   3.571   1.160  0.1995 -0.2084 -0.3378
 8588SOL    HW137400   0.625   3.587   1.194  0.0452 -1.3945  0.6162
 8588SOL    HW237401   0.551   3.569   1.065 -0.8610  4.3799 -0.5771
 8589SOL     OW37402   4.322   0.779   8.307 -0.0479 -0.9937  0.4740
 8589SOL    HW137403   4.261   0.737   8.246 -0.6103  1.2994 -0.5612
 8589SOL    HW237404   4.273   0.859   8.326  3.1068  1.0589  0.1036
 8590SOL     OW37405   0.137   0.152   3.390  0.1744 -0.0070 -0.0315
 8590SOL    HW137406   0.202   0.170   3.457 -1.3403 -1.6192  1.8713
 8590SOL    HW237407   0.118   0.059   3.405  0.7083 -0.5213 -2.5244
 8591SOL     OW37408   2.234   1.446   9.401  0.4352 -0.3442  0.6018
 8591SOL    HW137409   2.206   1.537   9.387 -0.8050 -0.9640 -0.8440
 8591SOL    HW237410   2.176   1.427   9.474 -0.2551 -0.7592 -0.0619
 8592SOL     OW37411   2.854   2.182   8.335  0.2168  0.2879 -0.4000
 8592SOL    HW137412   2.846   2.275   8.357 -0.7906 -0.0083  0.4495
 8592SOL    HW237413   2.947   2.165   8.349  0.1180 -2.1986 -2.6531
 8593SOL     OW37414   3.455   1.526   8.493 -0.1490  0.0716  0.2965
 8593SOL    HW137415   3.466   1.479   8.576 -1.6260  0.1353  0.5415
 8593SOL    HW237416   3.501   1.469   8.431 -2.1852  0.9427 -2.0238
 8594SOL     OW37417   4.421   1.563  12.153  0.1488 -0.1708  0.2135
 8594SOL    HW137418   4.453   1.608  12.231 -0.9396  2.9381 -1.1609
 8594SOL    HW237419   4.490   1.499  12.133  0.3111  0.3125 -0.7702
 8595SOL     OW37420   3.139   1.989   3.298  0.2033  0.0059 -0.1089
 8595SOL    HW137421   3.055   2.020   3.262  0.5593  0.2614 -0.7155
 8595SOL    HW237422   3.120   2.006   3.390  2.0144  1.5198 -0.0308
 8596SOL     OW37423   0.816   1.690   8.303 -0.0307 -0.4123 -0.1418
 8596SOL    HW137424   0.825   1.595   8.311  0.4111 -0.3954 -0.4313
 8596SOL    HW237425   0.850   1.701   8.214 -2.8812  0.8552 -1.0785
 8597SOL     OW37426   0.456   2.438   0.724 -0.2059  0.0821 -0.1610
 8597SOL    HW137427   0.417   2.444   0.637  1.0833  1.3780 -0.6514
 8597SOL    HW237428   0.433   2.349   0.749  0.7478  0.0086  0.4607
 8598SOL     OW37429   1.660   3.109   7.671  0.7513  0.3591 -0.4202
 8598SOL    HW137430   1.577   3.066   7.649  0.4889  1.3271 -1.3595
 8598SOL    HW237431   1.679   3.143   7.583 -0.2118  1.4768 -0.1968
 8599SOL     OW37432   1.832   1.092  16.938  0.5356 -0.5184  0.0282
 8599SOL    HW137433   1.882   1.050  16.868  3.8467  0.4734  1.7936
 8599SOL    HW237434   1.820   1.009  16.982  0.3196 -1.2041 -1.3184
 8600SOL     OW37435   1.184   1.231   7.261  0.2349 -0.4994  0.7654
 8600SOL    HW137436   1.278   1.221   7.272 -0.2748 -2.1182  3.6802
 8600SOL    HW237437   1.145   1.199   7.342 -2.9160  0.1581 -0.4790
 8601SOL     OW37438   2.757   4.521   4.381  0.6202 -0.4257 -0.2320
 8601SOL    HW137439   2.786   4.465   4.453  0.9575 -1.4915 -1.2049
 8601SOL    HW237440   2.668   4.546   4.405  0.5584 -1.7649  0.9343
 8602SOL     OW37441   3.787   3.748   6.275 -0.5115  0.4073  0.8266
 8602SOL    HW137442   3.711   3.805   6.290 -3.0293 -2.7535  0.1804
 8602SOL    HW237443   3.778   3.676   6.338  0.6350  1.5482  2.2786
 8603SOL     OW37444   1.586   0.821   6.890  0.3462  0.9315 -0.1010
 8603SOL    HW137445   1.606   0.911   6.916 -1.6729  1.1327  0.7738
 8603SOL    HW237446   1.540   0.835   6.807  2.0196  0.6372 -1.0643
 8604SOL     OW37447   3.900   3.798   1.330  0.2925  0.3385 -0.6102
 8604SOL    HW137448   3.839   3.871   1.316  0.3558  0.7040  0.9995
 8604SOL    HW237449   3.939   3.837   1.409 -1.5370 -0.4728  0.6840
 8605SOL     OW37450   1.478   0.130  17.236 -0.1111  0.2506 -0.2834
 8605SOL    HW137451   1.485   0.195  17.306 -0.4940  0.1449 -0.1474
 8605SOL    HW237452   1.480   0.049  17.287  0.0018  1.8534  2.2575
 8606SOL     OW37453   0.431   3.108   5.997 -0.1746  0.0759 -0.2474
 8606SOL    HW137454   0.473   3.186   6.033  1.0375 -0.0511 -1.3618
 8606SOL    HW237455   0.428   3.123   5.902  2.4473  0.4608 -0.2684
 8607SOL     OW37456   1.996   4.572   5.686  0.0097  0.5792  0.5566
 8607SOL    HW137457   2.029   4.483   5.673 -1.8265 -0.1091  0.6315
 8607SOL    HW237458   2.074   4.626   5.698  1.0845 -0.3785 -1.9507
 8608SOL     OW37459   0.966   1.883  13.747  0.4489  0.5550 -0.3658
 8608SOL    HW137460   0.933   1.930  13.823  1.4431 -2.8951  2.1896
 8608SOL    HW237461   0.890   1.837  13.713  1.8074 -0.1038 -2.5777
 8609SOL     OW37462   2.852   3.835  17.485  0.0776  0.5318  0.4298
 8609SOL    HW137463   2.855   3.929  17.466 -0.3903  0.2424 -1.0841
 8609SOL    HW237464   2.931   3.819  17.537  1.0358  1.9075 -0.5848
 8610SOL     OW37465   0.089   4.015   6.881 -0.3541  0.2745 -0.1631
 8610SOL    HW137466   0.090   3.939   6.823  2.1381 -1.1843  1.8108
 8610SOL    HW237467   0.003   4.052   6.861  0.8340  2.3933 -1.3052
 8611SOL     OW37468   4.616   0.531   7.403  0.2026 -0.6216 -0.0870
 8611SOL    HW137469   4.566   0.476   7.343 -0.7211 -1.7013  1.6494
 8611SOL    HW237470   4.617   0.615   7.358  0.0241 -1.4474 -1.6474
 8612SOL     OW37471   1.751   4.404   3.155 -0.0792  0.7249 -0.2514
 8612SOL    HW137472   1.731   4.495   3.134 -0.4384  0.8166  0.4872
 8612SOL    HW237473   1.793   4.368   3.077  1.2703 -1.1651  1.3565
 8613SOL     OW37474   1.954   4.098   3.217  0.1205 -0.6359  0.3760
 8613SOL    HW137475   1.861   4.076   3.219  0.2230 -1.1199 -0.4005
 8613SOL    HW237476   1.999   4.020   3.249 -0.1125 -1.4326 -1.2457
 8614SOL     OW37477   1.262   2.469   5.544 -0.1167 -0.0022 -0.3797
 8614SOL    HW137478   1.230   2.528   5.476 -0.6326 -1.7227 -1.6139
 8614SOL    HW237479   1.324   2.416   5.495 -0.9552 -1.1809 -0.1601
 8615SOL     OW37480   0.263   3.289   8.709 -0.2186 -0.4058  0.3385
 8615SOL    HW137481   0.327   3.270   8.640  0.9209 -0.3264  1.3756
 8615SOL    HW237482   0.183   3.245   8.680 -0.1806  0.1515 -0.6205
 8616SOL     OW37483   0.203   3.633  15.556 -0.1967  0.1305  0.0273
 8616SOL    HW137484   0.205   3.595  15.469 -3.5828 -1.0532  0.4642
 8616SOL    HW237485   0.121   3.682  15.548 -2.1449 -2.9083  1.0381
 8617SOL     OW37486   2.454   3.052   9.583 -0.2846  0.0057 -0.1177
 8617SOL    HW137487   2.459   2.958   9.571  1.5355  0.1569 -0.5090
 8617SOL    HW237488   2.540   3.067   9.624 -0.6209 -0.0636  0.6184
 8618SOL     OW37489   0.820   4.683   6.790  0.1447  0.4359  0.0922
 8618SOL    HW137490   0.864   4.692   6.875 -0.7812  2.0541  0.4093
 8618SOL    HW237491   0.865   4.606   6.757  0.5354  0.9456 -0.5640
 8619SOL     OW37492   2.922   0.712   7.063  0.1315 -0.0607 -0.1458
 8619SOL    HW137493   2.829   0.687   7.066  0.5296 -1.2945  2.2277
 8619SOL    HW237494   2.950   0.674   6.980 -1.6111  1.2028 -1.3026
 8620SOL     OW37495   2.999   3.559   8.544  0.7424  0.1146  0.4414
 8620SOL    HW137496   2.942   3.635   8.537  0.4125 -0.0391  1.4498
 8620SOL    HW237497   2.953   3.498   8.485  0.8673  1.6154 -1.2179
 8621SOL     OW37498   3.327   3.375   0.509  0.0265  0.1046  0.3240
 8621SOL    HW137499   3.352   3.283   0.515 -2.5006 -0.7993 -3.0744
 8621SOL    HW237500   3.416   3.409   0.519 -1.0115  3.4443 -1.6769
 8622SOL     OW37501   1.651   1.326  17.137  0.1345 -0.3481  0.0730
 8622SOL    HW137502   1.630   1.336  17.044 -2.4683 -2.2396  0.4453
 8622SOL    HW237503   1.613   1.411  17.162  0.4470 -0.2105  0.0844
 8623SOL     OW37504   2.486   2.018  15.369 -0.4037 -0.4215 -0.4788
 8623SOL    HW137505   2.398   2.037  15.402  0.1302 -1.5560  1.5799
 8623SOL    HW237506   2.475   1.924  15.380 -0.2331 -0.5909 -1.7681
 8624SOL     OW37507   1.219   0.660   6.066 -0.3367  0.2386 -0.3247
 8624SOL    HW137508   1.226   0.570   6.035  0.0299 -0.3660  1.5002
 8624SOL    HW237509   1.176   0.655   6.152  1.2170  1.1443  0.5039
 8625SOL     OW37510   3.813   3.522   2.744 -0.0787  0.0762 -0.2017
 8625SOL    HW137511   3.803   3.441   2.794  1.3713  0.1306  0.1810
 8625SOL    HW237512   3.867   3.571   2.807  0.7506 -1.2387  0.1034
 8626SOL     OW37513   2.246   1.525  13.424 -0.1378  0.3670 -0.3877
 8626SOL    HW137514   2.255   1.566  13.510 -0.9003 -1.1214  0.3930
 8626SOL    HW237515   2.214   1.600  13.373  3.1565  1.8913 -0.1791
 8627SOL     OW37516   0.075   2.598   1.763 -0.1706  0.0391  0.8090
 8627SOL    HW137517   0.124   2.540   1.822  0.1208  0.8248  1.3501
 8627SOL    HW237518   0.133   2.596   1.687  0.8587 -0.9336  1.6187
 8628SOL     OW37519   1.688   0.489  11.661  0.2636 -0.0315  0.0260
 8628SOL    HW137520   1.719   0.544  11.589 -1.0659  0.7489  0.0664
 8628SOL    HW237521   1.734   0.407  11.643  1.1696  0.0145  2.1536
 8629SOL     OW37522   0.534   0.655  12.037  0.3897 -0.0284 -0.8968
 8629SOL    HW137523   0.549   0.658  12.132 -1.7971  1.5468 -0.5948
 8629SOL    HW237524   0.439   0.655  12.027  0.4403  0.6741 -1.3696
 8630SOL     OW37525   4.470   4.633   8.296 -0.6757  0.0892 -0.0802
 8630SOL    HW137526   4.443   4.654   8.207 -1.0663  3.6371  0.8477
 8630SOL    HW237527   4.388   4.606   8.337 -0.6218 -0.7038 -0.5056
 8631SOL     OW37528   3.016   1.429  11.971  0.1986 -0.3284 -0.2898
 8631SOL    HW137529   2.980   1.399  12.054  1.4494 -1.3090 -0.1003
 8631SOL    HW237530   3.067   1.349  11.954  0.7624 -0.4185  1.8282
 8632SOL     OW37531   2.988   4.583   3.748  0.1164 -0.7417  0.0113
 8632SOL    HW137532   2.996   4.514   3.682  1.2410 -0.8783  0.2984
 8632SOL    HW237533   2.994   4.543   3.835  1.8721  3.9679  2.0531
 8633SOL     OW37534   1.870   2.743   2.397  0.2772  0.8254  0.3187
 8633SOL    HW137535   1.951   2.767   2.442  0.2176  0.1184  0.8030
 8633SOL    HW237536   1.876   2.647   2.400 -0.0203  0.8290  0.9762
 8634SOL     OW37537   1.045   3.854   9.656 -0.1044  0.6995 -0.3127
 8634SOL    HW137538   1.055   3.904   9.575 -2.7910  0.5266 -0.7541
 8634SOL    HW237539   1.005   3.776   9.620  0.0316  0.9590 -1.0230
 8635SOL     OW37540   1.206   4.511   7.401 -0.3591 -0.4595 -0.6444
 8635SOL    HW137541   1.248   4.427   7.415  1.8035  0.6086 -0.6838
 8635SOL    HW237542   1.179   4.538   7.489  0.3563  0.4487 -0.6993
 8636SOL     OW37543   2.428   1.321  17.665  0.7921 -0.4756 -0.2382
 8636SOL    HW137544   2.515   1.360  17.667  0.8541 -0.7042  1.3714
 8636SOL    HW237545   2.448   1.229  17.648  0.8620 -0.2756 -1.2810
 8637SOL     OW37546   0.160   0.936   3.247 -0.1217  0.0209 -0.3730
 8637SOL    HW137547   0.162   0.964   3.339 -0.7209  2.8984 -1.2254
 8637SOL    HW237548   0.207   1.005   3.201  0.8685 -0.6906 -0.4236
 8638SOL     OW37549   1.759   3.865   0.919 -0.1843  0.6189 -0.1349
 8638SOL    HW137550   1.794   3.925   0.853 -0.4624 -0.5460 -1.3437
 8638SOL    HW237551   1.737   3.923   0.993 -1.3498  0.1465 -0.1015
 8639SOL     OW37552   3.124   0.006   8.444  0.3602  0.3942 -0.6874
 8639SOL    HW137553   3.166   0.002   8.530 -1.1445  0.1667  0.0310
 8639SOL    HW237554   3.071   4.664   8.448  1.8127 -0.5602 -0.5007
 8640SOL     OW37555   1.254   0.489   8.803  0.9443 -0.1745  0.3747
 8640SOL    HW137556   1.221   0.532   8.882 -1.7365  0.0847 -0.8782
 8640SOL    HW237557   1.203   0.524   8.730 -2.1758 -2.3015  1.5149
 8641SOL     OW37558   1.460   3.359   0.387 -0.0708  0.5818  0.1123
 8641SOL    HW137559   1.430   3.450   0.380 -2.3464 -0.2919 -1.5653
 8641SOL    HW237560   1.554   3.376   0.391 -0.6476  3.4964  1.4643
 8642SOL     OW37561   3.130   3.558   4.932 -0.4752  0.0868  0.4559
 8642SOL    HW137562   3.151   3.577   5.024  1.3643 -0.0075  0.0493
 8642SOL    HW237563   3.036   3.575   4.932 -0.2864  1.1596  1.4231
 8643SOL     OW37564   0.489   2.386   2.763 -0.6449 -0.4916  0.0183
 8643SOL    HW137565   0.572   2.433   2.768 -0.4738 -0.7632 -0.3251
 8643SOL    HW237566   0.436   2.446   2.710  1.1260  0.1334 -1.0463
 8644SOL     OW37567   4.377   2.648   4.345 -0.0833  0.2132  0.5092
 8644SOL    HW137568   4.324   2.715   4.389  0.6277  2.5329 -2.2431
 8644SOL    HW237569   4.317   2.583   4.309 -2.2913  2.5317  0.0024
 8645SOL     OW37570   1.226   1.495  10.699 -0.2090 -0.6462  0.4908
 8645SOL    HW137571   1.315   1.461  10.710 -0.7483 -1.5507  2.0812
 8645SOL    HW237572   1.177   1.420  10.732 -0.1784 -0.9798 -0.2228
 8646SOL     OW37573   1.602   4.316   9.446 -0.0499 -0.3112  0.4641
 8646SOL    HW137574   1.612   4.288   9.537  2.2011 -0.3032  0.2132
 8646SOL    HW237575   1.575   4.233   9.406  2.3274  0.2848 -2.4267
 8647SOL     OW37576   1.903   0.339   5.029 -0.1119 -0.2478  0.2181
 8647SOL    HW137577   1.922   0.359   4.938 -1.9361  0.5893  0.0297
 8647SOL    HW237578   1.983   0.363   5.077 -0.9484  1.3166  0.7948
 8648SOL     OW37579   3.851   1.439  15.382 -0.5141 -0.1509  0.1419
 8648SOL    HW137580   3.898   1.515  15.347  1.1959 -1.4647 -0.4208
 8648SOL    HW237581   3.904   1.414  15.458 -0.9822  0.2488  0.6036
 8649SOL     OW37582   3.736   4.689   8.005  0.1941 -0.2838 -0.0125
 8649SOL    HW137583   3.803   4.650   7.948  0.2765 -0.2519  0.0633
 8649SOL    HW237584   3.656   4.660   7.960 -0.4794 -1.4243  1.9432
 8650SOL     OW37585   3.982   0.441   2.363 -0.0784 -0.4438  0.4432
 8650SOL    HW137586   4.038   0.512   2.332 -0.4620 -0.2121  0.2746
 8650SOL    HW237587   3.905   0.445   2.306 -0.9437  1.7022  1.7816
 8651SOL     OW37588   1.446   3.970   8.119 -0.1136 -0.2428 -0.5240
 8651SOL    HW137589   1.470   4.006   8.204 -2.1288 -2.1046  0.8224
 8651SOL    HW237590   1.469   3.878   8.132 -1.5283 -0.4693  0.3408
 8652SOL     OW37591   2.579   0.515   4.312 -0.7255  0.2548 -0.0793
 8652SOL    HW137592   2.517   0.574   4.270 -0.2657  0.8559  0.0873
 8652SOL    HW237593   2.649   0.505   4.248  0.1786 -1.1545  1.1176
 8653SOL     OW37594   1.404   1.543  16.694 -0.0338  0.0468 -0.3243
 8653SOL    HW137595   1.461   1.611  16.657 -0.3999 -0.3908 -1.6869
 8653SOL    HW237596   1.465   1.501  16.755 -0.9836 -2.3959 -1.0515
 8654SOL     OW37597   0.742   0.018   7.637 -0.1352  0.3557 -0.4364
 8654SOL    HW137598   0.785   4.729   7.556  1.5266 -1.8141  1.1800
 8654SOL    HW237599   0.816   0.034   7.695  0.4655  0.1351 -1.1366
 8655SOL     OW37600   1.564   3.055   3.300  0.3527 -0.0581  0.1394
 8655SOL    HW137601   1.468   3.058   3.307  0.5271 -0.2799  2.8142
 8655SOL    HW237602   1.587   2.963   3.311 -0.8367 -0.2929  0.7193
 8656SOL     OW37603   1.234   1.659   6.720  0.4466 -0.0614 -0.2051
 8656SOL    HW137604   1.260   1.705   6.800 -1.1402 -0.1707  0.3578
 8656SOL    HW237605   1.284   1.708   6.653  0.9487  0.2663  0.4066
 8657SOL     OW37606   0.853   2.754   0.630  0.0877  0.2535 -0.2542
 8657SOL    HW137607   0.934   2.742   0.581  1.1869  1.0579  1.3761
 8657SOL    HW237608   0.886   2.828   0.681  2.7120 -1.4449  0.5049
 8658SOL     OW37609   1.386   0.326   8.043 -0.0823  0.0231 -0.4474
 8658SOL    HW137610   1.431   0.351   7.962 -0.4686 -0.2133 -0.7384
 8658SOL    HW237611   1.453   0.268   8.080 -2.1815 -1.1610  1.5176
 8659SOL     OW37612   4.345   1.323   2.127 -0.6542 -0.5302 -0.2729
 8659SOL    HW137613   4.324   1.310   2.219 -1.5117  1.5331 -0.1818
 8659SOL    HW237614   4.437   1.297   2.130 -1.1783 -2.1811  1.2847
 8660SOL     OW37615   4.311   2.243   7.591 -0.8672 -0.4885 -0.2747
 8660SOL    HW137616   4.293   2.153   7.620  2.3016 -0.4479  1.7510
 8660SOL    HW237617   4.227   2.286   7.607 -2.1606 -2.8009 -0.7330
 8661SOL     OW37618   1.686   1.099   5.868  0.2329  0.6821  0.3285
 8661SOL    HW137619   1.689   1.010   5.903 -1.4886  0.8759  0.9455
 8661SOL    HW237620   1.774   1.127   5.891  0.9695  0.6643 -2.5201
 8662SOL     OW37621   2.416   1.106   4.578  0.1634  0.4292  0.2378
 8662SOL    HW137622   2.399   1.012   4.587 -2.3859  0.8758  0.0605
 8662SOL    HW237623   2.334   1.123   4.531  1.7395  2.8155 -1.6518
 8663SOL     OW37624   0.359   3.007   8.352  0.3157 -0.1566  0.3577
 8663SOL    HW137625   0.265   3.014   8.336  0.4486  0.7550  0.0165
 8663SOL    HW237626   0.365   2.959   8.434  0.1325  2.1177  1.7021
 8664SOL     OW37627   2.483   1.367   7.626  0.0177 -0.6924  0.2457
 8664SOL    HW137628   2.555   1.304   7.628  2.6482  2.3362  1.1657
 8664SOL    HW237629   2.455   1.366   7.718 -1.8936 -3.2195 -0.3526
 8665SOL     OW37630   1.492   2.945  17.494  0.2327 -0.2188  0.2370
 8665SOL    HW137631   1.459   2.951  17.583 -2.1569  2.8467 -0.8367
 8665SOL    HW237632   1.430   2.882  17.458 -2.2803  2.0237  0.6029
 8666SOL     OW37633   2.243   2.708   3.391  0.5326  0.3381 -0.3672
 8666SOL    HW137634   2.325   2.720   3.440  0.1987  1.0233  0.0266
 8666SOL    HW237635   2.198   2.652   3.454 -1.7770  1.0307 -1.4003
 8667SOL     OW37636   3.721   2.899   3.220  0.0640 -0.0964  0.0972
 8667SOL    HW137637   3.657   2.933   3.157  0.6958  0.3359 -0.3169
 8667SOL    HW237638   3.796   2.957   3.202  0.5722 -1.4359 -2.1212
 8668SOL     OW37639   1.818   2.422  12.900 -0.0121 -0.3214 -0.1009
 8668SOL    HW137640   1.866   2.398  12.821 -1.7336  0.3266 -1.3502
 8668SOL    HW237641   1.860   2.506  12.917  0.6462 -0.4758 -0.9974
 8669SOL     OW37642   4.068   2.587  10.782 -0.0473 -0.2968 -0.3219
 8669SOL    HW137643   4.017   2.511  10.753  0.7273 -0.8145 -0.3512
 8669SOL    HW237644   4.007   2.634  10.838  1.4775  0.3945  0.7465
 8670SOL     OW37645   3.271   1.914  13.640 -0.1106 -0.2763 -0.0215
 8670SOL    HW137646   3.317   1.982  13.590  0.4777 -1.0307 -0.5081
 8670SOL    HW237647   3.186   1.903  13.598 -1.4243 -1.4758  3.0134
 8671SOL     OW37648   0.716   0.557   9.715  0.2566  0.8407  0.1255
 8671SOL    HW137649   0.675   0.587   9.796 -0.0329 -1.1037  0.6901
 8671SOL    HW237650   0.803   0.527   9.741  0.4645 -1.4518 -3.1666
 8672SOL     OW37651   2.511   2.912   8.059  0.0230 -0.1118 -0.1717
 8672SOL    HW137652   2.449   2.865   8.003  0.2265  0.5880 -0.9972
 8672SOL    HW237653   2.577   2.930   7.991  0.6594 -0.0257  0.4708
 8673SOL     OW37654   0.672   0.348  17.196 -0.0874 -0.0748 -0.5691
 8673SOL    HW137655   0.586   0.329  17.157 -0.8259  1.5392  0.2552
 8673SOL    HW237656   0.726   0.285  17.149 -0.8972 -0.1763 -1.3610
 8674SOL     OW37657   0.329   3.026   9.015  0.2466 -0.7485  0.1471
 8674SOL    HW137658   0.373   3.082   9.079 -0.0629  0.4649 -0.6979
 8674SOL    HW237659   0.375   2.944   9.032 -0.9809 -1.5300 -0.2545
 8675SOL     OW37660   2.626   2.898  15.577  0.1538 -0.4462  0.3519
 8675SOL    HW137661   2.627   2.993  15.583  0.4288 -0.5493  1.8509
 8675SOL    HW237662   2.628   2.901  15.482 -3.6905  2.0655  0.3667
 8676SOL     OW37663   4.170   0.196   7.956 -0.0340  0.8099  0.6275
 8676SOL    HW137664   4.106   0.151   8.011  0.2162 -0.3790 -0.0646
 8676SOL    HW237665   4.115   0.256   7.906  0.2695  2.3074  2.0712
 8677SOL     OW37666   4.476   3.232   2.104  0.0577 -0.2116 -0.1150
 8677SOL    HW137667   4.466   3.312   2.156 -1.7111 -1.2513  1.1585
 8677SOL    HW237668   4.389   3.206   2.075  0.2672  0.9853 -1.7766
 8678SOL     OW37669   3.270   1.226   6.421 -0.1005  0.2998  0.0880
 8678SOL    HW137670   3.312   1.290   6.364 -0.3888  2.2714  2.0965
 8678SOL    HW237671   3.329   1.250   6.492  0.2987 -2.7046  0.7937
 8679SOL     OW37672   0.526   3.313   8.156  0.3017  0.1151 -0.2288
 8679SOL    HW137673   0.436   3.332   8.183  0.5465 -1.7346  1.8463
 8679SOL    HW237674   0.523   3.294   8.062 -0.9712  2.5329 -0.6811
 8680SOL     OW37675   2.518   0.729   5.159 -0.2172  0.0390 -0.4793
 8680SOL    HW137676   2.603   0.752   5.197  0.1925  0.0539 -1.3828
 8680SOL    HW237677   2.496   0.815   5.123  0.5196  0.5598  0.3200
 8681SOL     OW37678   1.837   4.374   4.422  0.3988 -0.4253 -0.4968
 8681SOL    HW137679   1.862   4.423   4.501 -1.2883  0.8163 -0.7473
 8681SOL    HW237680   1.910   4.312   4.414 -0.4709 -1.7885  2.2116
 8682SOL     OW37681   3.980   3.150   6.935 -0.3851  0.8126 -0.6594
 8682SOL    HW137682   3.990   3.228   6.881  0.5168 -0.7285 -2.7282
 8682SOL    HW237683   4.028   3.078   6.894 -1.4734 -1.2277  1.6143
 8683SOL     OW37684   2.870   4.694   6.089  0.1582  0.2070  0.1907
 8683SOL    HW137685   2.808   0.028   6.099 -0.1320 -0.3399  2.2925
 8683SOL    HW237686   2.859   4.665   5.998  3.4339 -0.4902  0.0046
 8684SOL     OW37687   4.363   2.185   4.344 -0.0221 -0.0885 -0.0634
 8684SOL    HW137688   4.380   2.227   4.428  1.7707  1.3250 -1.1543
 8684SOL    HW237689   4.446   2.217   4.309 -0.2540  0.3086 -0.2477
 8685SOL     OW37690   2.610   0.899   3.302 -0.3053 -0.3752  0.1420
 8685SOL    HW137691   2.633   0.922   3.392  0.8317  0.9507 -0.4991
 8685SOL    HW237692   2.670   0.828   3.278 -1.1554 -0.9408 -0.3164
 8686SOL     OW37693   3.736   1.000   2.451  0.0881 -0.4180  0.3948
 8686SOL    HW137694   3.780   1.080   2.480 -0.1868  0.2577 -1.0808
 8686SOL    HW237695   3.811   0.940   2.447 -0.2273 -0.8650  1.0788
 8687SOL     OW37696   3.535   0.379   6.196 -0.0881  0.1117  0.2366
 8687SOL    HW137697   3.472   0.332   6.141  1.0359  0.3271 -1.2368
 8687SOL    HW237698   3.490   0.459   6.221 -1.5074 -1.2007  1.8862
 8688SOL     OW37699   0.510   2.225   4.495  0.1576  0.1958 -0.0485
 8688SOL    HW137700   0.523   2.161   4.566  3.5325  1.3289  0.3140
 8688SOL    HW237701   0.491   2.296   4.556  1.3040  1.0246 -0.6619
 8689SOL     OW37702   3.834   1.772   5.201 -0.0326  0.8995  0.2324
 8689SOL    HW137703   3.841   1.694   5.257 -0.1792  1.3752  0.9068
 8689SOL    HW237704   3.810   1.836   5.268 -1.1562 -0.5769  1.2548
 8690SOL     OW37705   3.674   3.342   8.172 -0.1040 -0.2506  0.7804
 8690SOL    HW137706   3.660   3.384   8.087  1.3613  0.4035  0.8486
 8690SOL    HW237707   3.750   3.394   8.201  0.4056 -1.6210  1.9149
 8691SOL     OW37708   1.165   2.832   3.330  0.2134 -0.1463 -0.1496
 8691SOL    HW137709   1.213   2.901   3.285 -1.8358  1.6643  0.4149
 8691SOL    HW237710   1.237   2.805   3.387 -0.5938 -3.6978 -0.8038
 8692SOL     OW37711   2.370   3.141  12.397 -0.0979 -0.3860  0.6939
 8692SOL    HW137712   2.343   3.081  12.328  0.4377  1.1375 -0.8289
 8692SOL    HW237713   2.421   3.077  12.448  0.5665  1.4402  2.3074
 8693SOL     OW37714   3.203   0.103   9.824 -0.3556  0.3076 -0.2856
 8693SOL    HW137715   3.119   0.148   9.827 -1.7425 -2.3472  1.0983
 8693SOL    HW237716   3.176   0.011   9.826 -0.2013  0.2506 -0.9685
 8694SOL     OW37717   1.255   3.929  10.104  0.1194  0.8377 -0.0462
 8694SOL    HW137718   1.293   3.844  10.081  1.5283  1.1037  1.3438
 8694SOL    HW237719   1.201   3.950  10.027  3.3973  2.3725 -1.9608
 8695SOL     OW37720   4.389   1.758  14.241 -0.1380 -0.1125  0.3881
 8695SOL    HW137721   4.330   1.749  14.316 -0.3830 -1.5132  0.0277
 8695SOL    HW237722   4.348   1.697  14.180 -0.2868 -0.0521  0.4260
 8696SOL     OW37723   0.071   1.176   2.834 -0.1976 -0.1875 -0.6661
 8696SOL    HW137724   0.085   1.083   2.816  1.7308  0.2272 -1.3147
 8696SOL    HW237725   0.154   1.212   2.804  1.0174 -2.0709  0.4465
 8697SOL     OW37726   2.832   0.072   0.604  0.1818  0.0087 -0.1128
 8697SOL    HW137727   2.781   0.019   0.665 -0.8957 -0.0986 -1.1001
 8697SOL    HW237728   2.920   0.065   0.639  0.5508 -0.2437 -1.0973
 8698SOL     OW37729   1.408   4.407   6.913 -0.1012  0.4342 -0.3019
 8698SOL    HW137730   1.491   4.393   6.959 -0.6803  0.3236  0.7025
 8698SOL    HW237731   1.404   4.320   6.874  0.4425  1.3108 -2.3266
 8699SOL     OW37732   2.816   0.603   4.838  0.3656 -0.0366  0.0072
 8699SOL    HW137733   2.877   0.530   4.852  0.3911 -0.4277 -2.1245
 8699SOL    HW237734   2.876   0.675   4.819  0.8552  0.3784  3.1494
 8700SOL     OW37735   3.930   0.820   2.442 -0.6429  0.0305 -0.1378
 8700SOL    HW137736   3.931   0.802   2.536  2.0624  1.2050  0.0428
 8700SOL    HW237737   3.998   0.765   2.403  0.8597  0.8584  1.3296
 8701SOL     OW37738   0.777   3.706   6.611  0.2881  0.2764  0.1686
 8701SOL    HW137739   0.789   3.739   6.700  1.8674  1.4924 -0.4832
 8701SOL    HW237740   0.867   3.687   6.585  0.4769 -0.0010  1.0561
 8702SOL     OW37741   3.622   3.508   9.428 -0.7961  0.6727 -0.2984
 8702SOL    HW137742   3.590   3.433   9.378  1.5040  0.7939 -1.9837
 8702SOL    HW237743   3.717   3.502   9.420 -0.7692  2.1387 -1.2229
 8703SOL     OW37744   1.404   1.581   8.350 -0.1889 -0.1375 -0.2015
 8703SOL    HW137745   1.445   1.559   8.433 -0.0107 -3.8035 -1.2811
 8703SOL    HW237746   1.386   1.675   8.356 -1.7426 -0.5093  1.1331
 8704SOL     OW37747   2.663   3.320   9.246  0.8541 -0.3393  0.0955
 8704SOL    HW137748   2.665   3.347   9.154  1.9877 -0.2422  0.1507
 8704SOL    HW237749   2.614   3.386   9.295  0.0173 -0.3679 -0.7087
 8705SOL     OW37750   2.332   3.230   9.393  0.3332 -0.1902  0.1186
 8705SOL    HW137751   2.300   3.177   9.320  1.3404 -0.3115 -0.2413
 8705SOL    HW237752   2.385   3.169   9.445 -0.2661 -1.5362 -0.8481
 8706SOL     OW37753   1.397   3.474   1.775 -0.4693  0.4068 -0.1153
 8706SOL    HW137754   1.355   3.557   1.752  1.4368  1.7461  1.2336
 8706SOL    HW237755   1.453   3.460   1.699 -1.3752  0.1121 -0.7301
 8707SOL     OW37756   2.541   1.045  12.958  0.3990 -0.2342 -0.1247
 8707SOL    HW137757   2.528   0.993  13.037  0.9214  0.2428  0.2700
 8707SOL    HW237758   2.560   1.127  13.002 -0.4180  0.6634 -1.4455
 8708SOL     OW37759   4.075   0.347  12.577 -0.7433 -0.7673  0.2143
 8708SOL    HW137760   4.075   0.260  12.536 -0.4666 -0.8910  0.4758
 8708SOL    HW237761   4.151   0.390  12.538  0.4393 -1.8702  1.2757
 8709SOL     OW37762   0.550   4.174   7.871 -0.6004  0.3242 -0.2378
 8709SOL    HW137763   0.464   4.207   7.897 -0.8631  0.0584 -0.7570
 8709SOL    HW237764   0.594   4.166   7.955 -1.6349 -1.0388  0.1662
 8710SOL     OW37765   1.577   3.029   3.967  0.4650  0.2796 -0.1813
 8710SOL    HW137766   1.566   3.025   3.872 -1.1341  1.3809 -0.0415
 8710SOL    HW237767   1.642   2.960   3.983  0.0665  0.6189  2.9688
 8711SOL     OW37768   0.563   0.510  11.804 -0.0053  0.1130  0.4079
 8711SOL    HW137769   0.613   0.439  11.844 -0.6970  0.1776  1.3943
 8711SOL    HW237770   0.569   0.582  11.868 -1.5714  0.4744  0.1318
 8712SOL     OW37771   3.821   1.142   4.024 -0.7556 -0.1054  0.5801
 8712SOL    HW137772   3.770   1.063   4.044  1.0974 -1.1865  1.0964
 8712SOL    HW237773   3.905   1.103   3.996 -2.4647 -3.1194 -0.3806
 8713SOL     OW37774   4.513   0.501   8.005  1.1645  0.5113  0.1252
 8713SOL    HW137775   4.438   0.515   8.063  0.5190  1.1008 -0.8334
 8713SOL    HW237776   4.583   0.556   8.041  0.1980  1.7392  0.1352
 8714SOL     OW37777   4.162   0.199   4.830 -0.0471  0.0937 -0.3809
 8714SOL    HW137778   4.197   0.288   4.836 -0.5203  0.0451  3.1420
 8714SOL    HW237779   4.068   0.217   4.836 -0.3395 -1.3711 -0.3687
 8715SOL     OW37780   1.595   0.439   0.229 -0.5395 -0.0266  0.3580
 8715SOL    HW137781   1.652   0.369   0.260 -1.3700 -0.0521  1.8740
 8715SOL    HW237782   1.595   0.502   0.301 -2.3008  0.8028 -0.3448
 8716SOL     OW37783   1.005   4.560   2.749  0.2701 -0.4227  0.2002
 8716SOL    HW137784   1.053   4.579   2.830  0.2445  1.2161 -0.1797
 8716SOL    HW237785   1.042   4.626   2.691 -1.4853 -0.2612 -0.7343
 8717SOL     OW37786   3.214   1.590  12.261 -0.7713  0.1502  0.1581
 8717SOL    HW137787   3.224   1.495  12.256  1.1127  0.3574  0.2216
 8717SOL    HW237788   3.264   1.614  12.339 -0.6321  1.4575 -0.3237
 8718SOL     OW37789   1.434   1.417   3.821 -0.2304 -0.2463  0.0598
 8718SOL    HW137790   1.411   1.324   3.830  1.6879 -0.8932 -1.8635
 8718SOL    HW237791   1.370   1.461   3.878 -1.1628 -2.0390  0.3906
 8719SOL     OW37792   2.486   2.295   6.281  0.2761 -0.0307 -0.5058
 8719SOL    HW137793   2.452   2.341   6.204 -1.7135  1.5299  1.2825
 8719SOL    HW237794   2.523   2.212   6.252  0.0587 -0.3964  0.2584
 8720SOL     OW37795   3.855   3.926   7.962 -0.1691  0.4056 -0.5686
 8720SOL    HW137796   3.776   3.963   7.923 -0.6947 -0.3596 -0.2147
 8720SOL    HW237797   3.902   3.993   8.013  0.9877  0.1264 -1.2923
 8721SOL     OW37798   4.131   3.672   3.120 -0.2873  0.6829 -0.1385
 8721SOL    HW137799   4.169   3.752   3.156 -1.1228  1.2093 -0.4267
 8721SOL    HW237800   4.210   3.620   3.127 -0.8181 -0.2798 -1.2612
 8722SOL     OW37801   1.330   0.043   4.023 -0.2266 -0.2549 -0.1546
 8722SOL    HW137802   1.303   4.704   4.074 -0.8305 -0.0900 -0.2202
 8722SOL    HW237803   1.343   0.109   4.091  1.9962 -1.7765  0.8910
 8723SOL     OW37804   3.543   2.418   6.933 -0.5178  0.3752 -0.2162
 8723SOL    HW137805   3.530   2.422   7.028 -2.0615  0.5694 -0.4383
 8723SOL    HW237806   3.639   2.427   6.931 -0.7694  3.1266  0.9945
 8724SOL     OW37807   0.214   2.599   5.271 -0.2862  0.0832  0.0684
 8724SOL    HW137808   0.216   2.593   5.367  0.8700  0.1597  0.0518
 8724SOL    HW237809   0.131   2.556   5.250 -0.6777  1.0262 -0.3239
 8725SOL     OW37810   3.327   0.291   8.670  0.0675 -0.4307 -0.5061
 8725SOL    HW137811   3.403   0.304   8.727 -1.8846  1.0892  1.7689
 8725SOL    HW237812   3.354   0.333   8.589 -0.5023  0.8684 -0.0210
 8726SOL     OW37813   1.343   1.074   9.212  0.2899 -0.1112  0.4120
 8726SOL    HW137814   1.429   1.107   9.237  0.0174  1.5403 -0.8817
 8726SOL    HW237815   1.286   1.145   9.242  1.1440  0.7109  0.0778
 8727SOL     OW37816   2.801   2.755   6.396 -0.1018 -0.2565 -0.1540
 8727SOL    HW137817   2.832   2.717   6.478 -1.1632  1.4298  1.0208
 8727SOL    HW237818   2.793   2.845   6.428  0.3292  0.1895 -1.2661
 8728SOL     OW37819   0.154   1.357  16.537  0.0029  0.0354  0.3475
 8728SOL    HW137820   0.231   1.404  16.505 -0.9107  0.7228 -0.8608
 8728SOL    HW237821   0.084   1.421  16.524  1.0674  0.9415 -0.9308
 8729SOL     OW37822   4.058   1.160   9.002  0.3613  0.0147  0.3034
 8729SOL    HW137823   4.029   1.229   9.061  1.2374  3.4311 -3.3130
 8729SOL    HW237824   4.144   1.136   9.037 -0.5812 -0.1536  2.4956
 8730SOL     OW37825   4.121   4.266   1.299  0.4413 -0.0488 -0.6920
 8730SOL    HW137826   4.124   4.263   1.204  4.1550  0.0601 -0.5749
 8730SOL    HW237827   4.193   4.322   1.328  0.2791 -1.2800  2.1137
 8731SOL     OW37828   2.432   3.333  17.306  0.2694 -0.0572 -0.0734
 8731SOL    HW137829   2.521   3.341  17.271  0.5002 -2.3118 -0.0371
 8731SOL    HW237830   2.433   3.405  17.369 -2.5306 -0.0796 -0.0165
 8732SOL     OW37831   2.161   4.245   4.141 -0.1427  0.2651 -0.1963
 8732SOL    HW137832   2.200   4.171   4.187  0.2355  0.7159  0.2032
 8732SOL    HW237833   2.241   4.280   4.101 -0.3419  0.6869 -0.2326
 8733SOL     OW37834   4.571   1.179   2.980  0.4338 -0.6033  0.0525
 8733SOL    HW137835   4.636   1.202   2.913  0.0109  2.0287  0.5452
 8733SOL    HW237836   4.607   1.229   3.053 -0.4161  1.6104 -1.0400
 8734SOL     OW37837   3.709   4.555  12.850 -0.0711 -0.5376  0.4629
 8734SOL    HW137838   3.777   4.488  12.841  0.5929  0.4664 -2.1081
 8734SOL    HW237839   3.642   4.498  12.886 -0.9313  0.8047  0.9650
 8735SOL     OW37840   2.129   2.084   4.567  0.2403 -0.3391  0.4343
 8735SOL    HW137841   2.176   2.160   4.602 -1.6809  0.1778  1.8864
 8735SOL    HW237842   2.058   2.082   4.631  2.4152  0.5105  2.8625
 8736SOL     OW37843   2.713   1.228   3.276  0.0904 -0.3359  0.0833
 8736SOL    HW137844   2.654   1.248   3.348  2.1246 -0.0626  1.6814
 8736SOL    HW237845   2.767   1.160   3.316  2.4764  1.4522 -0.0624
 8737SOL     OW37846   3.906   4.073  10.328 -0.1051 -0.1429  0.1887
 8737SOL    HW137847   3.839   4.036  10.271  0.9762 -1.0731 -0.4949
 8737SOL    HW237848   3.863   4.123  10.397  1.1079  0.5462  0.4434
 8738SOL     OW37849   1.058   2.191   4.022 -0.6070 -0.1574 -0.6045
 8738SOL    HW137850   1.098   2.199   4.109 -2.3515  2.1148 -0.0212
 8738SOL    HW237851   0.974   2.232   4.042 -0.7081 -0.7015  0.0918
 8739SOL     OW37852   3.312   1.020   1.489 -0.6913 -0.0243 -0.7352
 8739SOL    HW137853   3.224   1.049   1.465 -0.7228  0.2743 -0.2689
 8739SOL    HW237854   3.352   1.006   1.403  1.1355  0.1211  0.0849
 8740SOL     OW37855   4.311   3.007   6.920  0.2565  0.1278 -0.1698
 8740SOL    HW137856   4.273   2.928   6.882  2.0693 -0.4880 -0.6928
 8740SOL    HW237857   4.406   2.994   6.921  0.1120 -0.9357 -0.2722
 8741SOL     OW37858   1.692   2.390   9.180  0.1698 -0.2861  0.8078
 8741SOL    HW137859   1.716   2.299   9.164 -1.6369 -0.4229 -1.0365
 8741SOL    HW237860   1.612   2.403   9.129 -0.4384 -2.2668  1.2432
 8742SOL     OW37861   1.546   3.222   8.682  0.1939 -0.6734  0.5849
 8742SOL    HW137862   1.626   3.215   8.631  0.3429  1.5826  0.4907
 8742SOL    HW237863   1.571   3.299   8.733  1.7146  0.9729 -2.6776
 8743SOL     OW37864   1.183   1.277   9.269  0.4093 -0.2421 -0.0081
 8743SOL    HW137865   1.178   1.366   9.304 -0.4369 -0.4711  0.4330
 8743SOL    HW237866   1.096   1.241   9.284  0.1466  0.8995  1.1580
 8744SOL     OW37867   1.191   0.882  12.027  0.4258  0.1980 -0.7454
 8744SOL    HW137868   1.206   0.789  12.017 -2.1967 -0.3938  0.7470
 8744SOL    HW237869   1.247   0.901  12.102  0.5880  1.0798 -1.0804
 8745SOL     OW37870   1.518   4.396   5.341  0.2187  0.4147  0.5978
 8745SOL    HW137871   1.518   4.302   5.360  3.6662 -0.0213 -1.5261
 8745SOL    HW237872   1.474   4.388   5.256  0.3633 -1.1681  0.6577
 8746SOL     OW37873   1.798   4.082   6.875  0.0477  0.1119 -0.1899
 8746SOL    HW137874   1.788   4.124   6.961 -1.4672  0.4503 -0.5175
 8746SOL    HW237875   1.853   4.007   6.900  0.4960 -0.1860 -2.1173
 8747SOL     OW37876   2.656   3.800   6.378 -0.5257 -0.2523 -0.8524
 8747SOL    HW137877   2.581   3.785   6.321 -2.1612  0.7777  1.0540
 8747SOL    HW237878   2.723   3.760   6.323 -0.6182  0.8880 -1.8072
 8748SOL     OW37879   2.770   0.763   1.414 -0.0181  0.6635  0.1076
 8748SOL    HW137880   2.767   0.846   1.462  1.7927  0.4104  0.6716
 8748SOL    HW237881   2.826   0.713   1.473 -0.9726 -1.9681 -1.2319
 8749SOL     OW37882   0.893   2.794   1.839 -0.1730 -0.4682  0.6313
 8749SOL    HW137883   0.901   2.760   1.750 -2.4693 -0.4956  0.4217
 8749SOL    HW237884   0.985   2.816   1.847 -0.2319 -0.2665  0.7408
 8750SOL     OW37885   4.128   1.339   5.918 -0.6265 -0.1244  0.1669
 8750SOL    HW137886   4.122   1.433   5.902  0.3020 -0.1361 -0.2471
 8750SOL    HW237887   4.126   1.306   5.828 -1.5708 -0.6902  0.3979
 8751SOL     OW37888   4.132   0.752   7.458 -0.3084  0.4093  0.4992
 8751SOL    HW137889   4.171   0.801   7.531  0.2291  0.4513  0.1817
 8751SOL    HW237890   4.053   0.802   7.439 -2.9956 -3.9567  0.3728
 8752SOL     OW37891   0.118   0.565   9.236 -0.7127 -0.2093 -0.0370
 8752SOL    HW137892   0.079   0.579   9.322  1.0415 -0.7486  0.8556
 8752SOL    HW237893   0.192   0.517   9.273 -0.3310 -1.2311 -2.1785
 8753SOL     OW37894   3.858   2.933   9.998 -0.3422 -0.1085  0.0198
 8753SOL    HW137895   3.769   2.912   9.970 -0.6159 -0.4904  1.1936
 8753SOL    HW237896   3.870   3.014   9.948 -0.5329  0.1031  0.3124
 8754SOL     OW37897   0.923   1.184  11.315  0.3263  0.0910  0.1250
 8754SOL    HW137898   0.835   1.221  11.318  1.3348  2.5772 -0.4919
 8754SOL    HW237899   0.940   1.206  11.407 -0.2123 -0.1768  0.2879
 8755SOL     OW37900   3.120   1.763  14.762 -0.2516 -0.3727 -0.6192
 8755SOL    HW137901   3.080   1.819  14.829 -0.6485  0.5665 -1.6428
 8755SOL    HW237902   3.212   1.791  14.765 -1.2177  2.6181  0.5375
 8756SOL     OW37903   2.259   3.629   5.368 -0.6202  0.6380  0.1204
 8756SOL    HW137904   2.284   3.600   5.280 -0.1628 -3.0452  1.4784
 8756SOL    HW237905   2.280   3.723   5.373 -2.5009  1.0061  0.9003
 8757SOL     OW37906   4.243   1.889  16.434 -0.1184  0.0291  0.1061
 8757SOL    HW137907   4.216   1.957  16.495 -2.1517  0.1119 -0.8958
 8757SOL    HW237908   4.337   1.906  16.429 -0.6644  2.3888 -1.9793
 8758SOL     OW37909   1.256   4.459   0.577  0.2652  0.2351  0.2885
 8758SOL    HW137910   1.318   4.426   0.512 -0.1681  2.8018 -1.4198
 8758SOL    HW237911   1.175   4.427   0.538  0.9070  0.4829 -1.2520
 8759SOL     OW37912   3.695   0.234  12.536  0.3496  0.0991  0.2754
 8759SOL    HW137913   3.732   0.194  12.457  0.1594 -1.5984  1.0508
 8759SOL    HW237914   3.689   0.153  12.586 -1.3784  0.5215  0.7522
 8760SOL     OW37915   0.701   2.276  15.516 -0.1136 -0.3470  0.2420
 8760SOL    HW137916   0.611   2.245  15.523  0.7738 -2.6286  1.5942
 8760SOL    HW237917   0.756   2.202  15.543  0.3038  0.3936  1.4473
 8761SOL     OW37918   1.851   4.067   8.280  0.2768 -0.3228 -0.0651
 8761SOL    HW137919   1.874   4.054   8.188  0.5487  0.8092 -0.1554
 8761SOL    HW237920   1.814   4.155   8.280 -0.8936 -0.8083 -0.7680
 8762SOL     OW37921   1.604   1.936   4.008 -0.1740  0.1342 -0.1756
 8762SOL    HW137922   1.630   1.893   4.089 -0.7897  2.4156  1.2427
 8762SOL    HW237923   1.570   1.858   3.964 -0.0926 -0.6681  1.2129
 8763SOL     OW37924   1.279   1.529   4.800  0.7993 -0.2377 -0.0362
 8763SOL    HW137925   1.204   1.535   4.859  0.7618 -1.8927  0.0833
 8763SOL    HW237926   1.237   1.521   4.714 -1.9071 -2.9442  1.5309
 8764SOL     OW37927   2.778   3.766  14.357  0.1556 -0.1128 -0.1098
 8764SOL    HW137928   2.741   3.854  14.350  1.8520  0.4634 -1.9951
 8764SOL    HW237929   2.755   3.732  14.443  1.0485 -1.3523 -0.3486
 8765SOL     OW37930   1.044   1.734   0.531 -0.1885  0.2555  0.6980
 8765SOL    HW137931   1.023   1.752   0.623 -1.9219 -0.5779  0.4749
 8765SOL    HW237932   1.108   1.663   0.539  2.2134  2.1462 -1.8653
 8766SOL     OW37933   4.292   3.768   7.056 -0.1606 -0.0724 -0.2514
 8766SOL    HW137934   4.301   3.798   7.146  1.0786 -1.9633  0.2536
 8766SOL    HW237935   4.381   3.737   7.038  0.3481  0.4042  1.4461
 8767SOL     OW37936   1.845   0.704  11.440 -0.0117  0.2731 -0.2323
 8767SOL    HW137937   1.915   0.721  11.502 -1.6984  1.9880  1.2220
 8767SOL    HW237938   1.843   0.796  11.410 -0.8173  0.0969 -0.7252
 8768SOL     OW37939   1.527   3.905   5.168 -0.6505  0.6267  0.0605
 8768SOL    HW137940   1.454   3.901   5.230  0.3240  2.2022  1.3268
 8768SOL    HW237941   1.573   3.825   5.193 -1.0988 -0.0506 -1.2922
 8769SOL     OW37942   1.714   0.898  16.016  0.6677 -0.0264  0.3993
 8769SOL    HW137943   1.709   0.906  16.111  1.5577  0.1858  0.4303
 8769SOL    HW237944   1.707   0.803  16.020 -1.2848  0.1277  0.6910
 8770SOL     OW37945   2.412   3.671   2.213 -0.3889 -0.6738 -0.3040
 8770SOL    HW137946   2.373   3.681   2.299 -1.7831  2.9987 -1.3383
 8770SOL    HW237947   2.334   3.651   2.161 -0.0917  0.5822 -1.2631
 8771SOL     OW37948   2.040   3.409   5.974  0.5529 -0.0435  0.1652
 8771SOL    HW137949   1.961   3.363   5.946  0.1144  0.5332  0.4439
 8771SOL    HW237950   2.031   3.495   5.933  0.0590 -1.1762 -2.1280
 8772SOL     OW37951   4.001   1.252  16.554 -0.2900  0.5701  0.3008
 8772SOL    HW137952   4.074   1.305  16.524  0.2245  0.1177  0.7619
 8772SOL    HW237953   3.946   1.310  16.607 -1.5249 -2.1040  1.9503
 8773SOL     OW37954   0.221   1.457   2.333 -0.2934  0.8303 -0.1470
 8773SOL    HW137955   0.153   1.436   2.398 -0.6671 -1.7947 -1.4024
 8773SOL    HW237956   0.296   1.458   2.393 -0.4130 -1.2743  0.0369
 8774SOL     OW37957   3.492   2.163   5.621  0.2346 -0.7272 -0.4514
 8774SOL    HW137958   3.539   2.084   5.648 -0.7722 -1.4046 -0.7040
 8774SOL    HW237959   3.407   2.126   5.644 -0.1223  0.1659 -0.3337
 8775SOL     OW37960   1.744   1.781  15.260  0.1565 -0.6814 -0.1058
 8775SOL    HW137961   1.788   1.860  15.291 -0.3709 -0.0052 -1.1033
 8775SOL    HW237962   1.803   1.749  15.193  1.1514 -0.0482  0.4708
 8776SOL     OW37963   1.864   0.394  14.903 -0.0532  0.0675 -1.1846
 8776SOL    HW137964   1.804   0.410  14.831  0.0083  1.7285 -0.8744
 8776SOL    HW237965   1.863   0.299  14.905  0.2944  0.1272  1.9825
 8777SOL     OW37966   1.508   3.381   9.334  0.0404 -0.6840 -0.5022
 8777SOL    HW137967   1.473   3.336   9.257 -0.7000  3.2229 -2.4602
 8777SOL    HW237968   1.603   3.376   9.327  0.0551  0.3109 -1.0703
 8778SOL     OW37969   4.624   2.558   4.323  0.3645 -0.4878  0.0622
 8778SOL    HW137970   4.659   2.595   4.242  0.5804 -0.6233  0.0944
 8778SOL    HW237971   4.561   2.621   4.358  1.2619  0.0074  0.7830
 8779SOL     OW37972   3.716   4.295   6.615 -0.4213 -0.1568  0.2908
 8779SOL    HW137973   3.790   4.238   6.592 -0.7470 -0.2822 -0.4422
 8779SOL    HW237974   3.725   4.376   6.566 -1.2177  0.4064  1.0946
 8780SOL     OW37975   0.451   3.627  16.570  0.0445  0.3108  0.3530
 8780SOL    HW137976   0.439   3.669  16.655 -0.9834  1.1561 -0.2119
 8780SOL    HW237977   0.543   3.602  16.580 -0.3270  0.4866  4.3519
 8781SOL     OW37978   3.298   0.074  15.164  0.0510 -0.2258  0.4604
 8781SOL    HW137979   3.215   0.027  15.169  0.8220 -1.6363 -0.0180
 8781SOL    HW237980   3.285   0.088  15.070  3.3744 -1.0717 -0.1317
 8782SOL     OW37981   4.307   0.554  14.415 -0.7618  0.8961 -0.5128
 8782SOL    HW137982   4.244   0.586  14.479 -0.1637 -0.3734  0.7283
 8782SOL    HW237983   4.313   0.462  14.442 -0.7811  0.7295 -1.0805
 8783SOL     OW37984   0.574   1.573  13.905 -0.6562  0.3611 -0.0361
 8783SOL    HW137985   0.648   1.598  13.960  0.0947 -0.8363 -0.5071
 8783SOL    HW237986   0.618   1.556  13.822 -0.7309  3.8865 -0.8024
 8784SOL     OW37987   4.573   3.710   6.600 -0.4147 -0.5826 -0.5910
 8784SOL    HW137988   4.523   3.744   6.526  0.4625 -1.6828 -1.6803
 8784SOL    HW237989   4.511   3.664   6.657 -0.3286 -2.5903 -2.1306
 8785SOL     OW37990   1.825   0.111  14.917 -0.1218 -0.3120  0.3237
 8785SOL    HW137991   1.837   0.023  14.953  1.3101 -0.0835  0.3853
 8785SOL    HW237992   1.761   0.094  14.848  0.0259 -1.6249  0.5018
 8786SOL     OW37993   2.597   1.635   7.645  0.1053  0.2918 -0.0081
 8786SOL    HW137994   2.652   1.642   7.567  0.1025  0.5984  0.0148
 8786SOL    HW237995   2.567   1.545   7.655  1.7948 -0.2926 -0.2032
 8787SOL     OW37996   0.241   2.927   2.414  0.3333 -0.0156 -0.5334
 8787SOL    HW137997   0.169   2.872   2.446  0.9433 -0.8803 -0.6682
 8787SOL    HW237998   0.307   2.925   2.484 -0.3756 -0.2575  0.1331
 8788SOL     OW37999   4.278   3.379   4.925 -0.1793 -0.7346  0.0744
 8788SOL    HW138000   4.248   3.470   4.926  0.3001 -0.5646 -0.7170
 8788SOL    HW238001   4.202   3.324   4.906 -1.4690  0.4115  1.9592
 8789SOL     OW38002   3.439   4.209   3.011  0.1362 -0.3203 -0.3291
 8789SOL    HW138003   3.512   4.161   3.050 -0.4519 -2.2677 -1.6278
 8789SOL    HW238004   3.471   4.194   2.922  1.3644  2.2769 -0.3243
 8790SOL     OW38005   0.991   3.480   7.072  0.3487  0.4152 -0.1453
 8790SOL    HW138006   1.080   3.485   7.035  1.2453 -0.1776  1.9201
 8790SOL    HW238007   1.026   3.489   7.160  1.1483 -2.4576 -0.1439
 8791SOL     OW38008   1.305   0.764   8.124 -0.0867  0.2184  0.3838
 8791SOL    HW138009   1.393   0.767   8.086 -0.2151  1.0542  0.1435
 8791SOL    HW238010   1.256   0.824   8.067 -0.5783  0.5111  1.1250
 8792SOL     OW38011   2.586   3.767   5.486 -0.5085 -0.5272 -0.4751
 8792SOL    HW138012   2.677   3.786   5.511  0.0631 -4.4367  0.3528
 8792SOL    HW238013   2.541   3.850   5.502 -0.1487 -0.3365 -0.4481
 8793SOL     OW38014   4.523   3.044   7.567  0.1534  0.1233  0.5723
 8793SOL    HW138015   4.535   3.009   7.655 -2.7218 -1.0387  0.5146
 8793SOL    HW238016   4.459   2.979   7.538  0.9548  0.1412 -1.2591
 8794SOL     OW38017   1.066   0.980   5.731  0.8322 -0.4956  0.3135
 8794SOL    HW138018   1.099   0.894   5.755  0.3423 -1.0860 -1.1062
 8794SOL    HW238019   1.127   0.994   5.658  0.3386 -0.1776 -0.0419
 8795SOL     OW38020   0.432   2.136   6.216  0.1623  0.1952 -0.6763
 8795SOL    HW138021   0.444   2.224   6.178 -0.3604 -0.1854 -1.7362
 8795SOL    HW238022   0.448   2.167   6.305  2.0939  0.0859 -0.9840
 8796SOL     OW38023   0.326   2.285   6.728 -0.1523 -0.5504  0.3304
 8796SOL    HW138024   0.336   2.192   6.711  1.5540 -0.2776 -0.0689
 8796SOL    HW238025   0.251   2.299   6.670  0.0262  0.0247  0.2397
 8797SOL     OW38026   2.958   3.301   4.777  0.4036 -0.1818  0.3078
 8797SOL    HW138027   2.879   3.355   4.766  1.8168  1.6252 -1.1144
 8797SOL    HW238028   2.928   3.236   4.840  0.3100 -0.7372 -0.3066
 8798SOL     OW38029   0.336   3.927   2.928 -0.0248  0.1184 -0.2024
 8798SOL    HW138030   0.418   3.920   2.879 -0.6693  0.8625 -1.3735
 8798SOL    HW238031   0.338   3.867   3.002  1.1921  1.0778  0.5307
 8799SOL     OW38032   0.899   1.424   3.979 -0.5536  0.1820 -0.6306
 8799SOL    HW138033   0.830   1.363   4.006  0.1561 -1.4651 -2.5739
 8799SOL    HW238034   0.834   1.494   3.971 -2.3136 -1.2669  1.0346
 8800SOL     OW38035   1.633   0.526   5.455 -0.6948 -0.0075  0.1815
 8800SOL    HW138036   1.640   0.431   5.450 -0.8294  0.0424 -0.8982
 8800SOL    HW238037   1.537   0.534   5.451 -0.8049 -1.3837  0.0424
 8801SOL     OW38038   4.462   0.538   2.947 -0.4126  0.2162  0.0444
 8801SOL    HW138039   4.494   0.472   3.009 -0.2635 -2.0866 -2.5007
 8801SOL    HW238040   4.531   0.604   2.951  2.1432 -2.4402 -0.0452
 8802SOL     OW38041   2.889   0.812   0.051  1.2147  0.0587 -0.0908
 8802SOL    HW138042   2.924   0.873   0.116 -1.2988  2.0874 -0.6139
 8802SOL    HW238043   2.936   0.731   0.070 -0.2229 -0.8629 -0.4709
 8803SOL     OW38044   4.134   0.688  12.293 -0.5943 -0.3513  0.3019
 8803SOL    HW138045   4.070   0.618  12.302  0.4045 -1.2280  0.5842
 8803SOL    HW238046   4.210   0.629  12.288 -0.0643  0.3760 -0.1827
 8804SOL     OW38047   0.063   3.263   8.948 -0.0336  0.1062  0.0506
 8804SOL    HW138048   0.127   3.333   8.931 -1.8640  1.6820 -0.3457
 8804SOL    HW238049   0.053   3.221   8.862 -2.0541  0.7918 -0.0504
 8805SOL     OW38050   0.619   2.946  13.332  0.0039  0.7380 -0.1869
 8805SOL    HW138051   0.576   2.953  13.247  3.2456 -2.7218 -2.0987
 8805SOL    HW238052   0.637   3.037  13.356  0.4357  0.5671  0.1258
 8806SOL     OW38053   3.102   3.779  17.628  0.4211  0.3860  0.4326
 8806SOL    HW138054   3.167   3.725  17.673 -0.4122  0.4128  1.6843
 8806SOL    HW238055   3.101   3.862  17.675 -0.3306 -0.2051  1.4654
 8807SOL     OW38056   3.411   0.815   7.318 -0.0907 -0.0306 -0.2280
 8807SOL    HW138057   3.499   0.779   7.329 -0.6287 -1.6855 -1.2976
 8807SOL    HW238058   3.369   0.763   7.249  1.1180 -0.9641 -0.2582
 8808SOL     OW38059   4.688   0.477  11.217 -0.3431  0.6012  0.5273
 8808SOL    HW138060   0.035   0.504  11.183  0.6053 -0.6495  1.8733
 8808SOL    HW238061   4.635   0.545  11.176 -0.9750  0.1810  0.6336
 8809SOL     OW38062   4.285   0.729   2.553  0.2932 -0.5895 -0.0984
 8809SOL    HW138063   4.300   0.657   2.614  0.5227 -0.8876 -0.5088
 8809SOL    HW238064   4.378   0.744   2.535  0.8786 -3.1424  0.8682
 8810SOL     OW38065   0.907   4.430   4.545  0.0973  0.8745 -0.3010
 8810SOL    HW138066   0.953   4.448   4.627 -1.0171  1.5505  0.1863
 8810SOL    HW238067   0.951   4.349   4.521 -0.0279  0.4909  0.7880
 8811SOL     OW38068   2.352   1.122   5.091 -0.7734  0.1415  0.3740
 8811SOL    HW138069   2.401   1.090   5.167  0.8155 -0.1798 -0.7953
 8811SOL    HW238070   2.282   1.174   5.131 -0.9470  0.3752 -0.2344
 8812SOL     OW38071   4.034   3.759   0.815  0.1580 -0.1822 -0.0370
 8812SOL    HW138072   4.051   3.669   0.791 -2.4076 -0.4793 -0.7408
 8812SOL    HW238073   4.033   3.760   0.911 -1.3190  0.4796 -0.0529
 8813SOL     OW38074   3.355   2.495  12.306  0.3929 -0.2021 -0.8617
 8813SOL    HW138075   3.362   2.400  12.321  0.9522 -0.1680 -0.8918
 8813SOL    HW238076   3.402   2.510  12.224 -0.5103 -0.1999 -1.3821
 8814SOL     OW38077   4.604   2.699   7.665  0.0382 -0.0486  0.2663
 8814SOL    HW138078   4.598   2.679   7.758  0.5542 -0.5528  0.1947
 8814SOL    HW238079   4.697   2.719   7.649 -0.0542 -0.3073 -0.6244
 8815SOL     OW38080   1.713   3.939   0.520 -0.4083  0.0078 -0.6551
 8815SOL    HW138081   1.686   3.871   0.458 -0.3562  1.3420 -2.1376
 8815SOL    HW238082   1.677   4.018   0.479 -0.3231 -0.0558 -0.8528
 8816SOL     OW38083   3.458   0.979   5.339  0.1969  0.2922 -0.0586
 8816SOL    HW138084   3.411   0.952   5.260  0.3129 -1.3774  0.4286
 8816SOL    HW238085   3.506   1.055   5.307  0.1622 -0.2509 -1.4197
 8817SOL     OW38086   2.966   1.458   6.606  0.4346  0.7908  0.2217
 8817SOL    HW138087   3.024   1.470   6.681 -0.1812  1.9748  0.5059
 8817SOL    HW238088   2.920   1.378   6.631 -1.7187  1.7039 -0.8805
 8818SOL     OW38089   2.289   4.213   4.794 -0.8644  0.1588  0.8463
 8818SOL    HW138090   2.218   4.181   4.739 -1.5152  0.1387  1.6959
 8818SOL    HW238091   2.305   4.143   4.858 -1.6055 -0.1840  0.6526
 8819SOL     OW38092   0.156   3.287   7.353 -0.2404  0.5192 -0.1221
 8819SOL    HW138093   0.074   3.240   7.370  0.6923 -0.2165  2.2803
 8819SOL    HW238094   0.125   3.373   7.384  1.2378  1.2878 -0.7635
 8820SOL     OW38095   4.523   3.512   2.807  0.4449  0.2290  0.3111
 8820SOL    HW138096   4.520   3.484   2.715  1.9643  1.6963 -0.1898
 8820SOL    HW238097   4.492   3.432   2.848  0.3324 -0.6016 -1.3643
 8821SOL     OW38098   4.648   0.964   1.178 -0.4814  0.4268 -0.7190
 8821SOL    HW138099   4.699   0.982   1.257 -0.4008 -1.1752 -0.4127
 8821SOL    HW238100   4.640   1.052   1.140 -1.2120  0.4160 -0.5825
 8822SOL     OW38101   2.677   0.547   2.421  0.0927  0.0654 -0.0200
 8822SOL    HW138102   2.653   0.533   2.513 -1.6891 -0.6465 -0.5962
 8822SOL    HW238103   2.752   0.487   2.426  0.3737  0.7396  3.5136
 8823SOL     OW38104   3.048   0.608   2.575  0.0589 -0.4966 -0.2416
 8823SOL    HW138105   3.107   0.642   2.507 -0.6437 -0.9666 -1.0896
 8823SOL    HW238106   2.973   0.668   2.569  0.7191  0.3888  0.2868
 8824SOL     OW38107   4.223   3.740   9.319  0.1642 -0.0329 -0.0827
 8824SOL    HW138108   4.211   3.835   9.326 -0.2333 -0.2447  2.0397
 8824SOL    HW238109   4.141   3.693   9.335 -0.2297  1.0882  1.2302
 8825SOL     OW38110   4.556   3.552   3.357 -0.0755 -0.3071 -0.0014
 8825SOL    HW138111   4.649   3.529   3.355  0.0325 -0.0530  2.1827
 8825SOL    HW238112   4.531   3.548   3.449 -1.3107 -1.8125 -0.3777
 8826SOL     OW38113   2.871   0.898  15.869 -0.4307 -0.0299 -0.3858
 8826SOL    HW138114   2.791   0.857  15.837 -0.4169  1.5650 -2.4310
 8826SOL    HW238115   2.874   0.853  15.954 -0.1483  0.7687  0.0217
 8827SOL     OW38116   2.631   1.565  11.698  0.5039 -0.2796  0.7381
 8827SOL    HW138117   2.562   1.631  11.689 -0.1208 -0.8009  1.7361
 8827SOL    HW238118   2.595   1.526  11.778  1.7600 -0.0527  1.4037
 8828SOL     OW38119   1.683   4.559   9.478  0.3445 -0.4039  0.3251
 8828SOL    HW138120   1.730   4.554   9.562 -0.3409  2.5605  0.8863
 8828SOL    HW238121   1.643   4.473   9.491  1.4380 -0.8992  0.5020
 8829SOL     OW38122   1.196   1.481   4.237  0.2406 -0.2269 -0.4235
 8829SOL    HW138123   1.249   1.406   4.262 -0.5229 -0.4888  0.4163
 8829SOL    HW238124   1.107   1.446   4.238 -0.3453  1.2019 -2.0242
 8830SOL     OW38125   3.736   0.577   1.791  1.0448  0.1017  0.2784
 8830SOL    HW138126   3.691   0.511   1.738  0.6156 -0.9851  1.9674
 8830SOL    HW238127   3.814   0.602   1.741  0.1050 -0.4212 -1.4390
 8831SOL     OW38128   4.061   1.834   7.504  0.2081 -0.5179 -0.1968
 8831SOL    HW138129   4.095   1.806   7.588 -2.7026 -0.0426  1.1486
 8831SOL    HW238130   4.002   1.898   7.544 -0.7950 -1.2659 -0.4748
 8832SOL     OW38131   1.052   2.355   6.991  0.0997 -0.1807 -0.2732
 8832SOL    HW138132   1.076   2.431   6.938 -1.4574  0.2013 -0.4333
 8832SOL    HW238133   1.021   2.396   7.072 -1.3791 -1.5711 -0.1528
 8833SOL     OW38134   1.910   0.509  11.205  0.0310 -0.3869 -0.1038
 8833SOL    HW138135   1.865   0.492  11.288 -2.0752  1.3722 -0.8780
 8833SOL    HW238136   1.850   0.464  11.146  0.4640 -0.6278 -0.3547
 8834SOL     OW38137   3.439   1.324   7.264 -0.2063 -0.2199  0.5230
 8834SOL    HW138138   3.429   1.407   7.310 -0.8845 -0.0221  0.0160
 8834SOL    HW238139   3.380   1.260   7.304 -0.4279 -1.3931 -1.6789
 8835SOL     OW38140   1.499   2.927   0.692 -0.6071 -0.2306  0.3899
 8835SOL    HW138141   1.589   2.910   0.664 -0.6956  0.8117 -0.5180
 8835SOL    HW238142   1.470   2.859   0.630 -2.5332  0.5194  0.4848
 8836SOL     OW38143   0.306   1.069   6.265  0.5215 -0.3188  0.2666
 8836SOL    HW138144   0.389   1.047   6.223 -0.2535 -0.0065 -1.4177
 8836SOL    HW238145   0.257   0.990   6.244 -0.0116  0.4276 -1.2667
 8837SOL     OW38146   4.275   3.900   3.239  0.0547 -0.2287  0.1003
 8837SOL    HW138147   4.298   3.990   3.217  1.4401 -0.0452  2.3018
 8837SOL    HW238148   4.366   3.878   3.260  0.2277  2.2091  1.8030
 8838SOL     OW38149   3.723   4.348   9.261  0.0828  0.7257  0.2249
 8838SOL    HW138150   3.720   4.400   9.342  1.2243  0.2251  0.5827
 8838SOL    HW238151   3.797   4.288   9.267 -0.0356  0.3678 -1.9619
 8839SOL     OW38152   2.416   0.563   8.719 -0.2786  0.2539 -0.7946
 8839SOL    HW138153   2.354   0.511   8.771  0.9285  0.0669  0.4595
 8839SOL    HW238154   2.492   0.574   8.776 -2.1519 -1.0152  1.9880
 8840SOL     OW38155   0.359   3.855   7.824 -0.6109  0.4261  0.3477
 8840SOL    HW138156   0.425   3.829   7.887  1.2925  1.0304 -1.3975
 8840SOL    HW238157   0.347   3.944   7.855 -0.2833  0.1277  1.3163
 8841SOL     OW38158   2.142   1.888   3.914  0.7529 -0.1191  0.1190
 8841SOL    HW138159   2.164   1.893   3.821 -0.6988  2.5091 -0.0949
 8841SOL    HW238160   2.054   1.926   3.911 -0.1109 -2.1797 -0.7154
 8842SOL     OW38161   4.449   3.358   8.926 -0.1831 -0.1284  0.3781
 8842SOL    HW138162   4.403   3.423   8.978 -0.9056  0.4596 -0.9927
 8842SOL    HW238163   4.382   3.314   8.873 -3.6268  3.6114  1.6564
 8843SOL     OW38164   4.496   1.859  16.251  0.0598  0.5300 -0.5230
 8843SOL    HW138165   4.579   1.907  16.250  1.3000 -1.5839  2.9558
 8843SOL    HW238166   4.514   1.805  16.175  0.2199  2.3046 -1.7553
 8844SOL     OW38167   0.632   0.483   4.256  0.4047  0.3617 -0.0998
 8844SOL    HW138168   0.613   0.406   4.311 -2.5701  1.5743  0.5726
 8844SOL    HW238169   0.727   0.476   4.249  0.2599 -1.1962 -0.5578
 8845SOL     OW38170   3.331   3.883   7.623  0.5088  0.2952  0.1024
 8845SOL    HW138171   3.419   3.881   7.660  0.6646 -1.6462 -0.3778
 8845SOL    HW238172   3.356   3.882   7.531 -1.3116  0.9418 -0.3948
 8846SOL     OW38173   4.606   2.750  12.120  0.3433 -0.2100  0.5453
 8846SOL    HW138174   4.572   2.737  12.031 -0.4777 -0.7571  0.9413
 8846SOL    HW238175   4.548   2.691  12.169 -1.2816 -0.9647 -2.2568
 8847SOL     OW38176   2.433   4.320   5.566  0.3931  0.1135  0.0132
 8847SOL    HW138177   2.521   4.357   5.556 -0.3465  1.4483 -1.4755
 8847SOL    HW238178   2.426   4.307   5.472 -1.5230  2.9677 -0.2245
 8848SOL     OW38179   2.010   1.079   6.391  0.1187  0.1552 -0.7955
 8848SOL    HW138180   1.971   0.993   6.380 -1.1124  0.5979  0.0098
 8848SOL    HW238181   2.103   1.056   6.394  0.5683  2.0962  0.4433
 8849SOL     OW38182   2.608   3.553  15.955 -0.3386  0.0647  0.5526
 8849SOL    HW138183   2.668   3.535  15.882 -0.6898  1.6316 -0.1395
 8849SOL    HW238184   2.526   3.563  15.907 -0.3078 -0.9149  0.3009
 8850SOL     OW38185   3.233   2.475   1.027  0.0345  0.4007 -0.1025
 8850SOL    HW138186   3.302   2.525   1.071  2.8309 -1.9751 -1.7520
 8850SOL    HW238187   3.281   2.436   0.953  2.8751  0.1087  1.8780
 8851SOL     OW38188   1.603   1.674   5.244  0.2322 -0.2152 -0.1747
 8851SOL    HW138189   1.516   1.644   5.221 -0.0441 -0.8263  1.6912
 8851SOL    HW238190   1.605   1.760   5.200 -1.0326 -0.5317 -0.8414
 8852SOL     OW38191   2.663   0.006   4.697 -0.3288  0.2059 -0.3109
 8852SOL    HW138192   2.631   4.693   4.622 -0.0392  1.3261 -1.2111
 8852SOL    HW238193   2.756   4.722   4.698 -0.5327 -0.4927  2.6488
 8853SOL     OW38194   0.656   2.736   5.907  0.1048  0.2618 -0.4459
 8853SOL    HW138195   0.662   2.799   5.835  0.7680 -0.8472 -1.3567
 8853SOL    HW238196   0.630   2.777   5.989  1.4590 -0.7215  0.4729
 8854SOL     OW38197   1.079   0.410   1.520  0.1406 -0.0739 -0.2728
 8854SOL    HW138198   1.024   0.422   1.443  1.5581 -0.0050 -1.2789
 8854SOL    HW238199   1.072   0.314   1.526 -0.9839 -0.0867 -2.0119
 8855SOL     OW38200   3.852   4.584   7.752  0.7884  0.1452  0.2040
 8855SOL    HW138201   3.802   4.524   7.696 -0.3890  0.1712  1.2244
 8855SOL    HW238202   3.937   4.540   7.763  1.0564  0.4000 -0.9088
 8856SOL     OW38203   4.274   2.115   2.985 -0.1293 -0.2097  0.0655
 8856SOL    HW138204   4.292   2.093   3.077 -2.3109 -1.1633  0.2481
 8856SOL    HW238205   4.236   2.203   2.986 -1.7757 -0.9421  1.4175
 8857SOL     OW38206   1.389   3.391  16.064 -0.5580  0.6372 -0.1746
 8857SOL    HW138207   1.354   3.420  16.148  0.9118 -1.2037  1.0764
 8857SOL    HW238208   1.460   3.454  16.070  0.5208 -0.6215  0.2228
 8858SOL     OW38209   1.326   1.554   7.149 -0.3909 -0.0173  0.1721
 8858SOL    HW138210   1.363   1.474   7.186 -0.2823 -0.2006 -0.3428
 8858SOL    HW238211   1.233   1.540   7.168 -0.1201 -0.7286  0.9564
 8859SOL     OW38212   0.205   3.228   5.580  0.1765  0.5953 -0.4204
 8859SOL    HW138213   0.244   3.315   5.577 -0.0544  0.7661  1.5539
 8859SOL    HW238214   0.117   3.243   5.548 -0.1772  0.0205  0.2773
 8860SOL     OW38215   1.220   3.543   6.895 -0.0361  0.1690  0.0309
 8860SOL    HW138216   1.251   3.454   6.913  0.6966  0.7034  1.4426
 8860SOL    HW238217   1.297   3.598   6.912  1.0674 -0.7685 -1.8645
 8861SOL     OW38218   3.317   2.902  16.427 -0.3098 -0.3736  0.1242
 8861SOL    HW138219   3.257   2.977  16.434  0.3404  0.0268  1.3881
 8861SOL    HW238220   3.357   2.909  16.341 -1.9255 -1.1521 -0.6856
 8862SOL     OW38221   2.876   2.215   0.712  0.2422 -0.2756 -0.6597
 8862SOL    HW138222   2.889   2.302   0.675 -0.6889 -0.4107 -1.3076
 8862SOL    HW238223   2.871   2.240   0.804 -3.5787 -0.1105 -0.8954
 8863SOL     OW38224   4.004   0.970   8.006 -0.5181  0.0200 -0.1884
 8863SOL    HW138225   3.972   1.040   8.063 -3.4256 -0.8760 -0.7246
 8863SOL    HW238226   3.991   1.007   7.918 -0.0012  0.2570 -0.1678
 8864SOL     OW38227   2.809   2.409   5.228 -0.4588 -0.1619 -0.2308
 8864SOL    HW138228   2.847   2.391   5.142  0.5312 -1.5048  0.4852
 8864SOL    HW238229   2.771   2.323   5.246  0.2719 -0.5611 -0.6011
 8865SOL     OW38230   1.864   3.208  13.410  0.2013  0.0774  0.1576
 8865SOL    HW138231   1.787   3.264  13.418  1.9529  2.1940  2.2740
 8865SOL    HW238232   1.936   3.271  13.417  0.7743 -0.7028  1.3473
 8866SOL     OW38233   4.306   2.004  11.639 -0.2147  0.2460 -0.1583
 8866SOL    HW138234   4.241   2.016  11.708  1.4782  1.7593  1.1714
 8866SOL    HW238235   4.267   2.053  11.567 -1.4562  2.5319  2.1173
 8867SOL     OW38236   0.246   0.243   8.299 -0.1328 -0.1685  0.9719
 8867SOL    HW138237   0.227   0.270   8.388 -2.4879 -1.1537  0.7663
 8867SOL    HW238238   0.244   0.330   8.258  0.6315 -0.1448  0.9919
 8868SOL     OW38239   4.190   3.711   3.436  0.1849  0.1227 -0.2162
 8868SOL    HW138240   4.207   3.787   3.381 -0.7831 -0.1303 -0.8754
 8868SOL    HW238241   4.165   3.754   3.518 -1.1277 -2.5269  0.7995
 8869SOL     OW38242   4.560   4.384   7.284 -0.6770 -0.1960 -0.8429
 8869SOL    HW138243   4.581   4.389   7.378 -3.2062 -1.4232 -0.2153
 8869SOL    HW238244   4.638   4.340   7.253  0.4507  0.6452  0.7875
 8870SOL     OW38245   4.272   1.113   5.005 -0.0883 -0.1891  0.1730
 8870SOL    HW138246   4.224   1.102   4.923 -1.6923 -0.6060  1.1799
 8870SOL    HW238247   4.248   1.199   5.040  0.2015  0.8905 -2.2851
 8871SOL     OW38248   2.434   4.562   2.999 -0.2207 -0.3303 -0.9135
 8871SOL    HW138249   2.393   4.563   3.086  0.9420 -1.9323 -0.3397
 8871SOL    HW238250   2.411   4.475   2.967 -3.4530  0.6674 -1.2898
 8872SOL     OW38251   2.345   2.070  17.178 -0.5149  0.4618  0.3807
 8872SOL    HW138252   2.308   1.982  17.170 -0.5926  0.5261  0.0374
 8872SOL    HW238253   2.343   2.088  17.084  2.9038 -0.8307  0.0474
 8873SOL     OW38254   2.912   1.208   0.560  0.0157 -0.4145 -0.1414
 8873SOL    HW138255   2.936   1.120   0.589 -1.8830 -1.1190 -0.7063
 8873SOL    HW238256   2.836   1.186   0.506  0.8543  0.0384 -1.4913
 8874SOL     OW38257   2.998   2.737   9.052 -0.5038  0.5525  0.0296
 8874SOL    HW138258   3.056   2.770   9.122 -1.6767 -2.2412  2.3094
 8874SOL    HW238259   3.053   2.760   8.977 -0.0391  0.9393  0.4766
 8875SOL     OW38260   1.427   0.271   1.596  0.1578  0.2375 -0.5172
 8875SOL    HW138261   1.380   0.352   1.575 -0.0400  0.4316  0.6641
 8875SOL    HW238262   1.427   0.235   1.508 -4.4965  2.0112 -1.2565
 8876SOL     OW38263   1.447   0.437   9.110  0.0388 -0.0439  0.0312
 8876SOL    HW138264   1.357   0.405   9.111  0.0429 -0.0963 -1.3631
 8876SOL    HW238265   1.437   0.530   9.131 -2.6997 -0.4339  0.4067
 8877SOL     OW38266   1.125   0.354  15.131  0.1633 -0.0732  0.3307
 8877SOL    HW138267   1.044   0.338  15.179 -0.5945 -0.4946 -1.0795
 8877SOL    HW238268   1.081   0.372  15.048 -3.2336 -2.6948  1.5598
 8878SOL     OW38269   2.887   0.957  13.050 -0.0577 -0.0357  0.2388
 8878SOL    HW138270   2.846   1.007  13.120  1.7232  0.0553  1.2349
 8878SOL    HW238271   2.978   0.962  13.080  0.8431  0.2887 -2.5721
 8879SOL     OW38272   1.798   0.730   2.068  0.8893 -0.4347  0.0728
 8879SOL    HW138273   1.893   0.718   2.064  0.8519 -1.0095  0.8709
 8879SOL    HW238274   1.775   0.777   1.988 -0.4238 -1.7685 -0.3463
 8880SOL     OW38275   3.354   4.370   6.135 -0.0886 -0.1139 -0.2911
 8880SOL    HW138276   3.359   4.439   6.069  0.4524  1.4856  1.4005
 8880SOL    HW238277   3.287   4.411   6.190  0.3054 -0.6746  0.6152
 8881SOL     OW38278   0.922   0.118   8.327 -0.0726  0.3868  0.6989
 8881SOL    HW138279   1.013   0.124   8.298 -0.3926  0.4234 -0.3109
 8881SOL    HW238280   0.904   0.024   8.328 -1.3259  0.5938 -1.4719
 8882SOL     OW38281   3.636   2.574   6.710 -0.3517 -0.1555  0.4083
 8882SOL    HW138282   3.656   2.502   6.770  2.2979  0.0093 -0.2916
 8882SOL    HW238283   3.542   2.561   6.697  0.2272 -2.1398 -1.8679
 8883SOL     OW38284   0.677   1.565   5.679 -0.6542 -0.0405 -0.4216
 8883SOL    HW138285   0.583   1.561   5.694  0.1315 -0.9078  4.3201
 8883SOL    HW238286   0.698   1.657   5.694  0.0020 -0.3174  0.3627
 8884SOL     OW38287   2.620   3.494  14.288  0.1502 -0.1027  0.1632
 8884SOL    HW138288   2.636   3.548  14.211  3.3875  0.5635  1.3213
 8884SOL    HW238289   2.575   3.558  14.343  0.7692  0.8233 -0.4163
 8885SOL     OW38290   2.820   4.336   3.937 -0.3285 -0.0972 -0.4897
 8885SOL    HW138291   2.843   4.256   3.984 -0.1682  0.4746  0.4065
 8885SOL    HW238292   2.856   4.411   3.985 -1.0800 -0.6698  0.9720
 8886SOL     OW38293   3.015   4.008   4.411  0.1712  0.7016 -0.4481
 8886SOL    HW138294   3.072   3.948   4.459 -2.4526 -0.6877  0.9251
 8886SOL    HW238295   2.942   4.015   4.472  2.6896  0.3884  2.6324
 8887SOL     OW38296   0.093   1.186   4.803  0.4407 -0.6806 -0.1275
 8887SOL    HW138297   0.105   1.092   4.813 -1.0911 -0.8233  0.3391
 8887SOL    HW238298   0.174   1.230   4.778  0.4114  0.2096  1.3388
 8888SOL     OW38299   1.339   2.312   8.179  0.1338 -0.0916  0.8382
 8888SOL    HW138300   1.409   2.251   8.157  1.0445  1.1575  0.2895
 8888SOL    HW238301   1.384   2.353   8.252  1.7732  1.2900 -0.9538
 8889SOL     OW38302   4.470   3.117   1.703 -0.2511 -0.0854  0.6719
 8889SOL    HW138303   4.543   3.059   1.684 -0.1046 -0.0552  1.1541
 8889SOL    HW238304   4.411   3.042   1.714 -0.0903 -0.6464 -2.2934
 8890SOL     OW38305   2.404   1.458   2.030 -0.4485  0.0783  0.5752
 8890SOL    HW138306   2.476   1.424   2.085  0.2348 -1.0998 -1.0538
 8890SOL    HW238307   2.341   1.386   2.036 -0.7872  0.5859  3.1980
 8891SOL     OW38308   0.225   0.914  15.529 -0.7193  0.4917 -0.5872
 8891SOL    HW138309   0.225   0.924  15.624 -0.8942 -0.6128 -0.4738
 8891SOL    HW238310   0.234   1.008  15.515  0.1687  0.1885 -2.0144
 8892SOL     OW38311   3.419   3.129   3.708 -0.2035  0.0778 -1.1078
 8892SOL    HW138312   3.460   3.154   3.626 -0.1095  0.9529 -0.7932
 8892SOL    HW238313   3.358   3.057   3.692 -0.9488  0.2225  1.0633
 8893SOL     OW38314   4.132   3.289   3.154 -0.6621  0.6313 -0.2754
 8893SOL    HW138315   4.198   3.263   3.219 -1.2133  1.0296  0.4513
 8893SOL    HW238316   4.134   3.383   3.169  0.7155  0.4751  0.5472
 8894SOL     OW38317   1.508   2.965   7.878  0.2005  0.0944 -0.0882
 8894SOL    HW138318   1.471   2.897   7.822  0.4369  0.1761 -0.3462
 8894SOL    HW238319   1.441   3.032   7.862 -0.7255 -0.6371  0.7055
 8895SOL     OW38320   2.594   0.933   4.309 -0.3396  0.4192 -0.1643
 8895SOL    HW138321   2.519   0.980   4.346  0.2181  0.0597  1.4249
 8895SOL    HW238322   2.611   0.874   4.382 -0.3649 -1.2319 -1.4909
 8896SOL     OW38323   3.996   0.067  17.680 -0.1760 -0.1306  0.5519
 8896SOL    HW138324   3.992   0.051   0.024 -1.7098  1.3935  0.7508
 8896SOL    HW238325   3.980   0.161  17.681 -1.4475 -0.3193 -1.4740
 8897SOL     OW38326   0.796   1.141   8.137  0.1708 -1.3488  0.7527
 8897SOL    HW138327   0.840   1.066   8.095  0.5883  0.5277 -2.1701
 8897SOL    HW238328   0.823   1.127   8.228  1.5939  0.4247  0.5811
 8898SOL     OW38329   0.729   3.486   3.571 -0.0489 -0.4752  0.2779
 8898SOL    HW138330   0.660   3.473   3.506 -0.3479  1.4153  0.2286
 8898SOL    HW238331   0.776   3.560   3.535 -1.3414 -0.7566 -1.9863
 8899SOL     OW38332   4.021   2.863  13.645 -0.0017 -0.4058 -0.1730
 8899SOL    HW138333   4.054   2.901  13.563  0.3239  1.9251  1.0550
 8899SOL    HW238334   4.087   2.897  13.705 -1.3948  0.9796  0.5832
 8900SOL     OW38335   1.112   3.947   2.117  0.0622 -0.6296  0.2028
 8900SOL    HW138336   1.055   3.883   2.158 -0.8758  0.6088  0.8276
 8900SOL    HW238337   1.156   3.895   2.049 -1.4140  1.6678 -2.5283
 8901SOL     OW38338   3.417   2.351   5.254 -0.1294 -0.3410  0.4242
 8901SOL    HW138339   3.352   2.393   5.309  1.6191  2.6017  0.2356
 8901SOL    HW238340   3.350   2.293   5.217  0.4877  0.4007 -1.8558
 8902SOL     OW38341   1.464   3.125   4.826  0.1844 -0.2492 -0.0547
 8902SOL    HW138342   1.401   3.183   4.868  1.6550  2.3309 -1.3881
 8902SOL    HW238343   1.507   3.186   4.766 -2.0326  0.8990 -0.4681
 8903SOL     OW38344   4.565   2.671   6.319 -0.2751 -0.2460  0.0742
 8903SOL    HW138345   4.563   2.695   6.412 -2.2989 -0.7986  0.1729
 8903SOL    HW238346   4.605   2.751   6.288 -3.5743  1.9619  1.4872
 8904SOL     OW38347   2.780   1.928   4.376  0.1758  0.2337 -0.4141
 8904SOL    HW138348   2.857   1.883   4.409  0.0713 -0.6930 -1.4489
 8904SOL    HW238349   2.711   1.873   4.413  1.1447 -0.7942 -0.1672
 8905SOL     OW38350   3.018   2.822   9.435 -0.2284  0.2046 -0.5466
 8905SOL    HW138351   3.080   2.875   9.385 -0.2333  1.1088  0.3947
 8905SOL    HW238352   3.075   2.753   9.470 -2.3245 -0.7773  0.8991
 8906SOL     OW38353   2.345   2.261   1.258  0.3704 -0.6032  0.2765
 8906SOL    HW138354   2.278   2.216   1.309  0.7165 -2.2230 -0.7111
 8906SOL    HW238355   2.360   2.335   1.317  0.3301 -0.5628  0.2362
 8907SOL     OW38356   0.393   3.266  15.049  0.3149  0.3376 -0.5958
 8907SOL    HW138357   0.482   3.239  15.025  0.3680 -0.3603  0.4079
 8907SOL    HW238358   0.386   3.220  15.132  0.0392  0.2579 -0.6643
 8908SOL     OW38359   3.206   1.157   3.695 -0.1643  0.2950 -0.5471
 8908SOL    HW138360   3.233   1.229   3.752  0.2737  1.3411 -2.0762
 8908SOL    HW238361   3.122   1.133   3.735  0.5857  1.2068  1.5494
 8909SOL     OW38362   2.853   2.124   3.472 -0.3924 -0.3959  0.0768
 8909SOL    HW138363   2.894   2.202   3.508  0.5323 -0.9666  0.2657
 8909SOL    HW238364   2.846   2.062   3.544 -1.8769  0.4890  0.6799
 8910SOL     OW38365   4.122   3.998   1.804 -0.3050 -0.0934 -0.3028
 8910SOL    HW138366   4.135   4.083   1.761  1.6679  0.5277  1.5289
 8910SOL    HW238367   4.185   4.000   1.876 -0.0973  2.8941 -0.5569
 8911SOL     OW38368   0.650   0.126  10.910 -0.0679  0.6297  0.1229
 8911SOL    HW138369   0.642   0.032  10.894  1.6680  0.4835  0.0685
 8911SOL    HW238370   0.729   0.117  10.964  0.6840 -0.3055 -1.1291
 8912SOL     OW38371   0.760   4.161   5.836  0.4883 -0.3798 -0.6338
 8912SOL    HW138372   0.770   4.253   5.862  1.2190 -1.5106  3.0501
 8912SOL    HW238373   0.823   4.107   5.882 -0.6964 -0.2191  1.1719
 8913SOL     OW38374   0.722   4.103   0.370 -0.0941  0.2018  0.1244
 8913SOL    HW138375   0.753   4.125   0.457 -0.9851  3.0970 -0.2986
 8913SOL    HW238376   0.805   4.111   0.324 -0.4602  0.7852 -0.4428
 8914SOL     OW38377   4.464   4.164   6.050 -0.3350 -0.5356  0.5401
 8914SOL    HW138378   4.418   4.138   6.130  1.3500 -0.1539  1.6137
 8914SOL    HW238379   4.503   4.250   6.065 -1.9442  0.1272  0.9913
 8915SOL     OW38380   2.019   1.916   0.244  0.0553 -0.3111  0.2861
 8915SOL    HW138381   2.070   1.988   0.205  1.0187 -2.0880 -1.6914
 8915SOL    HW238382   1.927   1.934   0.226  0.6975  0.1289 -2.5360
 8916SOL     OW38383   4.333   1.498   8.067 -0.0523 -0.0859  0.2952
 8916SOL    HW138384   4.287   1.504   8.151 -0.7875  1.2012 -0.1998
 8916SOL    HW238385   4.412   1.546   8.092  0.7493 -0.7056 -1.0804
 8917SOL     OW38386   3.362   2.816   4.656  0.1409 -0.2455 -0.0642
 8917SOL    HW138387   3.427   2.777   4.598  0.9839  0.8604  0.1350
 8917SOL    HW238388   3.382   2.906   4.632  0.5914 -0.3766 -0.1850
 8918SOL     OW38389   0.827   0.644   7.647  0.3452  0.2544 -0.2243
 8918SOL    HW138390   0.862   0.566   7.689  0.0966  0.5214  0.4808
 8918SOL    HW238391   0.734   0.624   7.639  0.2288  1.4695 -2.0884
 8919SOL     OW38392   1.895   1.260   3.518  0.1908  0.1314  0.6120
 8919SOL    HW138393   1.912   1.329   3.583 -0.4082 -1.7332  2.7382
 8919SOL    HW238394   1.937   1.294   3.439  0.1701  0.5533  0.7789
 8920SOL     OW38395   3.824   3.529   4.560  0.0619  0.7687 -0.4324
 8920SOL    HW138396   3.833   3.595   4.492 -0.3441  1.5747  0.2900
 8920SOL    HW238397   3.730   3.542   4.571 -0.1746  0.2738 -1.8972
 8921SOL     OW38398   3.479   2.834   9.048 -0.1954  0.4986  0.3463
 8921SOL    HW138399   3.551   2.778   9.019 -1.8748 -0.4271 -2.0304
 8921SOL    HW238400   3.531   2.904   9.086  0.5950 -1.4448  2.8085
 8922SOL     OW38401   3.737   1.612   1.974 -0.0008  0.0239 -0.0174
 8922SOL    HW138402   3.724   1.564   2.055 -2.9643  0.3314 -0.3204
 8922SOL    HW238403   3.675   1.572   1.913 -0.5510  0.5490  0.2062
 8923SOL     OW38404   4.544   2.739   6.597 -0.6563 -0.1499 -0.4943
 8923SOL    HW138405   4.579   2.823   6.626  0.5288 -0.6066 -0.6081
 8923SOL    HW238406   4.452   2.763   6.588 -1.3476 -2.3808  0.3553
 8924SOL     OW38407   4.100   3.841   3.659 -0.2453 -0.7468  0.8445
 8924SOL    HW138408   4.054   3.906   3.712 -0.0428 -0.8993  1.2088
 8924SOL    HW238409   4.175   3.884   3.619 -2.1523 -0.9139 -2.8969
 8925SOL     OW38410   1.143   2.721   9.779  0.1858  0.4761 -0.1572
 8925SOL    HW138411   1.073   2.660   9.804  0.8324  0.0225  0.5498
 8925SOL    HW238412   1.195   2.654   9.734  0.0321  1.6280 -2.0026
 8926SOL     OW38413   0.341   0.590  11.679 -0.1333  0.3476 -0.2019
 8926SOL    HW138414   0.427   0.563  11.709 -0.7271 -0.6806  0.5525
 8926SOL    HW238415   0.327   0.659  11.744  0.0057 -0.3930  0.6111
 8927SOL     OW38416   1.230   2.378   2.955 -0.3713  0.1308 -0.0890
 8927SOL    HW138417   1.265   2.347   2.872 -1.1360 -0.3443 -0.2305
 8927SOL    HW238418   1.306   2.403   3.008  0.1162 -1.2211 -0.1528
 8928SOL     OW38419   1.403   1.715   7.351 -0.4476  0.1396  0.2028
 8928SOL    HW138420   1.352   1.654   7.299 -1.2345  1.1751 -0.2440
 8928SOL    HW238421   1.463   1.658   7.399  1.1223 -0.8204 -2.9630
 8929SOL     OW38422   3.154   2.749  11.163  0.0729 -0.7661  0.0464
 8929SOL    HW138423   3.187   2.659  11.165  0.3220 -0.6748 -0.0555
 8929SOL    HW238424   3.065   2.740  11.129  0.1974  1.5348 -0.8954
 8930SOL     OW38425   1.721   0.439   9.803  0.4088  0.2619 -0.2112
 8930SOL    HW138426   1.690   0.490   9.728 -1.1485 -0.9897 -0.4168
 8930SOL    HW238427   1.779   0.377   9.757  1.6705  0.1897  1.4743
 8931SOL     OW38428   3.334   1.096   8.643  0.8702 -0.9677 -0.1337
 8931SOL    HW138429   3.341   1.085   8.738  0.6588 -0.3003 -0.0439
 8931SOL    HW238430   3.374   1.183   8.632 -1.5955  0.4745  2.5227
 8932SOL     OW38431   1.254   1.376   6.755  0.0048  0.2750  0.2268
 8932SOL    HW138432   1.301   1.360   6.673 -0.3284  0.0330  0.0844
 8932SOL    HW238433   1.241   1.471   6.760 -0.8973  0.2290 -1.3478
 8933SOL     OW38434   0.932   2.730   7.195 -0.1600  0.1439  0.2910
 8933SOL    HW138435   1.006   2.775   7.235  0.8107  0.3487 -1.7630
 8933SOL    HW238436   0.857   2.790   7.191  1.6079  2.2521 -1.1704
 8934SOL     OW38437   4.293   1.859  13.400 -0.2126  0.2752  0.2347
 8934SOL    HW138438   4.382   1.881  13.373 -0.5279  1.4439  0.1576
 8934SOL    HW238439   4.306   1.765  13.385 -1.2421 -0.0143  1.1294
 8935SOL     OW38440   3.790   2.498   6.465 -0.7060 -0.1296  0.0429
 8935SOL    HW138441   3.811   2.462   6.379  1.2080 -0.5014  0.6723
 8935SOL    HW238442   3.720   2.446   6.507  0.0326 -0.8544  0.3688
 8936SOL     OW38443   3.604   1.056   0.232 -0.5385  0.4733  0.1299
 8936SOL    HW138444   3.645   1.137   0.262 -0.0720  0.3559 -0.1724
 8936SOL    HW238445   3.596   1.078   0.139  2.1201 -1.1404 -0.4935
 8937SOL     OW38446   0.592   1.759   8.050  0.3209  0.4786 -0.2883
 8937SOL    HW138447   0.555   1.675   8.022 -0.1828  1.0407 -1.3323
 8937SOL    HW238448   0.553   1.772   8.136  1.8632 -1.0813  0.6436
 8938SOL     OW38449   2.163   4.325   5.307  0.4004  0.3540  0.2567
 8938SOL    HW138450   2.093   4.384   5.332 -0.1985 -0.1408 -0.2326
 8938SOL    HW238451   2.143   4.332   5.214  1.2089  1.5544  0.1722
 8939SOL     OW38452   3.243   1.923   5.384  0.2548  0.5320 -0.0131
 8939SOL    HW138453   3.258   1.828   5.380 -0.4589  0.4503 -0.6931
 8939SOL    HW238454   3.184   1.942   5.311 -1.2952 -1.4192  0.7355
 8940SOL     OW38455   2.299   1.862   4.621  0.2473 -0.7086 -0.3471
 8940SOL    HW138456   2.283   1.794   4.556 -0.0909 -0.2639 -0.7259
 8940SOL    HW238457   2.257   1.939   4.582  0.3621 -0.0560  0.8241
 8941SOL     OW38458   3.965   2.917   6.506 -0.3252 -0.1445 -0.5905
 8941SOL    HW138459   3.923   2.837   6.475 -1.3217  0.2167 -0.1950
 8941SOL    HW238460   4.028   2.877   6.565 -0.8751 -0.7938 -0.4457
 8942SOL     OW38461   3.256   2.213   2.037 -0.3034 -0.3418 -1.3166
 8942SOL    HW138462   3.185   2.197   2.100  2.9169 -0.6048  2.2207
 8942SOL    HW238463   3.254   2.124   2.001 -1.1576 -0.2781 -1.4330
 8943SOL     OW38464   4.035   3.223   2.879 -0.0984 -0.0744 -0.7195
 8943SOL    HW138465   4.125   3.248   2.861 -0.1586 -1.4702 -3.0643
 8943SOL    HW238466   4.047   3.203   2.971 -1.2109  1.2678 -0.2774
 8944SOL     OW38467   0.161   3.417   2.909  0.3631  0.0145  0.8178
 8944SOL    HW138468   0.147   3.504   2.946  2.0484  0.8662 -0.5383
 8944SOL    HW238469   0.220   3.425   2.834  0.2000  1.3205  0.8321
 8945SOL     OW38470   2.573   2.649   6.837 -0.3423  0.1720  0.8311
 8945SOL    HW138471   2.635   2.649   6.910 -0.3305 -1.2699  0.8223
 8945SOL    HW238472   2.541   2.559   6.837  0.4854 -0.1151 -3.9224
 8946SOL     OW38473   2.768   3.210   4.089  0.0137 -0.2057 -0.0405
 8946SOL    HW138474   2.774   3.293   4.041  0.7887 -0.5932 -0.6168
 8946SOL    HW238475   2.860   3.195   4.112  0.0413 -2.3589 -1.4984
 8947SOL     OW38476   3.458   2.552   5.074  0.1906 -0.0825  0.7042
 8947SOL    HW138477   3.451   2.624   5.137  0.8332 -1.7650  2.6747
 8947SOL    HW238478   3.438   2.478   5.130  0.1854  1.4090  2.6889
 8948SOL     OW38479   0.592   3.433   7.137  0.0502  0.2370 -0.2049
 8948SOL    HW138480   0.601   3.468   7.048  1.0317 -1.9686 -0.9490
 8948SOL    HW238481   0.497   3.442   7.144  0.0197  1.6912 -2.5098
 8949SOL     OW38482   4.041   3.510   5.927 -0.1232  0.1592  0.3916
 8949SOL    HW138483   4.041   3.537   6.019  0.1500 -1.1829  0.7820
 8949SOL    HW238484   3.947   3.516   5.909 -0.0363  0.7330  0.1424
 8950SOL     OW38485   1.023   4.032   2.462 -0.4592  0.4640  0.2698
 8950SOL    HW138486   1.044   4.120   2.493 -0.0774  0.1741  0.8341
 8950SOL    HW238487   1.094   4.020   2.398 -0.4584  0.9186  0.1835
 8951SOL     OW38488   3.483   2.364   2.076  0.1579  0.4272  0.2585
 8951SOL    HW138489   3.457   2.420   2.149 -0.1463 -0.2650  0.6784
 8951SOL    HW238490   3.400   2.319   2.062  1.6646 -2.7785  1.6118
 8952SOL     OW38491   0.854   2.412   4.532 -0.1519 -0.2335  0.4638
 8952SOL    HW138492   0.814   2.448   4.453 -0.8401 -3.5707 -0.6754
 8952SOL    HW238493   0.779   2.429   4.590 -0.0286  0.3853  0.4399
 8953SOL     OW38494   4.319   2.041   3.300 -0.8770 -0.6101 -0.1772
 8953SOL    HW138495   4.286   2.034   3.389 -4.0479 -0.8553 -1.3535
 8953SOL    HW238496   4.309   1.950   3.273  1.3085 -0.9461  0.1867
 8954SOL     OW38497   0.683   0.933  16.376  0.5134 -0.5665 -0.4309
 8954SOL    HW138498   0.682   0.973  16.463  2.0195  1.1534 -1.2068
 8954SOL    HW238499   0.697   1.007  16.317 -3.8812 -0.2174 -0.9989
 8955SOL     OW38500   3.810   3.271  13.130  0.3179  0.3422 -0.0136
 8955SOL    HW138501   3.730   3.289  13.179  1.8969 -2.0206  3.4118
 8955SOL    HW238502   3.844   3.357  13.105 -1.2826  0.8865 -0.2842
 8956SOL     OW38503   3.263   0.213   6.785  0.2409 -0.0918  0.1054
 8956SOL    HW138504   3.251   0.236   6.877 -0.0260 -0.1207  0.0803
 8956SOL    HW238505   3.274   0.301   6.751  3.4876  0.0451  1.5071
 8957SOL     OW38506   2.362   1.038   1.534 -0.3826  0.4769  0.5097
 8957SOL    HW138507   2.293   0.975   1.552  0.5027 -0.5493  0.3595
 8957SOL    HW238508   2.336   1.118   1.580 -0.9833 -0.1386  1.2337
 8958SOL     OW38509   0.428   0.911   8.650  0.3135 -0.0731  0.1210
 8958SOL    HW138510   0.390   0.872   8.729 -1.4747 -1.9292 -1.6326
 8958SOL    HW238511   0.469   0.841   8.598  0.9540  1.2536 -1.1748
 8959SOL     OW38512   4.657   3.484  17.573 -0.1846 -0.3288  0.1752
 8959SOL    HW138513   4.703   3.409  17.610  0.6717  0.1949  0.1674
 8959SOL    HW238514   4.699   3.473  17.488 -1.3363 -0.7796 -0.3380
 8960SOL     OW38515   0.277   0.615  12.434 -0.0619 -0.1888 -0.3021
 8960SOL    HW138516   0.325   0.537  12.461  0.2591  0.8716  2.2023
 8960SOL    HW238517   0.223   0.619  12.513  0.7714  0.6888  0.2363
 8961SOL     OW38518   2.202   3.253   5.140  0.0650  0.9290  0.7003
 8961SOL    HW138519   2.261   3.327   5.150  2.4761 -0.6151 -1.7920
 8961SOL    HW238520   2.125   3.304   5.117 -0.6875 -1.1984 -1.4828
 8962SOL     OW38521   4.530   0.216   1.197 -0.1547  0.1540  0.0140
 8962SOL    HW138522   4.465   0.286   1.199  1.2204  1.3542  1.7549
 8962SOL    HW238523   4.503   0.146   1.256 -1.5322  0.9978  0.3624
 8963SOL     OW38524   0.427   2.596   6.999  0.1141 -0.0244 -0.8091
 8963SOL    HW138525   0.397   2.505   6.999  1.7106 -0.5485 -0.5293
 8963SOL    HW238526   0.495   2.591   7.065  0.7897  1.4847 -1.3898
 8964SOL     OW38527   1.700   3.883   8.426 -0.1070  0.2329  0.0250
 8964SOL    HW138528   1.733   3.958   8.375  1.3308 -1.6575 -1.8166
 8964SOL    HW238529   1.749   3.892   8.507 -2.1148  2.0177  1.0373
 8965SOL     OW38530   0.496   1.197   0.563  0.1404  0.4502 -0.3416
 8965SOL    HW138531   0.481   1.245   0.482  1.5435 -0.4092 -1.1118
 8965SOL    HW238532   0.420   1.138   0.562  0.1263  0.4895 -1.4395
 8966SOL     OW38533   3.282   2.101   0.736  0.1025  0.0811 -0.4289
 8966SOL    HW138534   3.219   2.038   0.703 -0.9615  0.5069  0.8001
 8966SOL    HW238535   3.357   2.046   0.760 -0.6237 -0.9004 -0.4224
 8967SOL     OW38536   2.852   3.386   5.470 -0.0755 -0.0112  0.3589
 8967SOL    HW138537   2.830   3.436   5.391  1.4224  0.3432  0.1574
 8967SOL    HW238538   2.860   3.456   5.536 -0.0205 -0.4288  0.7985
 8968SOL     OW38539   3.518   2.136   2.247  0.5213  0.6129 -0.1288
 8968SOL    HW138540   3.517   2.195   2.172 -0.7151 -1.2439 -1.5784
 8968SOL    HW238541   3.515   2.052   2.200 -2.5927  0.0873  1.0005
 8969SOL     OW38542   0.175   3.433  10.918 -0.1952 -0.1902  0.6093
 8969SOL    HW138543   0.271   3.426  10.916 -0.1849 -0.1964  1.0764
 8969SOL    HW238544   0.158   3.474  10.833 -1.3536  3.1114  2.4528
 8970SOL     OW38545   0.313   0.466   5.968  0.0110 -0.1535 -0.7140
 8970SOL    HW138546   0.303   0.394   5.905 -2.7359 -0.5730  0.1618
 8970SOL    HW238547   0.356   0.425   6.044  1.4265  3.0322  0.1799
 8971SOL     OW38548   2.102   3.951   8.848 -0.2591  0.2021 -0.1161
 8971SOL    HW138549   2.094   3.873   8.903  2.5045  0.1538  0.2138
 8971SOL    HW238550   2.167   4.005   8.893  0.5143 -2.5095  1.9969
 8972SOL     OW38551   0.383   4.258   2.470 -0.4450  0.6302  0.2344
 8972SOL    HW138552   0.436   4.223   2.542  0.0971  1.5627  0.2808
 8972SOL    HW238553   0.437   4.230   2.395  2.8693  0.9912  2.4713
 8973SOL     OW38554   0.606   2.306   6.805 -0.0860 -0.5764 -0.3416
 8973SOL    HW138555   0.512   2.295   6.792 -0.2918  0.4971  0.1999
 8973SOL    HW238556   0.634   2.238   6.867  1.4573 -0.8143 -1.2874
 8974SOL     OW38557   2.960   4.046   5.817  0.3152 -0.2281  0.5716
 8974SOL    HW138558   2.991   4.081   5.900 -0.9021  1.4454  0.3258
 8974SOL    HW238559   3.031   3.985   5.798 -0.2615 -1.0203  0.9363
 8975SOL     OW38560   1.443   0.210  12.980  0.5658 -0.2353  0.2481
 8975SOL    HW138561   1.361   0.222  12.933 -0.0255 -1.9470  0.8184
 8975SOL    HW238562   1.421   0.122  13.013 -1.0039 -0.0828 -0.4397
 8976SOL     OW38563   0.079   4.639   4.247  0.2164 -1.0292  0.2890
 8976SOL    HW138564   0.044   4.598   4.326 -1.0992  1.2764  0.9239
 8976SOL    HW238565   0.018   4.620   4.176 -1.6114 -0.1368  1.6043
 8977SOL     OW38566   4.515   1.696   7.270 -0.0159 -0.3236 -0.1845
 8977SOL    HW138567   4.456   1.640   7.220  0.0489 -0.3636 -0.2174
 8977SOL    HW238568   4.455   1.748   7.323  0.2933 -0.2028  0.0501
 8978SOL     OW38569   4.297   3.979   3.547  0.4646 -0.0477 -0.3515
 8978SOL    HW138570   4.241   4.031   3.488  2.4404  0.4316 -1.7914
 8978SOL    HW238571   4.386   4.010   3.533  0.6305 -0.3160  0.0967
 8979SOL     OW38572   2.224   4.573   3.621  0.1066  0.4584  0.3658
 8979SOL    HW138573   2.311   4.534   3.607  0.5188  1.2326  0.7523
 8979SOL    HW238574   2.251   4.662   3.644  0.9724 -0.0183  1.2161
 8980SOL     OW38575   2.747   1.058   5.594 -0.3627  0.2767  0.0740
 8980SOL    HW138576   2.740   0.962   5.596  0.3291  0.1227 -4.5310
 8980SOL    HW238577   2.834   1.062   5.554 -0.3766  2.7071  0.3067
 8981SOL     OW38578   4.058   2.880   5.323  0.2055  0.0119  0.0650
 8981SOL    HW138579   4.064   2.887   5.228 -0.0066  2.9436  0.2687
 8981SOL    HW238580   4.018   2.793   5.332 -1.0669  0.5474 -0.4609
 8982SOL     OW38581   3.359   2.719   5.635 -0.1617  0.3810 -0.7709
 8982SOL    HW138582   3.327   2.721   5.545 -1.2175  0.0263 -0.3994
 8982SOL    HW238583   3.275   2.709   5.679  0.5503  2.0120  0.9836
 8983SOL     OW38584   2.169   0.138  11.287 -0.2580  0.0197 -0.4282
 8983SOL    HW138585   2.257   0.172  11.270 -0.1413  0.6674  1.4644
 8983SOL    HW238586   2.127   0.147  11.201  0.3367  1.2071 -0.5928
 8984SOL     OW38587   3.053   2.711  14.804 -0.0997 -0.1990  0.1595
 8984SOL    HW138588   2.965   2.672  14.800 -0.7203  1.2493 -0.0413
 8984SOL    HW238589   3.108   2.647  14.759 -0.2129 -0.7628  0.8231
 8985SOL     OW38590   1.638   2.508  11.706 -0.1690 -0.3688 -0.4393
 8985SOL    HW138591   1.726   2.546  11.709 -0.4725  0.2680  0.2763
 8985SOL    HW238592   1.629   2.478  11.615  0.1911 -0.4942 -0.4348
 8986SOL     OW38593   1.395   2.305  17.155 -0.1607  0.3624  0.1378
 8986SOL    HW138594   1.428   2.276  17.240 -0.5669  1.0346  0.5239
 8986SOL    HW238595   1.310   2.342  17.177 -0.2932  0.4831 -0.5775
 8987SOL     OW38596   0.035   3.090   1.526  0.0064 -0.6286 -0.0860
 8987SOL    HW138597   0.012   3.161   1.466 -0.4155 -0.7896 -0.1160
 8987SOL    HW238598   0.122   3.123   1.550 -0.2936 -0.0040  0.1308
 8988SOL     OW38599   2.603   2.157   2.960 -0.0506  0.2505 -0.3461
 8988SOL    HW138600   2.631   2.157   2.868  1.3234  1.4110  0.0634
 8988SOL    HW238601   2.668   2.099   3.000 -0.4041  0.0068 -0.1272
 8989SOL     OW38602   4.026   0.024  13.781  0.1546  0.0732 -0.1824
 8989SOL    HW138603   4.039   4.723  13.867 -0.6276 -0.4424 -0.2981
 8989SOL    HW238604   3.986   0.106  13.809  0.9013 -0.1481  1.5176
 8990SOL     OW38605   1.900   0.346   9.111  0.4360  0.3141  0.1973
 8990SOL    HW138606   1.982   0.354   9.159 -0.2561  0.3909  1.3630
 8990SOL    HW238607   1.859   0.275   9.159  1.3171  0.2431  0.8372
 8991SOL     OW38608   2.447   3.415   8.323 -0.1510 -0.2218  0.2740
 8991SOL    HW138609   2.498   3.343   8.286  1.9339  0.1158  2.5719
 8991SOL    HW238610   2.448   3.397   8.417  0.1327 -1.5065  0.0223
 8992SOL     OW38611   2.397   0.552   4.712 -0.0801  0.0954 -0.0245
 8992SOL    HW138612   2.433   0.573   4.798  3.1395 -0.1778 -1.2992
 8992SOL    HW238613   2.478   0.520   4.673  0.0547  0.8690 -0.3864
 8993SOL     OW38614   1.473   1.206   5.718  0.0243  0.4188 -0.4181
 8993SOL    HW138615   1.555   1.173   5.754 -0.6925 -1.1665 -0.2082
 8993SOL    HW238616   1.496   1.297   5.731  0.4955 -0.0101  1.6961
 8994SOL     OW38617   3.022   1.380   3.595 -0.3980  0.6175 -0.5626
 8994SOL    HW138618   3.068   1.308   3.551 -0.7296  0.9694 -1.4924
 8994SOL    HW238619   2.950   1.329   3.633 -0.1783  2.0512  1.7636
 8995SOL     OW38620   4.585   0.717   5.415 -0.1622  0.0883  0.0688
 8995SOL    HW138621   4.654   0.783   5.405  2.3017 -2.9398 -2.8141
 8995SOL    HW238622   4.506   0.770   5.431 -0.5949 -0.0379 -1.5575
 8996SOL     OW38623   4.093   0.557   4.939  0.1600 -0.5049 -0.1049
 8996SOL    HW138624   4.093   0.652   4.954  3.3460 -0.5707  0.3937
 8996SOL    HW238625   4.176   0.532   4.899  0.3312  0.0090 -0.0780
 8997SOL     OW38626   3.472   0.570  16.278 -0.2553 -0.0660 -0.4064
 8997SOL    HW138627   3.398   0.519  16.311  0.4428 -0.6338  0.2680
 8997SOL    HW238628   3.474   0.544  16.186  0.2254  0.6432 -0.5946
 8998SOL     OW38629   3.879   1.454  16.720 -0.0330  0.3313 -0.2232
 8998SOL    HW138630   3.913   1.541  16.700  0.1275  0.7120  1.7699
 8998SOL    HW238631   3.786   1.460  16.698 -0.6659  0.0134  2.4035
 8999SOL     OW38632   2.133   4.320   5.671  0.3290  0.0425 -0.6557
 8999SOL    HW138633   2.207   4.360   5.625  0.2257 -0.0597 -0.9134
 8999SOL    HW238634   2.171   4.312   5.758  0.3251 -0.5705 -0.7094
 9000SOL     OW38635   2.448   2.681   3.562  0.3715 -0.0621 -0.1335
 9000SOL    HW138636   2.454   2.586   3.573 -0.7383 -0.0069  0.9682
 9000SOL    HW238637   2.394   2.714   3.634  0.0144  0.1430 -0.4966
 9001SOL     OW38638   0.862   0.502  12.805 -0.0419 -0.0484 -0.3121
 9001SOL    HW138639   0.954   0.529  12.798  0.1045 -0.4511  0.0290
 9001SOL    HW238640   0.861   0.489  12.899 -1.9329 -1.2047 -0.4940
 9002SOL     OW38641   2.777   0.385   1.068 -0.3308 -0.4495  0.3262
 9002SOL    HW138642   2.776   0.298   1.108  0.0945 -0.0565  1.1747
 9002SOL    HW238643   2.769   0.443   1.144 -1.6065 -1.4428  0.9437
 9003SOL     OW38644   2.210   3.611  11.477 -0.4254  0.2169 -0.3371
 9003SOL    HW138645   2.255   3.687  11.442 -1.1066  0.9980  0.4813
 9003SOL    HW238646   2.283   3.549  11.483 -0.4668  0.3255  1.1573
 9004SOL     OW38647   1.542   3.198   5.522  0.3384 -0.3757 -0.1323
 9004SOL    HW138648   1.628   3.229   5.492 -0.4408  2.0782  0.2025
 9004SOL    HW238649   1.537   3.255   5.599  0.6081  1.5283 -1.5168
 9005SOL     OW38650   4.168   2.249   5.671 -1.2255  0.2829  0.7102
 9005SOL    HW138651   4.168   2.191   5.747 -0.7462 -0.8387 -0.1512
 9005SOL    HW238652   4.076   2.273   5.678 -1.2919  0.6637 -1.4091
 9006SOL     OW38653   1.127   1.921   0.331  0.0713  0.6897  0.2574
 9006SOL    HW138654   1.093   1.878   0.410  0.5152 -0.6002 -0.2510
 9006SOL    HW238655   1.209   1.876   0.311 -0.4527 -1.0241  1.9043
 9007SOL     OW38656   2.217   3.616   2.870 -0.2865  0.5583  0.6911
 9007SOL    HW138657   2.268   3.570   2.803  2.1193  1.8810  1.6059
 9007SOL    HW238658   2.160   3.664   2.810  1.4063  0.7603 -0.7851
 9008SOL     OW38659   2.514   0.591   5.627  0.0801 -0.2793 -0.2212
 9008SOL    HW138660   2.430   0.545   5.622 -0.4102  0.5497  0.3134
 9008SOL    HW238661   2.509   0.638   5.711  3.8598 -1.9684  0.9569
 9009SOL     OW38662   0.916   3.610  12.366 -0.0201  0.1475  0.2774
 9009SOL    HW138663   0.842   3.566  12.409  0.6270  1.2415  2.5079
 9009SOL    HW238664   0.883   3.699  12.372  2.4747  1.1465 -0.7287
 9010SOL     OW38665   0.134   1.719   2.684  0.6151 -0.1547 -0.2305
 9010SOL    HW138666   0.192   1.645   2.699  0.1765 -0.1928  1.2482
 9010SOL    HW238667   0.063   1.671   2.641  0.4419  0.7408 -0.9359
 9011SOL     OW38668   0.485   3.191   3.469 -0.4026 -0.4321  0.1778
 9011SOL    HW138669   0.470   3.125   3.402 -1.4191  0.6961 -0.7134
 9011SOL    HW238670   0.425   3.261   3.442 -0.8648 -0.6458  0.6518
 9012SOL     OW38671   2.485   0.423  17.421 -0.3810 -0.0628 -0.2349
 9012SOL    HW138672   2.513   0.501  17.373 -1.3990 -1.0071 -2.3612
 9012SOL    HW238673   2.487   0.361  17.348  1.8904  1.8758 -1.8006
 9013SOL     OW38674   3.513   2.122   2.536 -0.3401  0.4337 -0.3187
 9013SOL    HW138675   3.517   2.108   2.442 -0.8198 -0.0383 -0.2722
 9013SOL    HW238676   3.572   2.051   2.563 -1.6731 -0.4249  0.3977
 9014SOL     OW38677   2.489   1.376   9.353  0.0578 -0.9455 -0.3535
 9014SOL    HW138678   2.485   1.286   9.322 -0.2341 -0.4703 -1.6943
 9014SOL    HW238679   2.397   1.394   9.375  0.0732 -1.4149  0.1104
 9015SOL     OW38680   0.183   0.501   2.590  0.4903 -0.2089 -0.2134
 9015SOL    HW138681   0.247   0.561   2.550  0.6684 -0.5866 -0.4899
 9015SOL    HW238682   0.104   0.556   2.586  1.1095  0.8066  1.4247
 9016SOL     OW38683   4.497   0.674   1.647  0.6291 -0.4060  0.3527
 9016SOL    HW138684   4.513   0.631   1.563  0.8582 -0.5730  0.4828
 9016SOL    HW238685   4.478   0.761   1.612 -0.7386 -0.3645  1.1880
 9017SOL     OW38686   1.216   1.818   5.742 -0.1803 -0.4179  0.0436
 9017SOL    HW138687   1.300   1.859   5.719  0.0801 -0.0953  1.5501
 9017SOL    HW238688   1.166   1.826   5.661 -0.6793  0.7803  0.4616
 9018SOL     OW38689   0.740   2.829   3.069 -0.0437 -1.0135 -0.3684
 9018SOL    HW138690   0.660   2.854   3.116 -0.3271 -0.1307 -1.3102
 9018SOL    HW238691   0.744   2.736   3.091 -2.4268 -1.1440 -0.4529
 9019SOL     OW38692   1.642   1.190   7.656  0.2345  0.3317 -0.4716
 9019SOL    HW138693   1.604   1.140   7.584  0.4435 -0.2274 -0.1968
 9019SOL    HW238694   1.702   1.120   7.683 -2.0635 -1.0739  0.9822
 9020SOL     OW38695   1.106   2.660  16.960 -0.2183  0.0221 -0.0236
 9020SOL    HW138696   1.102   2.604  17.037 -1.0799 -1.2519 -0.9949
 9020SOL    HW238697   1.198   2.655  16.935 -1.1854 -0.1463 -3.5615
 9021SOL     OW38698   0.024   0.345  14.482  0.5234 -0.0281 -0.0576
 9021SOL    HW138699   4.702   0.394  14.427 -1.3070 -3.5288 -1.1776
 9021SOL    HW238700   0.088   0.314  14.417  1.2028  0.3199  0.4399
 9022SOL     OW38701   4.274   4.606  10.306 -0.0879  0.8341 -0.0678
 9022SOL    HW138702   4.238   4.694  10.315  2.8962  2.0561  0.0666
 9022SOL    HW238703   4.309   4.588  10.394  0.6850  0.5417 -0.4317
 9023SOL     OW38704   2.986   2.576   9.835  0.6009  0.3873 -0.7573
 9023SOL    HW138705   3.005   2.538   9.749 -2.3203 -2.3842 -0.1836
 9023SOL    HW238706   2.965   2.497   9.886  2.8171 -0.4665 -1.1631
 9024SOL     OW38707   0.782   2.736   1.110 -0.0452 -0.1072  0.2097
 9024SOL    HW138708   0.846   2.799   1.077 -1.3648  1.2079  0.1756
 9024SOL    HW238709   0.797   2.660   1.054  1.7665  1.8016 -1.8714
 9025SOL     OW38710   0.162   4.431   3.654  0.0702  0.3974  0.0332
 9025SOL    HW138711   0.158   4.393   3.742  0.9058  2.3058  0.8957
 9025SOL    HW238712   0.253   4.458   3.664 -0.4768  1.3054  2.4682
 9026SOL     OW38713   4.417   1.458   3.225  0.1835 -0.3498 -0.1772
 9026SOL    HW138714   4.342   1.505   3.260  1.0171  0.0852  1.0010
 9026SOL    HW238715   4.437   1.392   3.291 -2.0225 -1.1781 -0.3257
 9027SOL     OW38716   4.141   2.675   2.716 -0.3532  0.3658 -0.1981
 9027SOL    HW138717   4.181   2.751   2.760  0.2014 -0.5782  0.9289
 9027SOL    HW238718   4.063   2.663   2.771  1.0409 -1.7328  1.3332
 9028SOL     OW38719   3.906   3.776   3.948  0.0447  0.0672  0.0660
 9028SOL    HW138720   3.938   3.818   4.027 -2.5550 -0.9575  1.6572
 9028SOL    HW238721   3.982   3.724   3.922 -0.4334  0.2304 -1.6996
 9029SOL     OW38722   1.381   4.621  12.579  0.2250  0.0872  0.7628
 9029SOL    HW138723   1.381   4.574  12.662  1.5760 -0.4647  0.4693
 9029SOL    HW238724   1.455   4.583  12.530 -0.4545 -1.1995  0.7253
 9030SOL     OW38725   0.235   1.269  10.160  0.2164 -0.1093 -0.2119
 9030SOL    HW138726   0.144   1.240  10.158  0.0110  0.6110 -1.0356
 9030SOL    HW238727   0.240   1.298  10.251  1.6098  0.0933 -0.3497
 9031SOL     OW38728   3.931   4.501  16.397  0.6760 -1.0255  0.2287
 9031SOL    HW138729   3.990   4.427  16.412 -0.9173 -2.2316  0.5781
 9031SOL    HW238730   3.878   4.492  16.476 -0.2308 -0.3264 -0.3056
 9032SOL     OW38731   2.854   1.222   8.427  0.2242 -0.1622  0.4737
 9032SOL    HW138732   2.920   1.183   8.370  0.0953  1.4847 -0.8121
 9032SOL    HW238733   2.788   1.154   8.444  0.1374 -0.8084 -2.3770
 9033SOL     OW38734   2.150   1.972   2.006  0.3238 -0.7612 -0.2765
 9033SOL    HW138735   2.177   1.885   1.976  0.9404 -0.6892  0.0756
 9033SOL    HW238736   2.226   2.028   1.992 -0.2351  0.6032  2.3782
 9034SOL     OW38737   2.503   1.832   3.530  0.7341  0.5676 -0.5797
 9034SOL    HW138738   2.531   1.837   3.438  0.3222 -3.7845 -0.9356
 9034SOL    HW238739   2.584   1.854   3.574 -0.4443  1.7037  1.0189
 9035SOL     OW38740   1.922   2.148   2.209  0.7529  0.5452  0.0082
 9035SOL    HW138741   1.880   2.064   2.188 -1.2257  1.4226  0.5406
 9035SOL    HW238742   1.859   2.177   2.274  1.7548  0.1314  1.1668
 9036SOL     OW38743   4.175   0.281   2.493 -0.2548  0.4736 -0.4456
 9036SOL    HW138744   4.152   0.320   2.577  0.8281  2.5008 -1.0976
 9036SOL    HW238745   4.107   0.323   2.441 -2.1010 -0.6903  1.0517
 9037SOL     OW38746   0.965   1.443  14.431  0.7949  0.3987 -0.1814
 9037SOL    HW138747   0.895   1.482  14.485 -0.9016 -0.9245 -1.4343
 9037SOL    HW238748   0.919   1.396  14.362  1.4196 -0.6110  0.0982
 9038SOL     OW38749   3.681   1.668   8.794  0.5053 -0.9017  0.1616
 9038SOL    HW138750   3.588   1.688   8.809  0.6854  0.3145 -0.3209
 9038SOL    HW238751   3.692   1.585   8.839 -1.6930 -0.3013  1.8292
 9039SOL     OW38752   1.732   4.404   5.055  0.0371 -0.6964 -0.0373
 9039SOL    HW138753   1.771   4.489   5.036  0.2442 -0.0377  3.3134
 9039SOL    HW238754   1.647   4.428   5.092  0.2955 -1.9113  1.3435
 9040SOL     OW38755   4.734   2.827   8.705  0.1728  0.1509 -0.1054
 9040SOL    HW138756   0.091   2.830   8.715  0.0174  0.1867  1.3605
 9040SOL    HW238757   4.716   2.759   8.771  0.2268  0.2438  0.0057
 9041SOL     OW38758   3.994   0.062   3.774  0.0332  0.1063 -0.2222
 9041SOL    HW138759   4.083   0.059   3.809  0.0216  1.1694 -0.1162
 9041SOL    HW238760   3.965   4.713   3.803 -3.3329  0.9000 -1.1657
 9042SOL     OW38761   4.019   0.308   9.011 -0.3812 -0.1291 -0.3209
 9042SOL    HW138762   4.089   0.337   8.953  0.1430 -0.7052  0.0271
 9042SOL    HW238763   3.938   0.299   8.961  0.6984 -1.2275 -1.8645
 9043SOL     OW38764   0.573   4.380   7.407 -0.2859  0.2581  0.1563
 9043SOL    HW138765   0.617   4.403   7.489 -0.0717 -0.0243  0.1201
 9043SOL    HW238766   0.523   4.303   7.436  0.6664  0.9220  3.6276
 9044SOL     OW38767   2.494   1.510   8.248 -0.2122  0.2725 -0.1964
 9044SOL    HW138768   2.528   1.435   8.199 -0.8306 -0.3537  0.3263
 9044SOL    HW238769   2.408   1.513   8.206 -1.0341 -1.3266  1.3898
 9045SOL     OW38770   4.730   0.959   5.455  0.5942 -0.1073  0.6521
 9045SOL    HW138771   4.736   0.977   5.549 -2.7290 -2.3120  1.2989
 9045SOL    HW238772   4.716   1.046   5.417 -4.6369 -0.2637  2.1457
 9046SOL     OW38773   1.323   3.760  11.422  0.2337 -0.3035  0.1461
 9046SOL    HW138774   1.354   3.830  11.479 -0.7138 -0.6219  1.0491
 9046SOL    HW238775   1.336   3.693  11.489 -0.4258 -0.1767  0.4000
 9047SOL     OW38776   1.955   0.779   9.419  0.6337 -0.2450  0.1014
 9047SOL    HW138777   1.919   0.743   9.338  0.4065  0.1285  0.0397
 9047SOL    HW238778   2.043   0.740   9.417  0.6676 -0.2430  1.4966
 9048SOL     OW38779   0.546   0.827   3.389 -0.8413 -0.3663  0.4341
 9048SOL    HW138780   0.550   0.909   3.339  0.9771 -1.7225 -1.6549
 9048SOL    HW238781   0.602   0.765   3.343 -0.8361  1.4085 -1.9143
 9049SOL     OW38782   1.294   0.769   2.542  0.7033 -0.5482  0.2164
 9049SOL    HW138783   1.379   0.729   2.524  1.3729  0.3483  1.3613
 9049SOL    HW238784   1.247   0.695   2.581 -0.7695  0.1772 -0.1750
 9050SOL     OW38785   4.594   2.212   6.468 -0.3658  0.3016 -0.6915
 9050SOL    HW138786   4.503   2.208   6.498  0.2218 -2.9028  0.6422
 9050SOL    HW238787   4.598   2.156   6.390  3.2312 -1.5455  0.8154
 9051SOL     OW38788   2.885   1.486  17.503  0.4399  0.2937 -0.1820
 9051SOL    HW138789   2.950   1.438  17.555 -0.5234  1.0759  1.7597
 9051SOL    HW238790   2.911   1.571  17.538  0.6204  0.6212 -1.1047
 9052SOL     OW38791   0.065   0.960   1.649  0.5934  0.1613 -0.4043
 9052SOL    HW138792   0.069   0.909   1.568 -0.0418  0.4481 -0.6153
 9052SOL    HW238793   0.018   1.037   1.617  0.8157 -0.4042 -2.0959
 9053SOL     OW38794   2.131   2.574   6.801 -0.4907  0.4628 -0.4319
 9053SOL    HW138795   2.080   2.554   6.880 -0.4601  2.8207  0.1866
 9053SOL    HW238796   2.071   2.611   6.736 -2.2861 -1.6063  0.0524
 9054SOL     OW38797   1.461   3.690   3.607 -0.1648  0.1061  0.3392
 9054SOL    HW138798   1.527   3.621   3.603  0.1985  0.5641 -1.3557
 9054SOL    HW238799   1.381   3.636   3.603 -1.3209  1.7579  1.1838
 9055SOL     OW38800   2.855   2.122   7.357  0.2359  0.3206 -0.4349
 9055SOL    HW138801   2.947   2.112   7.335  0.7826  2.1774  0.9489
 9055SOL    HW238802   2.858   2.191   7.424 -3.5433  1.5354 -1.4825
 9056SOL     OW38803   2.103   2.182   6.585 -0.0913  0.3285 -0.0923
 9056SOL    HW138804   2.014   2.216   6.583 -0.0575  0.3698 -1.3037
 9056SOL    HW238805   2.150   2.262   6.609  0.0884  0.1209  0.2433
 9057SOL     OW38806   0.771   1.062  15.852 -0.2832 -0.0837 -0.1911
 9057SOL    HW138807   0.783   0.968  15.842  0.4100 -0.1032  0.8052
 9057SOL    HW238808   0.677   1.067  15.872  0.3085 -0.6468  2.7186
 9058SOL     OW38809   4.061   0.157   4.451  0.6382  0.1997 -0.6325
 9058SOL    HW138810   4.150   0.164   4.487 -0.2889 -0.0412  1.7385
 9058SOL    HW238811   4.069   0.095   4.379  1.5304  0.5743 -0.8530
 9059SOL     OW38812   0.960   3.425   6.156  0.0180 -0.0704  0.1904
 9059SOL    HW138813   1.038   3.481   6.158  0.2508 -0.4098  0.5463
 9059SOL    HW238814   0.943   3.398   6.065 -0.4429 -0.6988  0.4601
 9060SOL     OW38815   0.018   0.508   3.122  0.3585  0.0822  0.1841
 9060SOL    HW138816   4.737   0.600   3.142  0.7558 -0.3499  2.5786
 9060SOL    HW238817   0.041   0.525   3.031 -0.1797  0.7533  0.1651
 9061SOL     OW38818   3.646   3.225   6.639 -0.1137  0.1704  0.0434
 9061SOL    HW138819   3.554   3.197   6.642  0.5755 -1.7896  3.2353
 9061SOL    HW238820   3.692   3.164   6.697  0.1488  1.6198  1.3592
 9062SOL     OW38821   0.314   3.906   7.531  0.3829 -0.3241 -0.2103
 9062SOL    HW138822   0.358   3.850   7.595 -0.6964  1.0791  1.7724
 9062SOL    HW238823   0.263   3.837   7.488  0.5666 -1.3221  1.1651
 9063SOL     OW38824   0.574   2.090   7.417  0.4216  0.3152 -0.7431
 9063SOL    HW138825   0.488   2.069   7.455 -1.4442  2.2312 -3.8365
 9063SOL    HW238826   0.602   2.154   7.482  1.2348 -0.9405  0.1165
 9064SOL     OW38827   2.852   1.700   6.553  0.8173  0.2019  0.3109
 9064SOL    HW138828   2.838   1.690   6.647  0.8225 -3.9725 -0.1398
 9064SOL    HW238829   2.887   1.613   6.535  0.5393  0.3170 -0.8089
 9065SOL     OW38830   4.293   1.755   3.218 -0.1164  0.3593 -0.4350
 9065SOL    HW138831   4.210   1.743   3.173 -1.1107 -1.9515  2.0202
 9065SOL    HW238832   4.274   1.732   3.309  1.0987 -1.8524 -0.7554
 9066SOL     OW38833   3.354   4.705   6.845 -0.3393  0.8745  0.1055
 9066SOL    HW138834   3.390   0.050   6.876  0.2161  0.3374  0.8833
 9066SOL    HW238835   3.269   4.734   6.811 -0.7646 -2.2471 -1.5177
 9067SOL     OW38836   4.469   2.170   7.198  1.0540 -0.1385 -0.4625
 9067SOL    HW138837   4.402   2.127   7.145 -1.1479  2.0617  0.5424
 9067SOL    HW238838   4.407   2.221   7.250  1.1048 -0.3321 -0.2166
 9068SOL     OW38839   3.227   0.644   6.476  0.2604  0.4621 -0.2458
 9068SOL    HW138840   3.182   0.664   6.394 -1.9809  1.6723  1.3019
 9068SOL    HW238841   3.218   0.728   6.522 -0.7460  0.7671 -1.0114
 9069SOL     OW38842   3.106   1.262   3.371 -0.1226  0.6751  0.7091
 9069SOL    HW138843   3.107   1.323   3.297 -1.2363  0.0162  0.1452
 9069SOL    HW238844   3.131   1.179   3.330  2.3510  0.1849  3.1895
 9070SOL     OW38845   1.059   3.161   6.581 -0.2404  0.3317  0.0382
 9070SOL    HW138846   0.993   3.191   6.518  1.7019 -1.5221 -2.8373
 9070SOL    HW238847   1.034   3.071   6.600  1.5756  0.1547  1.6562
 9071SOL     OW38848   2.926   0.622   5.552 -0.2353 -0.3189 -0.0076
 9071SOL    HW138849   3.012   0.624   5.595  0.0864 -1.2246 -0.6203
 9071SOL    HW238850   2.905   0.529   5.555  0.2344 -0.3840  1.4626
 9072SOL     OW38851   4.241   2.890   2.877 -0.3735  0.2927 -0.1916
 9072SOL    HW138852   4.230   2.975   2.835  2.0603 -0.0403 -1.5379
 9072SOL    HW238853   4.335   2.871   2.888 -0.3211  0.0255 -1.0583
 9073SOL     OW38854   3.059   0.403   6.430 -0.1485 -0.1973 -0.1321
 9073SOL    HW138855   3.010   0.425   6.350 -1.2078  0.8973  0.8135
 9073SOL    HW238856   3.123   0.474   6.428 -0.9898  0.5509 -0.6025
 9074SOL     OW38857   2.707   2.678   3.027 -0.2810 -0.5193  0.6202
 9074SOL    HW138858   2.635   2.617   3.045  0.5746 -1.4090  1.0084
 9074SOL    HW238859   2.671   2.755   3.071 -1.7219  0.7631 -2.7309
 9075SOL     OW38860   1.800   4.511   7.766  0.4912  0.2497 -0.6341
 9075SOL    HW138861   1.854   4.588   7.776  1.6657 -0.5462 -0.8721
 9075SOL    HW238862   1.799   4.509   7.671  0.7993  0.0434 -0.6317
 9076SOL     OW38863   0.920   0.503   5.134  0.2812  0.0326 -0.3528
 9076SOL    HW138864   0.852   0.441   5.108  0.3988  0.3269 -1.3412
 9076SOL    HW238865   0.861   0.578   5.136  0.0517 -0.1514 -0.1980
 9077SOL     OW38866   1.718   1.389   9.922 -0.1366  0.2699  0.1959
 9077SOL    HW138867   1.707   1.476   9.958 -1.7478 -0.4986  1.5619
 9077SOL    HW238868   1.624   1.374   9.912 -0.1919  2.5457 -2.6121
 9078SOL     OW38869   2.743   1.226   0.097 -0.1049  0.4002  0.3105
 9078SOL    HW138870   2.737   1.316   0.064  1.1979 -0.1019 -1.3041
 9078SOL    HW238871   2.665   1.197   0.051 -1.2498 -0.9918  3.1745
 9079SOL     OW38872   3.459   0.722   5.523 -0.0893 -0.0893 -0.1251
 9079SOL    HW138873   3.488   0.806   5.487  1.2823 -0.6621 -0.3848
 9079SOL    HW238874   3.534   0.696   5.576 -0.3246  0.0261  0.2641
 9080SOL     OW38875   0.635   0.995   3.995 -0.0667 -0.3528  0.0832
 9080SOL    HW138876   0.643   0.982   3.900 -2.0217  1.5786 -0.3390
 9080SOL    HW238877   0.682   0.922   4.036 -0.1147  0.0842  0.9188
 9081SOL     OW38878   4.252   2.682   0.373 -0.2465  0.2528  0.0160
 9081SOL    HW138879   4.190   2.701   0.302  1.3378  0.2854 -1.3450
 9081SOL    HW238880   4.267   2.767   0.414 -2.6266  0.1208  1.1560
 9082SOL     OW38881   3.130   3.062   6.083  0.9006 -0.7921  0.0578
 9082SOL    HW138882   3.198   3.126   6.107  0.6091 -0.8425  1.0518
 9082SOL    HW238883   3.059   3.069   6.147  3.5769  1.1735  2.8231
 9083SOL     OW38884   3.380   3.749   3.460 -0.2885  0.4487  0.5761
 9083SOL    HW138885   3.459   3.710   3.496 -0.2585  0.4737  0.5366
 9083SOL    HW238886   3.372   3.715   3.371  2.9765 -0.8144  0.7906
 9084SOL     OW38887   1.165   1.915  12.055  0.1519  0.4264 -0.0972
 9084SOL    HW138888   1.118   1.995  12.033 -1.6469 -0.5908  0.0834
 9084SOL    HW238889   1.103   1.845  12.034  1.2422 -0.4292 -0.5171
 9085SOL     OW38890   3.191   2.515   8.963  0.7666  0.0983  0.3942
 9085SOL    HW138891   3.232   2.557   9.039  1.3653  0.9523 -0.4000
 9085SOL    HW238892   3.262   2.503   8.900 -0.2208  2.4279 -1.1732
 9086SOL     OW38893   0.979   1.585   6.106  0.3371 -0.0630 -0.1808
 9086SOL    HW138894   0.930   1.531   6.169 -1.5927  1.6026 -0.2765
 9086SOL    HW238895   1.057   1.532   6.087 -0.7087 -1.3708 -0.7604
 9087SOL     OW38896   3.668   1.460  11.783  0.3992  0.0382 -0.0099
 9087SOL    HW138897   3.663   1.445  11.878 -2.9598  1.9999  0.1081
 9087SOL    HW238898   3.611   1.535  11.777  0.3298 -0.1094 -1.2239
 9088SOL     OW38899   0.405   1.457   6.031 -0.3144  0.2636 -0.0722
 9088SOL    HW138900   0.416   1.551   6.047 -1.0307  0.3801 -0.2888
 9088SOL    HW238901   0.486   1.405   6.033 -1.5343 -1.6127  0.1808
 9089SOL     OW38902   3.005   4.449   3.074 -0.2789  0.0850 -0.2821
 9089SOL    HW138903   2.927   4.448   3.130  0.1653 -0.4037  0.3251
 9089SOL    HW238904   3.058   4.494   3.140 -0.0958  1.8825 -1.6512
 9090SOL     OW38905   3.703   0.293   6.396  0.0071 -0.3507 -0.4888
 9090SOL    HW138906   3.718   0.202   6.370 -0.5202 -0.3778 -0.7047
 9090SOL    HW238907   3.649   0.326   6.324 -0.6257 -1.0364 -0.3289
 9091SOL     OW38908   1.509   0.212  17.652 -0.0419 -0.3512 -0.0858
 9091SOL    HW138909   1.584   0.218  17.593 -1.9560  0.3355 -2.4718
 9091SOL    HW238910   1.510   0.120  17.681 -3.1141 -0.0185  1.0813
 9092SOL     OW38911   4.084   3.481   0.799 -0.2686 -0.1335 -0.2030
 9092SOL    HW138912   4.164   3.436   0.827  1.7314  2.2877 -2.0761
 9092SOL    HW238913   4.020   3.448   0.863 -0.1473 -0.4309 -0.2383
 9093SOL     OW38914   1.463   1.202   4.920  0.1290  0.5242  1.2490
 9093SOL    HW138915   1.388   1.253   4.951 -0.3047  0.9108 -0.4906
 9093SOL    HW238916   1.420   1.117   4.914  0.7654  0.2038  1.2276
 9094SOL     OW38917   2.283   1.343   7.126 -0.0703 -0.2316 -0.0269
 9094SOL    HW138918   2.352   1.318   7.187  0.2787  1.3689  0.2345
 9094SOL    HW238919   2.333   1.346   7.044 -1.2997  1.8677 -0.6808
 9095SOL     OW38920   0.152   0.032   5.707 -0.2216  0.0713 -0.8982
 9095SOL    HW138921   0.062   0.039   5.737  0.1188  0.8647 -0.0311
 9095SOL    HW238922   0.191   0.074   5.785 -0.2645  1.4293 -1.6101
 9096SOL     OW38923   2.370   1.497   6.886 -0.5618 -0.3589 -0.0046
 9096SOL    HW138924   2.431   1.435   6.845  0.0416  2.5656 -3.6247
 9096SOL    HW238925   2.420   1.579   6.881 -0.5839 -0.1959  2.5624
 9097SOL     OW38926   3.167   1.937   8.228  0.2748  0.3339  0.2064
 9097SOL    HW138927   3.255   1.907   8.206 -0.7567 -0.4967 -2.8400
 9097SOL    HW238928   3.148   1.882   8.304 -1.1511 -2.3532 -2.1207
 9098SOL     OW38929   1.895   0.317   1.967  0.5055  0.3920 -0.2734
 9098SOL    HW138930   1.865   0.367   1.891  1.5372 -1.1071 -1.6665
 9098SOL    HW238931   1.825   0.345   2.025  0.5346 -1.0238  0.4295
 9099SOL     OW38932   0.572   2.084  13.776  0.1149 -0.4220  0.5882
 9099SOL    HW138933   0.506   2.048  13.836 -0.9516 -0.1950 -0.4606
 9099SOL    HW238934   0.651   2.035  13.799  1.2453  2.0240  1.9772
 9100SOL     OW38935   2.010   2.810  16.712  0.1314  0.1612 -0.5233
 9100SOL    HW138936   1.952   2.741  16.680 -1.4248  0.4141  1.7478
 9100SOL    HW238937   1.954   2.851  16.778  0.0608 -0.3543 -0.2640
 9101SOL     OW38938   1.610   2.722   1.451  0.3319  0.1566  0.5106
 9101SOL    HW138939   1.653   2.636   1.443  1.7175  0.8062  0.9974
 9101SOL    HW238940   1.666   2.756   1.520  0.6008 -0.4802  0.6074
 9102SOL     OW38941   3.704   2.533   7.258 -0.3566  0.5988 -0.4348
 9102SOL    HW138942   3.798   2.550   7.265  0.0875 -2.2662  0.5820
 9102SOL    HW238943   3.675   2.598   7.193  2.5125  1.0036 -1.2795
 9103SOL     OW38944   3.844   3.761   5.305  0.1797  0.0295 -0.5334
 9103SOL    HW138945   3.763   3.777   5.257  0.3155 -1.3926 -1.2374
 9103SOL    HW238946   3.813   3.748   5.394  1.2698  1.0016 -0.0084
 9104SOL     OW38947   1.053   4.423   9.619 -0.6130  0.1203  0.5811
 9104SOL    HW138948   1.089   4.494   9.671  0.8842 -0.2056  0.0012
 9104SOL    HW238949   1.025   4.361   9.686 -0.3470 -0.9211 -0.2691
 9105SOL     OW38950   1.231   0.195   3.777  0.7032  0.5775  0.1043
 9105SOL    HW138951   1.262   0.147   3.854 -2.0076 -1.9623 -0.3699
 9105SOL    HW238952   1.154   0.144   3.750  0.0454  2.3561 -1.4192
 9106SOL     OW38953   1.361   4.659   8.228 -0.4748  0.1682  0.6080
 9106SOL    HW138954   1.455   4.673   8.240  0.1282 -1.1006 -2.5508
 9106SOL    HW238955   1.361   4.626   8.138  0.5691 -1.0253  1.0532
 9107SOL     OW38956   4.146   3.038   8.190 -0.3297  0.0437  0.0992
 9107SOL    HW138957   4.117   3.031   8.099  0.2900 -0.2927 -0.0714
 9107SOL    HW238958   4.067   3.024   8.241  1.8936 -1.2470  3.1826
 9108SOL     OW38959   0.575   2.013   4.992  0.7079  0.8467  0.3420
 9108SOL    HW138960   0.491   1.991   5.034  1.0776  0.7600  1.0335
 9108SOL    HW238961   0.576   2.108   4.996  3.3360  0.8532 -0.6441
 9109SOL     OW38962   2.569   1.653   2.576 -0.2547  0.8519  0.1471
 9109SOL    HW138963   2.562   1.652   2.671 -0.5641 -1.4968  0.0987
 9109SOL    HW238964   2.648   1.607   2.550 -0.6055 -0.7387  1.9091
 9110SOL     OW38965   4.501   2.289   8.758 -0.3300 -0.0173 -0.1288
 9110SOL    HW138966   4.526   2.347   8.830  0.9898  0.8427 -1.2595
 9110SOL    HW238967   4.539   2.340   8.685 -1.0995 -0.2008 -0.6507
 9111SOL     OW38968   2.568   4.525  17.001  0.0353 -0.5804  0.5478
 9111SOL    HW138969   2.580   4.483  16.915  0.8103 -1.3878  1.0470
 9111SOL    HW238970   2.651   4.512  17.046  1.5570  2.9074 -1.3279
 9112SOL     OW38971   2.104   3.886   3.275 -0.7148 -0.8412  0.7155
 9112SOL    HW138972   2.116   3.804   3.227 -1.5493  1.0683 -2.7827
 9112SOL    HW238973   2.133   3.872   3.365 -1.0048 -0.8899  0.8022
 9113SOL     OW38974   3.637   0.193   5.554 -0.5341  0.0151  0.1559
 9113SOL    HW138975   3.576   0.195   5.627  1.2932 -1.8504  1.7596
 9113SOL    HW238976   3.718   0.230   5.591 -1.4002  3.1123 -1.0753
 9114SOL     OW38977   3.339   3.462   3.620  0.0402  0.4426 -0.4266
 9114SOL    HW138978   3.308   3.457   3.529 -0.9780  0.4566 -0.0797
 9114SOL    HW238979   3.414   3.521   3.609 -2.0837  3.1271 -0.4157
 9115SOL     OW38980   3.148   4.293   8.952  0.2604 -0.3605  0.4554
 9115SOL    HW138981   3.106   4.216   8.915 -0.2382 -0.4465  1.2256
 9115SOL    HW238982   3.234   4.291   8.909  1.2296 -0.7446  2.4186
 9116SOL     OW38983   2.368   0.012   7.920 -0.5446 -0.5151 -0.4676
 9116SOL    HW138984   2.364   0.085   7.858 -2.3199  0.2634  0.5480
 9116SOL    HW238985   2.441   0.040   7.976  0.3163 -0.2475 -1.7360
 9117SOL     OW38986   3.333   4.351   3.374 -0.1851 -0.0745  0.5040
 9117SOL    HW138987   3.335   4.385   3.284  0.0431 -0.3682  0.3999
 9117SOL    HW238988   3.373   4.423   3.422 -2.2769  1.4096  0.0407
 9118SOL     OW38989   1.143   0.982  14.119  0.3070 -0.0000  0.4138
 9118SOL    HW138990   1.056   1.017  14.135  0.2447  0.0734 -0.0766
 9118SOL    HW238991   1.118   0.924  14.047  0.3162  1.6805 -0.9794
 9119SOL     OW38992   4.332   3.423   1.443 -0.3864  0.3170  0.2334
 9119SOL    HW138993   4.421   3.440   1.474 -0.4266  2.7856 -0.9081
 9119SOL    HW238994   4.317   3.509   1.402  0.0511  0.5579  0.5883
 9120SOL     OW38995   2.558   0.946   1.337 -0.2842 -0.5200 -0.3043
 9120SOL    HW138996   2.611   0.868   1.349  1.0933  0.4905  0.0705
 9120SOL    HW238997   2.500   0.945   1.414 -1.3528  0.3519 -1.0851
 9121SOL     OW38998   0.077   3.938   8.732 -0.2699 -0.1799  0.0395
 9121SOL    HW138999   0.122   4.001   8.787 -1.4897 -0.5326  1.4435
 9121SOL    HW239000   0.035   3.884   8.799 -2.7113  0.3790 -1.0246
 9122SOL     OW39001   2.442   3.330   8.600 -0.4145  0.4329  0.4614
 9122SOL    HW139002   2.508   3.268   8.628 -1.6698 -1.1637 -0.1299
 9122SOL    HW239003   2.436   3.378   8.683 -3.2738 -0.3080  0.6768
 9123SOL     OW39004   1.751   0.786  16.305  0.5286  0.1711 -0.2843
 9123SOL    HW139005   1.760   0.870  16.351 -0.7862 -1.5054  3.0217
 9123SOL    HW239006   1.763   0.720  16.372  2.0972  2.2118  1.4464
 9124SOL     OW39007   1.058   2.540   0.766 -0.8519  0.2315 -0.0530
 9124SOL    HW139008   1.136   2.489   0.789 -2.6771 -2.4771  0.0111
 9124SOL    HW239009   1.005   2.478   0.715  1.8641 -0.3762 -2.1566
 9125SOL     OW39010   0.607   0.351  12.882 -0.0295  0.1166 -0.1580
 9125SOL    HW139011   0.643   0.288  12.945  0.1668  0.5473  0.1631
 9125SOL    HW239012   0.684   0.403  12.858  0.5477 -0.1763  1.0558
 9126SOL     OW39013   1.597   2.808  10.789  0.8577  0.6983  0.0347
 9126SOL    HW139014   1.593   2.716  10.813 -2.1871  0.7431 -0.2076
 9126SOL    HW239015   1.560   2.860  10.860 -1.6480 -1.4118  0.2787
 9127SOL     OW39016   1.887   3.225  10.552 -0.0820  0.0807 -0.1504
 9127SOL    HW139017   1.926   3.151  10.598  0.1483  0.0054 -0.4667
 9127SOL    HW239018   1.793   3.212  10.547 -0.1019  0.6127 -1.2428
 9128SOL     OW39019   2.447   4.318  15.505 -0.3226  0.0309 -0.6908
 9128SOL    HW139020   2.482   4.404  15.482 -0.6064  0.1460 -0.6862
 9128SOL    HW239021   2.394   4.341  15.581 -0.3698 -1.7848 -0.1839
 9129SOL     OW39022   3.794   3.150   2.030 -0.2342  0.0084  0.1695
 9129SOL    HW139023   3.842   3.229   2.006 -0.8755  0.1249 -0.7240
 9129SOL    HW239024   3.721   3.188   2.079 -0.3758 -1.9085  1.4578
 9130SOL     OW39025   0.045   0.922   1.913 -0.7498  0.0419  0.0180
 9130SOL    HW139026   0.066   0.829   1.923 -0.5569  0.2266  1.2398
 9130SOL    HW239027   0.038   0.928   1.817  0.1887  3.0612  0.1404
 9131SOL     OW39028   4.650   0.782   7.251  0.1377  0.3739  0.0529
 9131SOL    HW139029   4.655   0.866   7.205  1.8704  1.6295  2.5538
 9131SOL    HW239030   0.004   0.773   7.274 -0.4273 -1.5147  1.6057
 9132SOL     OW39031   2.154   4.167   0.295 -0.9835 -0.5808  0.0124
 9132SOL    HW139032   2.219   4.141   0.230 -0.1253 -1.0166  1.0367
 9132SOL    HW239033   2.102   4.217   0.233 -1.1219  0.2412  0.7947
 9133SOL     OW39034   1.920   3.351   4.066  0.2660 -0.1142 -0.0070
 9133SOL    HW139035   1.878   3.331   3.982  0.0526  2.1873 -0.4441
 9133SOL    HW239036   1.840   3.346   4.118 -0.2780  1.5372 -0.6908
 9134SOL     OW39037   2.326   3.043   1.576 -0.0442  0.3961  0.1907
 9134SOL    HW139038   2.319   3.128   1.532 -2.0318  1.0292  1.7114
 9134SOL    HW239039   2.261   3.063   1.643 -2.3990 -0.3482 -1.8621
 9135SOL     OW39040   0.840   4.035  10.911 -0.0505 -0.5355 -0.1185
 9135SOL    HW139041   0.931   4.004  10.914  0.1297  0.0722  0.7510
 9135SOL    HW239042   0.821   4.030  11.005  0.1841  1.8973  0.0577
 9136SOL     OW39043   4.091   4.463   2.055  0.3520  0.5901 -0.8688
 9136SOL    HW139044   4.073   4.472   2.148  2.4938  1.1287 -0.5100
 9136SOL    HW239045   4.031   4.525   2.014  0.2799 -0.2693 -2.0464
 9137SOL     OW39046   2.363   1.847   6.373 -0.3967  0.1620 -0.1512
 9137SOL    HW139047   2.285   1.812   6.330 -0.7015  0.4069  0.1966
 9137SOL    HW239048   2.326   1.933   6.394 -0.0344  0.5422 -1.1009
 9138SOL     OW39049   2.435   1.761   5.993 -0.7408 -0.3666 -0.2629
 9138SOL    HW139050   2.408   1.768   5.902 -1.9275 -0.0387  0.1154
 9138SOL    HW239051   2.403   1.839   6.038 -4.1019 -0.4027 -2.6525
 9139SOL     OW39052   3.071   2.145  11.904 -0.6622  0.0776  0.3246
 9139SOL    HW139053   3.061   2.216  11.966  0.4513 -0.7803  1.4885
 9139SOL    HW239054   3.159   2.171  11.877 -1.4199  0.6067 -1.6319
 9140SOL     OW39055   2.267   4.529   2.378  0.4634  0.0730  0.3939
 9140SOL    HW139056   2.211   4.510   2.302  1.5385  0.5505 -0.5206
 9140SOL    HW239057   2.345   4.555   2.329  0.3691 -1.0450 -0.3577
 9141SOL     OW39058   0.121   3.401   3.598  0.2330 -0.2030  0.5294
 9141SOL    HW139059   0.121   3.404   3.502 -0.9095 -1.7933  0.4917
 9141SOL    HW239060   0.209   3.433   3.620 -0.0977  0.3765  1.0005
 9142SOL     OW39061   3.892   3.783   6.720 -0.7342  0.2309  0.2783
 9142SOL    HW139062   3.809   3.826   6.698  1.0690  3.7313  0.1765
 9142SOL    HW239063   3.959   3.836   6.676 -0.2947 -0.7301 -0.1933
 9143SOL     OW39064   0.407   2.045   4.002  0.1037 -0.1433 -0.1655
 9143SOL    HW139065   0.322   2.015   4.035  0.0847  0.1408  0.0443
 9143SOL    HW239066   0.432   2.115   4.064  0.1770 -0.2948 -0.0223
 9144SOL     OW39067   1.553   4.249  15.590  0.0214  0.2322 -0.2909
 9144SOL    HW139068   1.537   4.223  15.681  0.4285 -1.9106 -0.8291
 9144SOL    HW239069   1.469   4.224  15.551  0.6948 -0.2420 -1.4158
 9145SOL     OW39070   0.958   0.736  10.010 -0.4398 -0.2622 -0.0007
 9145SOL    HW139071   0.904   0.809  10.039  0.6259  0.4667  0.1459
 9145SOL    HW239072   0.965   0.679  10.087  1.6567  1.3338  0.9954
 9146SOL     OW39073   3.309   1.116  16.095 -0.2961 -0.7418 -0.0572
 9146SOL    HW139074   3.225   1.124  16.050  0.0085  0.6954 -0.3474
 9146SOL    HW239075   3.298   1.165  16.177  0.7230  1.4469 -1.2279
 9147SOL     OW39076   4.204   2.495   9.200 -0.0810 -0.1112 -0.4378
 9147SOL    HW139077   4.200   2.510   9.106  0.5177 -0.5096 -0.5260
 9147SOL    HW239078   4.287   2.542   9.211  0.1483 -0.7278  0.4985
 9148SOL     OW39079   0.970   2.357  16.561 -0.2900 -0.0693 -0.1975
 9148SOL    HW139080   0.905   2.329  16.626 -3.0614  0.3910 -2.7844
 9148SOL    HW239081   0.957   2.451  16.554 -0.4364 -0.2370 -2.1013
 9149SOL     OW39082   0.454   1.157   8.531  0.3977 -0.2686 -0.2843
 9149SOL    HW139083   0.468   1.081   8.587 -3.2997 -1.6443 -1.2168
 9149SOL    HW239084   0.541   1.192   8.548  0.5114 -0.0188 -1.3580
 9150SOL     OW39085   0.893   2.532   3.440  0.1039 -0.2967  0.3963
 9150SOL    HW139086   0.881   2.577   3.356 -1.5032  0.9279  1.2868
 9150SOL    HW239087   0.915   2.602   3.501  3.3314 -1.0129  0.0381
 9151SOL     OW39088   1.311   1.000   7.697  0.4809 -0.4404  0.7319
 9151SOL    HW139089   1.217   0.984   7.693  0.5536 -0.1122 -2.6563
 9151SOL    HW239090   1.337   1.001   7.605 -1.3393 -4.1305  0.1965
 9152SOL     OW39091   3.685   1.564   6.963 -0.5415 -0.1490  0.2803
 9152SOL    HW139092   3.758   1.616   6.996  0.1422 -1.3698  0.6872
 9152SOL    HW239093   3.675   1.483   7.012 -0.3181 -0.2337  0.1876
 9153SOL     OW39094   4.560   1.680   1.533  0.4511 -0.6103  0.0657
 9153SOL    HW139095   4.624   1.737   1.491 -1.4992  0.0536 -1.9669
 9153SOL    HW239096   4.525   1.748   1.591 -0.4361 -0.8899 -0.1453
 9154SOL     OW39097   4.092   2.164   1.446 -0.2933 -0.0872 -0.0664
 9154SOL    HW139098   4.153   2.108   1.494 -1.2313 -1.6302 -0.6986
 9154SOL    HW239099   4.021   2.102   1.434 -0.0784 -0.2316 -0.6057
 9155SOL     OW39100   1.908   4.571   4.617 -0.0107 -0.6375  0.0574
 9155SOL    HW139101   1.994   4.612   4.625 -0.4996  0.3171  0.3388
 9155SOL    HW239102   1.852   4.628   4.669 -2.3387 -2.1957 -0.7660
 9156SOL     OW39103   3.212   1.680   4.943 -0.3818 -0.4743  0.1241
 9156SOL    HW139104   3.121   1.703   4.962  0.0806  0.7505  0.8824
 9156SOL    HW239105   3.235   1.736   4.869 -1.1851 -2.6958 -1.8207
 9157SOL     OW39106   1.067   2.044   3.537  0.0816  0.4477  0.1105
 9157SOL    HW139107   1.154   2.084   3.539 -0.4573  1.6569 -0.7851
 9157SOL    HW239108   1.016   2.107   3.486 -1.8866 -0.6454  0.7142
 9158SOL     OW39109   2.228   4.138   7.644  0.5502 -0.4038  0.3331
 9158SOL    HW139110   2.136   4.137   7.615  1.1627 -2.9534 -1.5452
 9158SOL    HW239111   2.232   4.227   7.679 -0.2684 -0.2761  0.1136
 9159SOL     OW39112   0.794   0.180   3.347 -0.3005  0.0330  0.4403
 9159SOL    HW139113   0.756   0.092   3.354  0.0400 -0.1272  0.2730
 9159SOL    HW239114   0.837   0.179   3.433  0.1178 -0.2085  0.2267
 9160SOL     OW39115   4.207   1.471   4.057 -0.2084  0.0288 -0.2995
 9160SOL    HW139116   4.239   1.466   3.967 -1.3829 -0.8089 -0.6616
 9160SOL    HW239117   4.295   1.454   4.091  0.1692  0.4299 -1.0621
 9161SOL     OW39118   2.839   1.878   8.519 -0.2268  0.3641 -0.3720
 9161SOL    HW139119   2.833   1.859   8.425 -2.6482 -2.9491  0.4566
 9161SOL    HW239120   2.927   1.848   8.542 -1.0499 -2.6559 -1.2020
 9162SOL     OW39121   1.469   0.099   2.203 -0.3823 -0.0456  0.5668
 9162SOL    HW139122   1.417   0.027   2.167  0.3932 -1.0037  1.3573
 9162SOL    HW239123   1.537   0.047   2.247  0.1999  0.2785  0.0548
 9163SOL     OW39124   3.213   2.203   5.136 -0.4085  0.1265  0.1381
 9163SOL    HW139125   3.223   2.173   5.046  0.5521 -1.7194  0.8622
 9163SOL    HW239126   3.152   2.139   5.172 -0.2128 -0.6761 -0.9883
 9164SOL     OW39127   3.494   0.663  12.543 -0.0144  0.0251  0.3424
 9164SOL    HW139128   3.551   0.593  12.576 -0.1687 -0.8448 -1.2543
 9164SOL    HW239129   3.473   0.635  12.454  0.4772 -0.1055  0.2699
 9165SOL     OW39130   3.660   3.309   2.226 -0.2924 -0.0154  0.7128
 9165SOL    HW139131   3.708   3.383   2.190  1.7847 -2.0692 -0.7972
 9165SOL    HW239132   3.574   3.350   2.225 -0.7154 -0.8946  0.4914
 9166SOL     OW39133   1.260   1.900   7.528  0.4120  0.3083 -0.5664
 9166SOL    HW139134   1.304   1.853   7.457  1.4964  0.0788  0.2514
 9166SOL    HW239135   1.190   1.837   7.550  1.1058 -0.9982 -2.0851
 9167SOL     OW39136   0.927   3.661   3.521 -0.4117 -0.0656 -0.2641
 9167SOL    HW139137   0.951   3.719   3.594  0.9841  1.3080 -1.8110
 9167SOL    HW239138   0.918   3.727   3.453  1.6672 -0.0444 -0.5297
 9168SOL     OW39139   0.845   4.611   4.898 -0.6008  0.4486  0.1675
 9168SOL    HW139140   0.868   4.560   4.976  0.2523 -0.4938 -0.7019
 9168SOL    HW239141   0.922   4.603   4.841 -2.2346  0.8261 -2.0915
 9169SOL     OW39142   1.526   2.450  16.244  0.4595 -0.3124 -0.1353
 9169SOL    HW139143   1.484   2.510  16.182 -0.8139  0.2218  1.2374
 9169SOL    HW239144   1.453   2.391  16.261 -0.5803  1.2468  0.7748
 9170SOL     OW39145   2.343   4.545   9.389 -0.0469 -0.0187  0.1555
 9170SOL    HW139146   2.334   4.467   9.444 -2.0341 -0.7286 -1.1849
 9170SOL    HW239147   2.320   4.520   9.300  3.0148 -0.8721 -0.3657
 9171SOL     OW39148   0.091   1.955   8.038 -0.2380 -0.4291  0.0912
 9171SOL    HW139149   0.130   1.869   8.055 -1.1158 -0.8298  0.0849
 9171SOL    HW239150   0.140   2.014   8.095  1.5611 -0.3047 -1.5933
 9172SOL     OW39151   1.688   0.602  15.991  0.1828 -0.2951  0.0436
 9172SOL    HW139152   1.613   0.573  16.043  0.2223 -0.0359  0.2455
 9172SOL    HW239153   1.669   0.563  15.905 -1.5143 -0.8597  0.6564
 9173SOL     OW39154   0.815   2.712   1.590 -0.4899  0.6614  0.6117
 9173SOL    HW139155   0.740   2.760   1.624  0.6820  1.5674  1.8937
 9173SOL    HW239156   0.827   2.768   1.513 -1.5697  0.2042  0.1131
 9174SOL     OW39157   1.610   2.112   8.963 -0.2429  0.0358  0.1379
 9174SOL    HW139158   1.629   2.026   8.926 -0.5348  0.6436 -1.4217
 9174SOL    HW239159   1.697   2.120   9.001  0.8646  0.0024 -2.4438
 9175SOL     OW39160   3.688   1.927   2.563  0.0136 -0.2791 -0.0254
 9175SOL    HW139161   3.768   1.919   2.512  0.5569  1.3817  0.5592
 9175SOL    HW239162   3.627   1.879   2.507 -1.5496  0.4615  1.0283
 9176SOL     OW39163   1.646   2.804   2.578 -0.1735  0.9547 -0.0096
 9176SOL    HW139164   1.645   2.750   2.657 -2.3334 -0.8636 -1.2581
 9176SOL    HW239165   1.696   2.751   2.516  0.1293  0.3717  0.7346
 9177SOL     OW39166   2.955   1.300   9.325  0.0069 -0.3800  0.3836
 9177SOL    HW139167   2.948   1.394   9.307  2.3624 -0.4530 -0.8759
 9177SOL    HW239168   2.912   1.280   9.409 -1.1659 -0.9411 -0.3547
 9178SOL     OW39169   4.196   4.655   9.486 -0.3730  0.7868 -0.0764
 9178SOL    HW139170   4.264   4.715   9.456 -0.2640  0.1342 -1.1333
 9178SOL    HW239171   4.187   4.614   9.400  0.1448 -2.2987  1.3330
 9179SOL     OW39172   3.878   1.728   6.122 -0.0798  0.2515 -0.0844
 9179SOL    HW139173   3.817   1.753   6.052  2.3336  3.0396 -1.1945
 9179SOL    HW239174   3.824   1.703   6.197  1.1237 -3.4116 -0.4098
 9180SOL     OW39175   1.784   2.348  17.733  0.2818 -0.3345 -0.3754
 9180SOL    HW139176   1.723   2.422  17.735 -0.6833 -1.2069  3.9201
 9180SOL    HW239177   1.839   2.350   0.061 -0.1768  2.6634 -0.1312
 9181SOL     OW39178   3.212   0.371  17.236 -0.1962 -0.6766 -0.0998
 9181SOL    HW139179   3.243   0.333  17.154 -2.6989  0.3468 -1.4983
 9181SOL    HW239180   3.268   0.449  17.225 -0.2784 -0.2159  2.5223
 9182SOL     OW39181   0.516   2.566   3.313  0.4370  0.2134  0.2740
 9182SOL    HW139182   0.586   2.551   3.249 -0.8025 -3.3362 -0.2545
 9182SOL    HW239183   0.480   2.479   3.331  1.2340 -0.2253 -0.2542
 9183SOL     OW39184   1.543   4.508   9.782 -0.1562  0.6993 -0.3861
 9183SOL    HW139185   1.636   4.521   9.766  0.4655 -5.2752 -1.8882
 9183SOL    HW239186   1.495   4.590   9.793 -0.1768  0.8207 -1.3286
 9184SOL     OW39187   4.414   0.691   9.744  0.3517 -0.2751 -0.0215
 9184SOL    HW139188   4.505   0.719   9.730  0.2426 -1.3819 -2.9735
 9184SOL    HW239189   4.422   0.633   9.820  0.2986  2.1863  1.8556
 9185SOL     OW39190   0.225   1.601  14.712 -0.4856 -0.1793  0.3990
 9185SOL    HW139191   0.255   1.684  14.751 -0.7140  1.2524 -2.4911
 9185SOL    HW239192   0.132   1.601  14.733 -0.8217  0.0622 -1.0670
 9186SOL     OW39193   3.465   3.325  17.693  0.3495 -0.4044  0.5490
 9186SOL    HW139194   3.446   3.403  17.642  1.0888 -0.6357 -0.0658
 9186SOL    HW239195   3.420   3.335   0.027  0.3502 -2.0449  0.7478
 9187SOL     OW39196   0.437   2.254   8.566  0.0283 -0.0761 -0.8716
 9187SOL    HW139197   0.456   2.233   8.475 -0.4305  1.7992 -1.3936
 9187SOL    HW239198   0.479   2.186   8.619 -0.0818  0.2472 -0.3691
 9188SOL     OW39199   3.791   1.787   4.488 -0.2837 -0.6487 -0.1504
 9188SOL    HW139200   3.855   1.841   4.534 -0.8347 -1.1475  1.2131
 9188SOL    HW239201   3.781   1.833   4.405  1.4278 -0.3423 -0.1873
 9189SOL     OW39202   0.463   2.163  10.713 -0.0893 -0.4546 -0.3556
 9189SOL    HW139203   0.418   2.218  10.649  2.1075  0.5659 -1.0040
 9189SOL    HW239204   0.426   2.175  10.800  3.0679  0.7702  0.8228
 9190SOL     OW39205   4.191   3.440  11.520 -0.1436  0.6718 -0.2699
 9190SOL    HW139206   4.134   3.474  11.589  0.1545 -0.7061  0.6680
 9190SOL    HW239207   4.144   3.472  11.444  1.1133  0.5327 -1.1080
 9191SOL     OW39208   0.518   3.376   4.975 -0.3393 -0.3928  0.4356
 9191SOL    HW139209   0.434   3.357   5.016 -0.6344  0.7947  0.3896
 9191SOL    HW239210   0.555   3.436   5.039 -0.6051 -0.0453  0.2634
 9192SOL     OW39211   3.987   0.075   1.814 -0.2985  0.7492 -0.0943
 9192SOL    HW139212   3.984   0.158   1.863 -0.1953 -0.5130  2.0524
 9192SOL    HW239213   4.058   0.105   1.758 -1.6879  0.8657 -1.8021
 9193SOL     OW39214   3.795   2.528   5.472 -0.7474 -0.0215 -0.0797
 9193SOL    HW139215   3.734   2.600   5.453 -0.1460  0.2505 -1.0395
 9193SOL    HW239216   3.729   2.463   5.492 -0.4084  0.7882  3.7326
 9194SOL     OW39217   3.124   4.173  16.729 -0.1485  0.3370  0.3684
 9194SOL    HW139218   3.194   4.187  16.793 -0.3039  0.2858  0.5482
 9194SOL    HW239219   3.173   4.160  16.647 -0.9553  2.6770 -0.4825
 9195SOL     OW39220   1.141   2.949   8.703 -0.3365  0.1543  0.2427
 9195SOL    HW139221   1.236   2.946   8.711 -0.3703 -0.4744  0.4304
 9195SOL    HW239222   1.127   2.896   8.624 -0.7950 -0.5846  0.8224
 9196SOL     OW39223   0.585   0.009   3.659  0.5575  0.7271 -0.2777
 9196SOL    HW139224   0.631   0.083   3.698  2.1923 -2.6848  4.2464
 9196SOL    HW239225   0.645   4.674   3.672  1.7475  2.1880  2.4696
 9197SOL     OW39226   2.786   0.723   8.276 -0.6013 -0.0159 -0.0400
 9197SOL    HW139227   2.819   0.635   8.259 -2.5150 -0.4746 -1.2964
 9197SOL    HW239228   2.828   0.754   8.357  0.6302 -1.1904 -0.2438
 9198SOL     OW39229   1.018   2.684  13.244 -0.1229 -0.5854  0.0329
 9198SOL    HW139230   0.997   2.703  13.335  1.8905  1.0171  0.1635
 9198SOL    HW239231   1.113   2.691  13.253 -0.3754  0.3019  1.9368
 9199SOL     OW39232   0.797   1.081   5.744 -0.6977  0.0311  0.0998
 9199SOL    HW139233   0.764   1.169   5.763 -0.6199  0.0314  0.2308
 9199SOL    HW239234   0.886   1.097   5.773 -0.2951  0.4734 -1.3701
 9200SOL     OW39235   3.004   0.265   7.950 -0.6044  0.4795  0.5460
 9200SOL    HW139236   2.953   0.186   7.930  0.4260 -0.0510  0.0006
 9200SOL    HW239237   3.075   0.220   7.996 -0.3276  0.0572 -0.2882
 9201SOL     OW39238   4.509   2.151  17.248 -0.2803 -0.1020  0.1616
 9201SOL    HW139239   4.510   2.247  17.252 -0.7820 -0.0285 -1.2205
 9201SOL    HW239240   4.571   2.128  17.178 -1.7327  0.1246 -1.2171
 9202SOL     OW39241   1.452   2.780   3.379 -0.3579 -0.9503 -0.2795
 9202SOL    HW139242   1.465   2.781   3.473  2.3842  1.4580 -0.6724
 9202SOL    HW239243   1.517   2.712   3.361 -0.7369 -1.1486 -0.9340
 9203SOL     OW39244   2.530   1.415  14.106  0.9905 -0.6056  0.4024
 9203SOL    HW139245   2.598   1.415  14.173 -0.7993  0.4443  2.2456
 9203SOL    HW239246   2.459   1.442  14.165  0.3246 -0.2155 -0.5757
 9204SOL     OW39247   0.543   2.847   1.544 -0.0546  0.4162  0.5850
 9204SOL    HW139248   0.604   2.871   1.474  0.9254 -1.8628  0.6581
 9204SOL    HW239249   0.462   2.890   1.516 -0.3738 -0.9110 -0.5366
 9205SOL     OW39250   3.157   2.362  17.656 -0.4145 -0.0248  0.1359
 9205SOL    HW139251   3.125   2.449  17.629 -2.1159 -0.1660  1.6692
 9205SOL    HW239252   3.091   2.303  17.620 -0.5338 -0.8387  1.6821
 9206SOL     OW39253   2.798   4.237   5.697 -0.3791  0.1103  0.2420
 9206SOL    HW139254   2.817   4.308   5.758 -0.5707  0.1944  0.2054
 9206SOL    HW239255   2.855   4.166   5.726 -0.2426 -0.7294 -2.0382
 9207SOL     OW39256   1.320   2.670  16.093  0.2317 -0.1067 -0.3381
 9207SOL    HW139257   1.236   2.686  16.135 -0.0454 -2.8300  0.1117
 9207SOL    HW239258   1.331   2.738  16.027 -0.9069  2.9110  2.6039
 9208SOL     OW39259   4.673   2.013  12.641  0.2395  0.0838 -0.3782
 9208SOL    HW139260   0.021   2.030  12.602  1.2015 -3.4620  0.1958
 9208SOL    HW239261   4.671   2.051  12.729 -1.3506 -0.3781 -0.2248
 9209SOL     OW39262   2.279   2.893  11.829 -0.4071 -0.1384 -0.2834
 9209SOL    HW139263   2.323   2.820  11.874  2.7265  1.5780 -0.5560
 9209SOL    HW239264   2.329   2.968  11.863  1.8479 -2.1561  0.9120
 9210SOL     OW39265   0.734   4.595   2.695 -0.4200 -0.4528 -0.2731
 9210SOL    HW139266   0.824   4.568   2.713 -0.2791  0.7646  0.9193
 9210SOL    HW239267   0.702   4.630   2.779  0.1251 -0.7134  0.0444
 9211SOL     OW39268   1.220   0.003   4.416  0.5630 -0.0723  0.8030
 9211SOL    HW139269   1.215   0.065   4.489  0.4128 -1.1358  1.7065
 9211SOL    HW239270   1.154   0.026   4.351  1.9735  0.9287 -0.2527
 9212SOL     OW39271   1.420   3.872   6.219 -0.4830  0.1499  0.1660
 9212SOL    HW139272   1.436   3.778   6.212  1.6732  0.3281  2.8442
 9212SOL    HW239273   1.510   3.905   6.226 -1.4175  2.6923  0.1062
 9213SOL     OW39274   0.899   3.089   0.516 -0.3485  0.1299  0.2874
 9213SOL    HW139275   0.901   3.059   0.607  0.5169  1.3064  0.6544
 9213SOL    HW239276   0.946   3.017   0.474 -0.8212  0.9738 -1.6837
 9214SOL     OW39277   0.033   2.174   1.876  0.4226 -0.1232 -0.3364
 9214SOL    HW139278   0.017   2.267   1.863  0.8066 -0.0399 -0.2335
 9214SOL    HW239279   0.052   2.182   1.970 -1.8019 -0.4402  0.1365
 9215SOL     OW39280   4.207   3.666   4.297 -0.2198 -0.7644 -0.4239
 9215SOL    HW139281   4.217   3.576   4.266 -1.0121  0.2895 -3.7329
 9215SOL    HW239282   4.130   3.662   4.354 -0.5500  2.9668 -0.6301
 9216SOL     OW39283   3.672   2.742   2.808  0.0386 -0.1286 -0.2999
 9216SOL    HW139284   3.722   2.714   2.885  0.0036  1.0110  0.1489
 9216SOL    HW239285   3.730   2.722   2.735 -0.8989 -0.8978 -0.8279
 9217SOL     OW39286   0.807   1.624   5.410 -0.3562 -0.1495 -0.3809
 9217SOL    HW139287   0.761   1.665   5.484 -0.5364 -1.1052  0.0448
 9217SOL    HW239288   0.741   1.558   5.390  1.1229 -1.8852  0.4554
 9218SOL     OW39289   3.998   4.445   3.092 -0.2329 -0.3915 -0.2391
 9218SOL    HW139290   4.022   4.487   3.010 -2.1843  1.4716  0.1561
 9218SOL    HW239291   4.062   4.374   3.092 -1.3502 -1.4011 -1.0414
 9219SOL     OW39292   0.452   0.910   7.996  0.2074 -0.1633  0.1205
 9219SOL    HW139293   0.482   0.953   8.076  1.0945 -0.3133 -0.1326
 9219SOL    HW239294   0.361   0.938   7.990  0.3304  0.1398 -0.4099
 9220SOL     OW39295   3.149   0.288   3.029 -0.0394  0.1085 -0.0956
 9220SOL    HW139296   3.085   0.333   3.085 -0.2903 -0.9942  0.5194
 9220SOL    HW239297   3.112   0.201   3.010  0.0427 -0.0888  0.6242
 9221SOL     OW39298   0.618   4.220   6.803 -0.5918  0.1251  0.6582
 9221SOL    HW139299   0.601   4.239   6.895 -3.7794 -1.3818  0.3792
 9221SOL    HW239300   0.535   4.189   6.765  0.6635 -3.1369  0.5530
 9222SOL     OW39301   1.602   1.861   3.601  0.0850  0.9546 -0.3751
 9222SOL    HW139302   1.558   1.823   3.525  0.8198  0.3981 -0.5282
 9222SOL    HW239303   1.594   1.785   3.660  0.5343 -1.7099 -3.7062
 9223SOL     OW39304   1.110   2.192   9.834  0.4121 -0.3624 -0.3368
 9223SOL    HW139305   1.049   2.126   9.800 -0.6464  0.9014 -0.8902
 9223SOL    HW239306   1.099   2.252   9.760 -1.1550  0.7769  0.8234
 9224SOL     OW39307   3.767   3.887   3.286 -0.2050 -0.0360  0.1745
 9224SOL    HW139308   3.776   3.852   3.375 -2.5697 -2.0052 -0.3764
 9224SOL    HW239309   3.731   3.811   3.240  3.5686 -1.1721 -0.8897
 9225SOL     OW39310   1.396   1.086   0.123  0.2988 -0.0703  0.4895
 9225SOL    HW139311   1.399   0.990   0.123 -0.3749 -0.0810 -2.1147
 9225SOL    HW239312   1.335   1.097   0.051 -1.4478 -0.4627  1.9102
 9226SOL     OW39313   2.665   3.826   3.379  0.2619 -0.4238 -0.3311
 9226SOL    HW139314   2.661   3.868   3.465 -1.2521  0.5930 -0.8897
 9226SOL    HW239315   2.639   3.738   3.405 -0.5453  0.2111  1.0601
 9227SOL     OW39316   4.011   3.427   6.447  0.1777  0.6290 -0.4103
 9227SOL    HW139317   3.984   3.337   6.465  1.8063 -0.2446 -2.3667
 9227SOL    HW239318   4.105   3.412   6.452 -0.0803 -0.9603 -0.0753
 9228SOL     OW39319   1.901   2.553   1.132  0.4454 -0.0033  0.2814
 9228SOL    HW139320   1.907   2.606   1.211 -2.2595  0.1108  0.4014
 9228SOL    HW239321   1.873   2.470   1.173 -2.3031  0.2526 -1.0601
 9229SOL     OW39322   1.095   2.321  15.041  0.1165 -0.3594  0.1351
 9229SOL    HW139323   1.103   2.414  15.060 -0.0238 -0.2669 -0.2550
 9229SOL    HW239324   1.025   2.306  15.105  1.2443  0.3607  1.5286
 9230SOL     OW39325   3.137   0.038   2.321  0.4294 -0.2017 -0.3500
 9230SOL    HW139326   3.077   0.029   2.395  3.3513 -0.0476  1.9953
 9230SOL    HW239327   3.216   0.029   2.373 -0.3777 -0.3092  0.8511
 9231SOL     OW39328   3.374   2.020  15.821  0.1863 -0.3987  0.2034
 9231SOL    HW139329   3.397   1.974  15.740 -0.7248 -0.0999 -0.2222
 9231SOL    HW239330   3.441   1.982  15.878 -1.1136 -1.1428  1.2140
 9232SOL     OW39331   2.136   4.517  16.815 -0.3075  0.1884 -0.3042
 9232SOL    HW139332   2.141   4.425  16.790 -0.4337  0.7910 -2.4999
 9232SOL    HW239333   2.042   4.527  16.832 -0.4358  2.0138 -2.2144
 9233SOL     OW39334   1.551   1.771   0.128  0.8018  0.4013 -0.4338
 9233SOL    HW139335   1.480   1.782   0.191 -0.9740 -1.0909 -2.1472
 9233SOL    HW239336   1.503   1.769   0.045 -0.1421  0.1444  0.1152
 9234SOL     OW39337   2.999   3.876   0.750 -0.2777  0.0359 -0.3197
 9234SOL    HW139338   2.940   3.907   0.681  0.1993 -0.2395 -0.8494
 9234SOL    HW239339   3.083   3.915   0.726  0.2539 -1.4261 -0.8324
 9235SOL     OW39340   3.438   1.876  15.609 -0.6266 -0.0381 -0.2390
 9235SOL    HW139341   3.527   1.856  15.579  0.1697  1.8593  0.8804
 9235SOL    HW239342   3.395   1.792  15.592 -0.6470  0.5324 -3.1543
 9236SOL     OW39343   3.662   4.530  13.350 -0.2601  0.3457  0.2649
 9236SOL    HW139344   3.573   4.541  13.382 -0.1246  2.5677 -0.1474
 9236SOL    HW239345   3.695   4.618  13.369  0.8429 -0.4342  1.9222
 9237SOL     OW39346   1.139   2.407  17.166 -0.1275  0.5075 -0.1266
 9237SOL    HW139347   1.106   2.362  17.244 -0.1526 -0.8051 -0.8849
 9237SOL    HW239348   1.080   2.375  17.097  0.3436  0.6995 -0.6193
 9238SOL     OW39349   0.694   1.483   4.764 -0.4598 -0.0971  0.0103
 9238SOL    HW139350   0.639   1.553   4.730  0.0591 -0.1233 -0.8923
 9238SOL    HW239351   0.672   1.412   4.703  1.2401 -2.2387  1.8727
 9239SOL     OW39352   0.526   3.902  13.618 -0.1551 -0.4535 -0.1261
 9239SOL    HW139353   0.571   3.917  13.701  0.5684  2.6324 -1.0996
 9239SOL    HW239354   0.491   3.813  13.622 -0.1321 -0.4677 -0.2368
 9240SOL     OW39355   3.311   1.736  17.402 -0.2849 -0.3478 -0.0570
 9240SOL    HW139356   3.329   1.642  17.404 -0.9735 -0.4176  2.6061
 9240SOL    HW239357   3.364   1.757  17.325 -0.1436 -1.1536 -0.1824
 9241SOL     OW39358   1.546   2.503  15.023  0.4164  0.7416  0.0184
 9241SOL    HW139359   1.539   2.595  15.049  0.5542  0.8232 -0.2310
 9241SOL    HW239360   1.579   2.461  15.102  0.5061  3.5178  1.4350
 9242SOL     OW39361   1.946   1.686  12.569  0.0540 -0.3577  0.4398
 9242SOL    HW139362   1.903   1.683  12.655 -0.3969  1.7266  0.3011
 9242SOL    HW239363   2.013   1.749  12.595  0.8621 -1.9760  2.2129
 9243SOL     OW39364   4.418   4.396  13.725  0.1924  0.2344 -0.1191
 9243SOL    HW139365   4.463   4.455  13.665 -0.3861  1.6828  0.8833
 9243SOL    HW239366   4.346   4.452  13.752 -0.8600 -0.1117 -2.1545
 9244SOL     OW39367   1.886   3.272   8.854 -0.0455 -0.6069  0.8487
 9244SOL    HW139368   1.876   3.367   8.863 -1.3876 -0.5662 -0.9981
 9244SOL    HW239369   1.841   3.260   8.937  0.7803 -2.9833  0.9598
 9245SOL     OW39370   1.876   2.021   5.247 -0.7284 -0.1370  0.0179
 9245SOL    HW139371   1.944   2.006   5.313 -1.0310 -2.1037 -0.1337
 9245SOL    HW239372   1.924   2.082   5.191 -1.0683 -0.7787 -0.9687
 9246SOL     OW39373   0.376   0.835   2.026  0.2151  0.2149  0.4050
 9246SOL    HW139374   0.462   0.806   2.055 -0.1962 -2.4820 -1.0541
 9246SOL    HW239375   0.395   0.880   1.943  3.6998  0.5618  1.3924
 9247SOL     OW39376   4.717   4.721  10.339  0.0767 -0.4532  0.1037
 9247SOL    HW139377   0.066   4.714  10.379 -0.5858 -0.7379  1.4543
 9247SOL    HW239378   4.666   4.675  10.405 -2.1309  2.8502  0.6861
 9248SOL     OW39379   2.723   2.069   4.639  0.2454  0.0308  0.6416
 9248SOL    HW139380   2.660   2.011   4.597  1.7274 -1.8704  1.0367
 9248SOL    HW239381   2.668   2.122   4.695  0.0998  2.8654 -2.1785
 9249SOL     OW39382   3.630   1.764  15.903 -0.3915 -0.1480 -0.4697
 9249SOL    HW139383   3.615   1.852  15.938  1.1483  0.2297 -0.7571
 9249SOL    HW239384   3.540   1.736  15.888 -0.3809 -0.5762  0.3145
 9250SOL     OW39385   0.832   1.880  11.604  0.7818 -0.3497  0.3509
 9250SOL    HW139386   0.862   1.808  11.549 -0.5223  0.3243 -1.2540
 9250SOL    HW239387   0.903   1.942  11.588  0.1827  0.4690  0.8607
 9251SOL     OW39388   1.878   0.279  11.650 -0.7614 -0.1439 -0.4793
 9251SOL    HW139389   1.933   0.357  11.647 -0.8359  0.0579  2.9371
 9251SOL    HW239390   1.945   0.212  11.635 -0.0359  0.1471  1.4842
 9252SOL     OW39391   3.843   0.714   8.940  0.2833 -0.0586  0.1066
 9252SOL    HW139392   3.762   0.713   8.890  0.8924  1.0815 -0.8955
 9252SOL    HW239393   3.802   0.710   9.026 -0.2659  1.0056 -0.1114
 9253SOL     OW39394   2.295   4.316   9.524  0.0885 -0.2964 -0.0087
 9253SOL    HW139395   2.209   4.275   9.528 -0.3019  0.6363  1.2488
 9253SOL    HW239396   2.352   4.239   9.523  0.3207 -0.1367  0.6962
 9254SOL     OW39397   1.387   2.108   1.592 -0.0470 -0.2597  0.0585
 9254SOL    HW139398   1.385   2.081   1.501  0.2498  1.6544 -0.5252
 9254SOL    HW239399   1.482   2.101   1.603 -0.2076 -2.6110 -0.1363
 9255SOL     OW39400   1.907   0.917   3.314 -0.2583  0.0370 -0.7359
 9255SOL    HW139401   1.991   0.953   3.343 -0.7991 -0.7111  1.8200
 9255SOL    HW239402   1.889   0.853   3.384 -0.0262  0.7066 -0.0590
 9256SOL     OW39403   0.900   1.622   5.134 -0.0913  0.0644 -0.6653
 9256SOL    HW139404   0.848   1.644   5.211 -0.6950 -0.3321 -0.9526
 9256SOL    HW239405   0.892   1.702   5.081  0.7512  0.3259 -0.3865
 9257SOL     OW39406   1.855   1.369   8.514  0.1178 -0.0461 -0.0973
 9257SOL    HW139407   1.799   1.345   8.440 -2.7787  0.4412  1.9337
 9257SOL    HW239408   1.919   1.298   8.519  1.4914  1.0694 -1.5498
 9258SOL     OW39409   3.359   3.353  10.236  0.1138  0.6507 -0.2041
 9258SOL    HW139410   3.293   3.291  10.202  0.0293 -0.4253  1.9409
 9258SOL    HW239411   3.407   3.303  10.302 -0.4817 -0.2917 -0.4736
 9259SOL     OW39412   2.114   0.641   6.837 -0.4058 -0.3262 -0.2584
 9259SOL    HW139413   2.129   0.730   6.867  1.1200 -0.7304  0.2046
 9259SOL    HW239414   2.020   0.651   6.824  0.1424  3.6071 -1.0980
 9260SOL     OW39415   1.110   0.811   2.322 -0.0325  0.6947  0.4276
 9260SOL    HW139416   1.044   0.806   2.392 -2.4153 -3.9062 -2.1830
 9260SOL    HW239417   1.188   0.794   2.375 -1.6106  1.6897  3.0754
 9261SOL     OW39418   0.040   1.141   0.374 -0.2381 -0.2889  0.6930
 9261SOL    HW139419   4.695   1.120   0.419 -0.2405  1.2769  1.4260
 9261SOL    HW239420   0.037   1.085   0.297  0.5246 -0.8928  1.1026
 9262SOL     OW39421   4.552   4.613  16.218 -0.2219  0.5213  0.3377
 9262SOL    HW139422   4.581   4.665  16.292 -0.8182  0.8411  0.3483
 9262SOL    HW239423   4.484   4.560  16.260  1.5030 -2.5634 -0.7209
 9263SOL     OW39424   0.827   2.436   4.971  0.0192 -0.0359  0.0719
 9263SOL    HW139425   0.734   2.428   4.994 -0.5138  1.9789 -1.3314
 9263SOL    HW239426   0.835   2.530   4.988 -0.0828  0.1566 -0.9881
 9264SOL     OW39427   1.253   0.372   2.526 -0.0227 -0.3503  0.5704
 9264SOL    HW139428   1.157   0.377   2.534  0.1256  1.3154  1.2793
 9264SOL    HW239429   1.273   0.360   2.433 -1.8981 -0.6596  0.2018
 9265SOL     OW39430   0.741   0.058  15.003  0.6122 -0.3535  0.3375
 9265SOL    HW139431   0.768   4.734  15.070  0.9073  1.7618  2.1864
 9265SOL    HW239432   0.716   0.136  15.052 -0.3886 -0.5819  0.1835
 9266SOL     OW39433   3.593   2.170  11.961  0.0168  0.0618 -0.1172
 9266SOL    HW139434   3.652   2.145  11.890  0.7232 -0.1646  0.5558
 9266SOL    HW239435   3.588   2.083  12.001 -2.4747 -0.2517 -1.0881
 9267SOL     OW39436   4.242   3.340  16.360  0.1951  0.2768  0.3512
 9267SOL    HW139437   4.154   3.377  16.363 -0.6227 -1.7322  1.0859
 9267SOL    HW239438   4.216   3.249  16.346  1.2726  0.4973 -3.0914
 9268SOL     OW39439   3.137   4.383  11.219 -0.0470  0.0706  0.3014
 9268SOL    HW139440   3.115   4.418  11.133 -1.4370 -0.9091  0.2565
 9268SOL    HW239441   3.204   4.317  11.203 -1.1610 -1.2496  1.0473
 9269SOL     OW39442   0.102   0.194   4.377  0.3667 -0.6424  0.4034
 9269SOL    HW139443   0.012   0.160   4.381  0.2286 -0.1305  1.7260
 9269SOL    HW239444   0.109   0.199   4.473 -1.4558 -2.3351  0.6416
 9270SOL     OW39445   3.505   1.928   3.547  0.2278  0.5560  0.1707
 9270SOL    HW139446   3.437   1.904   3.610  1.2520 -0.3150  0.9376
 9270SOL    HW239447   3.504   2.023   3.553 -0.5993  0.5445  0.2819
 9271SOL     OW39448   0.466   1.931   1.892 -0.1572 -0.0848 -0.1241
 9271SOL    HW139449   0.497   1.847   1.859  1.6664  0.4898  0.1385
 9271SOL    HW239450   0.494   1.983   1.816 -2.1786  0.0651 -0.7613
 9272SOL     OW39451   4.447   2.226   7.903 -0.1755  0.2387  0.1320
 9272SOL    HW139452   4.529   2.194   7.940 -0.1335  0.7102  0.4408
 9272SOL    HW239453   4.418   2.148   7.856 -0.7902 -0.3823  1.5627
 9273SOL     OW39454   0.498   0.411   3.050 -0.2534  0.2824 -0.2289
 9273SOL    HW139455   0.563   0.476   3.077 -1.3460  0.6076  1.6077
 9273SOL    HW239456   0.473   0.363   3.129  1.4600 -2.9598 -1.6530
 9274SOL     OW39457   3.757   2.453   5.821  0.1254  0.2707 -0.2168
 9274SOL    HW139458   3.716   2.528   5.779  0.0193  0.7907  0.8189
 9274SOL    HW239459   3.802   2.508   5.886  1.1201 -0.0033 -0.6725
 9275SOL     OW39460   1.173   0.115   8.222  0.4929  0.0090  0.1002
 9275SOL    HW139461   1.221   0.181   8.272  1.8485 -0.3763 -0.7003
 9275SOL    HW239462   1.246   0.053   8.225 -1.1377 -1.8758  1.3424
 9276SOL     OW39463   3.293   3.773  15.073 -0.4087  0.0832 -0.2808
 9276SOL    HW139464   3.311   3.684  15.106 -1.1738 -0.0388 -0.2017
 9276SOL    HW239465   3.373   3.820  15.096 -2.2021  2.6924  0.4866
 9277SOL     OW39466   0.080   2.837  11.255  0.5628  0.0014  0.6709
 9277SOL    HW139467   0.112   2.899  11.320 -3.2943  0.6691  1.9249
 9277SOL    HW239468   0.047   2.899  11.190 -1.1177 -0.0761  1.4351
 9278SOL     OW39469   3.721   2.065   9.650 -0.1065 -0.5519  0.2817
 9278SOL    HW139470   3.627   2.048   9.648 -0.6527  2.7098 -1.5297
 9278SOL    HW239471   3.753   1.974   9.654  2.4434  0.2564 -1.4094
 9279SOL     OW39472   1.826   3.655  12.507 -0.0786 -0.6999 -0.6102
 9279SOL    HW139473   1.855   3.589  12.443  0.3708  0.0685 -1.1977
 9279SOL    HW239474   1.841   3.606  12.588  0.2829 -1.2911 -1.0327
 9280SOL     OW39475   2.482   2.479   6.062 -0.7325  0.1538 -0.2589
 9280SOL    HW139476   2.570   2.454   6.035 -0.3371  0.2275  0.9858
 9280SOL    HW239477   2.503   2.545   6.129  4.1150  0.0677 -1.7320
 9281SOL     OW39478   2.961   1.979   2.344 -0.6500 -0.5227  0.7307
 9281SOL    HW139479   2.994   2.063   2.314  0.4510 -1.6945 -1.3883
 9281SOL    HW239480   2.875   2.006   2.376 -2.1008 -4.6751  0.3334
 9282SOL     OW39481   2.871   3.578   4.970 -0.1843 -0.6100  0.4076
 9282SOL    HW139482   2.837   3.544   5.053  0.5533  0.9559  1.3618
 9282SOL    HW239483   2.803   3.549   4.908 -0.8956  1.9871 -0.0226
 9283SOL     OW39484   3.913   0.311   2.770  0.1253 -0.1133  0.4701
 9283SOL    HW139485   4.001   0.274   2.779  0.4458 -0.0034 -2.3642
 9283SOL    HW239486   3.934   0.402   2.746  0.3033 -0.2743  0.0138
 9284SOL     OW39487   4.398   4.620  13.140 -0.3700 -0.2189 -0.2500
 9284SOL    HW139488   4.375   4.688  13.076  2.0267  0.3340 -0.5209
 9284SOL    HW239489   4.488   4.603  13.115 -0.7696 -1.7593 -0.6456
 9285SOL     OW39490   1.264   4.201   8.386  0.2751  0.3379 -0.0494
 9285SOL    HW139491   1.246   4.108   8.376  0.5635  0.3097 -0.3147
 9285SOL    HW239492   1.321   4.206   8.462 -0.4653 -0.4408  0.5515
 9286SOL     OW39493   1.286   3.206   7.632 -0.9410  0.0854  1.0006
 9286SOL    HW139494   1.264   3.175   7.720  0.5194  1.1574  1.7476
 9286SOL    HW239495   1.361   3.153   7.603  0.8585  1.9056  2.3167
 9287SOL     OW39496   2.867   1.766   6.091 -0.2249  0.7274 -0.0789
 9287SOL    HW139497   2.841   1.820   6.165 -1.5231 -0.2036  0.1431
 9287SOL    HW239498   2.959   1.767   6.116 -0.8058  1.1288  2.0251
 9288SOL     OW39499   0.873   0.604   6.591  0.0173  0.5112  0.2108
 9288SOL    HW139500   0.866   0.518   6.550 -1.1117 -0.0338  1.5288
 9288SOL    HW239501   0.806   0.603   6.659 -1.6739  2.0982 -1.4107
 9289SOL     OW39502   4.433   2.297   5.048  0.1917  0.8609  0.1320
 9289SOL    HW139503   4.484   2.304   5.129  2.0237  0.2995 -0.9746
 9289SOL    HW239504   4.356   2.353   5.062  1.3851  2.7642 -0.8372
 9290SOL     OW39505   4.305   0.347   8.143  0.7115 -0.6707  0.2502
 9290SOL    HW139506   4.266   0.272   8.099 -0.1030 -0.2300  0.2248
 9290SOL    HW239507   4.230   0.388   8.186  0.9846  1.3876 -1.2156
 9291SOL     OW39508   2.465   3.997   8.776  0.3833  0.0934 -0.3197
 9291SOL    HW139509   2.428   4.075   8.817 -0.6336 -0.3844 -0.3358
 9291SOL    HW239510   2.525   3.964   8.842  0.9627  0.5354 -0.6253
 9292SOL     OW39511   2.141   1.125   9.202  0.0833 -0.2956 -0.0847
 9292SOL    HW139512   2.089   1.173   9.138  1.6768 -0.9378 -1.8921
 9292SOL    HW239513   2.227   1.167   9.191 -0.3757  0.5149 -0.5948
 9293SOL     OW39514   1.248   1.041   8.256  0.4120 -0.1883 -0.1914
 9293SOL    HW139515   1.304   0.964   8.250  2.7309  1.6618 -2.4642
 9293SOL    HW239516   1.227   1.045   8.349  1.4023 -0.7570  0.0509
 9294SOL     OW39517   3.540   4.088   4.874 -0.9681 -0.0562 -0.5020
 9294SOL    HW139518   3.555   4.034   4.797  1.6602 -0.0601 -0.0011
 9294SOL    HW239519   3.491   4.031   4.934 -1.4278  0.0084 -0.8212
 9295SOL     OW39520   0.761   3.834  12.383 -0.2397  0.2794 -0.2754
 9295SOL    HW139521   0.744   3.921  12.419  1.0622  1.2181 -1.9655
 9295SOL    HW239522   0.679   3.830  12.333 -1.7862 -1.1833  2.3730
 9296SOL     OW39523   4.541   0.844   2.529 -0.1790 -0.7925 -0.0337
 9296SOL    HW139524   4.541   0.890   2.445  0.9120  0.0511  0.4179
 9296SOL    HW239525   4.587   0.912   2.580  0.0708  0.4709 -1.9664
 9297SOL     OW39526   4.307   2.707  16.937 -0.4346 -0.2253  0.1019
 9297SOL    HW139527   4.221   2.681  16.971 -0.0087 -2.2526 -0.4090
 9297SOL    HW239528   4.343   2.620  16.952 -0.6067 -0.5526 -1.4549
 9298SOL     OW39529   3.440   2.483   8.821 -0.8529  0.1291 -0.0715
 9298SOL    HW139530   3.526   2.520   8.838 -1.3539  1.6098 -0.8237
 9298SOL    HW239531   3.447   2.410   8.883 -0.1332  0.7064  0.5309
 9299SOL     OW39532   1.457   1.133  15.171  0.0083  0.6329 -0.2839
 9299SOL    HW139533   1.509   1.078  15.229  3.0525  2.5471 -1.2048
 9299SOL    HW239534   1.456   1.084  15.089 -4.0737 -0.2059  0.2221
 9300SOL     OW39535   2.475   0.965   5.567 -0.6213  0.4891 -0.5252
 9300SOL    HW139536   2.559   0.921   5.582 -1.1261 -0.6502 -0.9774
 9300SOL    HW239537   2.474   0.994   5.476 -0.6554  0.8821 -0.3999
 9301SOL     OW39538   0.180   2.619   5.550 -0.5715 -0.6026 -0.7538
 9301SOL    HW139539   0.190   2.604   5.644  0.4553 -0.9018 -0.9158
 9301SOL    HW239540   0.129   2.700   5.551  0.7485  0.1963  0.7384
 9302SOL     OW39541   3.441   0.076   7.662 -0.2667 -0.5474  0.1851
 9302SOL    HW139542   3.520   0.039   7.624 -0.4694 -1.5156  0.7104
 9302SOL    HW239543   3.383   0.086   7.587  1.2328  1.7017 -0.6724
 9303SOL     OW39544   1.137   3.651   6.166  0.3452 -0.2493  0.1533
 9303SOL    HW139545   1.174   3.717   6.224 -1.3503  0.1652  0.7591
 9303SOL    HW239546   1.185   3.650   6.083 -2.0612 -1.3670 -1.2386
 9304SOL     OW39547   2.458   3.363   2.795  0.8346 -0.0312 -0.3560
 9304SOL    HW139548   2.432   3.435   2.738  3.8853  0.8751 -0.5554
 9304SOL    HW239549   2.370   3.336   2.823  1.0887 -0.1765  0.3030
 9305SOL     OW39550   1.784   0.838   9.951 -0.5028  0.0225 -0.0159
 9305SOL    HW139551   1.801   0.770  10.016 -1.4304 -1.6236 -1.5147
 9305SOL    HW239552   1.817   0.790   9.875 -0.9928  1.6966 -1.2830
 9306SOL     OW39553   0.542   4.538   6.198  0.2334 -0.2026 -0.3961
 9306SOL    HW139554   0.516   4.587   6.277  2.8255  0.2689  0.1612
 9306SOL    HW239555   0.615   4.487   6.233 -0.7089 -0.2435  1.5626
 9307SOL     OW39556   2.920   3.642   7.767  0.1876 -0.1236  0.7684
 9307SOL    HW139557   3.004   3.686   7.758  0.1225 -0.2701 -0.5488
 9307SOL    HW239558   2.869   3.702   7.712 -0.4432 -2.8589 -1.6374
 9308SOL     OW39559   4.580   2.078   6.936 -0.3403  0.7534  0.1845
 9308SOL    HW139560   4.578   2.078   7.032  0.2006  1.2827  0.1975
 9308SOL    HW239561   4.547   1.988   6.930  0.3965  0.5660 -1.0237
 9309SOL     OW39562   4.076   2.532  13.320  0.2041 -0.0588  0.1083
 9309SOL    HW139563   4.014   2.563  13.386  0.3320 -1.2365  0.7865
 9309SOL    HW239564   4.024   2.466  13.275  0.0163  0.7085 -0.7953
 9310SOL     OW39565   2.397   3.949   7.583 -0.4329 -0.5225  0.2052
 9310SOL    HW139566   2.356   4.019   7.634  2.0562 -0.7420  2.5268
 9310SOL    HW239567   2.464   3.995   7.533 -0.0533  0.1152  1.2916
 9311SOL     OW39568   2.395   2.092   4.389  0.1665 -0.4212  0.1074
 9311SOL    HW139569   2.366   2.009   4.353  0.7913  0.2636 -1.9611
 9311SOL    HW239570   2.466   2.115   4.328 -0.3127 -1.0259 -0.6693
 9312SOL     OW39571   0.185   0.110   8.920 -0.5139 -0.1324 -0.3975
 9312SOL    HW139572   0.181   0.192   8.969 -0.2179 -0.1262 -0.3817
 9312SOL    HW239573   0.270   0.111   8.876 -1.8804  1.6586 -3.0478
 9313SOL     OW39574   3.270   2.868   4.947  0.0221  0.1510 -0.5485
 9313SOL    HW139575   3.307   2.830   4.867 -0.3892  0.4589 -0.8768
 9313SOL    HW239576   3.194   2.914   4.913  0.9827  2.3293  0.2266
 9314SOL     OW39577   3.488   1.096   6.963  0.3925  0.0188 -0.0086
 9314SOL    HW139578   3.492   1.000   6.969 -2.1488 -0.0106  1.1543
 9314SOL    HW239579   3.583   1.103   6.977  0.4696  1.5425 -1.3933
 9315SOL     OW39580   2.139   1.244   6.053  0.0270 -0.1459  0.8208
 9315SOL    HW139581   2.075   1.192   6.005 -1.4144 -0.3237  2.9829
 9315SOL    HW239582   2.082   1.271   6.124  1.0947  0.3581  1.4930
 9316SOL     OW39583   0.781   4.453   9.363  0.0433 -0.0610  0.3375
 9316SOL    HW139584   0.816   4.542   9.369 -0.0041 -0.0872  0.9315
 9316SOL    HW239585   0.801   4.442   9.270  0.6167  0.7407  0.3692
 9317SOL     OW39586   0.294   0.476   4.885 -0.2889  0.0771 -0.0601
 9317SOL    HW139587   0.244   0.558   4.886 -0.5806 -0.1030  0.4264
 9317SOL    HW239588   0.281   0.444   4.796  0.7804  0.8619 -0.5000
 9318SOL     OW39589   1.007   1.069   4.238  0.1004 -1.1245 -0.7378
 9318SOL    HW139590   0.974   1.031   4.319  0.2773  0.3637  0.0453
 9318SOL    HW239591   0.969   1.006   4.177 -0.3494 -0.0826 -1.5239
 9319SOL     OW39592   1.104   4.014   6.903 -0.3290  0.6019  0.5789
 9319SOL    HW139593   1.018   4.012   6.861 -0.5939  0.1793  1.1411
 9319SOL    HW239594   1.150   3.947   6.854  2.0437  0.5382  2.8318
 9320SOL     OW39595   0.963   2.048  15.068  0.2114 -0.0669  0.6108
 9320SOL    HW139596   1.023   2.063  14.995 -1.5933 -2.1541 -1.3123
 9320SOL    HW239597   1.010   1.984  15.123  1.3248 -1.3069 -1.7982
 9321SOL     OW39598   2.546   1.177   2.022 -0.1947 -0.0349  0.4072
 9321SOL    HW139599   2.595   1.163   1.941 -0.2584 -1.4988  0.6188
 9321SOL    HW239600   2.531   1.083   2.034 -0.4864 -0.0095  0.2393
 9322SOL     OW39601   0.571   4.259   2.244 -0.2560  0.0194  0.2069
 9322SOL    HW139602   0.612   4.223   2.165  0.9101  1.1954  0.2653
 9322SOL    HW239603   0.626   4.334   2.268  0.1132  0.3442 -1.6762
 9323SOL     OW39604   4.295   0.846   6.000  0.1912 -0.0202  0.2098
 9323SOL    HW139605   4.230   0.777   5.989  0.3244 -0.1876  0.4875
 9323SOL    HW239606   4.242   0.916   6.037 -0.4583 -0.2985 -0.1860
 9324SOL     OW39607   1.971   3.157   3.265  0.2589  0.0262  0.2990
 9324SOL    HW139608   1.974   3.131   3.357 -3.7402  0.2812  0.5021
 9324SOL    HW239609   2.042   3.102   3.230  2.2466  1.5001  1.9947
 9325SOL     OW39610   4.645   0.089   8.990 -0.3039 -0.3164  0.3574
 9325SOL    HW139611   4.715   0.054   8.934 -1.5395  0.4226 -1.6462
 9325SOL    HW239612   4.703   0.129   9.056 -0.1798 -1.1414  0.7498
 9326SOL     OW39613   1.442   3.557  11.609 -0.3096 -0.3211 -0.1431
 9326SOL    HW139614   1.456   3.594  11.696 -0.9237 -0.9012  0.1997
 9326SOL    HW239615   1.509   3.489  11.610  0.4820  0.4577  0.4676
 9327SOL     OW39616   4.581   0.804   7.720  0.1715 -0.0457 -0.2676
 9327SOL    HW139617   4.646   0.831   7.785 -2.4543  0.0392  2.3349
 9327SOL    HW239618   4.507   0.853   7.757  1.2362 -0.1801  2.0371
 9328SOL     OW39619   4.196   3.659   4.916  0.3241  0.0711 -0.4924
 9328SOL    HW139620   4.145   3.696   4.987  2.8416  1.5484  0.5243
 9328SOL    HW239621   4.130   3.656   4.847 -0.7568  1.9440  0.4674
 9329SOL     OW39622   0.342   0.876   4.386 -0.4381  0.1373 -0.1666
 9329SOL    HW139623   0.367   0.943   4.322 -1.4755 -0.1134 -0.8374
 9329SOL    HW239624   0.279   0.834   4.327  1.9470 -1.9392 -1.2419
 9330SOL     OW39625   3.624   1.543  10.020  0.2226 -0.1008 -0.5364
 9330SOL    HW139626   3.638   1.638  10.019  3.6302 -0.5781  0.7990
 9330SOL    HW239627   3.529   1.537  10.013  0.2647  1.2208 -2.1818
 9331SOL     OW39628   2.572   1.171   1.613  0.1411 -0.3080  0.3479
 9331SOL    HW139629   2.603   1.169   1.523 -0.9083 -0.6671  0.0088
 9331SOL    HW239630   2.512   1.097   1.613  0.2139 -0.3650 -0.0215
 9332SOL     OW39631   1.707   2.033  13.464 -0.1939  0.4801 -0.1972
 9332SOL    HW139632   1.664   1.952  13.490 -1.4586  2.4047  3.7134
 9332SOL    HW239633   1.683   2.038  13.372 -0.0314 -2.2451 -0.3853
 9333SOL     OW39634   2.623   1.244  14.435  0.7988 -0.1002  0.0995
 9333SOL    HW139635   2.548   1.204  14.391 -1.5279  1.7542  2.3830
 9333SOL    HW239636   2.687   1.234  14.365  0.0507 -0.0122 -0.5922
 9334SOL     OW39637   0.757   2.156  17.108 -0.4711 -0.2956  0.0097
 9334SOL    HW139638   0.720   2.241  17.084 -0.3937 -0.6960 -1.4927
 9334SOL    HW239639   0.792   2.114  17.029 -0.2842  1.0862 -0.6399
 9335SOL     OW39640   2.781   2.717   9.518 -0.2882  0.4278 -0.3531
 9335SOL    HW139641   2.861   2.769   9.511  0.2981 -0.3242  0.6596
 9335SOL    HW239642   2.758   2.701   9.427 -1.4959 -2.9362  0.5203
 9336SOL     OW39643   2.865   1.502   8.348 -0.0193  0.5323 -0.4490
 9336SOL    HW139644   2.837   1.412   8.368  1.3535 -0.1114 -1.4218
 9336SOL    HW239645   2.950   1.511   8.391 -0.2540  1.6723 -0.2410
 9337SOL     OW39646   4.249   3.424   4.174 -0.2154 -0.5852 -0.2869
 9337SOL    HW139647   4.340   3.398   4.163 -0.3237 -0.2092 -2.1300
 9337SOL    HW239648   4.234   3.353   4.236 -0.9320 -0.3589 -0.2096
 9338SOL     OW39649   1.071   0.518   6.267  0.4239  0.0612 -0.3583
 9338SOL    HW139650   1.143   0.456   6.259  0.2817 -0.2095  0.5136
 9338SOL    HW239651   1.064   0.534   6.361 -1.5931  1.5539 -0.7463
 9339SOL     OW39652   0.309   2.477   3.556 -0.2391 -0.1327 -0.3886
 9339SOL    HW139653   0.364   2.439   3.624  0.7477  1.2951 -0.3783
 9339SOL    HW239654   0.308   2.404   3.495 -1.3818 -1.2587  0.9721
 9340SOL     OW39655   4.183   2.593   5.748 -0.1586  0.1747 -0.4189
 9340SOL    HW139656   4.185   2.662   5.814  0.9209 -0.1246 -0.1463
 9340SOL    HW239657   4.256   2.538   5.774 -0.3498  0.8623  1.5527
 9341SOL     OW39658   2.563   3.126   3.724 -0.1296  0.3413 -0.0897
 9341SOL    HW139659   2.643   3.073   3.718  0.4874  1.3641 -0.7759
 9341SOL    HW239660   2.555   3.139   3.819  0.8382  1.4872 -0.1804
 9342SOL     OW39661   2.690   4.642   2.998  0.0384  0.2041 -0.3790
 9342SOL    HW139662   2.686   4.673   3.089 -1.5921 -2.5996  0.5202
 9342SOL    HW239663   2.599   4.614   2.990 -0.1938  1.0734 -0.7073
 9343SOL     OW39664   1.007   4.701   2.158 -0.4073 -0.0304 -0.1628
 9343SOL    HW139665   0.912   4.701   2.170 -0.2612 -1.0761  1.0416
 9343SOL    HW239666   1.032   0.023   2.229  1.1539 -1.3756  0.4359
 9344SOL     OW39667   4.247   3.063   5.334  0.2272  0.5726 -0.5798
 9344SOL    HW139668   4.192   3.126   5.288  1.1742  1.8977  0.1013
 9344SOL    HW239669   4.183   2.993   5.345 -0.1487  0.8689 -0.8862
 9345SOL     OW39670   1.835   1.041   7.023 -0.7512 -0.1135 -0.1822
 9345SOL    HW139671   1.900   1.079   6.964  1.1682  0.1334  2.0994
 9345SOL    HW239672   1.799   1.127   7.046 -0.8136 -0.4202  0.8541
 9346SOL     OW39673   2.421   0.552   3.810  0.9728 -0.1454  0.0330
 9346SOL    HW139674   2.500   0.605   3.806  1.5416 -0.8596  2.0019
 9346SOL    HW239675   2.400   0.564   3.902  0.6497 -1.4276  0.1197
 9347SOL     OW39676   2.629   2.958   0.013  0.4026  0.1653 -0.0424
 9347SOL    HW139677   2.621   3.031  17.701 -0.7685  0.5160  0.5144
 9347SOL    HW239678   2.549   2.908  17.749  0.0941 -0.0646  2.5545
 9348SOL     OW39679   1.458   4.418   4.116 -0.0306 -0.3823  0.2117
 9348SOL    HW139680   1.502   4.341   4.152 -2.2463 -1.9981 -0.5179
 9348SOL    HW239681   1.472   4.485   4.183 -1.3901 -1.7192  1.8139
 9349SOL     OW39682   2.481   1.862   5.076 -0.3773  0.0087 -0.0148
 9349SOL    HW139683   2.434   1.790   5.033  0.2523 -0.4601  0.0851
 9349SOL    HW239684   2.437   1.938   5.038  3.2746  0.6751 -2.8923
 9350SOL     OW39685   1.858   3.798   6.356  0.0467  0.1182 -0.4796
 9350SOL    HW139686   1.810   3.716   6.367 -2.5084  1.9964  2.3236
 9350SOL    HW239687   1.945   3.772   6.386 -0.9195 -1.1099  1.2633
 9351SOL     OW39688   2.296   0.310  15.907  0.0620  0.6527  0.1037
 9351SOL    HW139689   2.272   0.331  15.998  0.7144  1.2962  0.1195
 9351SOL    HW239690   2.210   0.274  15.884 -0.1330  1.0484  0.2046
 9352SOL     OW39691   0.412   0.134   5.122  0.0216 -0.1370  0.1140
 9352SOL    HW139692   0.424   0.156   5.214  0.3881 -0.1130  0.0596
 9352SOL    HW239693   0.325   0.169   5.102  0.4065  1.0671  0.5457
 9353SOL     OW39694   2.080   1.931   3.431 -0.4915  0.1752  0.0173
 9353SOL    HW139695   2.100   1.957   3.341  0.2369  4.4973  1.4284
 9353SOL    HW239696   1.990   1.961   3.441  0.1386  1.1649  2.8874
 9354SOL     OW39697   1.595   0.613   9.582 -0.2330 -0.0619 -0.1297
 9354SOL    HW139698   1.565   0.650   9.665  2.7305  2.1031 -0.0218
 9354SOL    HW239699   1.568   0.670   9.510 -0.3007  1.8418  1.4311
 9355SOL     OW39700   2.337   1.958   7.024 -0.1558 -0.2585  0.4518
 9355SOL    HW139701   2.311   2.047   6.997 -0.4817 -0.6191 -0.4347
 9355SOL    HW239702   2.274   1.925   7.088 -3.0709  1.6893 -1.3657
 9356SOL     OW39703   2.508   0.117   2.452  0.4284  0.0001  0.0095
 9356SOL    HW139704   2.569   0.059   2.497  0.9050  0.0704 -0.5460
 9356SOL    HW239705   2.475   0.058   2.384 -3.7108 -2.1352  3.8166
 9357SOL     OW39706   3.872   3.184   6.455 -0.4040 -0.1835 -0.3577
 9357SOL    HW139707   3.802   3.204   6.517  1.0502  1.4355  0.7755
 9357SOL    HW239708   3.930   3.121   6.497  0.6303 -0.3638 -2.0267
 9358SOL     OW39709   3.861   2.052   3.493 -0.0002  0.3806 -0.4749
 9358SOL    HW139710   3.935   2.100   3.530 -0.3150  0.2484  0.3349
 9358SOL    HW239711   3.867   2.072   3.400  0.6298  0.3127 -0.4501
 9359SOL     OW39712   0.495   2.861   6.362 -0.3632 -0.1526 -0.4126
 9359SOL    HW139713   0.546   2.903   6.431 -1.8879  2.2579 -0.7481
 9359SOL    HW239714   0.407   2.898   6.372 -0.9896 -1.8033  0.2398
 9360SOL     OW39715   1.320   3.795  16.138  0.3382  0.1874 -0.1660
 9360SOL    HW139716   1.409   3.828  16.124 -0.3139  1.3568 -1.5383
 9360SOL    HW239717   1.343   3.722  16.195  4.6624 -0.4195 -2.6617
 9361SOL     OW39718   2.031   0.996   9.789  0.6915 -0.4650  1.0874
 9361SOL    HW139719   2.036   1.087   9.761 -1.5303 -0.7955 -0.4345
 9361SOL    HW239720   1.961   1.005   9.854  0.0336  0.6289  0.2183
 9362SOL     OW39721   2.516   1.641   6.216 -0.1475 -0.0867 -0.3990
 9362SOL    HW139722   2.490   1.682   6.133 -0.5007 -1.7678 -1.1202
 9362SOL    HW239723   2.522   1.717   6.273 -1.8248  0.3593 -0.8344
 9363SOL     OW39724   2.641   4.118   2.576 -0.5531 -0.1479 -0.0176
 9363SOL    HW139725   2.613   4.198   2.621  0.3632 -0.4122  1.0130
 9363SOL    HW239726   2.635   4.126   2.481 -0.4662 -0.1249 -0.0211
 9364SOL     OW39727   0.835   0.380   4.553  0.3606 -0.0004 -0.4948
 9364SOL    HW139728   0.759   0.338   4.593 -0.0357  1.4196  0.2497
 9364SOL    HW239729   0.881   0.404   4.632  0.8450 -2.9419  0.1181
 9365SOL     OW39730   0.277   4.675   4.912  0.1265  0.2678 -0.0021
 9365SOL    HW139731   0.339   0.004   4.884 -1.9483  0.6032 -3.7869
 9365SOL    HW239732   0.255   4.697   5.002 -2.4443 -0.7756 -0.3974
 9366SOL     OW39733   0.593   3.864   7.997 -0.4298 -0.4973  0.5421
 9366SOL    HW139734   0.668   3.913   7.964  0.1192 -0.1186  2.3643
 9366SOL    HW239735   0.612   3.827   8.083 -2.2431 -0.1220  1.0997
 9367SOL     OW39736   1.366   1.001   5.885 -0.5693 -0.6517  0.0191
 9367SOL    HW139737   1.386   1.056   5.809  2.2870 -0.0626  1.2273
 9367SOL    HW239738   1.314   0.927   5.852  0.0625 -0.7272 -0.8093
 9368SOL     OW39739   2.122   4.032   6.555  0.5030  0.2794  0.1516
 9368SOL    HW139740   2.036   4.062   6.581  0.0330 -0.2593 -0.7788
 9368SOL    HW239741   2.172   4.114   6.553 -0.1294  0.6214 -1.6795
 9369SOL     OW39742   4.393   2.923  17.089  0.8419 -0.3351  0.2713
 9369SOL    HW139743   4.366   2.846  17.040  0.6587 -0.6246  0.8284
 9369SOL    HW239744   4.454   2.971  17.033  0.8970  0.1877  0.7831
 9370SOL     OW39745   0.675   3.992   3.558 -0.0045 -0.4565 -0.3052
 9370SOL    HW139746   0.669   4.072   3.611  1.9380 -1.4957  1.4835
 9370SOL    HW239747   0.770   3.999   3.555 -0.1296  0.8745 -0.9787
 9371SOL     OW39748   2.186   3.774  13.922  0.2524  0.7559  0.4438
 9371SOL    HW139749   2.155   3.692  13.884  3.0115 -0.4815  0.8493
 9371SOL    HW239750   2.277   3.774  13.893  0.1584 -2.2682  0.1369
 9372SOL     OW39751   1.844   1.222  12.444  0.2841 -0.2533 -0.0382
 9372SOL    HW139752   1.880   1.213  12.533  1.1763 -2.3110 -0.6112
 9372SOL    HW239753   1.875   1.306  12.411  0.0004  0.3408  1.2169
 9373SOL     OW39754   2.163   1.410   0.350 -0.0626 -0.2259  0.1017
 9373SOL    HW139755   2.163   1.448   0.262 -2.4902  1.3171  0.7690
 9373SOL    HW239756   2.076   1.430   0.384  0.4013 -0.2571  1.3323
 9374SOL     OW39757   3.887   2.271   5.198 -0.2493  0.3732 -0.4662
 9374SOL    HW139758   3.908   2.193   5.249  0.8303  1.6486  1.0120
 9374SOL    HW239759   3.810   2.233   5.156 -1.5415  0.8890  1.4306
 9375SOL     OW39760   3.609   3.857   6.681 -0.0615 -0.2612  0.6208
 9375SOL    HW139761   3.578   3.774   6.645 -0.8636  0.1938  0.2674
 9375SOL    HW239762   3.535   3.909   6.651 -0.3079 -0.1868  1.3562
 9376SOL     OW39763   3.981   0.458  16.183  0.3989  0.2811  0.0384
 9376SOL    HW139764   3.926   0.492  16.113  2.4540  2.2234 -0.6121
 9376SOL    HW239765   3.920   0.393  16.219 -1.2800 -0.6583 -4.5460
 9377SOL     OW39766   3.283   1.391   4.151  0.0921  0.5043  0.0479
 9377SOL    HW139767   3.372   1.367   4.177 -0.2698  1.0752  1.8221
 9377SOL    HW239768   3.229   1.373   4.228  0.2980  1.4879  0.4211
 9378SOL     OW39769   4.004   2.958   5.577  0.2017  0.2737 -0.4402
 9378SOL    HW139770   4.019   2.938   5.484  0.3159  0.6070 -0.4952
 9378SOL    HW239771   3.965   2.877   5.610  0.2176 -0.0359 -1.1663
 9379SOL     OW39772   0.978   3.233   2.196 -0.2164 -0.7817 -0.1195
 9379SOL    HW139773   0.939   3.147   2.182 -2.0885  0.2885 -1.4662
 9379SOL    HW239774   0.916   3.253   2.266 -0.3092  0.7265 -0.6276
 9380SOL     OW39775   2.084   3.758  13.025  0.1117 -0.3695  0.6624
 9380SOL    HW139776   2.165   3.790  12.987 -0.0461 -1.7915 -0.8552
 9380SOL    HW239777   2.100   3.760  13.119  1.6912 -1.9421  0.4285
 9381SOL     OW39778   1.753   0.402  10.762 -0.5399 -0.4677 -0.1349
 9381SOL    HW139779   1.747   0.376  10.854  0.4585  0.4321  0.1841
 9381SOL    HW239780   1.840   0.441  10.752 -1.1511  0.7201 -0.8800
 9382SOL     OW39781   4.267   3.807   6.061 -0.2076  0.3149  0.3727
 9382SOL    HW139782   4.342   3.799   6.003 -0.2755 -1.2788  0.5284
 9382SOL    HW239783   4.194   3.756   6.026 -0.0298 -1.0284  1.9837
 9383SOL     OW39784   3.412   2.927   6.702 -0.1082  0.0261  0.1581
 9383SOL    HW139785   3.418   2.974   6.785  0.6598 -0.9235  0.6518
 9383SOL    HW239786   3.503   2.933   6.672  0.4530  0.7713  2.0134
 9384SOL     OW39787   2.670   3.580   4.313 -0.0973 -0.6459 -0.5629
 9384SOL    HW139788   2.743   3.518   4.307  0.6060  0.1592 -0.2483
 9384SOL    HW239789   2.709   3.657   4.271 -0.0268 -1.0492 -1.2549
 9385SOL     OW39790   4.616   2.748  11.400 -0.5541  0.3698  0.3360
 9385SOL    HW139791   4.682   2.758  11.331  0.4715  2.2599  1.5722
 9385SOL    HW239792   4.537   2.731  11.349 -0.9323 -1.0157  1.3750
 9386SOL     OW39793   4.379   3.572   5.926 -0.3448 -0.6751 -0.0295
 9386SOL    HW139794   4.286   3.553   5.939 -0.4538  0.6637  1.1559
 9386SOL    HW239795   4.394   3.517   5.849  1.0674 -0.9381  0.4438
 9387SOL     OW39796   1.075   1.804  15.198 -0.4303  0.1795  0.9809
 9387SOL    HW139797   1.007   1.738  15.208 -3.0302  2.6522 -0.3518
 9387SOL    HW239798   1.136   1.786  15.270 -0.4227 -1.8120  0.4720
 9388SOL     OW39799   1.459   4.097  13.559 -0.1286 -0.3712  0.0520
 9388SOL    HW139800   1.413   4.051  13.629  0.6994  0.5103  1.1860
 9388SOL    HW239801   1.540   4.048  13.545  1.3727  1.5406  1.9169
 9389SOL     OW39802   0.780   3.532   2.373 -0.3699  0.4130  0.5276
 9389SOL    HW139803   0.790   3.580   2.455 -2.0748 -0.5741  1.3129
 9389SOL    HW239804   0.773   3.445   2.411  2.9861 -0.7700 -1.5367
 9390SOL     OW39805   3.601   4.564   4.596  0.0882 -1.0187  0.2311
 9390SOL    HW139806   3.618   4.470   4.608  0.7276 -1.1768 -1.8774
 9390SOL    HW239807   3.614   4.590   4.687 -0.7081 -1.0721  0.3545
 9391SOL     OW39808   2.876   0.571   8.741  0.2732  0.0654  0.8962
 9391SOL    HW139809   2.957   0.614   8.714 -0.4737  0.8520 -0.1194
 9391SOL    HW239810   2.886   0.476   8.747 -3.6062 -0.3684  0.4226
 9392SOL     OW39811   2.612   2.479  13.642  0.2831 -0.4406 -0.6185
 9392SOL    HW139812   2.536   2.525  13.677  0.4536 -0.5885 -0.0560
 9392SOL    HW239813   2.596   2.389  13.671  0.5552  0.0868  1.1787
 9393SOL     OW39814   3.556   0.517   3.346 -0.0523  0.8262  0.3118
 9393SOL    HW139815   3.634   0.541   3.296 -0.3083 -2.5027 -1.6506
 9393SOL    HW239816   3.488   0.515   3.279  0.6482 -0.6646 -0.3532
 9394SOL     OW39817   1.508   2.784   2.919 -0.1851  0.1418 -0.1033
 9394SOL    HW139818   1.428   2.760   2.966  0.1243 -3.8099 -1.5614
 9394SOL    HW239819   1.497   2.879   2.919 -1.7267 -0.0535 -1.7258
 9395SOL     OW39820   0.012   3.919   7.893  0.0467  0.8251  0.2461
 9395SOL    HW139821   0.080   3.964   7.943  2.1918 -2.3625  0.2318
 9395SOL    HW239822   0.035   3.836   7.936 -2.5178 -0.2947 -0.5274
 9396SOL     OW39823   1.819   3.665   0.094 -0.2461  0.0204 -0.1708
 9396SOL    HW139824   1.794   3.739   0.149 -0.4539 -1.5980  1.8962
 9396SOL    HW239825   1.904   3.693   0.060 -0.5518 -1.1559 -1.9088
 9397SOL     OW39826   2.432   2.990   0.283 -0.2365  0.1165 -0.0088
 9397SOL    HW139827   2.339   2.968   0.287  0.1286 -1.3125  0.8375
 9397SOL    HW239828   2.435   2.971   0.189 -2.4392  1.8449 -0.4332
 9398SOL     OW39829   4.679   1.696   7.059 -0.3521  0.1338  0.0704
 9398SOL    HW139830   0.033   1.712   7.080 -0.7807  0.0084  2.1070
 9398SOL    HW239831   4.632   1.687   7.142  1.3873 -0.6343  0.9830
 9399SOL     OW39832   4.624   3.228   7.421  0.2271 -0.3062  0.4422
 9399SOL    HW139833   4.555   3.289   7.444 -2.4686 -2.1904 -2.6187
 9399SOL    HW239834   4.602   3.150   7.472  2.0020 -1.4875 -0.5920
 9400SOL     OW39835   4.013   1.572   9.827 -0.1276  0.7670  0.0152
 9400SOL    HW139836   4.077   1.502   9.841 -1.9955 -0.9464  0.0094
 9400SOL    HW239837   4.050   1.649   9.869 -0.2393  0.5151  0.5705
 9401SOL     OW39838   0.175   0.318   8.584  0.0294 -0.1096  1.0940
 9401SOL    HW139839   0.236   0.392   8.581 -0.9620  0.6994  1.0241
 9401SOL    HW239840   0.119   0.353   8.652 -1.9630  1.0866 -1.1835
 9402SOL     OW39841   0.285   2.611   4.702  0.1425  0.0054 -0.1400
 9402SOL    HW139842   0.303   2.681   4.765  1.1288 -1.4370  1.1939
 9402SOL    HW239843   0.190   2.604   4.707  0.1130  0.4888  0.0057
 9403SOL     OW39844   0.605   1.747   0.806 -0.4992  0.3795 -0.3752
 9403SOL    HW139845   0.511   1.753   0.823 -0.6458  0.1239 -1.1159
 9403SOL    HW239846   0.618   1.824   0.751 -1.2932  1.1112  0.4563
 9404SOL     OW39847   1.292   3.535   8.662  0.3154  0.1459  0.1000
 9404SOL    HW139848   1.377   3.523   8.620  0.6307 -1.0275  1.0789
 9404SOL    HW239849   1.286   3.463   8.725  2.6390 -0.5346 -0.4569
 9405SOL     OW39850   0.200   2.613   5.812  0.2771  0.3365  0.0210
 9405SOL    HW139851   0.234   2.671   5.881 -1.6243 -0.2533  1.4595
 9405SOL    HW239852   0.251   2.537   5.838  0.8256  0.2979 -1.1874
 9406SOL     OW39853   2.592   3.716   5.094  0.6515  0.1899  0.7836
 9406SOL    HW139854   2.578   3.768   5.015  1.4831 -0.3125  0.3076
 9406SOL    HW239855   2.519   3.760   5.138  2.0992  1.8271  1.5614
 9407SOL     OW39856   1.963   0.650   3.163  0.4048  0.2054  0.0187
 9407SOL    HW139857   2.007   0.708   3.101 -0.6160 -0.9845 -1.8375
 9407SOL    HW239858   1.971   0.689   3.250  0.7636  1.5985 -0.6397
 9408SOL     OW39859   0.560   0.053   6.498  0.4688  0.4506 -0.1931
 9408SOL    HW139860   0.496   4.736   6.453 -0.5198 -0.0944  1.8894
 9408SOL    HW239861   0.508   0.132   6.515 -1.7969 -1.3597  1.3208
 9409SOL     OW39862   0.145   0.188   3.115  0.3711  0.0888 -0.3572
 9409SOL    HW139863   0.147   0.197   3.210 -0.7625  2.2954 -0.5424
 9409SOL    HW239864   0.138   0.093   3.107  3.3056 -0.2100  0.6953
 9410SOL     OW39865   0.217   0.361   6.842  0.4315 -0.4606  0.0446
 9410SOL    HW139866   0.303   0.401   6.852  1.4697 -1.6051 -4.4117
 9410SOL    HW239867   0.215   0.292   6.909  0.5195  0.9558  1.4915
 9411SOL     OW39868   1.872   4.314  16.145  0.8340 -0.1343  0.0133
 9411SOL    HW139869   1.915   4.265  16.215 -0.2593  1.4651  1.7960
 9411SOL    HW239870   1.854   4.400  16.182  2.5667 -0.2644  1.1690
 9412SOL     OW39871   0.902   3.466   8.667  0.4576  0.7713 -0.1049
 9412SOL    HW139872   0.865   3.531   8.727  0.7455  1.0883 -0.2653
 9412SOL    HW239873   0.938   3.400   8.725  0.2072 -0.7855 -1.7141
 9413SOL     OW39874   3.106   0.809   3.854  0.2515  0.1253  0.3048
 9413SOL    HW139875   3.178   0.778   3.799 -0.5968 -1.9530  0.3911
 9413SOL    HW239876   3.138   0.768   3.935  1.9949  2.4592  0.8102
 9414SOL     OW39877   1.218   2.470  14.603  0.5249  0.1687 -0.0407
 9414SOL    HW139878   1.293   2.524  14.629  0.4516  0.4856 -0.4742
 9414SOL    HW239879   1.217   2.481  14.507 -1.2962 -1.4624 -0.1924
 9415SOL     OW39880   2.910   2.012   0.550 -0.3639  1.1622 -0.0478
 9415SOL    HW139881   2.891   2.070   0.623  0.0504  1.9051 -0.5374
 9415SOL    HW239882   2.828   1.962   0.547  1.3656 -1.6663 -0.2180
 9416SOL     OW39883   1.311   1.509  10.030  0.2203  0.6396  0.2888
 9416SOL    HW139884   1.361   1.431  10.053  1.0114  0.9287 -0.4749
 9416SOL    HW239885   1.345   1.568  10.097  0.3417 -0.4414  1.1792
 9417SOL     OW39886   3.462   0.447   4.013 -0.8112  0.0515  0.5456
 9417SOL    HW139887   3.501   0.513   3.956  0.9103 -1.0099  0.5072
 9417SOL    HW239888   3.515   0.371   3.990 -1.2327  0.1575 -0.7687
 9418SOL     OW39889   1.477   3.449   2.617  0.7377 -0.0720 -0.0352
 9418SOL    HW139890   1.509   3.491   2.537 -0.0300 -0.0864 -0.3498
 9418SOL    HW239891   1.551   3.455   2.678 -0.4322 -1.6119  1.5312
 9419SOL     OW39892   1.679   2.121   3.734  0.1491  0.0842  0.2868
 9419SOL    HW139893   1.672   2.026   3.746 -2.3060  0.3019  0.4701
 9419SOL    HW239894   1.652   2.155   3.819  2.4667 -1.2451  1.5705
 9420SOL     OW39895   4.625   2.047   6.253 -0.4310 -0.3810  0.0811
 9420SOL    HW139896   4.629   1.967   6.200  2.7314  0.3444 -0.8215
 9420SOL    HW239897   4.716   2.075   6.245 -0.2502 -1.1190 -0.4887
 9421SOL     OW39898   4.203   2.487   9.471 -0.6122 -0.1371 -0.1988
 9421SOL    HW139899   4.299   2.491   9.473 -0.5598 -1.5816  0.2420
 9421SOL    HW239900   4.178   2.483   9.379 -0.1682 -3.1810 -0.1926
 9422SOL     OW39901   2.156   2.991  16.184  0.0989 -0.0050 -0.3638
 9422SOL    HW139902   2.086   3.036  16.230  1.0980  0.4604  0.7025
 9422SOL    HW239903   2.139   3.004  16.091  3.1349  2.0569 -0.6436
 9423SOL     OW39904   0.905   1.101  14.153  0.4005 -0.0977 -0.1971
 9423SOL    HW139905   0.833   1.078  14.094 -1.6890 -1.1383  2.7868
 9423SOL    HW239906   0.902   1.197  14.154 -1.9140 -0.1814 -0.2458
 9424SOL     OW39907   0.181   1.425  15.352  0.6510  0.2537 -0.0329
 9424SOL    HW139908   0.256   1.482  15.335  0.5389  0.2966 -0.3994
 9424SOL    HW239909   0.129   1.474  15.415  2.2729  0.3630  1.2208
 9425SOL     OW39910   1.002   1.636  10.605 -0.3075 -0.0582  0.0453
 9425SOL    HW139911   0.956   1.552  10.598 -2.6235  1.0365  2.6574
 9425SOL    HW239912   1.067   1.611  10.671 -1.4194 -2.5378  0.2146
 9426SOL     OW39913   0.561   4.228  16.182  0.1392  0.0097  0.1662
 9426SOL    HW139914   0.611   4.168  16.127 -1.3137 -1.2211  0.1880
 9426SOL    HW239915   0.478   4.182  16.171  0.0980  0.0230  0.4386
 9427SOL     OW39916   2.608   0.717   6.302  0.0358 -0.4691  0.4792
 9427SOL    HW139917   2.531   0.751   6.256  0.4022 -0.5282 -0.1776
 9427SOL    HW239918   2.645   0.795   6.343  0.1021 -1.0406  1.4827
 9428SOL     OW39919   2.385   0.808   6.171  0.5009  0.4303 -0.3777
 9428SOL    HW139920   2.362   0.901   6.168  1.1898  0.6945  2.6090
 9428SOL    HW239921   2.303   0.761   6.187  0.1602  1.2307  0.2236
 9429SOL     OW39922   4.633   1.935  13.078 -0.0591 -1.0326 -0.3182
 9429SOL    HW139923   4.684   1.858  13.053 -0.5909 -1.8707  1.2141
 9429SOL    HW239924   4.664   2.010  13.027  1.1398  0.1859  2.1806
 9430SOL     OW39925   1.921   2.800   8.815 -0.7374 -0.1271  0.0837
 9430SOL    HW139926   1.838   2.753   8.806  0.5338 -2.0331 -1.6318
 9430SOL    HW239927   1.964   2.784   8.731  1.6982  1.2422  1.0812
 9431SOL     OW39928   3.167   3.866  14.580 -0.1245  0.4403  0.6245
 9431SOL    HW139929   3.232   3.816  14.628 -1.3418  1.2657  3.1562
 9431SOL    HW239930   3.087   3.815  14.590 -0.3277  0.9230  1.4836
 9432SOL     OW39931   3.875   1.359   6.635 -0.3589  0.7023 -0.1703
 9432SOL    HW139932   3.900   1.310   6.714  0.1834  0.4289 -0.5122
 9432SOL    HW239933   3.782   1.374   6.655  0.6377  2.1915  3.3186
 9433SOL     OW39934   2.440   1.198   6.894 -0.1923 -0.7064 -0.3615
 9433SOL    HW139935   2.518   1.148   6.918 -0.7918 -2.0005 -1.0814
 9433SOL    HW239936   2.397   1.138   6.833  2.7392  0.6941 -3.7457
 9434SOL     OW39937   0.742   0.290   5.134 -0.3436  0.2888  0.0606
 9434SOL    HW139938   0.720   0.221   5.197 -2.8689  1.1100  0.0774
 9434SOL    HW239939   0.656   0.330   5.125 -0.3785 -0.1316 -1.4616
 9435SOL     OW39940   1.993   1.818   9.752 -0.0656 -0.0394 -0.1277
 9435SOL    HW139941   1.922   1.817   9.688 -0.6993 -1.5697  0.5941
 9435SOL    HW239942   2.061   1.876   9.718 -0.4772 -0.0750 -1.0134
 9436SOL     OW39943   1.209   2.873   2.540  0.4533  0.0456  0.2062
 9436SOL    HW139944   1.227   2.862   2.447  2.0411 -0.1437  0.5387
 9436SOL    HW239945   1.284   2.827   2.577  0.7132  0.4859  0.2283
 9437SOL     OW39946   3.422   4.265   8.482 -0.1835  0.0683 -0.0679
 9437SOL    HW139947   3.490   4.259   8.549  0.4094 -0.7692 -0.7517
 9437SOL    HW239948   3.482   4.236   8.413 -1.9132  0.2536 -1.6666
 9438SOL     OW39949   1.606   1.305   1.731  0.3981  0.1984 -0.4872
 9438SOL    HW139950   1.646   1.338   1.651 -0.5151 -1.1123 -1.4971
 9438SOL    HW239951   1.539   1.373   1.742 -0.4319 -0.6092 -0.5750
 9439SOL     OW39952   2.098   0.920   4.689  0.0341  0.5566  0.0575
 9439SOL    HW139953   2.142   0.838   4.712 -2.8967 -0.8353  0.6789
 9439SOL    HW239954   2.047   0.934   4.769 -0.5787  1.3862 -0.4734
 9440SOL     OW39955   4.392   4.545   7.138  0.2867  0.3311 -0.8812
 9440SOL    HW139956   4.318   4.581   7.186 -0.3278 -1.9496 -0.1126
 9440SOL    HW239957   4.431   4.492   7.207 -2.3508  0.1315  0.4430
 9441SOL     OW39958   0.623   1.543   2.567 -0.0153 -0.5022  0.6411
 9441SOL    HW139959   0.656   1.622   2.610 -1.2563 -0.1992  1.0137
 9441SOL    HW239960   0.554   1.575   2.509  2.9830  0.7780 -2.2739
 9442SOL     OW39961   0.634   1.456  14.454  0.5827  0.0186 -0.2385
 9442SOL    HW139962   0.624   1.546  14.424  1.2439  0.7109  1.6316
 9442SOL    HW239963   0.543   1.438  14.476 -0.5768  3.5776 -2.2284
 9443SOL     OW39964   2.996   3.456  13.093 -0.6929  0.3857  0.7755
 9443SOL    HW139965   2.903   3.440  13.113 -0.3029 -2.3378  0.3583
 9443SOL    HW239966   2.992   3.403  13.013  0.2866 -0.9829  1.6453
 9444SOL     OW39967   0.666   4.035  16.029  0.8099 -0.8046 -0.2974
 9444SOL    HW139968   0.739   3.981  16.001  0.9448 -1.5363  1.5193
 9444SOL    HW239969   0.591   3.978  16.010 -0.2702  0.4141  0.2787
 9445SOL     OW39970   2.693   3.569   2.885 -1.2755  0.0937  0.1503
 9445SOL    HW139971   2.656   3.494   2.837 -1.4383  0.2900 -0.0310
 9445SOL    HW239972   2.665   3.552   2.975 -1.8717 -0.3344 -0.1146
 9446SOL     OW39973   4.015   2.087   2.490 -0.1916  0.1420 -0.1851
 9446SOL    HW139974   4.092   2.033   2.510 -0.8021 -1.4609 -2.1287
 9446SOL    HW239975   4.023   2.152   2.559  0.5564  1.0459 -1.1099
 9447SOL     OW39976   4.655   3.987   8.516  0.0049 -0.2662  0.1886
 9447SOL    HW139977   4.730   3.963   8.571 -1.8293 -1.4930  2.1472
 9447SOL    HW239978   4.616   4.053   8.573 -0.5967  0.7689 -1.4166
 9448SOL     OW39979   4.212   3.003  16.878  0.3294 -0.1301 -0.8557
 9448SOL    HW139980   4.123   3.038  16.875  0.9698  1.5995  0.2500
 9448SOL    HW239981   4.239   3.032  16.965 -1.0319 -0.7739 -0.2233
 9449SOL     OW39982   2.019   4.262  17.411 -0.3106 -0.4098  0.1740
 9449SOL    HW139983   1.980   4.319  17.344  1.6317 -0.8321 -1.3060
 9449SOL    HW239984   2.106   4.247  17.375  1.0331 -0.8889  3.7128
 9450SOL     OW39985   4.405   2.776  16.573  0.2125  0.0484 -0.2378
 9450SOL    HW139986   4.497   2.778  16.599  0.4237 -2.6503 -0.7745
 9450SOL    HW239987   4.408   2.814  16.485  0.5422 -1.5155 -0.9158
 9451SOL     OW39988   3.700   4.720   3.519 -0.1374 -0.7220  0.0503
 9451SOL    HW139989   3.781   0.030   3.504 -0.0987  0.0066  2.6140
 9451SOL    HW239990   3.664   4.726   3.431 -0.2322 -0.4367  0.1108
 9452SOL     OW39991   3.605   3.673   8.295  0.3335 -0.0779  0.1704
 9452SOL    HW139992   3.559   3.656   8.213  3.1605  3.0141 -2.0122
 9452SOL    HW239993   3.682   3.710   8.254 -0.7333  3.3789  1.2809
 9453SOL     OW39994   3.709   1.958   6.755 -0.1752  0.0857  0.0767
 9453SOL    HW139995   3.629   1.915   6.786  1.0038 -1.6137  0.8241
 9453SOL    HW239996   3.682   2.050   6.750 -0.5021  0.0189  0.5689
 9454SOL     OW39997   2.106   2.463   2.278  0.5358  0.1212  0.1352
 9454SOL    HW139998   2.163   2.518   2.225 -0.4013  0.7170 -0.2606
 9454SOL    HW239999   2.140   2.374   2.280  0.5333  0.1244  0.4561
 9455SOL     OW40000   4.259   1.821   1.799  0.1438 -0.3900 -0.1255
 9455SOL    HW140001   4.206   1.762   1.745  1.3440 -1.6912  0.1520
 9455SOL    HW240002   4.220   1.793   1.882  3.5872 -2.5949  0.7121
 9456SOL     OW40003   1.738   1.902   5.812  0.8923 -0.6149 -1.1728
 9456SOL    HW140004   1.659   1.914   5.759 -0.3001  0.7763  0.9062
 9456SOL    HW240005   1.788   1.841   5.758  0.5631 -1.0638 -0.9747
 9457SOL     OW40006   0.387   0.461   3.389 -0.3250 -0.3568  0.0686
 9457SOL    HW140007   0.325   0.522   3.429 -1.0660 -2.3288  1.9713
 9457SOL    HW240008   0.406   0.403   3.463  1.2229 -1.9734 -1.5727
 9458SOL     OW40009   2.019   3.698   5.078  0.1255  0.7063  0.3920
 9458SOL    HW140010   1.969   3.764   5.030  0.2162  1.1265  0.8678
 9458SOL    HW240011   2.094   3.678   5.022 -1.8182 -0.5962 -1.7243
 9459SOL     OW40012   1.447   1.519   6.921 -0.3827 -0.4474 -0.3979
 9459SOL    HW140013   1.411   1.589   6.975  0.8695  0.1731 -0.3524
 9459SOL    HW240014   1.412   1.445   6.969  0.9770 -1.8882 -1.6149
 9460SOL     OW40015   0.472   3.711   8.388 -0.1912  0.2899  0.2674
 9460SOL    HW140016   0.391   3.662   8.394 -0.5923  0.8979 -0.2099
 9460SOL    HW240017   0.479   3.722   8.483  0.0514  1.9912  0.0610
 9461SOL     OW40018   2.550   0.582   6.047  0.0238 -0.7340 -0.0802
 9461SOL    HW140019   2.597   0.649   6.097  1.0427 -1.4694 -0.0606
 9461SOL    HW240020   2.505   0.525   6.110 -2.0539  1.0835  0.0957
 9462SOL     OW40021   1.967   3.831   1.676 -0.0469 -0.1727 -0.4534
 9462SOL    HW140022   2.028   3.842   1.749  1.3824 -1.7004 -1.4081
 9462SOL    HW240023   2.010   3.762   1.625  1.2655  1.1109 -1.0844
 9463SOL     OW40024   1.968   1.109  13.299 -0.0224  0.0559 -0.2552
 9463SOL    HW140025   2.003   1.030  13.340 -0.7703 -0.0644  0.1494
 9463SOL    HW240026   1.978   1.180  13.362 -2.0515 -0.7072  0.9238
 9464SOL     OW40027   2.961   4.481   9.393  0.3198  0.1212 -0.2815
 9464SOL    HW140028   2.957   4.555   9.454 -1.9481 -0.8463  0.7334
 9464SOL    HW240029   3.028   4.516   9.334  0.5834 -0.3105 -0.2307
 9465SOL     OW40030   2.601   4.399   1.236  0.0770  0.1056 -0.3367
 9465SOL    HW140031   2.651   4.328   1.276 -1.1128  0.8744  2.5740
 9465SOL    HW240032   2.536   4.402   1.306 -1.0122  1.5905 -1.3971
 9466SOL     OW40033   4.379   0.796   4.239  0.1502  0.2344  0.6289
 9466SOL    HW140034   4.416   0.740   4.170  0.7668 -0.6357  1.6615
 9466SOL    HW240035   4.319   0.846   4.184  1.3959 -1.0196 -1.8887
 9467SOL     OW40036   3.465   3.051   2.054 -0.5086 -0.2286  0.5872
 9467SOL    HW140037   3.560   3.042   2.065 -0.3048 -0.3222 -1.2415
 9467SOL    HW240038   3.439   3.048   2.146 -0.9642 -0.6193  0.4454
 9468SOL     OW40039   2.144   2.017   9.694  0.1514 -0.1781 -0.2921
 9468SOL    HW140040   2.213   2.033   9.758 -0.0251  3.7864 -1.0906
 9468SOL    HW240041   2.157   2.084   9.627  0.8610  0.8219  0.8568
 9469SOL     OW40042   3.732   3.520   3.340  0.3488  0.2682  0.0781
 9469SOL    HW140043   3.697   3.483   3.259 -2.7488  1.8729  0.6608
 9469SOL    HW240044   3.826   3.508   3.332  0.3813  1.6107 -1.5451
 9470SOL     OW40045   1.229   1.810   5.194  0.1741 -0.5091 -0.7890
 9470SOL    HW140046   1.167   1.883   5.188  1.7327  0.9124  0.3319
 9470SOL    HW240047   1.188   1.762   5.266  0.3645  1.9645  0.9629
 9471SOL     OW40048   1.526   1.245   8.959  0.3466  0.3996 -0.1307
 9471SOL    HW140049   1.555   1.166   9.004  0.0634 -0.2174 -1.0275
 9471SOL    HW240050   1.603   1.279   8.914  0.4805 -0.6098 -0.6783
 9472SOL     OW40051   0.381   1.887   7.871  0.1086 -0.1151 -0.0262
 9472SOL    HW140052   0.433   1.869   7.793  0.2183  0.6231 -0.1229
 9472SOL    HW240053   0.448   1.892   7.939  1.6033 -1.0273 -1.4323
 9473SOL     OW40054   1.794   2.048   6.745 -0.0737 -0.2744 -0.2943
 9473SOL    HW140055   1.870   2.100   6.771 -0.9645 -0.0097  1.7656
 9473SOL    HW240056   1.739   2.047   6.822  0.0333  0.4541 -0.2100
 9474SOL     OW40057   0.548   1.280   3.030 -0.0881  0.1650  0.1644
 9474SOL    HW140058   0.596   1.334   2.968  0.3733 -1.1005 -0.5922
 9474SOL    HW240059   0.556   1.195   2.986 -1.0281 -0.0834  0.4852
 9475SOL     OW40060   1.434   1.197  11.848 -0.2435  0.0945  0.3384
 9475SOL    HW140061   1.428   1.101  11.843 -1.7233  0.1720  0.5463
 9475SOL    HW240062   1.467   1.221  11.934 -2.6011  1.8291  0.7600
 9476SOL     OW40063   4.559   1.525  14.431  0.0463 -0.1830  0.7016
 9476SOL    HW140064   4.543   1.453  14.370 -1.7004  0.7830  0.0198
 9476SOL    HW240065   4.517   1.599  14.386 -1.1468 -1.1674  0.2194
 9477SOL     OW40066   3.615   1.878  13.438 -0.4008  0.1194  0.0956
 9477SOL    HW140067   3.580   1.959  13.476 -1.0263  0.5217 -1.3710
 9477SOL    HW240068   3.623   1.824  13.517 -1.0989 -0.3207 -0.1371
 9478SOL     OW40069   1.628   3.226   4.599 -0.1955  0.0529 -0.0176
 9478SOL    HW140070   1.694   3.293   4.582 -1.0563  0.7987 -0.4001
 9478SOL    HW240071   1.553   3.259   4.550 -2.1902 -1.2522  2.1730
 9479SOL     OW40072   0.023   3.717   6.251 -0.1892 -0.4153  0.2962
 9479SOL    HW140073   4.692   3.654   6.232  0.2857 -1.0963  0.7918
 9479SOL    HW240074   0.040   3.753   6.164 -1.1406  0.4650  0.4840
 9480SOL     OW40075   3.097   1.908  12.183  0.3245  1.0809  0.0997
 9480SOL    HW140076   3.028   1.968  12.210  0.3560 -0.2782  3.2733
 9480SOL    HW240077   3.050   1.825  12.170  2.7904 -0.4962  1.1992
 9481SOL     OW40078   1.667   1.904   5.106  0.1766 -0.3202  0.6794
 9481SOL    HW140079   1.749   1.927   5.148  0.8421 -0.1128 -0.7242
 9481SOL    HW240080   1.637   1.995   5.097  0.2385 -0.1581  2.0842
 9482SOL     OW40081   0.155   1.305   6.076 -0.3779  0.5191  0.1750
 9482SOL    HW140082   0.230   1.349   6.035 -2.0062  1.0196 -2.2554
 9482SOL    HW240083   0.190   1.305   6.165 -0.4319 -2.7563  0.1910
 9483SOL     OW40084   2.990   4.093   1.063  0.0805  0.0381 -0.1218
 9483SOL    HW140085   3.013   4.152   1.134 -0.1309  1.7867 -1.5030
 9483SOL    HW240086   3.072   4.044   1.051 -1.6440 -3.1117  0.7913
 9484SOL     OW40087   1.909   0.435   5.466 -0.3050 -0.4169  0.4057
 9484SOL    HW140088   1.875   0.367   5.408  0.7177 -0.6336  0.0527
 9484SOL    HW240089   1.828   0.481   5.487 -0.1119  0.0253  0.1696
 9485SOL     OW40090   2.287   4.051   5.292  0.5958 -0.0612  0.1680
 9485SOL    HW140091   2.211   4.069   5.237  1.0092 -1.1511 -0.7438
 9485SOL    HW240092   2.240   4.040   5.375  1.5275  0.9000  0.8270
 9486SOL     OW40093   0.514   2.891   0.992  0.1562  0.3874  0.1349
 9486SOL    HW140094   0.529   2.797   0.994  0.5186  0.4916  3.0103
 9486SOL    HW240095   0.603   2.923   1.006  0.4646  0.7892 -2.7223
 9487SOL     OW40096   1.660   0.818  17.670 -0.1397  0.7631 -0.0956
 9487SOL    HW140097   1.648   0.725  17.689  1.9081  0.5403  0.1321
 9487SOL    HW240098   1.593   0.850  17.610 -0.2578  1.3895  0.3712
 9488SOL     OW40099   0.253   0.878   8.311  0.5749 -0.2436 -0.0534
 9488SOL    HW140100   0.249   0.851   8.219  0.2510 -0.6039  0.0673
 9488SOL    HW240101   0.196   0.821   8.363 -0.4586 -0.5014 -1.4622
 9489SOL     OW40102   3.268   1.635   9.246 -0.3812 -0.1387 -0.6969
 9489SOL    HW140103   3.270   1.713   9.302  1.1071 -0.0670 -0.8396
 9489SOL    HW240104   3.183   1.599   9.271 -0.8681 -0.4241 -2.7841
 9490SOL     OW40105   0.252   1.939  17.500 -0.3276 -0.3878 -0.3717
 9490SOL    HW140106   0.246   1.951  17.595 -1.6332  0.2555 -0.5231
 9490SOL    HW240107   0.296   1.856  17.488  0.0896 -0.8281  3.9600
 9491SOL     OW40108   4.407   2.756   1.412 -0.3337 -0.6768 -0.0840
 9491SOL    HW140109   4.332   2.785   1.464  0.4809  1.1007  0.1051
 9491SOL    HW240110   4.372   2.765   1.323  1.7591  1.2456 -0.7030
 9492SOL     OW40111   1.391   2.558   1.544 -0.0362 -0.2796 -0.3317
 9492SOL    HW140112   1.399   2.511   1.627 -0.9512 -0.5299 -0.3812
 9492SOL    HW240113   1.463   2.620   1.541 -1.2306  1.1645  0.8999
 9493SOL     OW40114   3.290   0.453   7.579 -0.0165 -0.4290  0.0634
 9493SOL    HW140115   3.336   0.524   7.623  1.5154 -1.0959 -0.4849
 9493SOL    HW240116   3.216   0.448   7.640 -0.3434  2.4559 -0.1079
 9494SOL     OW40117   1.552   0.386   7.836  0.1945 -0.1415  0.0757
 9494SOL    HW140118   1.631   0.381   7.889  0.2086 -1.6167 -0.0871
 9494SOL    HW240119   1.551   0.298   7.798  0.1463  0.2400 -0.8240
 9495SOL     OW40120   3.043   0.496   2.882  0.1265  0.2454 -0.3326
 9495SOL    HW140121   2.951   0.478   2.861  0.5904 -1.0542 -1.2830
 9495SOL    HW240122   3.077   0.409   2.904  1.4981  0.7632 -0.4568
 9496SOL     OW40123   2.226   0.106   7.589 -0.0956  0.0412  0.8097
 9496SOL    HW140124   2.279   0.061   7.523 -0.0913  0.2906  0.6450
 9496SOL    HW240125   2.150   0.130   7.537 -0.0998  2.1497  1.7766
 9497SOL     OW40126   2.646   4.732   1.632 -0.3940 -0.5710 -0.3635
 9497SOL    HW140127   2.588   4.686   1.572 -0.5328  0.7149 -1.2087
 9497SOL    HW240128   2.683   0.059   1.573  0.0828 -0.7452 -0.2531
 9498SOL     OW40129   1.472   0.241  13.336 -0.2658 -0.5565  0.1624
 9498SOL    HW140130   1.391   0.292  13.330  0.4548  0.4282 -1.2304
 9498SOL    HW240131   1.474   0.227  13.431 -0.7301  2.7241  0.6637
 9499SOL     OW40132   4.716   2.894   6.363 -0.0578  0.3698  0.2137
 9499SOL    HW140133   0.053   2.891   6.423 -1.8466  1.7930  2.5291
 9499SOL    HW240134   0.001   2.968   6.308  1.4884 -2.7666 -3.3495
 9500SOL     OW40135   0.482   0.717   6.285 -0.9206 -0.1273 -0.6995
 9500SOL    HW140136   0.507   0.723   6.193  0.2092 -0.5648 -0.4261
 9500SOL    HW240137   0.502   0.806   6.313 -3.2910  0.6879 -1.6164
 9501SOL     OW40138   0.304   2.496  16.724  0.4608 -0.1404 -0.0677
 9501SOL    HW140139   0.343   2.584  16.719  0.3721 -0.1378 -0.6563
 9501SOL    HW240140   0.361   2.473  16.798 -0.2838  2.0883  1.2309
 9502SOL     OW40141   1.872   3.064   5.107  0.1407 -0.3805  0.6364
 9502SOL    HW140142   1.831   3.129   5.049  0.8257 -1.8091 -1.4273
 9502SOL    HW240143   1.895   2.996   5.044 -1.7806 -1.2671  0.9044
 9503SOL     OW40144   3.474   0.531  15.994  0.2787 -0.1651  0.4800
 9503SOL    HW140145   3.390   0.578  15.997  1.1907  1.3922  1.6689
 9503SOL    HW240146   3.484   0.515  15.900 -1.4414 -1.9941  0.6205
 9504SOL     OW40147   2.889   1.164  12.726 -0.0218  0.4225 -0.0888
 9504SOL    HW140148   2.955   1.177  12.794 -1.5887  0.3737  1.4546
 9504SOL    HW240149   2.812   1.213  12.757 -1.4795 -3.1325  1.9502
 9505SOL     OW40150   1.722   0.972   0.736 -0.0994 -0.3738  0.3911
 9505SOL    HW140151   1.722   1.034   0.663  0.8887 -0.3632  0.3920
 9505SOL    HW240152   1.805   0.978   0.784  0.0180  0.2402  0.1067
 9506SOL     OW40153   4.222   4.198   5.334  0.2269 -0.5823 -0.2115
 9506SOL    HW140154   4.288   4.135   5.303  0.9232  0.3048 -0.5487
 9506SOL    HW240155   4.148   4.148   5.300  1.0907 -1.6678 -0.5151
 9507SOL     OW40156   3.960   0.004  17.420 -0.6364  0.4603 -0.2594
 9507SOL    HW140157   3.996   0.004  17.509  1.1326  1.2966 -0.9890
 9507SOL    HW240158   3.879   4.693  17.433 -1.1471  1.5449  0.7473
 9508SOL     OW40159   1.572   1.959  11.688 -0.0134  0.5477 -0.4002
 9508SOL    HW140160   1.506   1.946  11.756  1.7395  1.2064  1.4313
 9508SOL    HW240161   1.660   1.953  11.726  0.4829  0.2635 -1.5866
 9509SOL     OW40162   3.877   4.653   8.589  0.1172  0.2976  0.1238
 9509SOL    HW140163   3.825   4.730   8.611 -0.7163  0.0696 -1.0465
 9509SOL    HW240164   3.800   4.605   8.560 -0.5368  0.0519  2.2479
 9510SOL     OW40165   0.724   4.173   6.450  0.0580 -0.6611  0.1270
 9510SOL    HW140166   0.739   4.127   6.367  0.1349 -0.9950  0.3275
 9510SOL    HW240167   0.675   4.105   6.495  0.5548 -2.4768 -2.0507
 9511SOL     OW40168   4.399   1.543   2.968 -0.6800  0.4026 -0.2771
 9511SOL    HW140169   4.383   1.492   3.048 -0.5466  0.1601 -0.4065
 9511SOL    HW240170   4.379   1.629   3.006 -3.0321 -0.4964  0.5065
 9512SOL     OW40171   1.714   0.573   3.088 -0.5213 -0.0256  0.7642
 9512SOL    HW140172   1.761   0.539   3.012 -2.4679  2.2773 -1.4674
 9512SOL    HW240173   1.792   0.602   3.135 -0.1995 -1.4681  1.1436
 9513SOL     OW40174   4.112   0.063   2.278 -0.0724 -0.3450 -0.1799
 9513SOL    HW140175   4.109   0.109   2.194  0.2217 -1.1266 -0.6229
 9513SOL    HW240176   4.189   0.008   2.261  1.0357  0.6458  1.7120
 9514SOL     OW40177   2.095   0.777   0.337  0.6198 -0.1306 -0.4452
 9514SOL    HW140178   2.078   0.869   0.359  0.8802 -0.5421  1.5189
 9514SOL    HW240179   2.008   0.737   0.328 -0.1988  1.3951  0.6440
 9515SOL     OW40180   4.124   3.343   8.221 -0.6668 -0.1150  0.2204
 9515SOL    HW140181   4.067   3.356   8.145 -2.0829 -1.8788  0.9679
 9515SOL    HW240182   4.128   3.250   8.200  0.0599  0.6255 -2.8905
 9516SOL     OW40183   0.289   1.490   7.336 -0.1814 -0.2214 -0.2633
 9516SOL    HW140184   0.308   1.555   7.403 -0.1277  1.1404 -1.6115
 9516SOL    HW240185   0.200   1.517   7.316 -0.4154 -1.1871 -0.5226
 9517SOL     OW40186   4.121   3.477   7.504 -0.0539 -0.1770 -0.4293
 9517SOL    HW140187   4.147   3.453   7.593  0.5516 -0.9761 -0.8172
 9517SOL    HW240188   4.074   3.399   7.474 -1.3166  0.5328 -0.2953
 9518SOL     OW40189   1.804   4.421   8.485  0.5716 -0.3653  0.1294
 9518SOL    HW140190   1.775   4.420   8.394 -0.3239 -1.9225  0.4387
 9518SOL    HW240191   1.733   4.463   8.532 -0.1404  0.1427 -1.4199
 9519SOL     OW40192   1.811   1.607  14.519 -0.0711 -0.0705  0.3082
 9519SOL    HW140193   1.740   1.587  14.458  0.1846 -3.2420  1.0477
 9519SOL    HW240194   1.850   1.686  14.481  3.4963 -0.9105  2.2534
 9520SOL     OW40195   4.166   1.903  17.633  0.9170 -0.0147 -0.3445
 9520SOL    HW140196   4.184   1.852  17.554  0.3448  0.8764 -1.0565
 9520SOL    HW240197   4.098   1.964  17.605 -0.7247 -1.5933  0.2369
 9521SOL     OW40198   3.372   4.615   1.827  0.0765 -0.0043  0.0486
 9521SOL    HW140199   3.279   4.596   1.815 -0.0756  0.5419  0.3816
 9521SOL    HW240200   3.374   4.582   1.917 -1.4677  1.8801  0.7683
 9522SOL     OW40201   3.169   3.983   8.387 -0.1657  0.7237 -0.0460
 9522SOL    HW140202   3.121   4.063   8.366 -0.4796  0.3299 -0.8418
 9522SOL    HW240203   3.107   3.911   8.399  1.1352 -0.7236 -1.9566
 9523SOL     OW40204   3.481   3.917   2.790  0.4174 -0.7167 -0.2342
 9523SOL    HW140205   3.444   3.829   2.795  1.1190 -1.0836 -1.5109
 9523SOL    HW240206   3.568   3.888   2.763  1.2010 -0.6734  2.2532
 9524SOL     OW40207   2.844   4.689  12.983 -0.1093  0.5032  0.1088
 9524SOL    HW140208   2.765   4.695  12.930  0.5598 -0.2155 -0.9752
 9524SOL    HW240209   2.901   4.641  12.923 -1.7173  0.4906 -1.3943
 9525SOL     OW40210   3.332   2.483   7.502 -0.3309  0.2105 -0.4941
 9525SOL    HW140211   3.251   2.460   7.458 -0.6867 -0.1370  0.3418
 9525SOL    HW240212   3.295   2.556   7.552 -0.9788 -0.1153 -0.4994
 9526SOL     OW40213   1.504   1.884   7.747  0.8333  0.3860 -0.0991
 9526SOL    HW140214   1.539   1.822   7.811  1.0616 -1.2138 -1.8029
 9526SOL    HW240215   1.425   1.911   7.794 -0.9594 -1.0999 -2.2868
 9527SOL     OW40216   3.651   0.855   3.649  0.3795  0.6084 -0.8849
 9527SOL    HW140217   3.584   0.907   3.605 -1.9274 -1.7085 -0.0417
 9527SOL    HW240218   3.649   0.774   3.597  1.2830 -1.5648  2.4712
 9528SOL     OW40219   3.739   4.514   3.946 -0.7496  0.2457  0.3491
 9528SOL    HW140220   3.802   4.497   3.876 -2.0040  2.1321 -1.2437
 9528SOL    HW240221   3.688   4.581   3.901  0.5970 -0.6786 -2.5673
 9529SOL     OW40222   1.198   3.192   0.719 -0.1781  0.5268  0.1141
 9529SOL    HW140223   1.257   3.135   0.769  0.4378 -0.7270 -2.0620
 9529SOL    HW240224   1.237   3.205   0.633 -3.0957  0.3397 -1.2414
 9530SOL     OW40225   1.780   0.613   7.219  0.0765  0.0322  0.0527
 9530SOL    HW140226   1.725   0.690   7.233 -1.3314 -1.2685  1.7126
 9530SOL    HW240227   1.705   0.554   7.212 -0.1668  0.2844  0.5580
 9531SOL     OW40228   3.177   2.450   4.703  0.2878 -0.0076 -0.3092
 9531SOL    HW140229   3.104   2.391   4.681  0.7716 -1.1703  1.2031
 9531SOL    HW240230   3.166   2.508   4.628 -1.4563 -0.5117 -0.4442
 9532SOL     OW40231   0.544   1.579   0.194  0.1412 -0.0337 -0.5303
 9532SOL    HW140232   0.496   1.657   0.167  0.1209  0.0119 -0.3635
 9532SOL    HW240233   0.633   1.612   0.181  0.6248 -0.8369  0.7463
 9533SOL     OW40234   0.059   2.278   6.023 -0.2242  0.3119 -0.1771
 9533SOL    HW140235   0.116   2.228   6.082 -3.4768 -2.2437  0.8261
 9533SOL    HW240236   0.075   2.364   6.063 -1.0320  0.7251 -0.7475
 9534SOL     OW40237   3.708   3.276   6.081  0.2177 -0.1264 -0.4251
 9534SOL    HW140238   3.663   3.320   6.153  0.3033  0.2477 -0.6000
 9534SOL    HW240239   3.757   3.208   6.128  1.3699  0.9983  0.0296
 9535SOL     OW40240   1.309   1.692   5.967 -0.4516  0.0299 -0.2900
 9535SOL    HW140241   1.242   1.718   6.031  0.0307  3.3165 -1.1332
 9535SOL    HW240242   1.289   1.744   5.889 -2.1460  1.9191  1.3991
 9536SOL     OW40243   1.528   0.170   3.151 -0.0235  0.3452 -0.3573
 9536SOL    HW140244   1.538   0.205   3.063  0.8810  0.9157 -0.0398
 9536SOL    HW240245   1.527   0.255   3.196 -2.1833 -0.3494  0.9257
 9537SOL     OW40246   3.906   3.124   9.063  0.2198 -0.0625 -0.6256
 9537SOL    HW140247   3.976   3.168   9.111  0.3973  1.6691 -2.4726
 9537SOL    HW240248   3.952   3.072   8.998  0.7411 -0.3434 -0.0315
 9538SOL     OW40249   4.574   4.732   4.146  0.2690 -0.1306 -0.2938
 9538SOL    HW140250   4.564   0.038   4.230  1.4195  0.6490 -0.5670
 9538SOL    HW240251   4.549   4.645   4.177  0.9996 -0.1664  0.2073
 9539SOL     OW40252   2.331   2.189  13.936  0.3033 -0.8772  0.4531
 9539SOL    HW140253   2.387   2.194  14.014 -0.5576 -0.5124  1.0462
 9539SOL    HW240254   2.258   2.231  13.983  1.4203  2.0885 -0.4399
 9540SOL     OW40255   0.322   2.736   8.139 -0.0437  0.6781  0.5189
 9540SOL    HW140256   0.303   2.791   8.064  0.1346  0.6367  0.4419
 9540SOL    HW240257   0.353   2.658   8.092 -2.4844 -0.0136  0.0583
 9541SOL     OW40258   1.816   2.996   7.027 -0.5216 -0.8372 -0.2744
 9541SOL    HW140259   1.793   3.089   7.031  0.7900 -0.5463  0.4690
 9541SOL    HW240260   1.899   3.005   6.981  1.3371 -1.8728  2.9017
 9542SOL     OW40261   4.675   2.419   4.981  0.1622 -0.1221  0.5822
 9542SOL    HW140262   4.663   2.497   5.035  0.8700  1.9235 -2.1686
 9542SOL    HW240263   4.584   2.390   4.980  0.2288 -0.3125 -0.1854
 9543SOL     OW40264   1.770   2.242   8.338  0.3359 -0.1624 -0.2442
 9543SOL    HW140265   1.744   2.200   8.257  0.2464 -2.6541  1.0591
 9543SOL    HW240266   1.691   2.281   8.375  0.6910 -0.0346  0.3894
 9544SOL     OW40267   0.971   2.181   1.951  0.2539  0.7906 -0.4371
 9544SOL    HW140268   0.881   2.151   1.956  0.3791  0.4930 -0.0124
 9544SOL    HW240269   0.956   2.264   1.906  1.5668  1.7563  0.8747
 9545SOL     OW40270   4.634   1.901   8.744 -0.1456 -0.2594 -0.2529
 9545SOL    HW140271   4.621   1.814   8.707 -1.3021  0.9611 -2.7375
 9545SOL    HW240272   4.543   1.931   8.741 -0.4199 -1.0066  0.4563
 9546SOL     OW40273   2.698   1.737  12.833 -0.4935  0.6803  0.3299
 9546SOL    HW140274   2.630   1.794  12.868 -2.4547  0.5067 -3.2684
 9546SOL    HW240275   2.723   1.688  12.912  1.1720 -0.0140 -0.6391
 9547SOL     OW40276   2.929   1.619   9.404  0.2850  0.1787  0.3008
 9547SOL    HW140277   2.844   1.613   9.447  0.1551 -2.3912 -0.3345
 9547SOL    HW240278   2.900   1.596   9.316  1.7332 -0.3784 -0.0263
 9548SOL     OW40279   2.686   4.250  14.182 -0.1115  0.0904 -0.5650
 9548SOL    HW140280   2.610   4.297  14.147  1.4514  1.1984 -2.4929
 9548SOL    HW240281   2.745   4.279  14.112  0.2861  0.0391 -0.2529
 9549SOL     OW40282   0.044   2.300   1.556  0.1222  0.4055  0.5700
 9549SOL    HW140283   4.702   2.343   1.527 -0.9320 -0.2877  2.4894
 9549SOL    HW240284   0.017   2.210   1.572  0.8466  0.5588  2.6066
 9550SOL     OW40285   0.122   2.604   1.450  0.0142 -0.1370  0.3410
 9550SOL    HW140286   0.179   2.632   1.378  0.3781 -1.4858  0.0929
 9550SOL    HW240287   0.167   2.530   1.491 -1.8312 -0.6053  1.5067
 9551SOL     OW40288   1.930   3.120   5.563  0.3484  0.3591 -0.1871
 9551SOL    HW140289   1.995   3.173   5.610  0.5256  0.5848 -0.6854
 9551SOL    HW240290   1.878   3.184   5.514 -1.2093 -2.4916 -2.2837
 9552SOL     OW40291   4.216   3.050   5.744  0.0011  0.1118  0.1614
 9552SOL    HW140292   4.154   3.112   5.784  1.2661  1.0914  0.6041
 9552SOL    HW240293   4.152   3.006   5.689 -0.6488  2.9743 -1.3714
 9553SOL     OW40294   3.338   1.157  16.592 -0.0840 -0.0168 -0.6815
 9553SOL    HW140295   3.411   1.102  16.622  1.3458  3.0418  1.4478
 9553SOL    HW240296   3.320   1.214  16.667 -2.2263 -1.1651 -0.3305
 9554SOL     OW40297   3.664   1.321   7.097  0.1359 -0.2942  0.0316
 9554SOL    HW140298   3.583   1.299   7.144  0.1723  0.6883  0.5631
 9554SOL    HW240299   3.704   1.235   7.084 -2.0876 -1.4355  0.7951
 9555SOL     OW40300   4.497   3.929   5.433 -0.1141  0.0553 -0.2517
 9555SOL    HW140301   4.446   3.891   5.361 -1.3800  0.4887  0.4102
 9555SOL    HW240302   4.439   3.897   5.502 -0.1491 -1.3628 -0.9262
 9556SOL     OW40303   4.262   2.921  11.577 -0.1448  0.3146 -0.4793
 9556SOL    HW140304   4.334   2.868  11.612 -0.8332  0.4708  1.1791
 9556SOL    HW240305   4.194   2.923  11.644  0.4578  0.6775  0.1332
 9557SOL     OW40306   1.636   3.222   7.416 -0.5517  0.8032  0.2402
 9557SOL    HW140307   1.636   3.318   7.407 -0.4004  0.7682 -0.1579
 9557SOL    HW240308   1.567   3.215   7.350 -0.6392 -2.5551  0.7170
 9558SOL     OW40309   0.655   0.200   2.553 -0.9569  0.0504 -0.0002
 9558SOL    HW140310   0.711   0.248   2.492 -2.1615  2.1479  0.5207
 9558SOL    HW240311   0.610   0.140   2.494  1.2495 -0.6270 -1.0025
 9559SOL     OW40312   2.443   4.634   6.401 -0.5738  0.2538 -0.2900
 9559SOL    HW140313   2.478   4.546   6.414 -2.8327 -0.3298  1.9206
 9559SOL    HW240314   2.349   4.619   6.392 -0.2195 -2.0906 -0.1351
 9560SOL     OW40315   3.352   0.176   8.247  0.4250  0.1742 -0.1366
 9560SOL    HW140316   3.397   0.248   8.204  2.7955 -1.3683 -0.2508
 9560SOL    HW240317   3.291   0.151   8.178  1.9726  0.9492 -1.7926
 9561SOL     OW40318   4.533   3.405  15.811 -0.1602  0.4452  0.0823
 9561SOL    HW140319   4.611   3.381  15.761 -0.6682 -0.0545 -0.4653
 9561SOL    HW240320   4.545   3.499  15.825  0.5662  0.9987 -4.1897
 9562SOL     OW40321   1.420   2.974   1.449 -0.0387  0.3065  0.0740
 9562SOL    HW140322   1.360   2.939   1.383  1.5999 -0.5633 -0.9508
 9562SOL    HW240323   1.373   3.054   1.471 -2.7679 -0.9250 -1.3268
 9563SOL     OW40324   3.349   4.208  12.827  0.1000 -0.1071 -0.5658
 9563SOL    HW140325   3.280   4.268  12.856 -0.9440 -0.4729 -2.2975
 9563SOL    HW240326   3.316   4.124  12.857  1.0837 -0.3489 -0.1603
 9564SOL     OW40327   1.681   4.444  17.244  0.0195  0.2509 -0.0101
 9564SOL    HW140328   1.590   4.427  17.217 -0.8907  1.5733  2.2198
 9564SOL    HW240329   1.723   4.385  17.181  1.9379 -0.3388  1.8303
 9565SOL     OW40330   4.185   3.856   2.778 -0.8863  0.1875  0.0088
 9565SOL    HW140331   4.098   3.826   2.807 -0.0333 -3.0674 -0.7842
 9565SOL    HW240332   4.235   3.853   2.859 -0.3469 -0.6604 -0.3599
 9566SOL     OW40333   1.341   3.901  14.410  0.4976  0.1723  0.1316
 9566SOL    HW140334   1.353   3.890  14.505 -2.1112 -0.9919  0.3056
 9566SOL    HW240335   1.363   3.993  14.396  0.3327  0.4087  1.3965
 9567SOL     OW40336   2.058   2.866   9.982  0.3830  0.2152  0.2232
 9567SOL    HW140337   2.144   2.904   9.965  1.5325 -2.9203 -0.9445
 9567SOL    HW240338   2.000   2.927   9.936 -1.2581 -0.3924  1.4495
 9568SOL     OW40339   2.946   4.374   4.539 -0.1298  0.4601 -0.3693
 9568SOL    HW140340   3.033   4.348   4.571 -1.0489 -1.3763  0.6011
 9568SOL    HW240341   2.905   4.289   4.523 -2.2232  1.2880  0.6547
 9569SOL     OW40342   0.981   1.861   5.557  0.3568  0.6206 -0.3249
 9569SOL    HW140343   0.970   1.780   5.607  2.0687  0.6297  0.0564
 9569SOL    HW240344   0.904   1.909   5.587 -0.8273 -2.1479  1.1714
   4.73811   4.73811  17.75053
