Membrane in water
40344
    1TMC1    C1    1   0.473   4.419  11.391  0.1165  0.3520 -0.3608
    1TMC1    C2    2   0.402   4.367  11.296  0.9147  0.4085 -0.1010
    1TMC1    C3    3   0.432   4.408  11.171 -0.0513  0.0710  0.6390
    1TMC1    C4    4   0.573   4.506  11.371  0.0010 -0.2483 -0.3023
    1TMC1    C5    5   0.605   4.548  11.247 -0.3297 -0.2083 -0.0052
    1TMC1    C6    6   0.539   4.490  11.140 -0.1037  0.2219 -0.2179
    1TMC1     C    7   0.451   4.368  11.524  0.1183  0.4271 -0.1053
    1TMC1     O    8   0.336   4.341  11.562 -0.1965 -0.1244  0.0033
    1TMC1     H    9   0.333   4.286  11.320  0.2941  1.4404  1.5926
    1TMC1    H1   10   0.619   4.556  11.456  0.6504 -0.6585 -0.4130
    1TMC1    H2   11   0.544   4.529  11.039 -3.4594 -0.2316 -0.5812
    1TMC1    C7   12   0.708   4.652  11.232  0.0707  0.1924 -0.2513
    1TMC1    C8   13   0.353   4.356  11.065 -0.1201 -0.4482 -0.3690
    1TMC1    O1   14   0.820   4.634  11.273  0.4154 -0.2102  0.2420
    1TMC1    O2   15   0.278   4.265  11.089  0.5858 -0.1132 -0.3028
    1TMC1    O3   16   0.665   4.736  11.133 -0.1003  0.0506  0.8814
    1TMC1    H3   17   0.569   4.721  11.121  0.8955 -3.1572 -3.2075
    1TMC1    O5   18   0.315   4.466  10.995  0.1370  0.0268  0.2723
    1TMC1    H5   19   0.362   4.548  11.021 -0.1436 -0.0587  1.0680
    2MPD2     C   20   0.634   4.228  11.995  0.1777 -0.3191 -0.2654
    2MPD2    C1   21   0.504   4.237  11.951 -0.6355 -0.1516 -0.0267
    2MPD2    C2   22   0.475   4.287  11.822  0.8542 -0.2736 -0.7295
    2MPD2    C3   23   0.582   4.301  11.733 -0.5044 -0.1677  0.1256
    2MPD2    C4   24   0.710   4.267  11.775  0.1014 -0.1761 -0.3352
    2MPD2    C5   25   0.732   4.239  11.904  0.0482  0.8750  0.1593
    2MPD2     H   26   0.372   4.304  11.793  0.5302  1.0396  1.1317
    2MPD2    H1   27   0.791   4.284  11.705 -1.2735  1.9213 -1.4354
    2MPD2    H2   28   0.664   4.215  12.098  1.0722 -1.2655 -0.6458
    2MPD2    H3   29   0.831   4.250  11.946  0.2305  2.1741 -0.6266
    2MPD2     N   30   0.570   4.342  11.594  0.3647 -0.0004 -0.4059
    2MPD2    H5   31   0.658   4.358  11.546  1.3906 -2.7284  0.5624
    2MPD2    N1   32   0.399   4.233  12.048 -0.4181 -0.6259 -0.0006
    2MPD2    H7   33   0.305   4.263  12.023  0.1790  0.1508 -1.2716
    3TMC1    C1   34   0.744   1.273  10.598  0.1661  0.9257  0.2409
    3TMC1    C2   35   0.755   1.161  10.678 -0.0275 -0.4720 -0.3811
    3TMC1    C3   36   0.771   1.044  10.606  0.5107 -0.5696  0.1591
    3TMC1    C4   37   0.750   1.270  10.462  1.0989 -0.6249  0.2664
    3TMC1    C5   38   0.787   1.154  10.407 -0.1791  0.1039 -0.9049
    3TMC1    C6   39   0.788   1.036  10.471 -0.0685 -0.6182 -0.3707
    3TMC1     C   40   0.682   1.391  10.657 -0.3878  0.2012 -0.2916
    3TMC1     O   41   0.682   1.495  10.588  0.0479  0.2994 -0.5187
    3TMC1     H   42   0.753   1.161  10.786  3.6117  1.0285 -0.2840
    3TMC1    H1   43   0.749   1.364  10.409  2.1947 -1.8657 -1.9417
    3TMC1    H2   44   0.815   0.944  10.419  2.2059  0.0480 -0.3883
    3TMC1    C7   45   0.854   1.149  10.279  0.7892 -0.5308  0.0406
    3TMC1    C8   46   0.788   0.928  10.686  0.4687 -0.6552  0.3573
    3TMC1    O1   47   0.941   1.064  10.275 -0.2568 -0.7402 -0.0452
    3TMC1    O2   48   0.810   0.928  10.808 -0.6895 -0.5106 -0.4480
    3TMC1    O3   49   0.857   1.272  10.216 -0.3476 -0.1794  0.2068
    3TMC1    H3   50   0.767   1.311  10.219 -1.2023 -2.1618  0.2887
    3TMC1    O5   51   0.694   0.844  10.633  0.6048  0.1888 -0.1398
    3TMC1    H5   52   0.661   0.849  10.541 -2.0103 -1.3408  0.7327
    4MPD2     C   53   0.378   1.643  10.969  0.0826  0.5792  0.0550
    4MPD2    C1   54   0.352   1.508  10.986  0.3934 -0.0529  0.2019
    4MPD2    C2   55   0.442   1.414  10.929  0.1388 -0.7137  0.0025
    4MPD2    C3   56   0.539   1.459  10.850  0.0702  0.4178 -0.0812
    4MPD2    C4   57   0.567   1.593  10.838  0.1676  0.2441 -0.6437
    4MPD2    C5   58   0.493   1.688  10.904 -0.1807 -0.2597  0.4513
    4MPD2     H   59   0.420   1.308  10.931  0.3420 -0.8724 -4.8175
    4MPD2    H1   60   0.653   1.622  10.779  0.8511  1.7071  1.0817
    4MPD2    H2   61   0.331   1.726  11.020 -0.0817  0.6043 -0.1396
    4MPD2    H3   62   0.517   1.794  10.907 -0.5102 -0.1652 -0.2683
    4MPD2     N   63   0.614   1.362  10.778 -0.9307  0.2985 -0.3837
    4MPD2    H5   64   0.613   1.268  10.817 -1.9781  0.2629 -0.5016
    4MPD2    N1   65   0.243   1.456  11.059 -0.3563 -0.3876  0.3084
    4MPD2    H7   66   0.240   1.355  11.064  0.1337 -0.4528 -0.6094
    5TCq1    O1   67   1.686   2.900  12.227 -0.3363  0.0939 -0.2361
    5TCq1    C1   68   1.627   2.809  12.154  0.4620 -0.0901  0.0138
    5TCq1    O2   69   1.692   2.713  12.114  0.0723 -0.3902  0.1815
    5TCq1    C2   70   1.502   2.861  12.103 -0.7563 -0.0708  0.2528
    5TCq1    C3   71   1.441   2.971  12.156  0.2093 -0.2219  1.0675
    5TCq1    C4   72   1.345   3.039  12.083 -0.1125  0.2369  0.4034
    5TCq1    C5   73   1.313   2.997  11.958  0.1458  0.2659  0.1866
    5TCq1    C6   74   1.365   2.878  11.915 -0.1454 -0.1139  0.0876
    5TCq1    C7   75   1.471   2.815  11.981 -0.1114  0.0853  0.1629
    5TCq1    C8   76   1.288   2.809  11.807  0.4250 -0.3711 -0.5782
    5TCq1    O4   77   1.307   2.692  11.781 -0.4594 -0.6006 -0.0087
    5TCq1    C9   78   1.271   3.146  12.147 -0.7810 -0.4596 -0.7216
    5TCq1    O5   79   1.187   3.203  12.075 -0.2689  0.6811  0.1118
    5TCq1    O6   80   1.291   3.182  12.266  0.4328  0.1143 -0.3740
    5TCq1    H1   81   1.613   2.961  12.250 -0.5805  0.5586 -2.2390
    5TCq1    H2   82   1.458   3.002  12.259 -1.4524 -1.8974  1.8298
    5TCq1    H3   83   1.224   3.043  11.916 -0.6980  0.2517  1.9227
    5TCq1    H4   84   1.518   2.724  11.945 -1.8175 -1.8751  2.8470
    6MPD2     C   85   1.037   2.985  11.599 -0.0359 -0.2879 -0.7696
    6MPD2    C1   86   1.114   2.873  11.633  0.2453 -0.3788 -0.0445
    6MPD2    C2   87   1.100   2.757  11.561 -0.0305  0.1974 -0.1083
    6MPD2    C3   88   1.012   2.751  11.453 -0.9283  0.4286  0.1596
    6MPD2    C4   89   0.950   2.869  11.407 -0.7431 -0.2933 -0.0907
    6MPD2    C5   90   0.965   2.981  11.483 -0.1168 -0.1997 -0.0110
    6MPD2     H   91   1.150   2.664  11.588  0.4427  0.5297  0.1519
    6MPD2    H1   92   0.882   2.865  11.323 -2.2346  2.1812  1.0053
    6MPD2    H2   93   1.048   3.076  11.657  1.3383  0.5096 -2.2808
    6MPD2    H3   94   0.905   3.069  11.462 -0.2742 -0.0339  1.1211
    6MPD2     N   95   0.989   2.624  11.395 -0.0917  0.0768 -0.1125
    6MPD2    H5   96   1.037   2.544  11.435  1.6529  1.2452  0.1332
    6MPD2    N1   97   1.200   2.898  11.742  0.5255  0.5068  0.1115
    6MPD2    H7   98   1.206   2.991  11.781  0.4838  0.9801 -1.0118
    7TCq1    O1   99   2.284   2.653  13.185  0.3292 -0.3928 -0.0294
    7TCq1    C1  100   2.389   2.604  13.119  0.2730 -0.0066 -0.1173
    7TCq1    O2  101   2.495   2.668  13.126 -0.0167  0.2850  0.3726
    7TCq1    C2  102   2.373   2.464  13.122  0.0191  0.4387  0.1611
    7TCq1    C3  103   2.246   2.398  13.127 -0.1019 -0.7118 -0.6813
    7TCq1    C4  104   2.248   2.263  13.161 -0.1257  0.8949  0.2118
    7TCq1    C5  105   2.365   2.202  13.194 -0.1284  0.1862 -0.7644
    7TCq1    C6  106   2.486   2.272  13.194  0.6636 -0.2217 -0.2734
    7TCq1    C7  107   2.489   2.400  13.151  0.1781  0.5056 -0.6188
    7TCq1    C8  108   2.602   2.201  13.248 -0.3099 -0.3114 -0.0227
    7TCq1    O4  109   2.585   2.088  13.282 -0.3410 -0.2349  0.1158
    7TCq1    C9  110   2.130   2.196  13.169  0.0980  0.4141 -0.0569
    7TCq1    O5  111   2.024   2.257  13.131  0.1049 -0.5215 -0.4155
    7TCq1    O6  112   2.130   2.074  13.193  0.7010 -0.1071  0.2885
    7TCq1    H1  113   2.217   2.587  13.213 -2.3485  2.7055  0.8851
    7TCq1    H2  114   2.152   2.444  13.098  1.6563  3.9084  0.9134
    7TCq1    H3  115   2.376   2.097  13.217  0.3396  0.2629 -0.6275
    7TCq1    H4  116   2.584   2.447  13.129  0.0840  1.7124  1.4921
    8MPD2     C  117   3.106   2.167  13.372 -0.0614  0.1855  0.4353
    8MPD2    C1  118   3.010   2.072  13.351  0.1002  0.1804 -1.4489
    8MPD2    C2  119   2.879   2.106  13.321 -0.7956  0.4023 -0.0497
    8MPD2    C3  120   2.846   2.238  13.291 -0.5711  0.5540 -0.2298
    8MPD2    C4  121   2.942   2.335  13.315 -1.0120 -0.5757 -0.1129
    8MPD2    C5  122   3.071   2.298  13.354 -0.6239  0.0497  0.9314
    8MPD2     H  123   2.803   2.030  13.311 -1.7714  1.1794  1.4481
    8MPD2    H1  124   2.916   2.439  13.300  0.9817  0.1185  1.2307
    8MPD2    H2  125   3.212   2.153  13.393  0.1002  1.7153  0.6498
    8MPD2    H3  126   3.142   2.379  13.364 -0.2269  0.0739 -1.9536
    8MPD2     N  127   2.714   2.282  13.263  0.0964  0.0685  0.1423
    8MPD2    H5  128   2.703   2.383  13.259  0.6783  0.1094 -0.3903
    8MPD2    N1  129   3.036   1.930  13.373  0.0897  0.9721  0.2016
    8MPD2    H7  130   2.957   1.867  13.367  0.7514  0.2394 -0.8071
    9TMC1    C1  131   4.634   0.073  11.410 -0.1310 -0.6206  0.0631
    9TMC1    C2  132   0.019   0.113  11.444 -0.2578 -0.2360 -0.0816
    9TMC1    C3  133   0.122   0.035  11.403 -0.2916  0.9938 -0.3245
    9TMC1    C4  134   4.603   4.711  11.336 -0.3519  0.7202 -0.4134
    9TMC1    C5  135   4.711   4.654  11.280  0.2572 -0.6862 -0.4544
    9TMC1    C6  136   0.104   4.680  11.308  0.1282 -0.4825 -0.9985
    9TMC1     C  137   4.519   0.127  11.482 -0.0240  0.7173  0.2310
    9TMC1     O  138   4.406   0.101  11.451 -0.3260  0.4967  0.2470
    9TMC1     H  139   0.030   0.209  11.493 -1.5154 -0.1408  0.0241
    9TMC1    H1  140   4.505   4.681  11.303 -0.6168  0.6745  0.4142
    9TMC1    H2  141   0.188   4.614  11.290  0.8330  0.1903 -0.1657
    9TMC1    C7  142   4.694   4.531  11.197  0.5374 -0.0512 -0.0405
    9TMC1    C8  143   0.258   0.061  11.447  1.0108  0.5771  0.0600
    9TMC1    O1  144   4.588   4.469  11.201 -0.6748 -0.0568  0.1143
    9TMC1    O2  145   0.351   0.002  11.396  0.2264  0.7766  0.1580
    9TMC1    O3  146   0.026   4.549  11.084  0.0226 -0.3864  0.7723
    9TMC1    H3  147   0.095   4.615  11.106  0.0191 -1.1130  2.9804
    9TMC1    O5  148   0.259   0.156  11.540 -0.2674 -0.2732 -0.1622
    9TMC1    H5  149   0.173   0.180  11.580 -0.3603  0.5117 -0.8342
   10MPD2     C  150   4.353   0.279  11.677 -0.3750 -0.1115  0.8212
   10MPD2    C1  151   4.485   0.247  11.689 -0.3003 -0.2414  0.1573
   10MPD2    C2  152   4.548   0.283  11.807 -0.2745  0.1073  0.0270
   10MPD2    C3  153   4.484   0.352  11.903 -0.3897  0.3150  0.1761
   10MPD2    C4  154   4.356   0.388  11.886  0.1977 -0.4279 -0.2748
   10MPD2    C5  155   4.298   0.363  11.765  0.0505  0.3004  0.1074
   10MPD2     H  156   4.649   0.244  11.819 -0.2846  1.0208  3.2091
   10MPD2    H1  157   4.308   0.448  11.962 -0.7646 -1.6591  0.0940
   10MPD2    H2  158   4.298   0.263  11.585  0.9987  1.4253 -0.2697
   10MPD2    H3  159   4.202   0.410  11.748 -0.0241  0.1259  0.0526
   10MPD2     N  160   4.551   0.386  12.017 -0.7836  0.2902 -0.4199
   10MPD2    H5  161   4.497   0.445  12.079  0.8703  1.4507 -0.0729
   10MPD2    N1  162   4.563   0.183  11.595 -0.4607 -0.3980  0.2625
   10MPD2    H7  163   4.656   0.156  11.625 -1.0664 -1.7706  0.9160
   11TCq1    O1  164   1.309   1.287  14.056 -0.0534 -0.4349 -0.3254
   11TCq1    C1  165   1.352   1.175  14.115 -0.4940 -0.7248 -0.2010
   11TCq1    O2  166   1.359   1.174  14.241  0.1817 -0.0771 -0.7646
   11TCq1    C2  167   1.281   1.069  14.037 -0.2220 -0.1453  0.0637
   11TCq1    C3  168   1.333   1.014  13.921  0.3405 -0.3293  1.5520
   11TCq1    C4  169   1.289   0.887  13.880 -0.0137 -0.3864 -0.6805
   11TCq1    C5  170   1.195   0.818  13.950  0.0962 -0.0341 -0.4016
   11TCq1    C6  171   1.153   0.871  14.076  0.8420  0.1031  0.4575
   11TCq1    C7  172   1.196   0.997  14.111 -0.1203  0.1312 -0.3791
   11TCq1    C8  173   1.088   0.792  14.172 -0.0900  0.8381 -0.2848
   11TCq1    O4  174   1.052   0.852  14.275 -0.6055  0.0664 -0.3176
   11TCq1    C9  175   1.362   0.824  13.778 -0.7942 -0.5572 -0.6214
   11TCq1    O5  176   1.384   0.888  13.673  0.4496  0.5502 -0.3877
   11TCq1    O6  177   1.392   0.704  13.795  0.0371  0.1596  0.4274
   11TCq1    H1  178   1.288   1.280  13.960  0.0771  0.3475 -0.4105
   11TCq1    H2  179   1.415   1.056  13.865  0.4827 -0.1841  1.8650
   11TCq1    H3  180   1.173   0.715  13.921  0.8243  0.0178 -1.1347
   11TCq1    H4  181   1.160   1.037  14.205 -1.4023  0.5576 -1.0426
   12MPD2     C  182   0.966   0.563  14.330  0.8878 -0.2995  0.4497
   12MPD2    C1  183   1.010   0.550  14.196  0.4654  0.1840  0.0476
   12MPD2    C2  184   1.010   0.430  14.131  0.7082 -0.2442  0.0685
   12MPD2    C3  185   0.961   0.315  14.195 -0.6992  0.4170  0.2874
   12MPD2    C4  186   0.921   0.320  14.322  0.5580 -0.5056  0.1695
   12MPD2    C5  187   0.927   0.444  14.389  0.8881  0.0083  0.3022
   12MPD2     H  188   1.042   0.435  14.028  1.9394 -0.8391  0.4179
   12MPD2    H1  189   0.881   0.232  14.370  3.4323 -2.0682 -0.3255
   12MPD2    H2  190   0.948   0.658  14.379 -0.2682 -0.1862 -0.1948
   12MPD2    H3  191   0.901   0.443  14.494 -1.7120  0.7579 -0.3219
   12MPD2     N  192   0.945   0.189  14.127 -0.1492 -0.1986  0.3204
   12MPD2    H5  193   0.900   0.118  14.184 -1.0001  0.0668 -0.0207
   12MPD2    N1  194   1.065   0.663  14.129 -0.0394 -0.3989 -0.1149
   12MPD2    H7  195   1.093   0.638  14.035 -0.5535 -0.3167 -0.2928
   13TCq1    O1  196   0.697   0.358  10.976  0.2178 -0.5365 -0.3707
   13TCq1    C1  197   0.629   0.440  11.054  0.2037 -0.1985 -0.1131
   13TCq1    O2  198   0.678   0.528  11.126  0.8742  0.2831 -0.2800
   13TCq1    C2  199   0.491   0.379  11.078 -0.3236  0.7518  0.4010
   13TCq1    C3  200   0.462   0.251  11.059 -0.1448  0.4668  0.3308
   13TCq1    C4  201   0.337   0.200  11.089 -0.2553 -0.5465 -0.4018
   13TCq1    C5  202   0.243   0.283  11.143 -0.1467  0.3094 -0.0218
   13TCq1    C6  203   0.269   0.420  11.150  0.1200  0.4683 -0.5506
   13TCq1    C7  204   0.396   0.463  11.124 -0.1340 -0.2024  0.1217
   13TCq1    C8  205   0.223   0.480  11.275 -0.3971  0.5079  0.4501
   13TCq1    O4  206   0.308   0.508  11.358  0.0086  0.5229  0.7724
   13TCq1    C9  207   0.312   0.061  11.065  0.2566  0.3776  0.7962
   13TCq1    O5  208   0.193   0.017  11.064 -0.1906 -0.5877  0.3239
   13TCq1    O6  209   0.418   4.731  11.056 -0.3700 -0.0905 -0.9954
   13TCq1    H1  210   0.635   0.294  10.934 -2.0018  0.5075  1.3530
   13TCq1    H2  211   0.524   0.177  11.011  1.1707  1.5402  0.3992
   13TCq1    H3  212   0.142   0.249  11.160  0.2047 -0.1346  1.2096
   13TCq1    H4  213   0.420   0.563  11.159 -0.3532 -0.5906  1.3789
   14MPD2     C  214   4.625   0.512  11.419  0.0770  0.4728  0.1720
   14MPD2    C1  215   0.023   0.523  11.417 -0.1160 -0.1901 -0.5204
   14MPD2    C2  216   0.082   0.589  11.521  0.0473 -0.2694  0.4708
   14MPD2    C3  217   0.008   0.633  11.633 -0.5178 -0.0741  0.5541
   14MPD2    C4  218   4.611   0.609  11.640 -0.2293 -0.2896  0.1492
   14MPD2    C5  219   4.551   0.550  11.532 -0.1279  0.2008 -0.2633
   14MPD2     H  220   0.185   0.621  11.509  0.4883 -1.4568  1.1176
   14MPD2    H1  221   4.541   0.645  11.714 -0.4186  1.3582 -0.8268
   14MPD2    H2  222   4.565   0.468  11.341 -0.4394  1.2790  0.1238
   14MPD2    H3  223   4.444   0.543  11.522  0.0021 -1.8243 -0.2211
   14MPD2     N  224   0.079   0.694  11.739 -0.3329 -0.4736  0.0264
   14MPD2    H5  225   0.180   0.701  11.733 -0.0729 -1.9018  2.4042
   14MPD2    N1  226   0.086   0.471  11.302  0.0285 -0.0226  0.3077
   14MPD2    H7  227   0.037   0.417  11.231 -0.1171  0.9311 -0.3248
   15TCq1    O1  228   3.223   0.722   1.219  0.6790  0.0498  0.0121
   15TCq1    C1  229   3.235   0.590   1.232 -0.3760  0.0940 -0.1128
   15TCq1    O2  230   3.336   0.548   1.280  0.2420  0.0450 -0.3217
   15TCq1    C2  231   3.110   0.511   1.216 -1.1053 -0.1229  0.4933
   15TCq1    C3  232   3.034   0.544   1.105  0.8361 -0.2625 -0.4894
   15TCq1    C4  233   2.938   0.460   1.067 -0.4541 -0.4924  0.2682
   15TCq1    C5  234   2.929   0.330   1.114  0.1819  0.0997  0.2005
   15TCq1    C6  235   3.003   0.300   1.221  0.7543 -0.5582 -0.1304
   15TCq1    C7  236   3.096   0.385   1.269 -0.2394 -0.4053  0.5119
   15TCq1    C8  237   2.974   0.177   1.296  0.1938  0.1633 -0.1157
   15TCq1    O4  238   2.935   0.080   1.232 -0.0973 -0.0699 -0.1247
   15TCq1    C9  239   2.849   0.499   0.957 -0.1007  0.1696  0.1386
   15TCq1    O5  240   2.772   0.413   0.905 -0.0749 -0.8094 -0.1825
   15TCq1    O6  241   2.877   0.614   0.907 -0.0615 -0.1863  0.4346
   15TCq1    H1  242   3.130   0.753   1.225  0.6167 -0.3286  1.0596
   15TCq1    H2  243   3.048   0.641   1.058  1.0382  1.6129  3.3743
   15TCq1    H3  244   2.850   0.268   1.073 -0.5251  1.4315 -0.4486
   15TCq1    H4  245   3.145   0.346   1.358  1.0428 -0.1465 -0.0868
   16MPD2     C  246   3.005   0.134   1.661 -0.3264  0.4943  0.7200
   16MPD2    C1  247   2.984   0.094   1.530  0.6102  0.1740 -0.1245
   16MPD2    C2  248   2.976   4.703   1.505  0.7609  0.7462  0.2735
   16MPD2    C3  249   2.999   4.606   1.600 -1.0107  0.5451 -0.0559
   16MPD2    C4  250   3.016   4.642   1.732 -0.3215  0.2095  0.7490
   16MPD2    C5  251   3.029   0.034   1.755  0.1631  0.2485  0.1008
   16MPD2     H  252   2.968   4.670   1.402 -1.5232  1.4199  0.2183
   16MPD2    H1  253   3.035   4.572   1.813  1.8999 -0.7541 -0.6111
   16MPD2    H2  254   3.001   0.237   1.693  1.1889  0.5693  0.6767
   16MPD2    H3  255   3.044   0.072   1.856  1.7092  2.1147 -0.8447
   16MPD2     N  256   3.004   4.469   1.548 -0.2307 -0.0480 -0.7799
   16MPD2    H5  257   3.009   4.464   1.447  0.2279 -1.2308 -0.6959
   16MPD2    N1  258   2.995   0.194   1.427  0.2232 -0.6691 -0.0188
   16MPD2    H7  259   3.006   0.290   1.458 -1.6713 -0.3437 -0.3284
   17TMC1    C1  260   0.420   3.836  11.738 -0.1767 -0.0109  0.2570
   17TMC1    C2  261   0.522   3.872  11.828  0.0287 -0.2047 -0.2122
   17TMC1    C3  262   0.504   3.867  11.967 -0.2947  0.3165 -0.4207
   17TMC1    C4  263   0.306   3.774  11.791 -0.6370  0.6632 -0.0532
   17TMC1    C5  264   0.288   3.778  11.925 -0.1477  0.2078 -0.4018
   17TMC1    C6  265   0.384   3.823  12.014  0.7213  0.1553 -0.3600
   17TMC1     C  266   0.427   3.865  11.598  0.2151 -0.6161  0.2193
   17TMC1     O  267   0.344   3.815  11.524 -0.6053 -0.0612  0.0181
   17TMC1     H  268   0.619   3.897  11.788 -0.5231  0.7212 -0.9910
   17TMC1    H1  269   0.229   3.737  11.724  0.4711 -1.6589 -0.0643
   17TMC1    H2  270   0.364   3.791  12.116  0.0796  3.6626  0.6280
   17TMC1    C7  271   0.157   3.754  11.979  0.3530  0.5693 -0.0243
   17TMC1    C8  272   0.626   3.833  12.047  0.5355  0.4029 -0.6377
   17TMC1    O1  273   0.124   3.778  12.094  0.6684  0.1484 -0.0899
   17TMC1    O2  274   0.705   3.748  12.008  0.0222 -0.1063 -0.9123
   17TMC1    O3  275   0.101   3.657  11.902  0.2018 -0.4137  0.0313
   17TMC1    H3  276   0.144   3.638  11.816 -1.6517 -1.2382 -0.7034
   17TMC1    O5  277   0.598   3.853  12.182 -0.5454 -0.2923 -0.1905
   17TMC1    H5  278   0.569   3.946  12.199 -1.5014 -0.0311 -3.2078
   18MPD2     C  279   0.464   3.984  11.338 -0.0070 -0.4318  0.0885
   18MPD2    C1  280   0.557   4.004  11.440 -0.1565  0.6087 -0.5765
   18MPD2    C2  281   0.661   4.095  11.418  0.5167 -0.3668  0.3085
   18MPD2    C3  282   0.687   4.139  11.288  0.3266  0.7315  0.4978
   18MPD2    C4  283   0.602   4.101  11.188  0.0314  0.2767  0.1194
   18MPD2    C5  284   0.484   4.038  11.216  0.4319 -0.3269 -0.4150
   18MPD2     H  285   0.728   4.120  11.500  0.8772 -2.0592  0.5211
   18MPD2    H1  286   0.612   4.147  11.090  0.6297 -0.1366 -0.0150
   18MPD2    H2  287   0.369   3.936  11.356 -1.5759  2.0228 -1.7501
   18MPD2    H3  288   0.411   4.029  11.137 -0.4169 -1.5923  0.5188
   18MPD2     N  289   0.795   4.220  11.256  0.6588  0.4433  0.1020
   18MPD2    H5  290   0.815   4.217  11.156  1.1871  0.9514  0.1899
   18MPD2    N1  291   0.530   3.953  11.566  0.9680 -0.1557 -0.4420
   18MPD2    H7  292   0.589   3.980  11.644  0.8111  0.5520 -0.5679
   19TMC2    C1  293   2.084   0.933  14.056 -0.5768 -0.0201 -0.7660
   19TMC2    C2  294   1.976   1.013  14.045 -0.1764 -0.2623 -0.3482
   19TMC2    C3  295   1.853   0.966  14.084  1.1372  0.0035  0.1796
   19TMC2    C4  296   2.077   0.800  14.098 -0.3453  0.3734 -0.1167
   19TMC2    C5  297   1.947   0.754  14.125  0.5179  0.1991  0.3409
   19TMC2    C6  298   1.835   0.832  14.118 -0.6635 -0.3066 -0.3987
   19TMC2     C  299   2.203   0.986  13.993  0.6716 -0.4361  0.9688
   19TMC2     O  300   2.191   1.067  13.906  0.1161  0.1177  0.7724
   19TMC2     H  301   1.982   1.117  14.013  0.1407 -0.3669 -0.6366
   19TMC2    H1  302   2.162   0.733  14.099  0.2476  1.1303  0.2500
   19TMC2    H2  303   1.749   0.805  14.178  0.8489 -0.0178  1.8729
   19TMC2    C7  304   1.935   0.610  14.151  0.1085  0.4698  0.3029
   19TMC2    C8  305   1.749   1.063  14.078  0.1303  0.4889 -0.2553
   19TMC2    O1  306   2.033   0.548  14.189 -0.2551  0.0729 -0.0200
   19TMC2    O2  307   1.768   1.181  14.062 -0.1289  0.5499  0.5728
   19TMC2    O5  308   1.630   1.008  14.111 -0.2720  0.6154 -0.7007
   19TMC2    H5  309   1.616   0.919  14.073 -1.3486 -0.4254  2.1560
   20MPD2     C  310   2.499   1.055  13.940  0.2832  0.6561  0.3126
   20MPD2    C1  311   2.451   0.963  14.036 -0.0267  0.2965 -0.8225
   20MPD2    C2  312   2.545   0.901  14.113  0.6040 -0.3587 -0.7598
   20MPD2    C3  313   2.681   0.914  14.095  0.5517 -0.5231  0.5112
   20MPD2    C4  314   2.725   1.006  14.005  0.5932  0.2249 -0.3748
   20MPD2    C5  315   2.631   1.076  13.933  0.0636  0.6295  0.0641
   20MPD2     H  316   2.499   0.829  14.181  1.8506  1.2202  1.7563
   20MPD2    H1  317   2.830   1.021  13.981  0.4444  0.2011 -1.0446
   20MPD2    H2  318   2.434   1.127  13.890 -1.4518 -0.6343  0.7113
   20MPD2    H3  319   2.655   1.141  13.849  0.2466 -1.3958 -1.4487
   20MPD2     N  320   2.771   0.847  14.184 -0.0865  0.2451 -0.2103
   20MPD2    H5  321   2.868   0.874  14.184 -0.0229  0.0545 -2.1642
   20MPD2    N1  322   2.314   0.931  14.054  0.1178  0.5186 -0.3813
   20MPD2    H7  323   2.299   0.870  14.133 -1.2919 -0.3922 -1.3467
   21TMC2    C1  324   4.581   0.856  14.540  0.2669  0.2155  0.4343
   21TMC2    C2  325   4.660   0.749  14.554 -0.6855 -1.0768  0.5189
   21TMC2    C3  326   4.653   0.680  14.667  0.5882 -0.7325 -0.2107
   21TMC2    C4  327   4.472   0.872  14.621  0.1266  1.1326  0.1381
   21TMC2    C5  328   4.465   0.796  14.740 -0.0014 -0.0138  0.7965
   21TMC2    C6  329   4.559   0.700  14.759  0.4199  0.0463  0.3575
   21TMC2     C  330   4.576   0.913  14.405  0.2819 -0.0273 -1.0692
   21TMC2     O  331   4.604   0.837  14.312 -0.2611 -0.2471  0.1040
   21TMC2     H  332   4.735   0.726  14.479 -0.3757  1.8861 -0.0684
   21TMC2    H1  333   4.402   0.952  14.601  0.5353  1.1683 -1.1462
   21TMC2    H2  334   4.541   0.637  14.845  0.6140  0.2946  0.5766
   21TMC2    C7  335   4.433   0.875  14.858 -0.6688 -0.2756  0.3221
   21TMC2    C8  336   0.012   0.574  14.688  0.1783  0.1216 -0.5500
   21TMC2    O1  337   4.454   0.827  14.968 -0.4374  0.5031 -0.4780
   21TMC2    O2  338   4.729   0.467  14.743  0.1212 -0.2396 -0.4439
   21TMC2    O5  339   0.127   0.599  14.628  0.4941  0.4425  0.2133
   21TMC2    H5  340   0.145   0.693  14.604  1.2190 -0.1733 -1.6258
   22MPD2     C  341   4.605   1.361  14.674 -0.5403 -0.0924  0.3238
   22MPD2    C1  342   4.677   1.240  14.685 -0.1116 -0.0947 -0.7364
   22MPD2    C2  343   4.660   1.127  14.595  0.2506  0.2153  0.8788
   22MPD2    C3  344   4.569   1.140  14.494  0.5892  0.1443 -0.1025
   22MPD2    C4  345   4.498   1.259  14.480 -0.1082  0.4393  0.3627
   22MPD2    C5  346   4.519   1.363  14.565 -0.6590 -0.5728  0.2912
   22MPD2     H  347   4.732   1.048  14.610  1.0149  0.1920 -2.9557
   22MPD2    H1  348   4.425   1.272  14.402  3.4781  4.3938 -2.3175
   22MPD2    H2  349   4.604   1.442  14.745 -3.1666  0.4580 -0.3642
   22MPD2    H3  350   4.461   1.452  14.545  1.5233  1.4409  3.0050
   22MPD2     N  351   4.543   1.042  14.393  0.0978 -0.3782  0.3260
   22MPD2    H5  352   4.527   1.083  14.302  1.5249 -1.1948 -0.3046
   22MPD2    N1  353   0.014   1.205  14.801  0.1771  0.9328  0.3634
   22MPD2    H7  354   0.035   1.108  14.821  0.6897  0.8419 -0.6361
   23TMC2    C1  355   0.919   2.258  14.878  0.0184 -0.1883 -0.5663
   23TMC2    C2  356   0.913   2.321  14.759  0.8010  1.0468 -0.0144
   23TMC2    C3  357   0.824   2.270  14.668  0.8879 -0.1512 -0.4304
   23TMC2    C4  358   0.831   2.160  14.909 -0.3523  0.2942  0.0150
   23TMC2    C5  359   0.729   2.127  14.824  0.3482 -0.2091  0.1416
   23TMC2    C6  360   0.732   2.174  14.695  0.1111 -0.0217 -0.9644
   23TMC2     C  361   1.021   2.295  14.979 -0.4367  0.0392  0.2889
   23TMC2     O  362   1.019   2.234  15.085  0.0567 -0.0934  0.5119
   23TMC2     H  363   0.989   2.388  14.720  0.1016  2.2956  0.8014
   23TMC2    H1  364   0.857   2.106  14.999  0.8320 -1.1307 -1.1684
   23TMC2    H2  365   0.659   2.143  14.621 -1.1502 -0.5234  0.4700
   23TMC2    C7  366   0.677   1.998  14.846  0.7145 -0.7643 -0.6673
   23TMC2    C8  367   0.840   2.290  14.521 -0.2663 -0.7259 -0.0243
   23TMC2    O1  368   0.722   1.935  14.938  0.2955 -0.1130 -0.0221
   23TMC2    O2  369   0.741   2.274  14.449 -0.0557 -0.0440 -0.1093
   23TMC2    O5  370   0.968   2.273  14.485  0.4431  0.2854 -0.3437
   23TMC2    H5  371   1.021   2.265  14.567 -0.1821 -0.1185  0.0239
   24MPD2     C  372   1.433   2.529  15.166  0.5984  0.4005 -0.8766
   24MPD2    C1  373   1.355   2.433  15.223  0.3614  0.4543 -0.6526
   24MPD2    C2  374   1.248   2.379  15.153  0.1271 -0.3536  0.5750
   24MPD2    C3  375   1.227   2.421  15.020  0.1146 -0.1255 -0.0759
   24MPD2    C4  376   1.323   2.501  14.958 -0.3277 -0.3403 -0.1342
   24MPD2    C5  377   1.419   2.555  15.033 -0.0458 -0.1390  0.0571
   24MPD2     H  378   1.181   2.300  15.184 -2.1739  1.1228 -0.6549
   24MPD2    H1  379   1.309   2.543  14.859  1.2360 -1.0634 -0.6600
   24MPD2    H2  380   1.507   2.573  15.232 -0.1437  1.1587 -0.5426
   24MPD2    H3  381   1.487   2.621  14.980 -1.6300  2.0216  0.7428
   24MPD2     N  382   1.115   2.379  14.941  0.3450 -0.6089  0.2986
   24MPD2    H5  383   1.111   2.417  14.848 -0.4740  1.1118  1.0398
   24MPD2    N1  384   1.378   2.397  15.358 -0.2877 -0.8686  0.3422
   24MPD2    H7  385   1.471   2.419  15.393 -0.2802  0.2539 -0.4107
   25TMC2    C1  386   4.624   4.401  12.021 -0.1981 -0.8000 -0.1284
   25TMC2    C2  387   4.683   4.524  12.017 -1.0666  0.2193  0.1073
   25TMC2    C3  388   4.620   4.627  12.077 -0.2869 -0.1731 -0.0045
   25TMC2    C4  389   4.496   4.375  12.075  0.4522 -0.0537 -0.1742
   25TMC2    C5  390   4.433   4.485  12.126 -0.1086 -0.4316  0.1740
   25TMC2    C6  391   4.499   4.614  12.132 -0.3606  0.0294 -0.5346
   25TMC2     C  392   4.707   4.292  11.976  0.5380  0.1504  0.2942
   25TMC2     O  393   0.082   4.314  11.953 -0.1903  0.0088 -0.2103
   25TMC2     H  394   0.040   4.533  11.971 -0.5475  1.9293  1.5480
   25TMC2    H1  395   4.443   4.280  12.080  0.5484 -0.0797  0.4157
   25TMC2    H2  396   4.466   4.694  12.198 -0.7517 -1.0508  0.5928
   25TMC2    C7  397   4.308   4.461  12.193 -0.1336  0.1161  0.2982
   25TMC2    C8  398   4.690   0.019  12.052  0.8016  0.1326  0.1973
   25TMC2    O1  399   4.295   4.359  12.256 -0.2703 -0.2714 -0.0872
   25TMC2    O2  400   0.060   0.019  11.996  0.4442  0.1904  0.4597
   25TMC2    O5  401   4.658   0.102  12.149  0.3387  0.1667 -0.1791
   25TMC2    H5  402   4.561   0.098  12.162 -0.0913  2.9870 -2.4957
   26MPD2     C  403   4.721   3.863  11.687  0.3523  0.2125  0.1253
   26MPD2    C1  404   4.620   3.846  11.778  0.6211 -0.2727  0.2200
   26MPD2    C2  405   4.601   3.950  11.874 -0.1965  0.5592  0.0413
   26MPD2    C3  406   4.676   4.071  11.875 -0.0513  0.8530  0.2545
   26MPD2    C4  407   0.045   4.079  11.791  0.0751  0.6853 -0.1760
   26MPD2    C5  408   0.068   3.970  11.708  0.0094  0.7693  0.5399
   26MPD2     H  409   4.525   3.930  11.949  2.0911  1.4303  2.5833
   26MPD2    H1  410   0.107   4.165  11.771  1.5012 -0.7588 -2.0441
   26MPD2    H2  411   0.010   3.785  11.618 -2.1390 -0.2861 -0.3742
   26MPD2    H3  412   0.159   3.973  11.650 -1.1419 -0.5866 -1.3363
   26MPD2     N  413   4.633   4.178  11.954  0.1305  0.2204  0.4915
   26MPD2    H5  414   4.548   4.162  12.007  0.2665 -0.4547  0.4986
   26MPD2    N1  415   4.551   3.721  11.775  0.1645  0.3783  0.6029
   26MPD2    H7  416   4.580   3.651  11.709 -1.2496  0.1450  0.2276
   27TMC2    C1  417   3.960   1.527  12.334  0.0822  0.0568 -0.6433
   27TMC2    C2  418   3.974   1.504  12.200  0.8953 -0.4453  0.3645
   27TMC2    C3  419   3.965   1.613  12.116  0.4022  0.3775 -0.3830
   27TMC2    C4  420   3.969   1.649  12.395 -0.1827 -0.2235  0.4588
   27TMC2    C5  421   3.983   1.759  12.301  0.3448 -0.1477  0.3689
   27TMC2    C6  422   3.986   1.736  12.164  0.1857 -0.4392  0.2585
   27TMC2     C  423   3.912   1.419  12.410  0.3766 -0.3329 -0.1231
   27TMC2     O  424   3.933   1.305  12.376 -0.4251 -0.0932  0.1517
   27TMC2     H  425   3.964   1.403  12.161  1.1675  0.2816 -1.6025
   27TMC2    H1  426   3.956   1.657  12.502  1.0082 -1.8134  0.7331
   27TMC2    H2  427   3.988   1.819  12.095 -1.6741 -0.2311  0.4659
   27TMC2    C7  428   3.937   1.892  12.334  0.4331  0.8806  1.0591
   27TMC2    C8  429   3.965   1.586  11.978 -0.5240 -0.0350  0.0525
   27TMC2    O1  430   3.896   1.954  12.238 -0.4042  0.4214  0.3260
   27TMC2    O2  431   4.001   1.476  11.936 -0.1791 -0.1933 -0.0739
   27TMC2    O5  432   3.921   1.696  11.908 -0.1628  0.1771  0.1069
   27TMC2    H5  433   3.863   1.762  11.953  0.9258 -0.0991  1.9164
   28MPD2     C  434   3.621   1.205  12.771 -0.6731  0.5611 -0.6515
   28MPD2    C1  435   3.580   1.332  12.755 -0.4483 -0.8834  0.3913
   28MPD2    C2  436   3.648   1.416  12.667 -0.0758 -0.0500 -1.3316
   28MPD2    C3  437   3.753   1.366  12.588 -0.2454  0.3541  0.0157
   28MPD2    C4  438   3.789   1.235  12.605 -0.0944  0.3613 -0.3954
   28MPD2    C5  439   3.724   1.156  12.697  0.4708  0.6391 -0.4630
   28MPD2     H  440   3.614   1.516  12.645 -2.3448 -0.1048  1.7814
   28MPD2    H1  441   3.864   1.184  12.544  0.1120 -0.5760  0.6278
   28MPD2    H2  442   3.564   1.151  12.845 -0.7334 -0.2249 -1.2732
   28MPD2    H3  443   3.741   1.049  12.693 -1.8568  0.2613 -0.1956
   28MPD2     N  444   3.823   1.458  12.508 -0.2952  0.0405  0.3816
   28MPD2    H5  445   3.802   1.557  12.517 -0.8626 -0.0216 -0.1934
   28MPD2    N1  446   3.465   1.375  12.818  0.1939 -0.1935 -0.2847
   28MPD2    H7  447   3.424   1.305  12.879 -0.4139  1.0379  0.7214
   29TMC2    C1  448   3.028   4.342  14.458  0.1110 -1.0350 -0.8851
   29TMC2    C2  449   2.997   4.365  14.588  0.1536  0.2473  0.1379
   29TMC2    C3  450   2.991   4.495  14.629  0.1085  0.9110  0.1797
   29TMC2    C4  451   3.063   4.447  14.374  0.4892 -0.0951 -0.7254
   29TMC2    C5  452   3.052   4.573  14.423  0.2603 -0.0138 -0.1005
   29TMC2    C6  453   3.015   4.602  14.549 -0.3217 -0.0619 -0.0673
   29TMC2     C  454   3.029   4.203  14.406  0.5017 -0.0237 -0.1036
   29TMC2     O  455   3.008   4.107  14.485  0.4970 -0.0337 -0.5222
   29TMC2     H  456   2.998   4.284  14.660  1.4801 -0.3777 -0.5902
   29TMC2    H1  457   3.084   4.437  14.268 -1.4957  1.8617 -1.2888
   29TMC2    H2  458   3.012   4.702  14.591 -1.0569  0.3783 -1.1811
   29TMC2    C7  459   3.082   4.690  14.351 -0.1366  0.4074  0.6831
   29TMC2    C8  460   2.970   4.516  14.765  0.9584 -0.6541  1.0589
   29TMC2    O1  461   3.037   4.701  14.238  0.1891  0.2205  0.1649
   29TMC2    O2  462   2.995   4.621  14.818 -0.4038 -0.3657  0.9208
   29TMC2    O5  463   2.845   4.453  14.777  0.4251  0.1932 -0.1804
   29TMC2    H5  464   2.818   4.414  14.691  2.0174 -0.1279 -0.5288
   30MPD2     C  465   3.006   3.859  14.032  0.1916  0.9430  0.4065
   30MPD2    C1  466   3.061   3.848  14.159  0.4221  0.2614  0.3868
   30MPD2    C2  467   3.053   3.961  14.241  0.7741 -0.9505 -0.0965
   30MPD2    C3  468   3.009   4.081  14.189 -0.0077  0.0878  0.5790
   30MPD2    C4  469   2.962   4.091  14.059 -0.0376  0.0988  0.0844
   30MPD2    C5  470   2.959   3.983  13.988 -0.5410 -0.6242  0.3173
   30MPD2     H  471   3.082   3.949  14.345 -2.2644  1.2877  1.0106
   30MPD2    H1  472   2.942   4.188  14.014  1.2159  0.7647  0.9691
   30MPD2    H2  473   3.008   3.771  13.969  1.1927  0.5478  0.9965
   30MPD2    H3  474   2.937   3.991  13.882 -0.4508  1.8926  0.4954
   30MPD2     N  475   3.010   4.197  14.270 -0.0628 -0.2100  0.3063
   30MPD2    H5  476   2.988   4.283  14.221 -0.0956 -0.5284 -0.2390
   30MPD2    N1  477   3.116   3.727  14.212 -0.5605 -0.1469  0.0335
   30MPD2    H7  478   3.144   3.733  14.309 -2.3889 -2.0302  0.6708
   31TMC2    C1  479   0.775   3.133  15.309  0.5674 -0.1222 -0.2525
   31TMC2    C2  480   0.646   3.180  15.316 -0.8676  0.3294  0.7075
   31TMC2    C3  481   0.589   3.201  15.443 -0.5673  0.6622  0.0845
   31TMC2    C4  482   0.830   3.083  15.425  0.0088 -0.5243  0.2938
   31TMC2    C5  483   0.751   3.070  15.540  0.0331  0.0228  1.4947
   31TMC2    C6  484   0.634   3.135  15.552 -0.0933 -0.0616 -0.4723
   31TMC2     C  485   0.822   3.088  15.179  0.0110  0.0633 -0.3945
   31TMC2     O  486   0.749   3.115  15.081  0.8363  0.3464  0.1027
   31TMC2     H  487   0.597   3.210  15.224  2.2152 -1.5470 -1.5442
   31TMC2    H1  488   0.932   3.046  15.438 -0.1330 -1.1443 -0.3309
   31TMC2    H2  489   0.578   3.157  15.641  1.3106  1.2975  0.0831
   31TMC2    C7  490   0.806   3.005  15.665 -0.5163 -0.7415  0.4950
   31TMC2    C8  491   0.477   3.296  15.465 -0.0976  0.3561  0.3201
   31TMC2    O1  492   0.912   2.943  15.643 -0.1857  0.0643  0.1999
   31TMC2    O2  493   0.408   3.304  15.568  0.2002 -0.1498  0.0547
   31TMC2    O5  494   0.469   3.387  15.366  0.0322  0.2474 -0.6889
   31TMC2    H5  495   0.544   3.384  15.302  0.5501  1.9400 -0.1802
   32MPD2     C  496   1.198   2.894  14.888  0.8833 -0.9991  0.5802
   32MPD2    C1  497   1.098   2.987  14.854  0.5052  1.0154  0.9909
   32MPD2    C2  498   1.010   3.025  14.951 -0.0267  0.4361 -0.4755
   32MPD2    C3  499   1.019   2.977  15.079 -0.0697  0.4094  0.3044
   32MPD2    C4  500   1.117   2.895  15.116 -0.8075 -0.2016  0.1352
   32MPD2    C5  501   1.206   2.842  15.021  0.4848 -0.4128 -0.3665
   32MPD2     H  502   0.945   3.109  14.933  0.0104  0.3262 -1.1199
   32MPD2    H1  503   1.123   2.854  15.217  1.3189 -0.3789 -0.0788
   32MPD2    H2  504   1.274   2.856  14.820  1.1505 -0.9878  0.8739
   32MPD2    H3  505   1.289   2.777  15.047  2.9533  2.9219  0.0100
   32MPD2     N  506   0.935   3.015  15.185 -0.1038 -0.3318 -0.5844
   32MPD2    H5  507   0.962   2.973  15.274  0.9669  0.6761 -0.4277
   32MPD2    N1  508   1.094   3.048  14.727  0.0038 -0.4831 -0.3448
   32MPD2    H7  509   1.175   3.038  14.668  2.0356  1.9317  2.0499
   33TMC2    C1  510   1.442   0.405  10.845 -0.5784 -0.5139  0.2940
   33TMC2    C2  511   1.577   0.373  10.823 -0.3132 -0.0979 -0.0124
   33TMC2    C3  512   1.642   0.462  10.745  0.6726  0.0251  0.5336
   33TMC2    C4  513   1.377   0.518  10.795  0.0673  0.2034  0.2300
   33TMC2    C5  514   1.461   0.607  10.725 -0.1155 -0.5182  0.3616
   33TMC2    C6  515   1.591   0.583  10.706 -0.3398  0.5513 -0.4237
   33TMC2     C  516   1.375   0.317  10.943  0.3175 -0.1853 -0.0593
   33TMC2     O  517   1.416   0.205  10.952 -0.2712  0.1546 -0.2073
   33TMC2     H  518   1.613   0.279  10.863  0.6796  0.5454  0.6021
   33TMC2    H1  519   1.271   0.532  10.811  0.0781  1.0318 -0.4141
   33TMC2    H2  520   1.645   0.648  10.638 -1.2791 -0.8621 -2.5027
   33TMC2    C7  521   1.395   0.719  10.660  0.8333  0.6880  0.5528
   33TMC2    C8  522   1.793   0.451  10.735  0.2580 -0.3215 -0.2038
   33TMC2    O1  523   1.451   0.751  10.556  0.1744  0.5992  0.5927
   33TMC2    O2  524   1.863   0.552  10.755  0.7740  0.0733 -0.3030
   33TMC2    O5  525   1.836   0.329  10.759  0.0982 -0.2192  0.3361
   33TMC2    H5  526   1.770   0.259  10.747 -2.8712  2.7199 -0.4624
   34MPD2     C  527   0.981   0.203  11.239  0.3982 -1.1629  0.1021
   34MPD2    C1  528   1.094   0.130  11.208  0.6108 -0.3477 -1.0445
   34MPD2    C2  529   1.189   0.182  11.131 -0.2920 -0.6748  0.5657
   34MPD2    C3  530   1.173   0.313  11.081 -0.1023 -0.5458  0.5036
   34MPD2    C4  531   1.064   0.389  11.115  0.4730  0.0914  0.0186
   34MPD2    C5  532   0.963   0.330  11.189  0.0593  0.1080 -0.0662
   34MPD2     H  533   1.274   0.120  11.107 -0.5677 -0.4305 -1.0493
   34MPD2    H1  534   1.060   0.489  11.072  0.5385  0.0951  0.0212
   34MPD2    H2  535   0.905   0.161  11.304  0.9888  0.8845  2.1398
   34MPD2    H3  536   0.871   0.381  11.216 -1.7994 -2.7930 -0.7996
   34MPD2     N  537   1.265   0.377  10.997 -0.1289  0.1105  0.5071
   34MPD2    H5  538   1.239   0.473  10.978  3.3921  0.8776 -0.3970
   34MPD2    N1  539   1.092   4.732  11.236  0.4789 -0.1382  0.5659
   34MPD2    H7  540   1.001   4.695  11.261 -0.3818  1.6658  0.0643
   35TMC2    C1  541   2.131   1.783  12.005 -0.5150  0.1052 -0.5288
   35TMC2    C2  542   2.048   1.886  11.959  0.2079  0.1612  0.4646
   35TMC2    C3  543   1.929   1.846  11.901  0.5072  0.0839 -0.7963
   35TMC2    C4  544   2.104   1.648  11.989  0.0405  0.6137  0.9182
   35TMC2    C5  545   1.990   1.620  11.906  0.4947 -0.2902 -0.3088
   35TMC2    C6  546   1.909   1.717  11.871  0.5392 -0.0333 -0.0093
   35TMC2     C  547   2.267   1.826  12.040 -0.8131 -0.5074  0.0799
   35TMC2     O  548   2.275   1.948  12.048  0.6566 -0.0805 -0.4721
   35TMC2     H  549   2.057   1.987  11.998  0.3407  1.0915 -1.9606
   35TMC2    H1  550   2.166   1.578  12.043 -2.0521 -2.6299 -0.8782
   35TMC2    H2  551   1.820   1.691  11.814  1.1120 -1.0033 -0.4522
   35TMC2    C7  552   1.945   1.484  11.896  0.1984 -0.1724  0.1683
   35TMC2    C8  553   1.855   1.952  11.842 -0.0095  0.4522 -0.2545
   35TMC2    O1  554   1.835   1.474  11.847 -0.1124 -0.3032  0.0758
   35TMC2    O2  555   1.904   2.057  11.811  0.1004  0.0740 -0.3468
   35TMC2    O5  556   1.723   1.919  11.836 -0.2277  1.0874  0.3614
   35TMC2    H5  557   1.702   1.828  11.864  0.9990  0.3541 -1.0907
   36MPD2     C  558   2.742   1.751  12.224 -0.3239  0.1014  0.6787
   36MPD2    C1  559   2.708   1.635  12.155  0.9164 -0.2908  0.5232
   36MPD2    C2  560   2.591   1.633  12.079 -0.0254  0.0303  0.6730
   36MPD2    C3  561   2.497   1.743  12.085  0.5127  0.2241  0.6479
   36MPD2    C4  562   2.535   1.851  12.160 -0.5994 -0.6399  0.5807
   36MPD2    C5  563   2.663   1.866  12.212 -0.3194 -0.5119 -0.1239
   36MPD2     H  564   2.578   1.549  12.012 -0.8855 -0.8749  1.9814
   36MPD2    H1  565   2.476   1.942  12.152 -2.1674 -1.5171  2.0933
   36MPD2    H2  566   2.830   1.756  12.287 -1.2721 -2.2770  2.2225
   36MPD2    H3  567   2.692   1.954  12.267  0.6471  0.2122 -1.7920
   36MPD2     N  568   2.363   1.726  12.039  0.8421  0.2194  0.5747
   36MPD2    H5  569   2.340   1.648  11.980  0.2346  0.5279  0.4024
   36MPD2    N1  570   2.807   1.539  12.157 -0.5056 -0.2584  0.5496
   36MPD2    H7  571   2.888   1.558  12.215  0.4050  0.4961 -0.9552
   37TMC2    C1  572   0.923   2.458  12.700 -0.8292  0.2541 -0.8560
   37TMC2    C2  573   1.054   2.431  12.723  0.1329  0.6107 -0.3575
   37TMC2    C3  574   1.140   2.428  12.615 -0.2650  0.3122  0.3775
   37TMC2    C4  575   0.875   2.473  12.577 -0.1651 -0.5676 -0.3118
   37TMC2    C5  576   0.964   2.473  12.470  0.0623 -0.1938  0.0705
   37TMC2    C6  577   1.097   2.455  12.487  0.2604  1.4027  0.0621
   37TMC2     C  578   0.828   2.455  12.807  0.8015  0.1256 -0.0887
   37TMC2     O  579   0.721   2.519  12.790  0.5538 -0.5068 -0.0285
   37TMC2     H  580   1.104   2.403  12.816 -0.8415 -1.7687 -0.5447
   37TMC2    H1  581   0.770   2.501  12.567  0.6121  1.2520 -3.2654
   37TMC2    H2  582   1.169   2.467  12.407  1.0507  1.0918  0.7342
   37TMC2    C7  583   0.909   2.470  12.337 -0.2750 -0.7437 -0.1548
   37TMC2    C8  584   1.280   2.432  12.642  0.6023 -0.3709 -0.0605
   37TMC2    O1  585   0.796   2.516  12.329  0.8646  0.0479  0.1158
   37TMC2    O2  586   1.325   2.433  12.755  0.6527 -0.0676 -0.6731
   37TMC2    O5  587   1.354   2.392  12.537  0.4281 -0.4896 -0.0829
   37TMC2    H5  588   1.310   2.380  12.450  0.7806  1.4436 -0.5204
   38MPD2     C  589   0.585   2.215  13.186  0.3366 -0.3205 -0.0975
   38MPD2    C1  590   0.686   2.137  13.131  0.6671 -0.5020 -0.4472
   38MPD2    C2  591   0.773   2.177  13.039  0.0197  0.5990 -0.4521
   38MPD2    C3  592   0.765   2.307  12.988  0.3833  0.2273 -0.8117
   38MPD2    C4  593   0.661   2.384  13.039 -0.4078  0.1316 -0.2241
   38MPD2    C5  594   0.584   2.342  13.145 -0.3362  0.0544 -0.0942
   38MPD2     H  595   0.841   2.110  12.989 -0.1253  0.5726 -0.6145
   38MPD2    H1  596   0.639   2.484  13.003  0.7104  0.6155  0.4446
   38MPD2    H2  597   0.513   2.187  13.262  1.5926  0.2735  1.3100
   38MPD2    H3  598   0.520   2.420  13.184  2.0032  2.0836 -0.2945
   38MPD2     N  599   0.848   2.345  12.883  0.3043 -0.1212 -0.5148
   38MPD2    H5  600   0.928   2.290  12.853  1.0354 -0.3403  1.8451
   38MPD2    N1  601   0.684   1.997  13.150 -0.3650  0.7337 -0.0722
   38MPD2    H7  602   0.747   1.942  13.091  1.1781 -0.4722  2.6802
   39TMC2    C1  603   2.917   3.769   1.966 -0.1240  0.3390  0.4664
   39TMC2    C2  604   2.846   3.786   2.078 -0.0785 -0.2527 -0.2904
   39TMC2    C3  605   2.914   3.826   2.190  0.0922  0.6633  0.5991
   39TMC2    C4  606   3.052   3.776   1.969 -0.4710 -0.6119 -0.1400
   39TMC2    C5  607   3.115   3.818   2.078 -0.3314  0.2981 -0.4201
   39TMC2    C6  608   3.046   3.849   2.190 -0.6174 -0.6522 -0.6325
   39TMC2     C  609   2.833   3.747   1.847  0.1685 -0.5616 -0.0283
   39TMC2     O  610   2.711   3.755   1.867  0.2078 -0.1809 -0.1519
   39TMC2     H  611   2.739   3.793   2.092 -0.3069 -1.3417 -1.4974
   39TMC2    H1  612   3.113   3.737   1.888  0.0805 -0.2723  0.1125
   39TMC2    H2  613   3.099   3.871   2.282  0.1228  0.4462 -1.3260
   39TMC2    C7  614   3.262   3.822   2.084  0.1544 -0.1872 -0.4830
   39TMC2    C8  615   2.830   3.884   2.292  0.5674  0.0136  0.0772
   39TMC2    O1  616   3.307   3.804   2.194  0.7365 -0.0960 -0.1343
   39TMC2    O2  617   2.717   3.847   2.317 -0.6796  0.1627  0.5087
   39TMC2    O5  618   2.882   4.003   2.334  0.8127 -0.7696  0.0210
   39TMC2    H5  619   2.963   4.032   2.288  2.2413 -2.9953  1.1222
   40MPD2     C  620   2.944   3.602   1.526  0.4838  0.3245  0.3405
   40MPD2    C1  621   2.851   3.646   1.618  0.5701 -0.0446 -0.4740
   40MPD2    C2  622   2.717   3.621   1.601  0.0518  0.1614 -0.0428
   40MPD2    C3  623   2.670   3.561   1.484  0.1432 -0.5644  0.1572
   40MPD2    C4  624   2.758   3.543   1.380  0.5790 -0.7484 -0.3084
   40MPD2    C5  625   2.896   3.552   1.406  0.5999  0.1765  0.3200
   40MPD2     H  626   2.653   3.638   1.688 -1.1058 -0.1065 -0.8460
   40MPD2    H1  627   2.721   3.482   1.299 -1.9195  0.3700 -0.0379
   40MPD2    H2  628   3.050   3.625   1.536  0.7101 -0.8415  0.6057
   40MPD2    H3  629   2.966   3.526   1.328 -1.6013  0.3292 -1.6934
   40MPD2     N  630   2.529   3.541   1.463 -0.3900 -0.6111  0.8145
   40MPD2    H5  631   2.509   3.520   1.366 -0.3427 -0.5638  0.7948
   40MPD2    N1  632   2.903   3.695   1.743 -0.1478 -0.0131  0.5389
   40MPD2    H7  633   3.002   3.678   1.758 -0.0586 -1.2270 -1.5334
   41TMC2    C1  634   1.894   2.065  12.948  0.1574 -0.2329 -0.2954
   41TMC2    C2  635   1.827   2.176  12.907 -0.2394  0.7129  0.0967
   41TMC2    C3  636   1.893   2.273  12.837 -0.2359 -0.1970 -0.5369
   41TMC2    C4  637   2.027   2.036  12.906  0.6122  0.1747  0.0485
   41TMC2    C5  638   2.088   2.132  12.829  0.8005  0.3462  0.3310
   41TMC2    C6  639   2.021   2.248  12.800  0.4168 -0.5493  0.2946
   41TMC2     C  640   1.825   1.979  13.035  0.4374  0.3629 -0.5586
   41TMC2     O  641   1.714   1.939  12.999 -0.0572  0.2195  0.2332
   41TMC2     H  642   1.730   2.201  12.947 -1.2560  0.9374 -2.5566
   41TMC2    H1  643   2.076   1.946  12.943  0.5062  0.9793  2.1254
   41TMC2    H2  644   2.080   2.333  12.768 -2.7172  1.0152 -1.4077
   41TMC2    C7  645   2.226   2.122  12.800 -0.6668 -0.6410 -0.0136
   41TMC2    C8  646   1.889   2.407  12.887  0.2309 -0.3011 -0.0547
   41TMC2    O1  647   2.287   2.217  12.759 -0.2678 -0.1695 -0.3346
   41TMC2    O2  648   1.861   2.504  12.816 -0.0569 -0.0449  0.4093
   41TMC2    O5  649   1.850   2.404  13.016  0.3336  0.1575  0.1137
   41TMC2    H5  650   1.913   2.348  13.065  0.3292  1.8794  2.0887
   42MPD2     C  651   1.714   1.846  13.287 -0.4761 -0.2306 -0.7938
   42MPD2    C1  652   1.813   1.941  13.280 -0.4680 -0.1322  0.8630
   42MPD2    C2  653   1.885   1.978  13.391 -0.5253 -0.6503  0.1339
   42MPD2    C3  654   1.843   1.940  13.523  0.3212  0.6090  0.2868
   42MPD2    C4  655   1.733   1.855  13.524  0.3866  0.5073  0.2591
   42MPD2    C5  656   1.676   1.806  13.411 -0.1074  0.2722 -0.7793
   42MPD2     H  657   1.971   2.043  13.380 -2.0659  1.2109 -0.9014
   42MPD2    H1  658   1.691   1.822  13.618  0.7263 -2.1732 -0.5518
   42MPD2    H2  659   1.660   1.806  13.201 -0.0474  0.1999 -1.2620
   42MPD2    H3  660   1.593   1.736  13.421  1.7941 -1.6149  1.7344
   42MPD2     N  661   1.897   1.978  13.646 -0.7113  0.1655 -0.4361
   42MPD2    H5  662   1.851   1.949  13.731 -3.1629  1.2674 -1.4005
   42MPD2    N1  663   1.871   1.983  13.160 -0.4290 -0.2230 -0.0638
   42MPD2    H7  664   1.954   2.037  13.178 -1.3653  0.5686  1.8847
   43TMC2    C1  665   3.018   0.071   0.716  0.4809  0.1592  0.8585
   43TMC2    C2  666   2.937   0.144   0.632 -0.2635  0.3158 -0.9559
   43TMC2    C3  667   2.938   0.277   0.626  0.3345 -0.3394  0.3825
   43TMC2    C4  668   3.114   0.138   0.787  0.0515  0.0374 -0.0840
   43TMC2    C5  669   3.111   0.275   0.788  0.4095  0.0579  0.7919
   43TMC2    C6  670   3.017   0.349   0.713  0.0866 -0.2958 -0.3177
   43TMC2     C  671   3.076   4.681   0.673 -0.6371 -0.0249 -0.5410
   43TMC2     O  672   3.196   4.673   0.667 -0.4307 -0.3596  0.7593
   43TMC2     H  673   2.864   0.088   0.575 -0.5441 -0.9355  0.6474
   43TMC2    H1  674   3.189   0.082   0.843 -1.3572 -1.1042  0.6527
   43TMC2    H2  675   3.008   0.457   0.720 -2.2012 -0.4001 -1.6225
   43TMC2    C7  676   3.220   0.345   0.857  0.7354 -0.6396 -0.2080
   43TMC2    C8  677   2.831   0.343   0.548  1.0361 -0.0942 -0.0650
   43TMC2    O1  678   3.270   0.299   0.958 -0.3291  0.2991 -0.0519
   43TMC2    O2  679   2.800   0.314   0.436 -0.4550 -0.5911 -0.4869
   43TMC2    O5  680   2.732   0.375   0.639  0.2074 -0.4956  0.6864
   43TMC2    H5  681   2.756   0.372   0.734  1.1379  0.3667  0.4785
   44MPD2     C  682   3.018   4.166   0.613  0.8378 -0.0071  0.1691
   44MPD2    C1  683   3.118   4.258   0.568 -0.9407  0.8353 -1.2590
   44MPD2    C2  684   3.111   4.394   0.601  0.2100  0.1716 -0.5383
   44MPD2    C3  685   2.997   4.441   0.661  0.8679 -0.5674 -0.5319
   44MPD2    C4  686   2.901   4.350   0.704  0.1930 -0.0430 -0.3003
   44MPD2    C5  687   2.903   4.215   0.670 -0.1374 -0.0002  0.4913
   44MPD2     H  688   3.193   4.462   0.581  0.2620 -0.1215 -1.3583
   44MPD2    H1  689   2.810   4.382   0.753 -0.1748  0.4755 -1.3329
   44MPD2    H2  690   3.026   4.061   0.586  3.0378  0.1460  0.2111
   44MPD2    H3  691   2.821   4.146   0.689 -0.2120 -0.4179 -1.3452
   44MPD2     N  692   2.979   4.579   0.685  0.3295  0.1434 -0.4624
   44MPD2    H5  693   2.890   4.613   0.719  1.1864  0.7220  1.2141
   44MPD2    N1  694   3.237   4.224   0.506 -0.4278 -0.2828  0.4974
   44MPD2    H7  695   3.305   4.292   0.477 -2.3930  1.3065 -0.3689
   45TMC2    C1  696   3.878   2.420  10.130  0.2740  0.5776  0.5310
   45TMC2    C2  697   3.775   2.471  10.063 -0.4832  0.5749  0.9434
   45TMC2    C3  698   3.775   2.605  10.046 -0.1738  0.1926 -0.5853
   45TMC2    C4  699   3.991   2.493  10.163 -0.3653 -0.1787  0.4085
   45TMC2    C5  700   3.984   2.631  10.143  0.3396  0.1647 -0.4863
   45TMC2    C6  701   3.874   2.689  10.082  0.1478 -0.0748 -0.5193
   45TMC2     C  702   3.909   2.275  10.142 -0.0243 -0.4952  0.6675
   45TMC2     O  703   3.998   2.244  10.215 -0.1824 -0.6148  0.0155
   45TMC2     H  704   3.681   2.418  10.049 -0.0527  0.8484 -2.8901
   45TMC2    H1  705   4.076   2.448  10.213  0.5846  0.0853 -0.9859
   45TMC2    H2  706   3.863   2.797  10.075 -0.4934 -0.1696 -1.0506
   45TMC2    C7  707   4.093   2.712  10.192  0.2111 -0.4022  0.1717
   45TMC2    C8  708   3.665   2.653   9.965 -0.1513 -0.1488 -0.0451
   45TMC2    O1  709   4.155   2.664  10.285  0.1769  0.0706  0.4832
   45TMC2    O2  710   3.570   2.587   9.926  0.5303  0.1206  0.1080
   45TMC2    O5  711   3.708   2.764   9.899 -0.2811  0.8586 -0.0246
   45TMC2    H5  712   3.798   2.789   9.930  0.1724 -2.5414  1.3465
   46MPD2     C  713   3.980   2.001  10.051 -0.4042 -0.7646 -0.0126
   46MPD2    C1  714   3.871   2.069   9.998  0.1512  0.6764 -0.4475
   46MPD2    C2  715   3.790   2.009   9.905  0.6663  0.2338  0.5536
   46MPD2    C3  716   3.809   1.874   9.868  0.8233 -0.2918  0.3655
   46MPD2    C4  717   3.930   1.815   9.912  0.5727 -0.5806  0.0393
   46MPD2    C5  718   4.006   1.878  10.005 -0.4439 -0.3558 -0.0598
   46MPD2     H  719   3.702   2.057   9.863  1.3840 -1.1077 -2.4755
   46MPD2    H1  720   3.959   1.719   9.870  2.3713  0.3807 -0.9176
   46MPD2    H2  721   4.053   2.056  10.111 -1.0092 -0.0979  0.1162
   46MPD2    H3  722   4.095   1.831  10.044 -0.0133 -0.2816 -0.9563
   46MPD2     N  723   3.702   1.809   9.808 -0.1888  0.3976 -0.2356
   46MPD2    H5  724   3.621   1.862   9.775 -1.9364 -0.9570  1.8898
   46MPD2    N1  725   3.845   2.205  10.035  0.0461 -0.1584  0.2577
   46MPD2    H7  726   3.772   2.252   9.983  2.2727 -0.0277 -2.7816
   47TMC2    C1  727   2.178   2.399   9.296 -0.2101  0.1417 -0.3990
   47TMC2    C2  728   2.218   2.393   9.163  0.0858  0.5369  0.5601
   47TMC2    C3  729   2.130   2.412   9.068 -0.1234 -0.6662  0.0281
   47TMC2    C4  730   2.048   2.429   9.326 -0.1201 -0.7007  0.0031
   47TMC2    C5  731   1.963   2.449   9.218 -0.6369 -0.7220  0.5438
   47TMC2    C6  732   1.996   2.437   9.087  0.1416  0.1264  0.0611
   47TMC2     C  733   2.277   2.389   9.393 -0.8300  0.1982  0.8107
   47TMC2     O  734   2.392   2.397   9.350 -0.2938  0.0269 -0.1222
   47TMC2     H  735   2.321   2.383   9.132 -0.7072 -0.6337 -1.6907
   47TMC2    H1  736   2.009   2.455   9.424 -0.3477  1.6197 -0.7252
   47TMC2    H2  737   1.942   2.462   8.997  0.3342  1.5269  0.3417
   47TMC2    C7  738   1.828   2.494   9.249  0.0343 -0.7869 -0.1137
   47TMC2    C8  739   2.166   2.374   8.936 -0.3141  0.2610  0.2129
   47TMC2    O1  740   1.813   2.561   9.352  0.3520 -0.4740  0.2727
   47TMC2    O2  741   2.135   2.451   8.842  0.0438  0.8315 -0.1544
   47TMC2    O5  742   2.172   2.237   8.931 -0.1127 -0.1132  0.2949
   47TMC2    H5  743   2.183   2.190   9.016 -0.7179 -0.3935  0.2152
   48MPD2     C  744   2.430   2.364   9.651 -0.2963  0.9847  1.0008
   48MPD2    C1  745   2.299   2.352   9.648 -0.7338 -0.5290  0.4174
   48MPD2    C2  746   2.235   2.323   9.765  0.3477 -0.1418 -0.4658
   48MPD2    C3  747   2.304   2.292   9.888 -0.2574  0.2460 -0.2073
   48MPD2    C4  748   2.444   2.304   9.890 -0.5693 -0.4056  0.1897
   48MPD2    C5  749   2.497   2.344   9.768  0.2091  0.1536 -0.3550
   48MPD2     H  750   2.128   2.306   9.766  0.1144  1.2037 -2.8856
   48MPD2    H1  751   2.512   2.275   9.969 -1.8257 -2.6792  0.4352
   48MPD2    H2  752   2.489   2.363   9.560 -0.6436 -0.4155  0.8035
   48MPD2    H3  753   2.605   2.338   9.761  0.2828 -0.9130  1.6688
   48MPD2     N  754   2.225   2.260   9.994  0.0681 -0.0185 -0.3872
   48MPD2    H5  755   2.127   2.267   9.970  0.4301  1.7807 -1.3343
   48MPD2    N1  756   2.227   2.361   9.523 -0.2520  1.0462 -0.3242
   48MPD2    H7  757   2.127   2.343   9.529  0.0772 -0.7987 -0.3385
   49TMC2    C1  758   0.746   0.027  10.372  0.3777 -0.1605 -0.0029
   49TMC2    C2  759   0.825   4.665  10.404  0.6068 -0.3135 -0.4724
   49TMC2    C3  760   0.839   4.563  10.315 -0.4677  0.8554  0.9311
   49TMC2    C4  761   0.679   0.036  10.258  0.1575  0.4349  0.0547
   49TMC2    C5  762   0.685   4.669  10.166  0.0883  0.5560 -0.1214
   49TMC2    C6  763   0.765   4.566  10.197 -0.2119  0.4329 -0.3646
   49TMC2     C  764   0.735   0.146  10.459  0.0419  0.0260 -0.0064
   49TMC2     O  765   0.838   0.176  10.520  0.0210  0.2017 -0.2273
   49TMC2     H  766   0.865   4.659  10.504  0.7563  1.0410 -0.4530
   49TMC2    H1  767   0.617   0.124  10.246  1.6000  0.9903 -3.2160
   49TMC2    H2  768   0.767   4.475  10.138  1.9876  1.8160 -2.3978
   49TMC2    C7  769   0.578   4.640  10.069  0.3833 -0.8686 -0.4522
   49TMC2    C8  770   0.953   4.470  10.329  0.1008 -0.0454  0.2708
   49TMC2    O1  771   0.558   4.523  10.028  0.0723  0.8008 -0.4454
   49TMC2    O2  772   0.941   4.365  10.264  0.1626  0.6375  0.3016
   49TMC2    O5  773   0.986   4.478  10.460  0.1593 -0.3145 -0.4449
   49TMC2    H5  774   1.013   4.572  10.468  2.9982 -0.9270 -2.8090
   50MPD2     C  775   0.667   0.383  10.617  0.3331 -0.4393 -0.2808
   50MPD2    C1  776   0.581   0.281  10.587  0.5722  0.0179  0.3991
   50MPD2    C2  777   0.451   0.280  10.629  0.1638 -0.1852 -0.1810
   50MPD2    C3  778   0.402   0.382  10.710  0.4312 -0.3433  0.3816
   50MPD2    C4  779   0.480   0.493  10.729 -0.3759  0.2903  0.2862
   50MPD2    C5  780   0.614   0.486  10.692  0.3358  0.3633  0.4346
   50MPD2     H  781   0.389   0.192  10.613 -2.6017  1.4268  1.6925
   50MPD2    H1  782   0.445   0.584  10.776 -1.7601 -0.0215 -0.1306
   50MPD2    H2  783   0.766   0.401  10.575  0.3345 -0.2103 -0.1834
   50MPD2    H3  784   0.675   0.576  10.701 -1.3487  1.4769  0.7800
   50MPD2     N  785   0.267   0.389  10.762  0.5332  0.5959  0.6177
   50MPD2    H5  786   0.241   0.482  10.795  2.6585  2.2090 -2.3311
   50MPD2    N1  787   0.609   0.178  10.504  0.4044  0.3587 -0.3209
   50MPD2    H7  788   0.534   0.119  10.471  1.4906 -0.4986 -1.2654
   51TMC2    C1  789   0.270   3.841   1.672 -0.3177  0.0693 -0.3505
   51TMC2    C2  790   0.159   3.847   1.749  0.3469 -0.1337  0.1909
   51TMC2    C3  791   0.076   3.962   1.745 -0.2232 -0.2342  0.1235
   51TMC2    C4  792   0.296   3.948   1.584  0.0358  0.4800 -0.2431
   51TMC2    C5  793   0.206   4.058   1.588  0.2944  0.4240  0.8323
   51TMC2    C6  794   0.103   4.071   1.674  0.2073 -0.0403  0.3700
   51TMC2     C  795   0.342   3.715   1.646  0.3189  0.0188  0.2757
   51TMC2     O  796   0.413   3.701   1.545 -0.2287 -0.3134  0.5369
   51TMC2     H  797   0.114   3.771   1.811 -1.8453  1.8673  1.0410
   51TMC2    H1  798   0.372   3.943   1.507  0.7547  3.0572  0.2915
   51TMC2    H2  799   0.055   4.166   1.693 -0.6871 -0.1426 -1.3858
   51TMC2    C7  800   0.228   4.153   1.480 -0.3418  0.9291  1.1305
   51TMC2    C8  801   4.700   3.948   1.837  1.0334 -0.5752  0.9519
   51TMC2    O1  802   0.343   4.164   1.434  0.5310 -0.0920  0.3124
   51TMC2    O2  803   4.705   3.887   1.943 -0.3153 -0.6437 -0.1434
   51TMC2    O5  804   4.605   4.033   1.790  0.0675  0.0388 -0.2215
   51TMC2    H5  805   4.627   4.053   1.696 -2.2730 -1.1491 -1.0374
   52MPD2     C  806   0.482   3.250   1.834 -0.1591 -0.0298  0.0589
   52MPD2    C1  807   0.536   3.324   1.726  0.5429  0.0681 -0.3206
   52MPD2    C2  808   0.487   3.456   1.710  0.0984 -0.5431 -0.2638
   52MPD2    C3  809   0.375   3.504   1.774  0.1330 -0.3486 -0.1393
   52MPD2    C4  810   0.327   3.437   1.886  0.5536  1.1054  0.7913
   52MPD2    C5  811   0.394   3.319   1.922 -0.7737 -0.1657 -0.4656
   52MPD2     H  812   0.535   3.516   1.633  0.4994  1.0058  1.2105
   52MPD2    H1  813   0.241   3.468   1.944  1.2858  1.4028  1.7157
   52MPD2    H2  814   0.520   3.156   1.872  2.7909  1.3374  0.4726
   52MPD2    H3  815   0.376   3.258   2.010  2.6435 -0.0569  0.3410
   52MPD2     N  816   0.318   3.625   1.751  0.1242  0.6458  0.6134
   52MPD2    H5  817   0.255   3.655   1.824  1.1136  2.1421  0.8539
   52MPD2    N1  818   0.639   3.275   1.640  0.5934 -0.1355  0.0859
   52MPD2    H7  819   0.679   3.330   1.565  0.3847 -1.2331 -0.8281
   53TMC2    C1  820   0.688   2.697  11.677 -0.1645 -0.1580 -0.3812
   53TMC2    C2  821   0.625   2.706  11.552  0.2405  0.1461  0.0266
   53TMC2    C3  822   0.591   2.828  11.503 -0.3396 -0.1039 -0.1286
   53TMC2    C4  823   0.721   2.808  11.750  0.0525 -0.1902  0.3513
   53TMC2    C5  824   0.683   2.929  11.699  0.5175  0.2854 -0.2509
   53TMC2    C6  825   0.627   2.943  11.576 -0.5378  0.1410 -0.4452
   53TMC2     C  826   0.758   2.575  11.705  0.0210 -0.1407  0.4983
   53TMC2     O  827   0.808   2.513  11.609  0.1506 -0.5890 -0.2945
   53TMC2     H  828   0.611   2.615  11.493  0.6963 -0.4241  0.7959
   53TMC2    H1  829   0.772   2.803  11.845 -0.3424  0.5169  0.5962
   53TMC2    H2  830   0.594   3.043  11.549  0.0290  0.5307  0.3105
   53TMC2    C7  831   0.607   2.993  11.801 -0.2473  0.6967 -0.2526
   53TMC2    C8  832   0.525   2.846  11.379  0.2207  0.1554  0.8019
   53TMC2    O1  833   0.491   3.019  11.772  0.2272 -0.2062  0.0022
   53TMC2    O2  834   0.449   2.942  11.361  0.3336 -0.1097 -0.3779
   53TMC2    O5  835   0.527   2.729  11.311 -0.0428  0.7072 -0.5416
   53TMC2    H5  836   0.612   2.687  11.336 -0.0854 -0.3345 -2.1094
   54MPD2     C  837   0.898   2.348  11.830 -0.6082 -0.9507 -0.0736
   54MPD2    C1  838   0.854   2.460  11.896  0.0243  0.1175  0.0748
   54MPD2    C2  839   0.874   2.474  12.033 -0.2668  0.1619 -0.3595
   54MPD2    C3  840   0.945   2.386  12.106 -0.1726  0.2693 -0.1106
   54MPD2    C4  841   0.977   2.273  12.046  0.2422  0.0870  0.8253
   54MPD2    C5  842   0.954   2.254  11.911 -0.1926 -0.6084  0.6479
   54MPD2     H  843   0.848   2.571  12.074 -0.5005 -0.1436  0.2155
   54MPD2    H1  844   1.027   2.195  12.102 -2.0978 -2.1255 -0.1428
   54MPD2    H2  845   0.887   2.329  11.724  3.0070  2.6161 -1.1103
   54MPD2    H3  846   0.992   2.167  11.859 -1.7633 -0.8940 -0.0459
   54MPD2     N  847   0.976   2.397  12.246 -1.0640  0.3694 -0.8871
   54MPD2    H5  848   1.046   2.332  12.281 -0.1432  0.6426 -2.2099
   54MPD2    N1  849   0.771   2.562  11.840  0.8953 -0.2358 -0.5216
   54MPD2    H7  850   0.731   2.628  11.907 -1.4732  0.1556 -2.3481
   55TMC2    C1  851   1.396   0.435  17.747  0.3407  0.4756 -0.0451
   55TMC2    C2  852   1.372   0.394  17.617  0.0499  0.2206  0.4165
   55TMC2    C3  853   1.334   0.260  17.597 -1.0073 -0.1837  0.5535
   55TMC2    C4  854   1.386   0.353   0.095  0.3576 -0.3833  0.3156
   55TMC2    C5  855   1.346   0.221   0.071  0.0638  0.0236  0.7922
   55TMC2    C6  856   1.312   0.179  17.702 -0.6235 -0.1029 -0.5210
   55TMC2     C  857   1.380   0.573   0.022  0.1703  0.4445  0.3143
   55TMC2     O  858   1.335   0.593   0.137 -0.1093 -0.0075 -0.2108
   55TMC2     H  859   1.373   0.462  17.532 -1.2444  1.1914  1.1749
   55TMC2    H1  860   1.409   0.400   0.190 -0.3147 -0.2174  0.3947
   55TMC2    H2  861   1.273   0.080  17.689  0.9499 -0.9745  1.2840
   55TMC2    C7  862   1.309   0.133   0.187  0.1955 -0.3427 -0.3564
   55TMC2    C8  863   1.290   0.210  17.467  0.1595 -0.5441  0.5541
   55TMC2    O1  864   1.269   0.024   0.153  0.2200  0.2378 -0.4913
   55TMC2    O2  865   1.211   0.119  17.450  0.2709 -0.0966 -0.3186
   55TMC2    O5  866   1.357   0.277  17.371  0.3584 -0.7321  0.6313
   55TMC2    H5  867   1.433   0.335  17.390 -1.5214  1.3170  1.9615
   56MPD2     C  868   1.513   0.881  17.619  0.9513  0.0430  0.2230
   56MPD2    C1  869   1.457   0.804  17.717  0.1512  0.2404  0.1726
   56MPD2    C2  870   1.428   0.867   0.081 -1.1204  0.0009  0.2354
   56MPD2    C3  871   1.421   1.004   0.093 -0.3656  0.0909  0.2773
   56MPD2    C4  872   1.464   1.081  17.750  0.6044 -0.5864 -1.0811
   56MPD2    C5  873   1.512   1.017  17.640  0.6269  0.3194  0.8067
   56MPD2     H  874   1.408   0.806   0.168  1.8216 -1.8099 -0.3472
   56MPD2    H1  875   1.480   1.188  17.744 -2.5940  0.0341  1.7646
   56MPD2    H2  876   1.557   0.850  17.525 -1.2236 -3.0746  0.2260
   56MPD2    H3  877   1.544   1.089  17.566 -1.3011  1.1150  0.7370
   56MPD2     N  878   1.375   1.051   0.220 -0.3785 -0.6782  1.1279
   56MPD2    H5  879   1.370   0.985   0.298  2.1724 -0.1405  1.7456
   56MPD2    N1  880   1.429   0.668  17.693 -0.4179 -0.4663 -0.5737
   56MPD2    H7  881   1.442   0.639  17.596  0.0918 -0.0070 -0.6417
   57TMC2    C1  882   0.469   0.719  13.712  0.5869 -0.3164 -0.1387
   57TMC2    C2  883   0.403   0.597  13.719  0.0977  0.5263 -0.9853
   57TMC2    C3  884   0.405   0.519  13.610  0.3420 -0.2758  0.9242
   57TMC2    C4  885   0.540   0.754  13.597 -0.3085  0.4084 -0.4548
   57TMC2    C5  886   0.543   0.664  13.493  0.0232  1.0885  0.8613
   57TMC2    C6  887   0.478   0.547  13.491 -0.5585  0.1127  0.5328
   57TMC2     C  888   0.440   0.819  13.814  0.9537 -0.1625  0.4529
   57TMC2     O  889   0.469   0.937  13.785 -0.4453  0.1032 -0.1271
   57TMC2     H  890   0.329   0.567  13.792  1.5965  0.6447  0.5650
   57TMC2    H1  891   0.588   0.851  13.587 -0.2551  0.2462 -1.6841
   57TMC2    H2  892   0.469   0.487  13.401 -0.6982 -0.0789  0.6741
   57TMC2    C7  893   0.663   0.676  13.410  0.5694 -0.2206  0.5655
   57TMC2    C8  894   0.315   0.408  13.605 -0.2332 -0.0861 -0.2768
   57TMC2    O1  895   0.694   0.791  13.382  0.2112 -0.1058 -0.1954
   57TMC2    O2  896   0.197   0.442  13.619 -0.9565 -0.2724 -0.6515
   57TMC2    O5  897   0.349   0.324  13.506  0.2604 -0.4285 -0.2390
   57TMC2    H5  898   0.444   0.302  13.515  0.5678 -0.0666 -2.5447
   58MPD2     C  899   0.230   0.967  14.264  0.6709 -0.2065  0.4799
   58MPD2    C1  900   0.275   1.047  14.165  0.5736  0.0602 -0.1061
   58MPD2    C2  901   0.331   0.981  14.052 -0.1350  0.1721 -0.3839
   58MPD2    C3  902   0.327   0.842  14.041 -0.3520  0.1160 -0.3551
   58MPD2    C4  903   0.268   0.762  14.133  0.5241 -0.2637 -0.5724
   58MPD2    C5  904   0.219   0.827  14.249 -0.8931  0.8732 -0.1866
   58MPD2     H  905   0.376   1.045  13.977 -0.9740  1.2186  0.0057
   58MPD2    H1  906   0.287   0.656  14.128 -1.7765 -0.7283  0.6287
   58MPD2    H2  907   0.208   1.002  14.364 -1.2863  1.6077 -0.5807
   58MPD2    H3  908   0.176   0.767  14.329  1.3195 -2.0820 -1.2194
   58MPD2     N  909   0.375   0.763  13.927  0.3934 -0.9841  0.0932
   58MPD2    H5  910   0.366   0.662  13.933  2.7175 -1.2374 -0.3994
   58MPD2    N1  911   0.274   1.190  14.172 -0.2858  0.5078  0.0169
   58MPD2    H7  912   0.318   1.238  14.093 -0.0458  0.8430  0.3562
   59TMC2    C1  913   3.357   1.020  13.146  0.0894  0.1090 -0.3303
   59TMC2    C2  914   3.354   0.951  13.263 -0.4883  0.1733  0.0057
   59TMC2    C3  915   3.302   0.830  13.245 -0.1621 -0.0127 -0.5839
   59TMC2    C4  916   3.292   0.988  13.031  0.2248  0.4623 -0.3296
   59TMC2    C5  917   3.237   0.869  13.029  0.4339  0.0623  0.7610
   59TMC2    C6  918   3.237   0.790  13.138 -0.4360 -0.3694 -0.5598
   59TMC2     C  919   3.421   1.152  13.138  0.8639 -0.1090 -0.1724
   59TMC2     O  920   3.418   1.205  13.029 -0.4531 -0.1674 -0.5081
   59TMC2     H  921   3.422   0.977  13.344 -0.3978  0.6336 -0.2183
   59TMC2    H1  922   3.291   1.048  12.941 -0.0104  1.0560  0.0688
   59TMC2    H2  923   3.175   0.701  13.133 -0.2779 -0.6815  2.6117
   59TMC2    C7  924   3.171   0.806  12.910  0.0900  0.0583 -0.5517
   59TMC2    C8  925   3.312   0.736  13.355  0.3045 -0.2189 -0.0299
   59TMC2    O1  926   3.152   0.683  12.906 -0.4606  0.0735  0.0935
   59TMC2    O2  927   3.321   0.753  13.472  0.3652 -0.2355 -0.0826
   59TMC2    O5  928   3.341   0.623  13.297 -0.1861 -0.3758 -0.4463
   59TMC2    H5  929   3.366   0.650  13.206  2.4047 -0.3945  0.2667
   60MPD2     C  930   3.369   1.443  13.204 -0.1317  0.2577  0.0244
   60MPD2    C1  931   3.453   1.354  13.276 -0.1981  0.4286  0.5325
   60MPD2    C2  932   3.522   1.399  13.385 -0.2585  0.2638  0.8868
   60MPD2    C3  933   3.522   1.534  13.412 -0.2280 -0.8307  0.0459
   60MPD2    C4  934   3.440   1.621  13.337 -0.2191 -0.3820  0.4858
   60MPD2    C5  935   3.362   1.575  13.239  0.3715  0.1503  0.9527
   60MPD2     H  936   3.589   1.332  13.438 -0.3112 -0.0017  0.6169
   60MPD2    H1  937   3.447   1.728  13.359 -0.4070 -0.0080 -1.3068
   60MPD2    H2  938   3.306   1.401  13.126 -1.6398  0.6252  1.0397
   60MPD2    H3  939   3.306   1.638  13.172  1.0560  0.2054  0.4264
   60MPD2     N  940   3.609   1.590  13.509  0.4774  0.2119 -0.5244
   60MPD2    H5  941   3.609   1.691  13.509 -0.0463  0.2077 -2.0078
   60MPD2    N1  942   3.446   1.212  13.262 -0.3713 -0.4333 -0.0989
   60MPD2    H7  943   3.473   1.161  13.345  1.5313  0.9231  0.1131
   61TMC2    C1  944   1.650   2.994  14.976  0.0953 -0.5517 -1.0280
   61TMC2    C2  945   1.541   3.056  14.920 -0.4090 -0.4914 -0.1304
   61TMC2    C3  946   1.508   3.181  14.958 -0.0510  0.8186 -0.2113
   61TMC2    C4  947   1.716   3.053  15.075 -0.6678  0.2418 -0.0114
   61TMC2    C5  948   1.684   3.179  15.114 -0.3757  0.7703  0.2029
   61TMC2    C6  949   1.587   3.249  15.043  0.1730 -0.2180 -0.3173
   61TMC2     C  950   1.694   2.886  14.897  0.3748  0.3524 -0.4044
   61TMC2     O  951   1.603   2.815  14.855 -0.7141  0.3667  0.2572
   61TMC2     H  952   1.487   3.004  14.842  0.2311 -1.4434  0.0625
   61TMC2    H1  953   1.798   3.002  15.124 -0.1657  1.3515  0.3102
   61TMC2    H2  954   1.546   3.341  15.083  1.7263  0.5072 -0.3863
   61TMC2    C7  955   1.780   3.261  15.183 -0.7058 -0.2018 -0.3535
   61TMC2    C8  956   1.400   3.256  14.896  0.6137 -0.1484  0.3312
   61TMC2    O1  957   1.746   3.366  15.236  0.5872  0.3707 -0.9612
   61TMC2    O2  958   1.350   3.364  14.931  0.0767 -0.2955 -0.8211
   61TMC2    O5  959   1.378   3.200  14.770  0.0992 -0.1179 -0.1023
   61TMC2    H5  960   1.449   3.139  14.742 -0.4941 -1.6051  1.6603
   62MPD2     C  961   1.818   2.630  14.861  0.0478  0.1570  0.5920
   62MPD2    C1  962   1.891   2.745  14.878  0.5194  0.1225  0.6865
   62MPD2    C2  963   2.026   2.748  14.875 -0.1585  0.6540  0.4144
   62MPD2    C3  964   2.093   2.631  14.848 -0.5181 -0.9142  0.2114
   62MPD2    C4  965   2.023   2.511  14.833 -0.2234  0.7698  0.2197
   62MPD2    C5  966   1.888   2.513  14.838  0.6646  0.0117 -0.2102
   62MPD2     H  967   2.065   2.849  14.873  1.0817  0.1487 -0.2973
   62MPD2    H1  968   2.064   2.412  14.815  1.4571  1.4756  0.2124
   62MPD2    H2  969   1.710   2.625  14.862  0.0077  1.2546  1.2695
   62MPD2    H3  970   1.826   2.424  14.825  2.3572 -1.6297  3.0501
   62MPD2     N  971   2.233   2.623  14.810 -0.1900  0.2764  0.3012
   62MPD2    H5  972   2.267   2.529  14.790  1.0914  0.5942  1.0068
   62MPD2    N1  973   1.829   2.871  14.899 -0.1591  0.1432  0.2203
   62MPD2    H7  974   1.881   2.957  14.911 -1.1494  0.4390  2.4486
   63TMC2    C1  975   2.312   2.359  10.863 -0.9296  0.8651  0.3074
   63TMC2    C2  976   2.397   2.301  10.951 -0.3376 -0.0514 -0.0791
   63TMC2    C3  977   2.529   2.350  10.963 -0.7358 -0.2132 -0.1081
   63TMC2    C4  978   2.348   2.453  10.776  0.0334  0.0994  0.5626
   63TMC2    C5  979   2.478   2.497  10.787  0.7666  0.2522 -0.3508
   63TMC2    C6  980   2.577   2.442  10.871  0.8290 -0.4358  0.5447
   63TMC2     C  981   2.171   2.341  10.882  0.7353 -0.5234 -0.6603
   63TMC2     O  982   2.107   2.438  10.856 -0.4670 -0.4093  0.2137
   63TMC2     H  983   2.359   2.222  11.014  3.2797 -1.0702  0.8615
   63TMC2    H1  984   2.276   2.505  10.714  3.6649 -0.6097 -4.2470
   63TMC2    H2  985   2.676   2.486  10.872  0.1180  1.2022 -1.0115
   63TMC2    C7  986   2.522   2.614  10.709 -0.1825 -0.7606 -0.4840
   63TMC2    C8  987   2.621   2.282  11.055 -0.1143 -0.0774  0.5020
   63TMC2    O1  988   2.620   2.675  10.752 -0.2221 -0.0717 -0.1005
   63TMC2    O2  989   2.581   2.197  11.132 -0.3634  0.2548 -0.1115
   63TMC2    O5  990   2.748   2.311  11.014  0.5932  0.1485  0.6051
   63TMC2    H5  991   2.810   2.270  11.078  2.4106  0.3074 -1.0427
   64MPD2     C  992   1.750   2.069  10.988  0.1044 -0.1162  0.1417
   64MPD2    C1  993   1.857   2.005  11.050  0.3820 -0.3365  0.0247
   64MPD2    C2  994   1.985   2.057  11.025  1.3353 -0.1873 -0.3070
   64MPD2    C3  995   1.998   2.178  10.956  0.8724  0.2733  0.1294
   64MPD2    C4  996   1.885   2.250  10.925 -0.0705  0.1311  0.1733
   64MPD2    C5  997   1.763   2.190  10.940 -0.5541  0.9190  0.0937
   64MPD2     H  998   2.075   2.004  11.053  2.8506  0.9604 -3.0707
   64MPD2    H1  999   1.888   2.346  10.876 -1.2703  0.6299  1.0734
   64MPD2    H2 1000   1.650   2.028  10.986 -0.1237  0.4598 -0.2429
   64MPD2    H3 1001   1.672   2.238  10.907 -0.4202  1.7079  0.8666
   64MPD2     N 1002   2.132   2.213  10.921  0.0844  0.2219 -0.0804
   64MPD2    H5 1003   2.206   2.146  10.938  1.3541  2.0811  1.7426
   64MPD2    N1 1004   1.843   1.886  11.126 -0.1716  0.2045  0.3005
   64MPD2    H7 1005   1.930   1.854  11.169  1.1786  1.5656 -1.4292
   65TMC2    C1 1006   2.573   2.504  15.567  0.0386 -0.4369 -0.0687
   65TMC2    C2 1007   2.570   2.449  15.445  0.5059 -0.5684  0.1512
   65TMC2    C3 1008   2.557   2.532  15.343 -0.5841  0.1410  0.4252
   65TMC2    C4 1009   2.589   2.641  15.590 -0.1990 -0.3445 -0.5381
   65TMC2    C5 1010   2.574   2.725  15.483  0.5758  0.1581 -0.4072
   65TMC2    C6 1011   2.569   2.670  15.360 -0.0408  0.1419  0.6446
   65TMC2     C 1012   2.564   2.417  15.679  0.0467 -0.1193 -0.5112
   65TMC2     O 1013   2.529   2.466  15.785  0.2314  0.0858  0.0170
   65TMC2     H 1014   2.557   2.346  15.413  0.9677 -0.3857 -0.6436
   65TMC2    H1 1015   2.598   2.669  15.694 -0.8081 -0.1564 -0.5380
   65TMC2    H2 1016   2.551   2.735  15.275 -1.3092 -0.1128  0.7221
   65TMC2    C7 1017   2.539   2.861  15.505  0.3784  0.3395  0.4035
   65TMC2    C8 1018   2.551   2.496  15.204  0.2627  0.0711 -0.4004
   65TMC2    O1 1019   2.484   2.924  15.413  0.1780  0.0085 -0.1511
   65TMC2    O2 1020   2.488   2.396  15.161  0.2489 -0.1445 -0.5142
   65TMC2    O5 1021   2.661   2.549  15.147 -0.3877  0.0421 -0.3626
   65TMC2    H5 1022   2.714   2.607  15.205  1.5285 -1.1531 -0.9367
   66MPD2     C 1023   2.610   2.185  15.855 -0.4348 -0.3015 -0.4921
   66MPD2    C1 1024   2.640   2.186  15.721 -0.3038 -0.1997  0.2806
   66MPD2    C2 1025   2.691   2.060  15.672  0.3038 -0.0474  0.1284
   66MPD2    C3 1026   2.692   1.947  15.754  0.2515 -0.2896 -0.8286
   66MPD2    C4 1027   2.666   1.955  15.888 -0.1170  0.2201 -0.0307
   66MPD2    C5 1028   2.626   2.078  15.939 -0.4190  1.3826  0.1976
   66MPD2     H 1029   2.714   2.054  15.566 -0.8108 -0.9865 -0.0649
   66MPD2    H1 1030   2.668   1.872  15.957 -0.9125  1.1575  1.1278
   66MPD2    H2 1031   2.575   2.275  15.905  1.6593  0.0429  0.3352
   66MPD2    H3 1032   2.609   2.090  16.045  0.2688 -0.4277  0.5063
   66MPD2     N 1033   2.708   1.824  15.702  0.6276 -0.3483  0.4509
   66MPD2    H5 1034   2.708   1.751  15.773  2.4157  0.2523  1.0773
   66MPD2    N1 1035   2.614   2.293  15.641 -0.2936 -0.7339 -0.4428
   66MPD2    H7 1036   2.661   2.293  15.551 -0.1943 -2.2968 -0.3930
   67TMC2    C1 1037   3.113   1.844  14.461 -0.0905 -0.1510 -0.1170
   67TMC2    C2 1038   2.983   1.861  14.506  0.2738  0.4030  0.3531
   67TMC2    C3 1039   2.966   1.919  14.626  0.2929 -0.3031  0.2267
   67TMC2    C4 1040   3.223   1.881  14.529 -0.0243 -0.3884 -0.5676
   67TMC2    C5 1041   3.204   1.945  14.647 -0.1507  0.4513  0.9259
   67TMC2    C6 1042   3.070   1.960  14.697 -0.0257  0.1871 -0.4919
   67TMC2     C 1043   3.141   1.763  14.349  0.0944 -0.7034 -0.1004
   67TMC2     O 1044   3.243   1.704  14.329 -0.5670 -0.6979 -0.1092
   67TMC2     H 1045   2.899   1.808  14.463  0.2000  1.7527 -1.1385
   67TMC2    H1 1046   3.321   1.845  14.499  0.0759  0.3185 -1.0952
   67TMC2    H2 1047   3.052   2.020  14.786 -1.4419  0.2868 -0.8503
   67TMC2    C7 1048   3.314   1.962  14.737 -0.6792  0.2787  0.0515
   67TMC2    C8 1049   2.840   1.952  14.675 -0.5916  0.3332 -0.4365
   67TMC2    O1 1050   3.421   1.962  14.677 -0.7496  0.2822 -0.0810
   67TMC2    O2 1051   2.827   2.006  14.782  0.5933 -0.3325 -0.0180
   67TMC2    O5 1052   2.756   1.973  14.566 -1.1012 -0.5976  0.5532
   67TMC2    H5 1053   2.798   1.952  14.480  0.6034 -0.8472  1.4610
   68MPD2     C 1054   3.096   1.603  14.080 -0.2412  0.6830 -0.7025
   68MPD2    C1 1055   2.998   1.667  14.163 -0.0865 -0.2220  0.4302
   68MPD2    C2 1056   2.865   1.659  14.130 -0.5135  0.5346  0.4114
   68MPD2    C3 1057   2.825   1.586  14.018 -0.7845 -0.0348  0.5262
   68MPD2    C4 1058   2.915   1.522  13.938  0.1477 -0.3849  0.4532
   68MPD2    C5 1059   3.052   1.535  13.971  0.0412  0.3774 -0.4544
   68MPD2     H 1060   2.798   1.730  14.177 -2.7225 -0.4593 -1.2685
   68MPD2    H1 1061   2.882   1.458  13.856  1.9386  1.6839 -1.9026
   68MPD2    H2 1062   3.198   1.593  14.115 -0.2588  0.6815 -0.6511
   68MPD2    H3 1063   3.125   1.480  13.913 -0.1220 -0.8797  0.5196
   68MPD2     N 1064   2.693   1.586  13.980  0.0549 -0.1945 -0.5056
   68MPD2    H5 1065   2.657   1.554  13.890  2.2357 -0.2671 -1.3455
   68MPD2    N1 1066   3.025   1.749  14.271 -0.1135 -0.3219 -0.2497
   68MPD2    H7 1067   2.952   1.813  14.302  0.3966  0.4963 -0.7167
   69TMC2    C1 1068   1.005   2.860  12.893  0.8379  0.4191 -0.3169
   69TMC2    C2 1069   0.913   2.965  12.904 -0.0608  0.4113 -0.0970
   69TMC2    C3 1070   0.891   3.034  12.791  1.0248  0.3891 -0.1583
   69TMC2    C4 1071   1.064   2.833  12.770 -0.2601 -0.2605 -0.4583
   69TMC2    C5 1072   1.027   2.897  12.659  0.3700 -0.0441  0.1161
   69TMC2    C6 1073   0.939   3.001  12.667 -0.6068  0.4291 -0.1253
   69TMC2     C 1074   0.997   2.764  13.002 -0.1833 -0.6904  0.5073
   69TMC2     O 1075   0.917   2.792  13.086  0.1304 -0.1446  0.3844
   69TMC2     H 1076   0.882   3.004  13.000 -1.7669  1.3770 -1.0297
   69TMC2    H1 1077   1.136   2.752  12.767 -0.4844 -0.4416 -0.8239
   69TMC2    H2 1078   0.910   3.052  12.575 -2.6632 -0.9743 -0.2568
   69TMC2    C7 1079   1.086   2.844  12.537 -0.2076 -0.2990  1.0512
   69TMC2    C8 1080   0.806   3.147  12.808  0.6359  0.0351  0.3548
   69TMC2    O1 1081   1.161   2.750  12.545 -0.0676 -0.0838  0.1445
   69TMC2    O2 1082   0.785   3.196  12.919 -0.1201  0.2449  0.4742
   69TMC2    O5 1083   0.702   3.112  12.724  0.5082  0.3518  0.3818
   69TMC2    H5 1084   0.721   3.048  12.651 -1.2539  0.8113 -0.4916
   70MPD2     C 1085   1.199   2.470  13.074  0.0066 -0.2853 -0.5936
   70MPD2    C1 1086   1.091   2.556  13.083 -0.3422  0.2938 -0.2017
   70MPD2    C2 1087   0.990   2.531  13.180  0.3481 -0.5580 -0.4614
   70MPD2    C3 1088   0.996   2.419  13.267 -0.4085 -0.0276  0.2076
   70MPD2    C4 1089   1.102   2.339  13.254  0.4863 -0.5697 -0.0072
   70MPD2    C5 1090   1.203   2.362  13.162  0.3145 -0.2824 -0.5403
   70MPD2     H 1091   0.910   2.601  13.201  0.7468 -0.6114  1.1786
   70MPD2    H1 1092   1.107   2.265  13.333  2.8020  0.5759  0.9272
   70MPD2    H2 1093   1.285   2.493  13.012 -0.0471 -0.2245 -0.6461
   70MPD2    H3 1094   1.293   2.302  13.158 -0.0935 -0.8620 -1.1178
   70MPD2     N 1095   0.896   2.386  13.368  0.0127 -0.3504 -0.8297
   70MPD2    H5 1096   0.925   2.304  13.420 -0.3012 -0.6798 -1.1725
   70MPD2    N1 1097   1.084   2.658  12.994 -0.7616 -0.3055  0.3258
   70MPD2    H7 1098   1.159   2.654  12.925  1.5277  0.7352  2.7548
   71TMC2    C1 1099   2.451   3.108   1.293 -0.0024 -0.2592 -0.5743
   71TMC2    C2 1100   2.573   3.103   1.357  0.2194  0.2874  0.1168
   71TMC2    C3 1101   2.575   3.010   1.462 -0.0397 -0.2779 -0.4876
   71TMC2    C4 1102   2.340   3.033   1.336  0.4377 -0.4801  0.3589
   71TMC2    C5 1103   2.349   2.942   1.436 -0.2339 -0.1234  0.0492
   71TMC2    C6 1104   2.468   2.927   1.499 -0.4670 -0.1468 -0.5449
   71TMC2     C 1105   2.448   3.181   1.171 -0.3273  0.1220  0.0499
   71TMC2     O 1106   2.538   3.264   1.153 -0.0974 -0.3189  0.2709
   71TMC2     H 1107   2.659   3.157   1.320  1.3753 -1.2008  0.6548
   71TMC2    H1 1108   2.253   3.017   1.274  0.3046 -0.3099  0.5018
   71TMC2    H2 1109   2.475   2.861   1.585 -0.4661 -2.1410 -2.0476
   71TMC2    C7 1110   2.238   2.845   1.467 -0.4529  1.1632 -0.9585
   71TMC2    C8 1111   2.689   3.008   1.553 -0.1021 -0.1186  0.1101
   71TMC2    O1 1112   2.272   2.747   1.526  0.2139  0.3224 -0.3827
   71TMC2    O2 1113   2.769   2.915   1.560  0.2191 -0.3818 -0.2343
   71TMC2    O5 1114   2.725   3.136   1.572 -0.1314  0.2337  0.1258
   71TMC2    H5 1115   2.638   3.180   1.585 -0.5650 -1.4862  3.0790
   72MPD2     C 1116   2.289   3.244   0.702  0.3022 -0.3014 -0.1825
   72MPD2    C1 1117   2.340   3.332   0.787 -0.1605  0.0828  0.8463
   72MPD2    C2 1118   2.369   3.300   0.919  0.3914 -0.0077 -0.3527
   72MPD2    C3 1119   2.328   3.181   0.964 -1.0322  0.3673 -0.0742
   72MPD2    C4 1120   2.280   3.084   0.876  0.2501 -0.0453  0.6626
   72MPD2    C5 1121   2.255   3.119   0.740 -0.5898  0.2625 -1.1630
   72MPD2     H 1122   2.405   3.378   0.986 -1.4073  0.3160  0.2363
   72MPD2    H1 1123   2.269   2.982   0.912  1.4318  0.1690  1.6549
   72MPD2    H2 1124   2.271   3.266   0.597 -2.3763 -0.7649  0.1640
   72MPD2    H3 1125   2.216   3.052   0.663 -1.9111  0.9230 -1.0678
   72MPD2     N 1126   2.348   3.132   1.092 -0.4163 -0.2155  0.1959
   72MPD2    H5 1127   2.306   3.044   1.119  1.0090 -0.6575  1.0109
   72MPD2    N1 1128   2.372   3.469   0.752 -0.3334  0.1608  0.3686
   72MPD2    H7 1129   2.397   3.528   0.830  0.1377  1.8668 -1.0857
   73TMC2    C1 1130   2.155   0.106  14.132  0.0247  1.1333 -0.7452
   73TMC2    C2 1131   2.100   4.726  14.090 -0.1247  0.8194  0.0357
   73TMC2    C3 1132   2.187   4.621  14.090  0.4288  0.5096  0.4110
   73TMC2    C4 1133   2.278   0.111  14.189 -0.2959 -0.2577 -0.0996
   73TMC2    C5 1134   2.359   0.009  14.169  0.1536 -0.4907  0.6126
   73TMC2    C6 1135   2.315   4.631  14.126  0.1931  0.2664  0.6840
   73TMC2     C 1136   2.156   0.196  14.018  0.3653  0.0809 -0.9482
   73TMC2     O 1137   2.270   0.238  13.999  0.1029 -0.0837  0.5279
   73TMC2     H 1138   2.007   4.720  14.036  0.0419 -2.3937  0.1004
   73TMC2    H1 1139   2.318   0.198  14.239 -1.3605  0.6406 -0.7898
   73TMC2    H2 1140   2.379   4.544  14.114 -0.7255 -0.1402 -1.3182
   73TMC2    C7 1141   2.498   0.046  14.147 -0.2590 -0.0035  0.3215
   73TMC2    C8 1142   2.129   4.501  14.040 -0.0940  0.0618 -0.0045
   73TMC2    O1 1143   2.579   4.700  14.150 -0.1169  0.2187 -0.0282
   73TMC2    O2 1144   2.007   4.501  14.033  0.2495 -0.2883 -0.1767
   73TMC2    O5 1145   2.203   4.467  13.937 -0.0301  0.5313  0.2290
   73TMC2    H5 1146   2.297   4.492  13.928  0.4179 -0.7576  1.4310
   74MPD2     C 1147   1.977   0.505  13.660  1.3528  0.1858 -0.3709
   74MPD2    C1 1148   2.089   0.512  13.738 -0.2471  0.4219 -0.1174
   74MPD2    C2 1149   2.107   0.425  13.842  0.3520  0.6521 -0.5502
   74MPD2    C3 1150   2.013   0.329  13.868  0.1771  0.3515  0.8671
   74MPD2    C4 1151   1.887   0.346  13.813  0.6792 -0.3418  0.4486
   74MPD2    C5 1152   1.869   0.425  13.705  0.4390  0.5895  0.1997
   74MPD2     H 1153   2.198   0.421  13.900 -0.2759 -1.4526  0.3134
   74MPD2    H1 1154   1.809   0.285  13.856  0.8972 -0.5249  0.5809
   74MPD2    H2 1155   1.957   0.561  13.570  1.1830  1.4826  0.4815
   74MPD2    H3 1156   1.770   0.443  13.665  0.1458 -0.5819  0.4263
   74MPD2     N 1157   2.038   0.222  13.962  0.1947 -0.1293  0.3453
   74MPD2    H5 1158   1.957   0.178  14.005  1.0795 -0.3514  1.8014
   74MPD2    N1 1159   2.182   0.609  13.706  0.2938 -0.3076 -0.3069
   74MPD2    H7 1160   2.164   0.662  13.621  0.2138  0.6585  0.3147
   75TMC2    C1 1161   2.455   1.545  14.016 -0.3900  0.0810 -0.1133
   75TMC2    C2 1162   2.380   1.458  14.088 -0.5662  0.4145 -0.2580
   75TMC2    C3 1163   2.267   1.415  14.028  0.4206 -0.2750  0.9022
   75TMC2    C4 1164   2.415   1.588  13.888 -0.1558  0.3174 -0.4266
   75TMC2    C5 1165   2.304   1.536  13.837  0.1656 -0.1887 -0.7980
   75TMC2    C6 1166   2.226   1.449  13.908 -0.6560  0.5706  0.3492
   75TMC2     C 1167   2.587   1.581  14.070 -0.1864  0.4094  0.3050
   75TMC2     O 1168   2.587   1.578  14.190  0.1265  0.2202 -0.0490
   75TMC2     H 1169   2.406   1.437  14.191 -1.9301  0.1249  0.0326
   75TMC2    H1 1170   2.464   1.665  13.830  0.7143  0.9380  1.1298
   75TMC2    H2 1171   2.128   1.419  13.871  0.1221 -0.4492 -0.8865
   75TMC2    C7 1172   2.242   1.598  13.725  0.4333  0.2483  0.0310
   75TMC2    C8 1173   2.165   1.349  14.113 -0.4207 -0.9362 -0.5393
   75TMC2    O1 1174   2.287   1.711  13.702 -0.1761 -0.4604  0.0528
   75TMC2    O2 1175   2.042   1.346  14.083  0.1197  0.4456  0.0526
   75TMC2    O5 1176   2.231   1.249  14.182  0.0005 -0.0769 -0.4431
   75TMC2    H5 1177   2.326   1.275  14.189  0.3944 -0.7197 -3.3373
   76TMC2    C1 1178   1.586   1.338  12.136 -0.3591  0.1170  0.4946
   76TMC2    C2 1179   1.462   1.281  12.104 -0.4834  0.4874 -0.3277
   76TMC2    C3 1180   1.445   1.146  12.096  0.5334  0.6991  1.0294
   76TMC2    C4 1181   1.696   1.253  12.140 -0.8181  0.0261 -0.6040
   76TMC2    C5 1182   1.672   1.121  12.126 -0.3907  0.8372  0.2835
   76TMC2    C6 1183   1.546   1.057  12.110  0.1520  0.2905  0.2065
   76TMC2     C 1184   1.602   1.476  12.141 -0.5054 -0.6866  0.1243
   76TMC2     O 1185   1.516   1.540  12.080  0.0993 -0.5052  0.0191
   76TMC2     H 1186   1.385   1.352  12.074 -1.2369 -0.6531 -1.1129
   76TMC2    H1 1187   1.792   1.291  12.105 -0.4092  1.8969  2.5739
   76TMC2    H2 1188   1.541   0.949  12.108 -0.3128  0.3431 -1.7052
   76TMC2    C7 1189   1.776   1.028  12.157 -0.2354  0.0263  0.4483
   76TMC2    C8 1190   1.337   1.109  12.000 -0.3495 -0.0479  0.0414
   76TMC2    O1 1191   1.745   0.914  12.123 -0.1972  0.0944  0.4016
   76TMC2    O2 1192   1.286   1.189  11.923  0.1438 -0.0034  0.1377
   76TMC2    O5 1193   1.332   0.976  11.994 -0.0864 -1.0642 -0.2243
   76TMC2    H5 1194   1.339   0.948  12.088 -0.0125  2.3152  0.7750
   77MPD2     C 1195   1.825   1.924  12.237 -0.1827  0.0195  0.8444
   77MPD2    C1 1196   1.694   1.891  12.188  0.9555 -0.6678 -0.1432
   77MPD2    C2 1197   1.657   1.763  12.174  0.7964  0.7031 -0.0853
   77MPD2    C3 1198   1.749   1.665  12.194  0.7302  0.3260 -0.6026
   77MPD2    C4 1199   1.866   1.699  12.253  0.0353  0.1300  0.5472
   77MPD2    C5 1200   1.909   1.826  12.267  0.3427  0.0141  0.4704
   77MPD2     H 1201   1.552   1.748  12.154  1.4092 -1.5370 -1.6450
   77MPD2    H1 1202   1.932   1.619  12.286 -0.0986  0.7000  2.1963
   77MPD2    H2 1203   1.857   2.026  12.256 -1.7986  1.0345 -1.8949
   77MPD2    H3 1204   2.011   1.853  12.291  0.6064 -0.3801 -0.2129
   77MPD2     N 1205   1.722   1.529  12.174 -0.5568 -0.4781  0.1580
   77MPD2    H5 1206   1.797   1.465  12.200  0.3568  1.1609  1.5007
   77MPD2    N1 1207   1.603   1.990  12.139 -0.1668  0.2181  0.1385
   77MPD2    H7 1208   1.518   1.956  12.096 -1.3212  1.9998  1.0427
   78TMC2    C1 1209   3.274   3.488   2.227 -0.7041 -0.7903  0.0775
   78TMC2    C2 1210   3.266   3.475   2.359 -0.4272 -0.0262  0.1219
   78TMC2    C3 1211   3.384   3.486   2.430 -0.1515 -0.1509  0.4239
   78TMC2    C4 1212   3.383   3.507   2.154 -0.0310  0.0830  0.6438
   78TMC2    C5 1213   3.500   3.530   2.224  0.3667 -0.4736 -0.2300
   78TMC2    C6 1214   3.500   3.513   2.364 -0.1254 -0.1299 -0.3280
   78TMC2     C 1215   3.153   3.476   2.154 -0.3384 -1.1307  0.4525
   78TMC2     O 1216   3.156   3.435   2.037  0.6391 -0.4122 -0.0891
   78TMC2     H 1217   3.185   3.433   2.417 -0.1804 -1.3013 -0.4645
   78TMC2    H1 1218   3.371   3.508   2.046  0.0230  1.3350  0.6419
   78TMC2    H2 1219   3.593   3.529   2.418 -1.4505  0.3752  1.7988
   78TMC2    C7 1220   3.626   3.514   2.155  0.4057 -0.4308  1.2796
   78TMC2    C8 1221   3.393   3.445   2.567  0.4680  0.7317  0.4580
   78TMC2    O1 1222   3.631   3.448   2.049  0.4040 -0.0818  0.0824
   78TMC2    O2 1223   3.305   3.430   2.651 -0.3035 -0.2573 -0.3457
   78TMC2    O5 1224   3.512   3.387   2.593 -0.4321  0.7927  0.8419
   78TMC2    H5 1225   3.556   3.364   2.508  0.4643 -1.1607  1.8417
   79MPD1     C 1226   2.633   3.471   2.139  0.6379 -0.0754  1.1106
   79MPD1    C1 1227   2.725   3.453   2.039  0.9972 -0.3643  0.2044
   79MPD1    C2 1228   2.862   3.456   2.066 -0.6795 -0.5708  0.2417
   79MPD1    C3 1229   2.903   3.494   2.196 -0.1862 -0.5114  0.4362
   79MPD1    C4 1230   2.811   3.520   2.291 -0.7559 -0.0078  0.0977
   79MPD1    C5 1231   2.678   3.517   2.261 -0.0879 -0.0761  0.0529
   79MPD1     H 1232   2.935   3.447   1.986  0.8962  1.2288  1.4871
   79MPD1    H1 1233   2.846   3.553   2.389  0.0304  0.4016 -0.3245
   79MPD1    H2 1234   2.526   3.462   2.123  1.1071  0.3822 -2.1124
   79MPD1    H3 1235   2.609   3.537   2.342  0.1023  2.3743 -0.4194
   79MPD1     N 1236   3.042   3.514   2.229  0.4883 -0.6221  0.5884
   79MPD1    H5 1237   3.055   3.554   2.321 -2.1946 -1.7393  1.4357
   79MPD1    N1 1238   2.674   3.427   1.909 -0.0715 -0.0601 -0.0049
   79MPD1    H6 1239   2.742   3.383   1.847 -0.0625  1.2550 -0.9206
   79MPD1    H7 1240   2.655   3.519   1.871  1.8526  0.3344 -0.0069
   80TMC2    C1 1241   0.708   1.361  12.124 -0.4507  0.1287 -0.2214
   80TMC2    C2 1242   0.735   1.350  11.991  0.1090 -0.1427 -0.0747
   80TMC2    C3 1243   0.632   1.321  11.900  0.2042 -0.4511  0.1516
   80TMC2    C4 1244   0.587   1.317  12.177 -0.7657  0.3943  0.1893
   80TMC2    C5 1245   0.485   1.289  12.088  0.0002  0.2296  0.5754
   80TMC2    C6 1246   0.508   1.297  11.950 -0.0086  0.0833  0.3474
   80TMC2     C 1247   0.800   1.444  12.199 -0.0959 -0.7586  0.0390
   80TMC2     O 1248   0.917   1.463  12.166  0.0293 -0.5557 -0.1319
   80TMC2     H 1249   0.831   1.390  11.961  0.1717 -0.0685  0.2295
   80TMC2    H1 1250   0.563   1.341  12.279  1.2485  1.4490  0.4193
   80TMC2    H2 1251   0.425   1.280  11.882  1.9323 -2.0891 -1.5031
   80TMC2    C7 1252   0.341   1.283  12.129  0.3874 -0.1045 -0.1892
   80TMC2    C8 1253   0.657   1.374  11.767  0.8648 -0.0716  0.5764
   80TMC2    O1 1254   0.257   1.301  12.045 -0.3549  0.0314  0.1830
   80TMC2    O2 1255   0.563   1.417  11.704 -0.7893  0.5237  0.1330
   80TMC2    O5 1256   0.785   1.355  11.723 -0.9282 -0.3754  0.1057
   80TMC2    H5 1257   0.847   1.299  11.774 -0.7294 -2.4996 -2.4696
   81MPD2     C 1258   0.920   1.639  12.403  0.4646  1.2797 -0.1845
   81MPD2    C1 1259   0.803   1.564  12.419  0.1852 -0.6921 -0.1272
   81MPD2    C2 1260   0.749   1.566  12.546  0.1377 -0.4685 -0.7274
   81MPD2    C3 1261   0.803   1.642  12.647  0.0581 -0.0638  0.3760
   81MPD2    C4 1262   0.917   1.711  12.626  0.0114 -0.1591  1.1291
   81MPD2    C5 1263   0.974   1.710  12.505  0.1123 -0.4728  0.5943
   81MPD2     H 1264   0.657   1.515  12.572 -0.3858  0.1263 -1.4630
   81MPD2    H1 1265   0.967   1.764  12.707  5.7377 -2.3645 -0.9355
   81MPD2    H2 1266   0.973   1.652  12.309 -0.8926 -0.5477 -1.1966
   81MPD2    H3 1267   1.065   1.766  12.489  0.1464 -0.0665  2.2087
   81MPD2     N 1268   0.728   1.650  12.771 -0.3438  0.6853 -0.2957
   81MPD2    H5 1269   0.642   1.596  12.772 -0.9862  1.6145 -2.7360
   81MPD2    N1 1270   0.743   1.490  12.317  0.4673  0.0134  0.1121
   81MPD2    H7 1271   0.653   1.452  12.344  0.0332 -0.1162 -1.4768
   82TMC2    C1 1272   3.696   0.401  11.116 -0.2401  0.1172  0.4318
   82TMC2    C2 1273   3.797   0.319  11.085 -0.2389 -0.6332 -0.6313
   82TMC2    C3 1274   3.802   0.192  11.132 -0.6413  0.3352  0.2333
   82TMC2    C4 1275   3.589   0.356  11.185  0.0171  0.0839 -0.1737
   82TMC2    C5 1276   3.594   0.224  11.212 -0.0435 -0.1000 -0.5453
   82TMC2    C6 1277   3.693   0.133  11.188 -0.2055  0.7202 -0.4766
   82TMC2     C 1278   3.662   0.507  11.023 -0.2351  0.0590  0.0174
   82TMC2     O 1279   3.544   0.539  11.021  0.3182  0.0190 -0.2740
   82TMC2     H 1280   3.888   0.341  11.031  0.1546 -1.7350 -0.4291
   82TMC2    H1 1281   3.505   0.418  11.213 -0.2617  0.0272 -0.8932
   82TMC2    H2 1282   3.694   0.035  11.235 -0.9637  0.9007 -0.0794
   82TMC2    C7 1283   3.475   0.169  11.276  0.2758 -0.0702  0.2301
   82TMC2    C8 1284   3.893   0.098  11.080 -0.0393 -0.2302 -0.1387
   82TMC2    O1 1285   3.413   0.245  11.349  0.2227 -0.0092 -0.0045
   82TMC2    O2 1286   3.909   0.089  10.960  0.2439 -0.2896 -0.0756
   82TMC2    O5 1287   3.905   4.740  11.173 -0.1858  0.3900  0.2808
   82TMC2    H5 1288   3.910   0.048  11.257  0.5048  0.7865  0.0145
   83MPD2     C 1289   3.759   0.858  10.652  0.1522 -0.3236  0.5451
   83MPD2    C1 1290   3.641   0.815  10.709 -0.4165  0.1513 -0.1970
   83MPD2    C2 1291   3.637   0.727  10.812  0.0800  0.2367 -0.0919
   83MPD2    C3 1292   3.756   0.666  10.853 -0.3899 -0.0196 -0.0344
   83MPD2    C4 1293   3.873   0.702  10.792  0.3150 -0.1121 -0.1337
   83MPD2    C5 1294   3.874   0.794  10.687 -0.0637 -0.1213  0.4083
   83MPD2     H 1295   3.545   0.702  10.864 -0.8857  1.2121 -1.3360
   83MPD2    H1 1296   3.967   0.654  10.815 -0.2120 -0.7417  0.6628
   83MPD2    H2 1297   3.768   0.924  10.565  0.9163 -0.2876  0.6492
   83MPD2    H3 1298   3.966   0.830  10.641 -0.1489  1.0665  1.1721
   83MPD2     N 1299   3.765   0.573  10.959  0.0107 -0.0684 -0.7250
   83MPD2    H5 1300   3.857   0.535  10.976 -0.5733 -0.9145  0.5385
   83MPD2    N1 1301   3.526   0.874  10.658 -0.5161  0.2336 -0.0331
   83MPD2    H7 1302   3.539   0.962  10.608  0.4329 -1.1352 -2.2340
   84TMC2    C1 1303   4.654   0.529  10.887  0.2025 -0.5515  0.7232
   84TMC2    C2 1304   4.542   0.472  10.847 -0.2623  0.2023 -0.2353
   84TMC2    C3 1305   4.552   0.360  10.774 -0.0175 -0.3073  0.1865
   84TMC2    C4 1306   0.030   0.469  10.867 -0.0199  0.6801  0.3246
   84TMC2    C5 1307   0.042   0.363  10.777 -0.2740  0.6740 -0.3693
   84TMC2    C6 1308   4.669   0.301  10.735  0.0687  0.6277 -0.1965
   84TMC2     C 1309   4.644   0.639  10.983 -0.2550  0.0879  0.6225
   84TMC2     O 1310   4.531   0.660  11.025  0.3788  0.1160 -0.2651
   84TMC2     H 1311   4.449   0.527  10.858  0.4859  1.7085 -1.5055
   84TMC2    H1 1312   0.119   0.498  10.923  1.7884 -1.3302 -1.5173
   84TMC2    H2 1313   4.679   0.243  10.644  1.8091  0.7301 -0.0751
   84TMC2    C7 1314   0.163   0.301  10.733  0.0310  0.2531 -0.3461
   84TMC2    C8 1315   4.434   0.332  10.707 -0.1475  0.3301 -1.2349
   84TMC2    O1 1316   0.156   0.196  10.673  0.0636  0.1435 -0.0141
   84TMC2    O2 1317   4.423   0.293  10.589 -0.0823 -0.5313 -0.3792
   84TMC2    O5 1318   4.350   0.281  10.803 -0.3902  0.1866  0.1782
   84TMC2    H5 1319   4.370   0.314  10.893 -1.2287 -0.6737  0.6809
   85TMC2    C1 1320   0.656   3.877  16.292 -0.8166  0.5588 -0.5161
   85TMC2    C2 1321   0.607   4.003  16.294 -0.0797 -0.3034  0.3625
   85TMC2    C3 1322   0.589   4.067  16.174  0.1268 -0.3610  0.1686
   85TMC2    C4 1323   0.683   3.817  16.170  0.2367  0.1256 -0.4976
   85TMC2    C5 1324   0.653   3.878  16.057  0.0589  0.0635  0.1386
   85TMC2    C6 1325   0.605   4.007  16.052 -0.0083  0.1123  0.4606
   85TMC2     C 1326   0.636   3.795  16.407  0.5212  0.1814  0.8292
   85TMC2     O 1327   0.620   3.840  16.521  0.7027 -0.0760  0.1118
   85TMC2     H 1328   0.572   4.045  16.388  1.6052  2.4691 -0.2446
   85TMC2    H1 1329   0.740   3.725  16.162  0.8691  0.4800 -0.0573
   85TMC2    H2 1330   0.584   4.054  15.957 -0.5421 -2.0641 -0.4978
   85TMC2    C7 1331   0.704   3.829  15.932 -0.1097  1.0426 -0.7149
   85TMC2    C8 1332   0.516   4.186  16.154  0.2838  0.6351 -0.0233
   85TMC2    O1 1333   0.798   3.749  15.927  0.9181  0.2417 -0.2597
   85TMC2    O2 1334   0.528   4.262  16.063  0.3117  0.5267  0.0733
   85TMC2    O5 1335   0.443   4.202  16.266  0.1615  0.2267  0.0836
   85TMC2    H5 1336   0.421   4.112  16.297  1.1541  0.8853  2.6633
   86MPD2     C 1337   0.554   3.323  16.571  0.3893  0.1460  0.5365
   86MPD2    C1 1338   0.520   3.329  16.435  0.1276  0.1044  0.1170
   86MPD2    C2 1339   0.539   3.443  16.368 -0.5867 -0.0614 -0.4966
   86MPD2    C3 1340   0.594   3.554  16.430  0.3471 -0.1940  0.5163
   86MPD2    C4 1341   0.630   3.552  16.562 -0.2259 -0.3210 -0.0591
   86MPD2    C5 1342   0.613   3.438  16.635 -0.1315 -0.0705  0.5139
   86MPD2     H 1343   0.512   3.435  16.263 -0.2854  1.0729 -0.6519
   86MPD2    H1 1344   0.673   3.638  16.613 -1.6147 -0.5982  1.5906
   86MPD2    H2 1345   0.536   3.239  16.636  0.5977 -0.5005 -0.2397
   86MPD2    H3 1346   0.626   3.423  16.742  1.8607 -0.0141  0.2812
   86MPD2     N 1347   0.605   3.673  16.361  0.4133 -0.3838  0.7086
   86MPD2    H5 1348   0.603   3.669  16.259 -1.1599 -3.3135  0.8381
   86MPD2    N1 1349   0.460   3.222  16.363  0.3141  0.3818  0.1165
   86MPD2    H7 1350   0.416   3.243  16.274  1.3227  1.3222 -0.1521
   87TMC2    C1 1351   2.955   1.610   1.285  0.4656 -0.5639  0.0630
   87TMC2    C2 1352   3.067   1.596   1.364 -0.6700 -0.2200  1.5568
   87TMC2    C3 1353   3.067   1.664   1.486  0.1733 -0.6657  0.0929
   87TMC2    C4 1354   2.844   1.686   1.318  0.5167 -0.6279  0.1157
   87TMC2    C5 1355   2.844   1.748   1.440  0.2991  0.0498  0.1958
   87TMC2    C6 1356   2.958   1.740   1.519 -0.1213  0.2318  0.4088
   87TMC2     C 1357   2.949   1.555   1.151 -0.3594 -0.5600  0.3122
   87TMC2     O 1358   2.874   1.613   1.073 -0.1381 -0.2532  0.1823
   87TMC2     H 1359   3.153   1.546   1.321 -1.8551  0.3759 -1.5543
   87TMC2    H1 1360   2.750   1.679   1.265 -1.1240  0.3103  2.9124
   87TMC2    H2 1361   2.981   1.822   1.585 -0.9379  3.0088 -2.7663
   87TMC2    C7 1362   2.746   1.852   1.457  0.0020  0.4794  0.1139
   87TMC2    C8 1363   3.192   1.687   1.563  0.0143  0.3392 -0.9608
   87TMC2    O1 1364   2.696   1.896   1.353 -0.2121  0.2288 -0.0883
   87TMC2    O2 1365   3.197   1.720   1.679  0.8233 -0.1531  0.3150
   87TMC2    O5 1366   3.294   1.718   1.476 -0.8642  0.0083  0.2661
   87TMC2    H5 1367   3.271   1.704   1.381  2.8622 -0.9288 -0.5011
   88MPD2     C 1368   2.749   2.091   1.719  0.1378  0.4389  0.4003
   88MPD2    C1 1369   2.696   2.022   1.610  0.0829 -1.0289  0.5351
   88MPD2    C2 1370   2.581   2.070   1.545 -0.0061 -0.3349  0.5036
   88MPD2    C3 1371   2.531   2.197   1.579 -0.2008 -0.9283 -0.0742
   88MPD2    C4 1372   2.589   2.268   1.679  1.0536 -0.6130  0.1421
   88MPD2    C5 1373   2.691   2.219   1.745 -0.3117 -0.2251  0.7550
   88MPD2     H 1374   2.540   2.019   1.459 -2.3313  2.8935 -0.2811
   88MPD2    H1 1375   2.564   2.373   1.693 -0.2601 -0.5816 -2.4015
   88MPD2    H2 1376   2.835   2.053   1.772 -0.1878  0.3881  0.8904
   88MPD2    H3 1377   2.751   2.276   1.815 -0.7141  1.6127 -0.3854
   88MPD2     N 1378   2.428   2.256   1.505  0.1977  0.0190  0.2788
   88MPD2    H5 1379   2.390   2.346   1.533 -0.2402 -0.7007  1.9837
   88MPD2    N1 1380   2.748   1.898   1.582 -0.2625  0.3006  0.4755
   88MPD2    H7 1381   2.793   1.840   1.652 -2.0980 -0.2640  1.1747
   89TMC2    C1 1382   3.796   4.103   1.489 -0.2269  0.3897 -0.2659
   89TMC2    C2 1383   3.918   4.080   1.425  0.3225  0.4927 -0.5126
   89TMC2    C3 1384   3.934   4.134   1.296  0.3396  0.0552 -0.6035
   89TMC2    C4 1385   3.690   4.171   1.433 -0.2348 -0.3918 -1.0421
   89TMC2    C5 1386   3.714   4.220   1.304 -0.1404 -0.7130 -0.0444
   89TMC2    C6 1387   3.833   4.205   1.236  0.1261 -0.5887 -0.5174
   89TMC2     C 1388   3.792   4.052   1.628  0.0154 -0.2995  0.5399
   89TMC2     O 1389   3.899   4.034   1.680  0.1523  0.3381 -0.0212
   89TMC2     H 1390   3.994   4.015   1.467  1.4732  0.7271 -2.2204
   89TMC2    H1 1391   3.594   4.175   1.484  0.7648 -0.2284  0.8257
   89TMC2    H2 1392   3.836   4.244   1.135 -0.1576 -0.8654 -0.6348
   89TMC2    C7 1393   3.610   4.286   1.234  0.0723  0.9529 -1.2897
   89TMC2    C8 1394   4.068   4.165   1.249  0.0715 -0.5114  0.1510
   89TMC2    O1 1395   3.502   4.234   1.238 -0.3522 -0.3512 -0.1609
   89TMC2    O2 1396   4.159   4.085   1.238 -0.1813 -0.6978  0.0367
   89TMC2    O5 1397   4.078   4.290   1.293  0.3711  0.3266  0.2274
   89TMC2    H5 1398   3.995   4.335   1.268 -0.9377 -1.7797  0.8340
   90MPD2     C 1399   3.554   3.847   2.048  0.0150 -0.0822  0.3247
   90MPD2    C1 1400   3.458   3.878   1.948 -0.8527  0.2301  0.3331
   90MPD2    C2 1401   3.500   3.941   1.829  0.8244  0.4090 -0.2646
   90MPD2    C3 1402   3.637   3.956   1.800  1.0289  0.2319 -0.2802
   90MPD2    C4 1403   3.732   3.922   1.894  0.0860  0.2398  0.5447
   90MPD2    C5 1404   3.687   3.871   2.011  0.5829 -0.7374 -0.0742
   90MPD2     H 1405   3.431   3.979   1.755 -0.5693 -0.0827  0.7952
   90MPD2    H1 1406   3.837   3.945   1.880 -1.0200  3.5357 -2.2877
   90MPD2    H2 1407   3.534   3.813   2.149 -0.5079 -0.8519 -0.0380
   90MPD2    H3 1408   3.751   3.848   2.095 -1.0994 -1.7732  0.9270
   90MPD2     N 1409   3.668   4.019   1.678  0.1956 -0.4504  0.3946
   90MPD2    H5 1410   3.591   4.054   1.621 -1.8246 -0.1431  3.3119
   90MPD2    N1 1411   3.317   3.852   1.961 -0.1896  0.4386  0.2316
   90MPD2    H7 1412   3.260   3.862   1.878  1.1481 -0.4048 -0.8069
   91TMC2    C1 1413   4.529   4.311  16.205  0.1035 -0.2270  0.4590
   91TMC2    C2 1414   4.576   4.254  16.318  0.3313  0.1949 -0.7398
   91TMC2    C3 1415   4.501   4.156  16.377  0.4502 -0.1686 -0.2569
   91TMC2    C4 1416   4.411   4.267  16.152 -0.2669  0.1929 -0.4974
   91TMC2    C5 1417   4.334   4.176  16.210 -0.0450  0.6227 -0.4298
   91TMC2    C6 1418   4.370   4.123  16.335 -0.0673  0.8745 -0.3069
   91TMC2     C 1419   4.600   4.420  16.132 -0.0165 -0.5442 -0.4431
   91TMC2     O 1420   4.525   4.491  16.066 -0.2695 -0.6936  0.0330
   91TMC2     H 1421   4.668   4.280  16.368 -0.5619  2.4447 -0.2678
   91TMC2    H1 1422   4.373   4.317  16.064  0.1295 -1.0757 -1.3792
   91TMC2    H2 1423   4.301   4.049  16.373  2.6577 -1.5149  0.0330
   91TMC2    C7 1424   4.209   4.127  16.152  0.9524  0.1173 -0.1703
   91TMC2    C8 1425   4.558   4.087  16.496 -0.3930  0.3355  0.1622
   91TMC2    O1 1426   4.150   4.050  16.224 -0.0695  0.0615  0.4006
   91TMC2    O2 1427   4.652   4.126  16.562  0.6483  0.0362  0.1935
   91TMC2    O5 1428   4.484   3.978  16.528  0.2063 -0.0474 -0.3824
   91TMC2    H5 1429   4.396   3.974  16.485  0.4616  0.8582 -1.0006
   92MPD2     C 1430   0.046   4.633  16.054  0.0304  0.1931 -0.0436
   92MPD2    C1 1431   0.089   4.512  16.107  0.3919  0.5298 -0.6275
   92MPD2    C2 1432   0.220   4.496  16.131 -0.1506 -0.2056 -0.9068
   92MPD2    C3 1433   0.313   4.586  16.088 -0.1850 -0.8447  0.7951
   92MPD2    C4 1434   0.276   4.708  16.029 -0.0232  0.9212 -0.7605
   92MPD2    C5 1435   0.140   4.734  16.018 -0.9887  0.1477  0.6593
   92MPD2     H 1436   0.251   4.413  16.194  0.6817  0.2039 -0.7828
   92MPD2    H1 1437   0.337   0.053  16.002 -0.5032  2.0442  1.8129
   92MPD2    H2 1438   4.681   4.649  16.037 -0.5548 -0.5304  3.0314
   92MPD2    H3 1439   0.110   0.091  15.982  0.2945  0.2504 -0.1232
   92MPD2     N 1440   0.449   4.560  16.108 -0.0663 -0.8195 -0.6137
   92MPD2    H5 1441   0.477   4.463  16.121  3.4122  0.3406  0.7132
   92MPD2    N1 1442   4.733   4.412  16.150 -0.1444 -0.0694  0.5012
   92MPD2    H7 1443   0.025   4.329  16.198  0.1752 -0.1288  0.1839
   93TMC2    C1 1444   2.456   4.284  14.192  0.2264 -0.3336 -0.4671
   93TMC2    C2 1445   2.469   4.289  14.327 -0.3737  0.6625  0.1119
   93TMC2    C3 1446   2.581   4.356  14.379  0.1418 -0.2121 -0.4538
   93TMC2    C4 1447   2.554   4.342  14.118  0.9424 -0.0417 -0.0901
   93TMC2    C5 1448   2.658   4.404  14.176  0.2692  0.8445 -0.3424
   93TMC2    C6 1449   2.681   4.401  14.307  0.4985  0.3413  0.4734
   93TMC2     C 1450   2.347   4.213  14.127 -0.2910 -0.3781 -0.2828
   93TMC2     O 1451   2.369   4.202  14.010  0.1360 -0.1432  0.2759
   93TMC2     H 1452   2.387   4.251  14.387 -0.3810 -0.6197 -0.7263
   93TMC2    H1 1453   2.559   4.341  14.010  1.6174  1.5683 -0.0644
   93TMC2    H2 1454   2.772   4.434  14.354  0.2975 -0.9730  1.7915
   93TMC2    C7 1455   2.767   4.453  14.090  0.6763  0.3352  0.3102
   93TMC2    C8 1456   2.601   4.365  14.519 -0.3925 -0.7623 -0.6677
   93TMC2    O1 1457   2.876   4.403  14.126 -0.4513  0.4882 -0.0313
   93TMC2    O2 1458   2.712   4.360  14.569 -0.7074 -0.1627  0.4489
   93TMC2    O5 1459   2.482   4.390  14.574  0.1773 -0.1352 -0.2580
   93TMC2    H5 1460   2.408   4.415  14.515 -0.3874  0.0473  0.5208
   94MPD2     C 1461   2.147   4.035  14.044 -0.4216  0.0681 -0.0666
   94MPD2    C1 1462   2.125   4.117  14.146  0.1131 -0.6627  0.3300
   94MPD2    C2 1463   1.998   4.124  14.199  0.1831 -0.8717 -0.0498
   94MPD2    C3 1464   1.888   4.045  14.157 -0.3335 -0.1623 -0.2585
   94MPD2    C4 1465   1.916   3.970  14.046 -0.2952  0.1865  0.3470
   94MPD2    C5 1466   2.039   3.968  13.990 -0.3909  0.2256  0.1796
   94MPD2     H 1467   1.983   4.200  14.275 -0.1155 -0.2865 -0.6833
   94MPD2    H1 1468   1.840   3.906  14.001 -0.2066  0.7602 -0.6153
   94MPD2    H2 1469   2.243   4.003  14.007 -0.3220  0.7711 -0.4146
   94MPD2    H3 1470   2.053   3.899  13.907 -1.4284  2.4898 -1.8656
   94MPD2     N 1471   1.749   4.058  14.192 -0.1239 -0.4285 -0.7292
   94MPD2    H5 1472   1.683   3.983  14.170  1.2832 -1.3921 -1.7208
   94MPD2    N1 1473   2.228   4.196  14.198 -0.4367  0.1357 -0.1370
   94MPD2    H7 1474   2.215   4.232  14.291 -2.0145 -1.6502  0.3181
   95TMC2    C1 1475   1.860   1.599  15.708  0.0357 -0.8216 -0.5650
   95TMC2    C2 1476   1.762   1.531  15.775  0.1020  0.4141  0.3079
   95TMC2    C3 1477   1.673   1.610  15.849  0.3298 -0.0849  0.9693
   95TMC2    C4 1478   1.861   1.733  15.700 -0.4838 -0.1504 -0.8410
   95TMC2    C5 1479   1.769   1.811  15.765  0.0730  0.1993 -0.6024
   95TMC2    C6 1480   1.680   1.748  15.849  0.1313 -0.0568  0.3318
   95TMC2     C 1481   1.973   1.532  15.646  0.0195  0.2567  0.5416
   95TMC2     O 1482   2.050   1.603  15.583 -0.4259  0.1044 -0.7514
   95TMC2     H 1483   1.761   1.423  15.781  2.3188  0.3430 -0.4373
   95TMC2    H1 1484   1.940   1.788  15.649 -1.9503  2.3938 -0.4017
   95TMC2    H2 1485   1.601   1.807  15.893 -2.3405 -2.8502 -0.4082
   95TMC2    C7 1486   1.793   1.955  15.774 -0.3483  0.3121 -0.2189
   95TMC2    C8 1487   1.570   1.534  15.909 -0.5845  0.1029 -0.7938
   95TMC2    O1 1488   1.721   2.004  15.861  0.6613 -0.3846 -0.1690
   95TMC2    O2 1489   1.571   1.414  15.924 -0.0265 -0.4060 -0.6144
   95TMC2    O5 1490   1.450   1.599  15.901 -0.7372 -0.4824 -0.0145
   95TMC2    H5 1491   1.455   1.691  15.867 -1.3266 -0.4965 -0.1275
   96MPD2     C 1492   2.281   1.128  15.587 -0.5732  0.8882 -0.3354
   96MPD2    C1 1493   2.311   1.260  15.589 -0.2397  0.0600 -0.9898
   96MPD2    C2 1494   2.203   1.348  15.609  0.2650 -0.6396 -0.9031
   96MPD2    C3 1495   2.071   1.305  15.625 -0.1688  0.3173 -0.3646
   96MPD2    C4 1496   2.047   1.174  15.622  0.3054 -0.8107  0.2981
   96MPD2    C5 1497   2.152   1.089  15.595 -0.1468  0.0313 -0.6867
   96MPD2     H 1498   2.218   1.456  15.613  0.7342 -0.7678  1.0444
   96MPD2    H1 1499   1.953   1.126  15.645 -0.0133 -1.1190 -1.6498
   96MPD2    H2 1500   2.346   1.041  15.590 -1.4107  0.1758 -2.7957
   96MPD2    H3 1501   2.132   0.983  15.589  0.3170  0.1264 -4.0197
   96MPD2     N 1502   1.957   1.393  15.645  0.1251  0.0164 -0.2495
   96MPD2    H5 1503   1.870   1.343  15.662  1.2082 -2.4580 -2.0096
   96MPD2    N1 1504   2.450   1.300  15.582 -0.6116  0.2054 -0.3148
   96MPD2    H7 1505   2.518   1.232  15.549  1.6231  1.3353  1.9599
   97TMC2    C1 1506   0.026   4.173   0.592  0.8286  0.7296 -0.2878
   97TMC2    C2 1507   4.659   4.146   0.523  0.1282 -0.3532  0.2294
   97TMC2    C3 1508   4.636   4.230   0.416 -0.6003 -0.3458 -0.0801
   97TMC2    C4 1509   0.116   4.275   0.567 -0.5342 -0.0429 -1.0128
   97TMC2    C5 1510   0.075   4.364   0.471 -0.6468  0.4099  0.9127
   97TMC2    C6 1511   4.707   4.345   0.396  0.3519 -0.3502  0.2389
   97TMC2     C 1512   0.066   4.064   0.677  0.1840 -0.2672 -0.0900
   97TMC2     O 1513   0.022   3.950   0.659  0.2788 -0.1739 -0.3663
   97TMC2     H 1514   4.583   4.084   0.569 -1.4778  0.2820 -1.5624
   97TMC2    H1 1515   0.215   4.283   0.610 -0.9868 -3.8849  0.7856
   97TMC2    H2 1516   4.656   4.424   0.342  1.2939  0.7822  1.0028
   97TMC2    C7 1517   0.171   4.465   0.430 -0.8556 -0.0370 -0.0328
   97TMC2    C8 1518   4.505   4.215   0.344  0.5055  0.0784  0.3828
   97TMC2    O1 1519   0.244   4.516   0.516  0.4137  0.3057 -0.0982
   97TMC2    O2 1520   4.438   4.312   0.326  0.2542 -0.8273 -0.7977
   97TMC2    O5 1521   4.473   4.083   0.343  0.2935 -0.1143  0.5549
   97TMC2    H5 1522   4.558   4.035   0.334 -1.0238 -2.4064  0.4610
   98MPD2     C 1523   0.314   3.916   1.103  0.7029 -1.0389 -0.9394
   98MPD2    C1 1524   0.275   3.846   0.988 -0.0550  0.0186  0.3828
   98MPD2    C2 1525   0.207   3.907   0.890 -0.1209 -0.0729  0.1224
   98MPD2    C3 1526   0.183   4.044   0.895 -0.5946  0.0139 -1.3418
   98MPD2    C4 1527   0.241   4.114   0.991  0.2935 -0.0687 -0.2935
   98MPD2    C5 1528   0.301   4.051   1.095  0.7771 -0.1167  0.5171
   98MPD2     H 1529   0.165   3.849   0.808 -1.4985 -1.8586  2.0805
   98MPD2    H1 1530   0.248   4.222   0.986  2.2140 -0.3414 -3.2995
   98MPD2    H2 1531   0.358   3.867   1.189  1.0182  0.9295  0.0213
   98MPD2    H3 1532   0.347   4.119   1.165 -0.3321  0.4005  0.7323
   98MPD2     N 1533   0.118   4.120   0.789  0.1267  0.2303 -0.7339
   98MPD2    H5 1534   0.128   4.221   0.789 -0.8204  0.3210 -0.0675
   98MPD2    N1 1535   0.279   3.702   1.002 -0.3309  0.6890 -0.7841
   98MPD2    H7 1536   0.308   3.662   1.091 -0.7391 -0.4357 -1.1529
   99TMC2    C1 1537   3.694   0.747   1.277 -0.1764 -0.3009 -0.5460
   99TMC2    C2 1538   3.812   0.786   1.330 -0.1435  0.4196  0.2822
   99TMC2    C3 1539   3.831   0.781   1.462 -0.0824  0.4962  0.9938
   99TMC2    C4 1540   3.585   0.731   1.358 -0.3519  0.3930  0.4153
   99TMC2    C5 1541   3.599   0.746   1.493 -0.2963  0.4475 -0.2563
   99TMC2    C6 1542   3.723   0.774   1.544 -0.3844  0.8144  0.1189
   99TMC2     C 1543   3.686   0.723   1.132 -0.0569 -0.3173 -0.0266
   99TMC2     O 1544   3.777   0.762   1.064 -0.0372  0.5066 -0.3853
   99TMC2     H 1545   3.899   0.794   1.266 -0.0166 -0.5199  0.3329
   99TMC2    H1 1546   3.486   0.741   1.314 -0.8940  2.5694  2.1507
   99TMC2    H2 1547   3.751   0.792   1.647  0.8081 -1.2653  0.1579
   99TMC2    C7 1548   3.489   0.787   1.579  0.3758  0.1429 -0.0745
   99TMC2    C8 1549   3.956   0.814   1.524  0.4227 -0.5588  0.2763
   99TMC2    O1 1550   3.513   0.830   1.691  0.8054 -0.1316  0.0475
   99TMC2    O2 1551   3.995   0.756   1.621  0.3838 -0.7461 -0.0161
   99TMC2    O5 1552   4.025   0.909   1.452  0.2907  0.1704  0.5181
   99TMC2    H5 1553   3.982   0.954   1.377  0.7363  0.7364  0.6058
  100MPD2     C 1554   3.569   0.724   0.852  0.1228 -0.5883  0.2339
  100MPD2    C1 1555   3.516   0.654   0.961  0.6624  0.0903  0.6974
  100MPD2    C2 1556   3.426   0.552   0.929  0.7331 -0.1312  0.5388
  100MPD2    C3 1557   3.368   0.535   0.803 -0.5226  0.1899 -0.6150
  100MPD2    C4 1558   3.416   0.620   0.705  0.3503 -0.0442  0.4690
  100MPD2    C5 1559   3.515   0.712   0.728 -0.5929  0.5194  0.3826
  100MPD2     H 1560   3.398   0.488   1.012 -2.4938  0.8586  0.1889
  100MPD2    H1 1561   3.363   0.618   0.610  1.7642  1.5549 -0.3492
  100MPD2    H2 1562   3.651   0.795   0.858 -0.8569  0.7250 -2.0877
  100MPD2    H3 1563   3.557   0.762   0.641  1.1259  0.7866  1.3633
  100MPD2     N 1564   3.261   0.450   0.781 -0.2421  0.2671 -0.0031
  100MPD2    H5 1565   3.216   0.459   0.690 -0.4650  0.1668  0.0968
  100MPD2    N1 1566   3.561   0.668   1.092  0.3418  0.6054  0.5721
  100MPD2    H7 1567   3.497   0.623   1.157 -0.1863  1.0883  0.3794
  101TMC2    C1 1568   4.112   2.468  13.185  0.2129 -0.0486  0.8843
  101TMC2    C2 1569   3.984   2.518  13.168 -0.7899  0.3468  0.3569
  101TMC2    C3 1570   3.979   2.631  13.092 -0.3761  0.0003 -0.2223
  101TMC2    C4 1571   4.222   2.528  13.142  0.0775 -0.1727 -0.2765
  101TMC2    C5 1572   4.215   2.650  13.078 -0.3573  0.3512 -0.4783
  101TMC2    C6 1573   4.091   2.699  13.044 -0.3063  0.5316 -0.4436
  101TMC2     C 1574   4.119   2.334  13.251  0.0046  0.3184 -0.9289
  101TMC2     O 1575   4.026   2.318  13.326  0.5578 -0.0650  0.0038
  101TMC2     H 1576   3.892   2.470  13.199 -0.4473 -0.0650  0.7188
  101TMC2    H1 1577   4.318   2.480  13.158 -0.1385 -0.3647  0.4286
  101TMC2    H2 1578   4.065   2.791  12.994  1.5740  0.7097 -1.0891
  101TMC2    C7 1579   4.321   2.697  13.000  0.8453  0.9602  0.0810
  101TMC2    C8 1580   3.846   2.684  13.064  0.0410 -0.0638 -0.5259
  101TMC2    O1 1581   4.290   2.774  12.910 -0.0844 -0.3322 -0.0794
  101TMC2    O2 1582   3.827   2.795  13.035  0.2956 -0.0530 -0.2171
  101TMC2    O5 1583   3.785   2.581  12.998  0.4260  0.2571  0.6046
  101TMC2    H5 1584   3.816   2.491  13.023  1.9088  0.5206 -0.2726
  102MPD2     C 1585   4.353   2.049  13.192  0.0133  0.2197  0.6802
  102MPD2    C1 1586   4.252   2.125  13.255  0.3434 -0.0166 -0.2905
  102MPD2    C2 1587   4.165   2.060  13.349 -1.1559 -0.1697 -0.3538
  102MPD2    C3 1588   4.194   1.933  13.388  0.1367 -0.2273 -0.4916
  102MPD2    C4 1589   4.294   1.862  13.323 -0.0656 -0.5925 -0.5123
  102MPD2    C5 1590   4.362   1.914  13.223 -0.8069 -0.0042  0.5746
  102MPD2     H 1591   4.096   2.113  13.414  1.2564  0.8738  1.3674
  102MPD2    H1 1592   4.324   1.763  13.358 -1.7123 -0.5004  1.1515
  102MPD2    H2 1593   4.419   2.097  13.121 -2.5075  0.5732 -1.4324
  102MPD2    H3 1594   4.438   1.855  13.174  0.9273  2.9253 -0.2939
  102MPD2     N 1595   4.107   1.879  13.490 -0.6383  0.1595  0.0805
  102MPD2    H5 1596   4.037   1.937  13.536  0.9701  3.1693 -1.2630
  102MPD2    N1 1597   4.231   2.258  13.216  0.4556 -0.2043  0.6239
  102MPD2    H7 1598   4.296   2.295  13.147 -1.9916  0.2078 -1.4779
  103TMC2    C1 1599   2.430   1.207  12.597 -0.3090  0.0480 -1.4812
  103TMC2    C2 1600   2.546   1.194  12.531 -0.4248  0.5819 -0.5576
  103TMC2    C3 1601   2.649   1.277  12.566  0.8996  0.3347 -0.0069
  103TMC2    C4 1602   2.414   1.309  12.692 -0.0738  0.9776 -0.7306
  103TMC2    C5 1603   2.517   1.391  12.722  0.0715  0.1215  0.1703
  103TMC2    C6 1604   2.639   1.380  12.659 -0.3614  0.4271 -0.0317
  103TMC2     C 1605   2.308   1.148  12.553 -0.9000  0.5553 -0.2859
  103TMC2     O 1606   2.205   1.204  12.581  0.2056  0.5584 -0.0337
  103TMC2     H 1607   2.560   1.122  12.451 -0.8788  0.1525 -0.2471
  103TMC2    H1 1608   2.317   1.337  12.732  0.2630  1.2433 -0.1053
  103TMC2    H2 1609   2.732   1.423  12.695 -0.5390  2.2873 -1.7911
  103TMC2    C7 1610   2.471   1.530  12.755 -0.0939 -0.0641 -0.8786
  103TMC2    C8 1611   2.776   1.238  12.514 -0.4500 -0.2183 -0.6341
  103TMC2    O1 1612   2.382   1.527  12.835 -0.0408 -0.2025 -0.9621
  103TMC2    O2 1613   2.796   1.134  12.452  0.6871 -0.9951  0.6046
  103TMC2    O5 1614   2.851   1.352  12.504 -0.2102 -0.2327  0.2135
  103TMC2    H5 1615   2.817   1.437  12.540 -1.3264  0.0397 -1.4549
  104MPD2     C 1616   2.224   0.854  12.344  0.3661  0.6871 -0.8884
  104MPD2    C1 1617   2.210   0.980  12.389 -0.1300  0.0934 -0.1906
  104MPD2    C2 1618   2.100   1.059  12.351 -0.5652 -0.2805 -0.9632
  104MPD2    C3 1619   2.000   1.003  12.272 -0.0443 -0.0602 -0.7732
  104MPD2    C4 1620   2.013   0.871  12.231  0.8568 -0.2581 -0.0274
  104MPD2    C5 1621   2.131   0.798  12.267  0.1798  1.1783 -0.1216
  104MPD2     H 1622   2.091   1.164  12.375 -0.6337 -0.0640 -1.9479
  104MPD2    H1 1623   1.934   0.834  12.166  1.3358  0.9379 -1.2707
  104MPD2    H2 1624   2.314   0.802  12.378 -0.5078 -0.2624 -0.0219
  104MPD2    H3 1625   2.147   0.691  12.253 -0.7392  0.9254  0.7203
  104MPD2     N 1626   1.886   1.081  12.228 -0.1027  0.1119  0.1227
  104MPD2    H5 1627   1.882   1.175  12.267  0.8095  0.0551  0.3482
  104MPD2    N1 1628   2.314   1.030  12.472  0.0278  0.1891  0.2347
  104MPD2    H7 1629   2.405   0.985  12.470  0.7205  1.6188 -0.5675
  105TMC2    C1 1630   2.707   1.106   0.301  0.0815 -0.4611 -0.4085
  105TMC2    C2 1631   2.593   1.178   0.307 -0.3738  0.3083  0.6502
  105TMC2    C3 1632   2.599   1.269   0.412 -0.0406  0.1232 -0.4764
  105TMC2    C4 1633   2.818   1.119   0.376 -0.2308  0.4799 -0.1322
  105TMC2    C5 1634   2.817   1.218   0.473 -0.3813  0.5865  0.0900
  105TMC2    C6 1635   2.703   1.287   0.501 -0.1222 -0.0393 -0.7553
  105TMC2     C 1636   2.729   1.047   0.173 -0.0768  0.8477 -0.9483
  105TMC2     O 1637   2.625   1.006   0.118  0.6293 -0.0041  0.2647
  105TMC2     H 1638   2.517   1.175   0.230 -0.5254  0.9604  0.7779
  105TMC2    H1 1639   2.907   1.059   0.364  0.2018  1.4736 -1.9357
  105TMC2    H2 1640   2.697   1.363   0.578 -1.4328 -0.1838 -0.7095
  105TMC2    C7 1641   2.924   1.203   0.576  0.6096  0.6889  0.5692
  105TMC2    C8 1642   2.477   1.346   0.438  0.3483 -0.2476 -0.5866
  105TMC2    O1 1643   3.010   1.120   0.548  0.3148 -0.6099  0.4357
  105TMC2    O2 1644   2.461   1.410   0.539 -0.3696  0.8536 -0.1450
  105TMC2    O5 1645   2.427   1.385   0.324 -0.3579  0.1224 -0.2322
  105TMC2    H5 1646   2.450   1.334   0.243  2.2586 -1.2687  1.4024
  106MPD2     C 1647   3.027   0.897  17.550  0.0726 -0.3397  0.5916
  106MPD2    C1 1648   3.067   1.021  17.596 -0.2165  0.2683  0.6193
  106MPD2    C2 1649   3.013   1.069  17.706 -0.5735  0.6625 -0.3534
  106MPD2    C3 1650   2.901   1.005   0.009 -0.0564 -0.9661 -0.1776
  106MPD2    C4 1651   2.845   0.900  17.703 -0.0174  0.6048 -0.5266
  106MPD2    C5 1652   2.907   0.847  17.594  0.2438 -0.4984 -0.4529
  106MPD2     H 1653   3.048   1.166  17.739 -2.2557  0.5078  1.9009
  106MPD2    H1 1654   2.763   0.845  17.750  0.5141  0.7467  0.5753
  106MPD2    H2 1655   3.071   0.858  17.459 -2.6526 -1.3503 -0.2594
  106MPD2    H3 1656   2.868   0.755  17.552 -1.9808  0.4871 -0.5747
  106MPD2     N 1657   2.854   1.063   0.123 -0.1585  0.1376  0.1807
  106MPD2    H5 1658   2.914   1.125   0.176 -0.5611  1.5581 -1.0339
  106MPD2    N1 1659   3.173   1.098  17.542  0.4144  0.5295  0.7455
  106MPD2    H7 1660   3.199   1.180  17.596  1.0819  0.9047 -0.1573
  107TMC2    C1 1661   4.351   0.854  11.732  0.5343 -0.1094  0.1917
  107TMC2    C2 1662   4.385   0.887  11.859 -0.3526 -0.5167  0.1929
  107TMC2    C3 1663   4.494   0.957  11.887  0.2563  0.1252 -0.2671
  107TMC2    C4 1664   4.437   0.881  11.626 -0.5600 -0.7890  0.0788
  107TMC2    C5 1665   4.560   0.938  11.660 -0.5716 -0.7643  0.3839
  107TMC2    C6 1666   4.583   0.988  11.786 -0.2169 -0.2645 -0.9496
  107TMC2     C 1667   4.212   0.829  11.706 -0.1262  0.0215  0.4255
  107TMC2     O 1668   4.159   0.759  11.793 -0.1088 -0.1117 -0.0283
  107TMC2     H 1669   4.315   0.883  11.941 -0.1694  1.3098  0.4429
  107TMC2    H1 1670   4.422   0.832  11.531  0.8256  2.5428 -1.8516
  107TMC2    H2 1671   4.663   1.058  11.810  1.4419 -1.7104 -2.2607
  107TMC2    C7 1672   4.666   0.969  11.558  0.5500 -0.6392 -0.5432
  107TMC2    C8 1673   4.523   0.983  12.022 -0.0328 -0.2758 -0.2711
  107TMC2    O1 1674   0.013   1.046  11.595 -0.0545  0.4162  0.3235
  107TMC2    O2 1675   4.503   0.906  12.114 -0.3013 -0.4280  0.1617
  107TMC2    O5 1676   4.599   1.094  12.032 -0.7729 -0.2941  0.1377
  107TMC2    H5 1677   4.581   1.164  11.966  1.0238  2.3307  2.4378
  108MPD2     C 1678   3.981   0.952  11.448  0.3057  0.3640  0.1648
  108MPD2    C1 1679   4.027   0.911  11.573 -0.4403  0.8626 -0.4969
  108MPD2    C2 1680   3.935   0.898  11.678  0.3620 -0.2293 -1.0977
  108MPD2    C3 1681   3.799   0.928  11.659  0.5757  0.4129 -0.7003
  108MPD2    C4 1682   3.759   0.964  11.531 -0.1523  0.3335  0.1234
  108MPD2    C5 1683   3.849   0.977  11.430  0.8548  0.1870  0.2995
  108MPD2     H 1684   3.976   0.877  11.777 -0.8560 -1.7889 -0.9242
  108MPD2    H1 1685   3.655   0.989  11.514 -0.1654 -0.1587 -0.5090
  108MPD2    H2 1686   4.049   0.976  11.368 -2.5072  2.4018 -1.6350
  108MPD2    H3 1687   3.825   1.018  11.332  0.9968 -0.5431 -0.0377
  108MPD2     N 1688   3.693   0.908  11.753 -0.0530 -0.0233 -0.0914
  108MPD2    H5 1689   3.597   0.927  11.724 -0.7609 -2.4192  0.6409
  108MPD2    N1 1690   4.166   0.890  11.592  0.3433 -0.8120 -0.5140
  108MPD2    H7 1691   4.234   0.939  11.535  0.1280  1.6751  1.3553
  109TMC2    C1 1692   3.975   3.487   0.608 -0.5700 -0.3432 -0.0746
  109TMC2    C2 1693   3.966   3.582   0.510 -0.3738 -0.2317 -0.0645
  109TMC2    C3 1694   4.060   3.567   0.410 -0.4340  0.5138  0.6919
  109TMC2    C4 1695   4.057   3.380   0.602  0.4447 -0.2712 -0.1849
  109TMC2    C5 1696   4.133   3.356   0.491  0.0406 -0.0543  0.0791
  109TMC2    C6 1697   4.135   3.447   0.389 -0.0712 -0.0394 -0.4632
  109TMC2     C 1698   3.891   3.505   0.727  0.1017 -0.2736  0.6254
  109TMC2     O 1699   3.775   3.534   0.709 -0.1564  0.1622 -0.3596
  109TMC2     H 1700   3.907   3.671   0.527 -0.1928  0.1386 -1.3764
  109TMC2    H1 1701   4.071   3.317   0.689  0.7010 -0.5272 -0.4115
  109TMC2    H2 1702   4.195   3.430   0.300  1.1439  1.1881  0.1075
  109TMC2    C7 1703   4.265   3.295   0.520 -0.5111  0.1038  0.0389
  109TMC2    C8 1704   4.051   3.671   0.309 -0.1372 -0.3270  0.2340
  109TMC2    O1 1705   4.362   3.367   0.501 -0.5692  0.2391 -0.4810
  109TMC2    O2 1706   3.947   3.728   0.286  0.1417  0.3669  0.2111
  109TMC2    O5 1707   4.169   3.671   0.237 -0.1186  0.2099 -0.5307
  109TMC2    H5 1708   4.236   3.641   0.303  1.7173  1.5045 -1.7833
  110MPD2     C 1709   3.801   3.403   1.228 -0.1773 -0.2679  0.1865
  110MPD2    C1 1710   3.934   3.401   1.213  0.0568 -0.3661 -0.5460
  110MPD2    C2 1711   3.979   3.428   1.086  0.3353  0.2247 -0.4269
  110MPD2    C3 1712   3.899   3.449   0.977  0.4823  0.2176  0.9262
  110MPD2    C4 1713   3.765   3.443   1.000 -0.4066  0.2686 -0.3250
  110MPD2    C5 1714   3.718   3.427   1.127  0.4655 -0.1894 -0.3420
  110MPD2     H 1715   4.083   3.448   1.066  0.7794 -1.9821 -0.2727
  110MPD2    H1 1716   3.690   3.455   0.923 -0.9794  0.3286  0.2429
  110MPD2    H2 1717   3.754   3.396   1.325  0.4276  3.1131  0.7270
  110MPD2    H3 1718   3.612   3.429   1.151  0.6086 -1.5466  0.3715
  110MPD2     N 1719   3.950   3.468   0.849 -0.1248  0.1236 -1.1558
  110MPD2    H5 1720   4.051   3.456   0.848 -0.2363 -1.1962  1.4969
  110MPD2    N1 1721   4.006   3.367   1.330 -0.3388 -0.3319  0.4221
  110MPD2    H7 1722   3.950   3.343   1.412  0.7025 -0.1995  1.1702
  111TMC2    C1 1723   4.234   2.127  11.841  0.9408  0.0595 -0.8871
  111TMC2    C2 1724   4.201   2.058  11.953  0.2202 -0.1379  0.5679
  111TMC2    C3 1725   4.259   2.095  12.073 -0.6328 -0.0154 -0.2067
  111TMC2    C4 1726   4.309   2.241  11.844  0.1290 -0.3354 -0.1361
  111TMC2    C5 1727   4.363   2.274  11.965  0.0104  0.7412 -0.3064
  111TMC2    C6 1728   4.339   2.207  12.079 -0.8229  0.8444 -0.1743
  111TMC2     C 1729   4.158   2.119  11.714 -0.4037 -0.5334  0.0468
  111TMC2     O 1730   4.213   2.158  11.613  0.0174 -0.1850  0.3116
  111TMC2     H 1731   4.142   1.969  11.940 -0.6447  0.6639 -1.0240
  111TMC2    H1 1732   4.291   2.312  11.763 -3.1725 -0.7164  0.2650
  111TMC2    H2 1733   4.378   2.240  12.174 -2.5033 -1.7511  1.4335
  111TMC2    C7 1734   4.409   2.411  11.978 -0.3665  0.1419 -0.5014
  111TMC2    C8 1735   4.240   2.008  12.187 -0.6227 -0.4862 -0.9451
  111TMC2    O1 1736   4.386   2.468  12.088  0.1764  0.0289 -0.3660
  111TMC2    O2 1737   4.218   1.892  12.170 -0.2227  0.1392 -0.2565
  111TMC2    O5 1738   4.225   2.081  12.301  0.4048 -0.2670 -0.1051
  111TMC2    H5 1739   4.199   2.173  12.280  0.3994  0.3995  2.8042
  112MPD2     C 1740   3.704   2.084  11.468 -0.2764 -0.1174  0.0430
  112MPD2    C1 1741   3.838   2.122  11.431  0.1180  0.5920  0.2727
  112MPD2    C2 1742   3.948   2.096  11.512  0.4609 -0.5414  0.9440
  112MPD2    C3 1743   3.921   2.071  11.638 -0.3734  0.0983  0.8868
  112MPD2    C4 1744   3.792   2.036  11.678 -0.8263  0.6844 -0.1634
  112MPD2    C5 1745   3.685   2.032  11.590  1.0867  0.1217 -0.0515
  112MPD2     H 1746   4.047   2.120  11.475 -0.0783  1.3380  0.6855
  112MPD2    H1 1747   3.777   1.991  11.775 -1.4307  0.6447 -0.2762
  112MPD2    H2 1748   3.616   2.081  11.405 -0.2238 -1.6901  0.0534
  112MPD2    H3 1749   3.590   1.990  11.622 -0.5775  3.5000 -0.6296
  112MPD2     N 1750   4.028   2.080  11.731  0.2345 -0.4932  0.8274
  112MPD2    H5 1751   4.009   2.062  11.829 -1.6064 -1.1194  0.3512
  112MPD2    N1 1752   3.866   2.166  11.299 -0.6662  0.0122 -0.1891
  112MPD2    H7 1753   3.965   2.182  11.283 -0.6177  2.2400  2.4011
  113TMC2    C1 1754   1.960   0.840   0.795 -0.3164  0.5512  0.8583
  113TMC2    C2 1755   1.877   0.939   0.777 -0.6212  0.4182  0.3007
  113TMC2    C3 1756   1.789   0.947   0.677  0.3134 -0.0132  0.0688
  113TMC2    C4 1757   1.962   0.731   0.716  0.4391  0.1428  0.3208
  113TMC2    C5 1758   1.882   0.737   0.600 -1.0650 -0.0532 -0.3745
  113TMC2    C6 1759   1.799   0.846   0.580 -0.3136 -0.3645 -0.5976
  113TMC2     C 1760   2.069   0.859   0.892  0.7057 -0.5205 -0.2840
  113TMC2     O 1761   2.055   0.948   0.973  0.5015  0.4641 -0.3138
  113TMC2     H 1762   1.865   1.018   0.851 -0.4847  0.1478  0.6074
  113TMC2    H1 1763   2.030   0.647   0.726 -0.8667 -0.8078  1.1198
  113TMC2    H2 1764   1.733   0.847   0.494 -0.9944 -1.2354 -0.0905
  113TMC2    C7 1765   1.836   0.610   0.530 -0.0969 -0.0780 -0.1239
  113TMC2    C8 1766   1.692   1.057   0.673  0.1041 -0.1521 -0.2896
  113TMC2    O1 1767   1.758   0.618   0.437  0.1046  0.0336 -0.2815
  113TMC2    O2 1768   1.675   1.126   0.773  0.3104 -0.1045  0.0217
  113TMC2    O5 1769   1.654   1.098   0.546 -0.1044 -0.0138  0.1938
  113TMC2    H5 1770   1.692   1.041   0.476 -1.4173  1.9507 -2.1210
  114MPD2     C 1771   2.515   0.715   1.118 -0.1067  0.4510  0.6716
  114MPD2    C1 1772   2.442   0.837   1.127 -0.0031 -0.4362 -1.0421
  114MPD2    C2 1773   2.324   0.847   1.049  0.4366  0.3185 -0.2110
  114MPD2    C3 1774   2.280   0.745   0.963 -0.0504 -0.4797 -0.3820
  114MPD2    C4 1775   2.353   0.630   0.953 -0.3764  0.4953 -0.5953
  114MPD2    C5 1776   2.463   0.614   1.037 -1.1073 -0.6057 -0.0414
  114MPD2     H 1777   2.266   0.939   1.052  1.0313  0.7381 -1.3008
  114MPD2    H1 1778   2.308   0.557   0.887 -0.6081 -0.2465  0.3816
  114MPD2    H2 1779   2.602   0.688   1.176 -1.1599 -1.9439  1.1096
  114MPD2    H3 1780   2.526   0.525   1.038  0.5554  0.6010  2.0121
  114MPD2     N 1781   2.161   0.754   0.890  0.3493  0.3122  0.2066
  114MPD2    H5 1782   2.140   0.682   0.821  0.5928  1.3377 -0.9387
  114MPD2    N1 1783   2.480   0.940   1.212  0.5761 -0.1572 -0.4129
  114MPD2    H7 1784   2.417   1.019   1.219 -1.3032 -1.6010 -0.9041
  115TMC2    C1 1785   3.169   3.533  17.753  0.3870 -0.1354  0.1147
  115TMC2    C2 1786   3.284   3.472  17.711  0.3773  1.2436  0.2266
  115TMC2    C3 1787   3.382   3.550  17.664  0.5281 -0.2154 -0.5429
  115TMC2    C4 1788   3.147   3.672  17.736 -0.5556  0.4447  0.5153
  115TMC2    C5 1789   3.251   3.746  17.686 -0.2826  0.5764 -0.5381
  115TMC2    C6 1790   3.372   3.686  17.657 -0.3386 -0.5568 -0.7346
  115TMC2     C 1791   3.054   3.440  17.759 -0.0699  0.0210  0.5802
  115TMC2     O 1792   3.059   3.350  17.670  0.0806 -0.7306  0.5409
  115TMC2     H 1793   3.296   3.365  17.723  1.6178  1.3849  0.2882
  115TMC2    H1 1794   3.057   3.726   0.003  0.4538  1.4083  1.8900
  115TMC2    H2 1795   3.457   3.750  17.637 -0.2870 -0.0232  1.1467
  115TMC2    C7 1796   3.216   3.879  17.627 -0.3678 -0.6764  0.2928
  115TMC2    C8 1797   3.516   3.502  17.692  0.0236 -0.6566 -0.5579
  115TMC2    O1 1798   3.094   3.892  17.624 -0.4460  0.4816  0.3237
  115TMC2    O2 1799   3.612   3.575  17.720  0.5544 -0.0597  0.0275
  115TMC2    O5 1800   3.523   3.373  17.641  0.0390 -0.6866  0.2568
  115TMC2    H5 1801   3.439   3.337  17.604  0.9599 -0.8393 -1.7152
  116MPD2     C 1802   2.577   3.294   0.137  0.2240 -0.3301 -0.3318
  116MPD2    C1 1803   2.676   3.227   0.056 -0.4716  0.3599 -0.1967
  116MPD2    C2 1804   2.794   3.289   0.033  0.0435  0.7531 -0.2061
  116MPD2    C3 1805   2.827   3.413   0.095  0.6952 -0.3729 -0.4373
  116MPD2    C4 1806   2.739   3.469   0.185 -0.0276  0.2689  0.6254
  116MPD2    C5 1807   2.614   3.413   0.196  0.2215 -0.6809 -0.1430
  116MPD2     H 1808   2.879   3.245  17.743  0.2759 -1.4628  2.0653
  116MPD2    H1 1809   2.763   3.564   0.233  2.3866 -0.5883  1.1015
  116MPD2    H2 1810   2.482   3.246   0.157 -0.8755  2.8028  1.8845
  116MPD2    H3 1811   2.536   3.468   0.248  1.0108  0.8014 -0.5038
  116MPD2     N 1812   2.946   3.491   0.065 -0.1667 -0.2622 -0.1078
  116MPD2    H5 1813   2.967   3.580   0.108  1.4748 -1.6909  2.0581
  116MPD2    N1 1814   2.634   3.105  17.750  0.3400 -0.5611  0.3968
  116MPD2    H7 1815   2.540   3.071   0.004  0.5361 -1.9172 -1.3973
  117TMC2    C1 1816   1.800   4.500  14.481 -0.4395 -0.1282 -0.4706
  117TMC2    C2 1817   1.914   4.435  14.509 -0.0531 -0.2383 -0.3368
  117TMC2    C3 1818   2.029   4.503  14.478 -0.0719  0.3802  0.0866
  117TMC2    C4 1819   1.790   4.634  14.455  0.2374 -0.0126 -0.1567
  117TMC2    C5 1820   1.911   4.696  14.424  0.1613 -0.3709 -0.1487
  117TMC2    C6 1821   2.024   4.624  14.418  0.9273 -0.0289 -0.2541
  117TMC2     C 1822   1.675   4.448  14.527 -0.6534 -1.0546  0.4402
  117TMC2     O 1823   1.672   4.372  14.623 -0.1199  0.1702 -0.2085
  117TMC2     H 1824   1.898   4.328  14.500  0.5462 -0.4537  1.3270
  117TMC2    H1 1825   1.695   4.685  14.449 -1.3491 -2.6964  2.4748
  117TMC2    H2 1826   2.118   4.669  14.387  0.8156 -1.1996 -2.2860
  117TMC2    C7 1827   1.905   0.086  14.366 -0.1189 -0.4351 -0.4921
  117TMC2    C8 1828   2.152   4.434  14.476 -0.0634  0.2041  0.2898
  117TMC2    O1 1829   1.993   0.167  14.385  0.2062 -0.1388  0.0571
  117TMC2    O2 1830   2.245   4.451  14.396 -0.0699 -0.6047 -0.4894
  117TMC2    O5 1831   2.136   4.314  14.538 -0.2177 -0.5210  0.1089
  117TMC2    H5 1832   2.066   4.302  14.606  0.2002  0.7876  0.7840
  118MPD2     C 1833   1.641   0.195  14.134  0.2744  0.3783 -0.2701
  118MPD2    C1 1834   1.755   0.213  14.217 -0.2045 -0.7383  0.2699
  118MPD2    C2 1835   1.814   0.341  14.214 -0.0893  0.2125  0.0836
  118MPD2    C3 1836   1.758   0.444  14.130  0.4271  0.7105  0.2090
  118MPD2    C4 1837   1.641   0.422  14.061  0.3207 -0.4045  0.2585
  118MPD2    C5 1838   1.585   0.298  14.065  0.2575  0.3838  0.0265
  118MPD2     H 1839   1.902   0.362  14.273  0.8542 -0.2316 -1.1649
  118MPD2    H1 1840   1.594   0.491  13.991 -1.7080  0.3416  2.3568
  118MPD2    H2 1841   1.599   0.097  14.113  1.6437 -0.4644  0.9016
  118MPD2    H3 1842   1.503   0.285  13.995 -0.2869  0.1058  0.7021
  118MPD2     N 1843   1.810   0.572  14.129  0.1490  0.3307 -0.3840
  118MPD2    H5 1844   1.753   0.641  14.080  0.5386  2.3025  1.9572
  118MPD2    N1 1845   1.799   0.097  14.282 -0.1559  1.2853 -0.2189
  118MPD2    H7 1846   1.746   0.013  14.262 -0.2190  1.3921 -0.4972
  119TMC2    C1 1847   0.148   1.089  13.697  0.4281  0.2470 -0.5900
  119TMC2    C2 1848   0.210   1.022  13.598  0.8639 -0.0031 -0.2850
  119TMC2    C3 1849   0.143   0.935  13.517 -0.6783 -0.2259 -0.0466
  119TMC2    C4 1850   0.009   1.084  13.703  0.0741  0.0734 -0.5531
  119TMC2    C5 1851   4.682   0.995  13.616 -0.7335 -0.0613 -0.5799
  119TMC2    C6 1852   0.008   0.918  13.525  0.0981 -0.2524  0.0282
  119TMC2     C 1853   0.215   1.200  13.766 -0.8328  0.5143  0.1805
  119TMC2     O 1854   0.136   1.277  13.816  0.3537  0.0313  0.8222
  119TMC2     H 1855   0.318   1.017  13.590  0.8268  1.4874 -1.7968
  119TMC2    H1 1856   4.699   1.149  13.773  1.1459  0.1703  0.1349
  119TMC2    H2 1857   4.689   0.864  13.453  0.6717  1.1784 -1.5074
  119TMC2    C7 1858   4.536   1.007  13.604  0.6267 -0.0797  0.2807
  119TMC2    C8 1859   0.220   0.857  13.419  0.1960 -0.2853  0.2365
  119TMC2    O1 1860   4.498   0.995  13.490  0.5173 -0.2992  0.0325
  119TMC2    O2 1861   0.326   0.903  13.379  0.6605 -0.4602 -0.6261
  119TMC2    O5 1862   0.162   0.744  13.383 -0.0252  0.0403 -0.6742
  119TMC2    H5 1863   0.080   0.714  13.427  0.3740  2.5697  1.7925
  120MPD2     C 1864   0.632   1.483  13.877 -0.2832 -0.6590 -0.8217
  120MPD2    C1 1865   0.500   1.500  13.917  0.0872  0.2803  0.5738
  120MPD2    C2 1866   0.410   1.399  13.878 -0.4882 -0.0683  0.4889
  120MPD2    C3 1867   0.449   1.287  13.812 -0.6836 -0.5932 -0.3884
  120MPD2    C4 1868   0.583   1.270  13.777 -0.2081  0.0137 -1.0301
  120MPD2    C5 1869   0.667   1.375  13.803 -0.1658  0.3799  0.6105
  120MPD2     H 1870   0.304   1.420  13.890 -0.3175  0.0226  1.8657
  120MPD2    H1 1871   0.608   1.183  13.717 -0.8986 -0.9403  0.0631
  120MPD2    H2 1872   0.708   1.551  13.913 -0.0246 -0.7843 -1.1304
  120MPD2    H3 1873   0.765   1.375  13.756  0.1784  1.3427  1.3139
  120MPD2     N 1874   0.355   1.193  13.767 -0.4504 -0.0021  0.8439
  120MPD2    H5 1875   0.394   1.106  13.733  0.0866  0.3160  0.6402
  120MPD2    N1 1876   0.468   1.613  13.991  0.0305 -0.3900 -1.1583
  120MPD2    H7 1877   0.544   1.680  13.998 -0.2960  0.0808 -2.1188
  121TMC2    C1 1878   1.042   2.896  14.236 -0.3428 -0.0354  0.8263
  121TMC2    C2 1879   0.974   2.793  14.293 -0.2610  0.3910 -0.4326
  121TMC2    C3 1880   0.839   2.800  14.292 -0.3287  0.0917  0.0407
  121TMC2    C4 1881   0.983   3.007  14.181 -0.0351  0.2753  0.7037
  121TMC2    C5 1882   0.847   3.009  14.185  0.1578  0.5945 -0.1411
  121TMC2    C6 1883   0.776   2.907  14.237 -0.4091 -0.8876  0.7935
  121TMC2     C 1884   1.182   2.888  14.244  0.8253  0.7983 -0.0097
  121TMC2     O 1885   1.224   2.797  14.311  0.3695  0.1277 -0.7362
  121TMC2     H 1886   1.022   2.734  14.370  0.2470 -0.6989 -1.5750
  121TMC2    H1 1887   1.034   3.083  14.124  0.3773 -0.7910 -0.3391
  121TMC2    H2 1888   0.668   2.897  14.243 -0.6783  0.9132 -1.1071
  121TMC2    C7 1889   0.785   3.124  14.117  0.1028 -0.1308  0.4492
  121TMC2    C8 1890   0.749   2.697  14.356  0.4850  0.0197 -0.1691
  121TMC2    O1 1891   0.855   3.210  14.071  0.2271  0.1981 -0.0584
  121TMC2    O2 1892   0.646   2.736  14.405  0.6182  0.5355 -0.5504
  121TMC2    O5 1893   0.836   2.612  14.419  0.1545  0.0759  0.0587
  121TMC2    H5 1894   0.897   2.580  14.349 -1.0165 -0.4303 -0.7437
  122MPD2     C 1895   1.485   2.901  14.188  0.1515  0.0692 -0.1475
  122MPD2    C1 1896   1.393   2.980  14.131  0.1362 -0.0312 -0.0323
  122MPD2    C2 1897   1.424   3.055  14.017 -0.0103 -0.2022  0.4011
  122MPD2    C3 1898   1.550   3.045  13.963  0.1348  0.1852 -0.3610
  122MPD2    C4 1899   1.649   2.967  14.028 -0.1161 -0.1147 -0.2097
  122MPD2    C5 1900   1.609   2.903  14.141  0.2261  0.3564 -0.4922
  122MPD2     H 1901   1.356   3.121  13.965  0.0402 -0.8765 -0.5301
  122MPD2    H1 1902   1.748   2.937  13.996 -0.3621 -1.5309  0.3145
  122MPD2    H2 1903   1.464   2.831  14.268  1.0414 -0.8694 -0.7366
  122MPD2    H3 1904   1.671   2.826  14.184  2.8378  1.4412 -2.3068
  122MPD2     N 1905   1.589   3.097  13.841  0.0432 -0.1889  0.3427
  122MPD2    H5 1906   1.682   3.074  13.807 -0.7891  0.4833 -2.3731
  122MPD2    N1 1907   1.254   2.980  14.162  0.3285  0.4500 -0.0036
  122MPD2    H7 1908   1.201   3.034  14.095 -1.1781 -0.5826  0.3614
  123TMC2    C1 1909   4.702   1.086  10.670  0.1810  0.0992  0.5194
  123TMC2    C2 1910   0.052   1.179  10.717  0.4590 -0.5206 -0.3689
  123TMC2    C3 1911   0.058   1.297  10.646  0.3944 -0.2616  0.1731
  123TMC2    C4 1912   4.627   1.111  10.556  0.1145  0.7853  0.3535
  123TMC2    C5 1913   4.645   1.230  10.484  0.3358  0.1161  0.1785
  123TMC2    C6 1914   4.728   1.326  10.536 -0.3300  0.2127  0.4119
  123TMC2     C 1915   4.740   0.946  10.687  0.5500  0.0261 -0.2070
  123TMC2     O 1916   0.113   0.923  10.731  0.1292  0.7340  0.1533
  123TMC2     H 1917   0.097   1.175  10.816 -0.0136  0.2343 -0.1234
  123TMC2    H1 1918   4.558   1.036  10.519  0.7873  0.4028 -0.1235
  123TMC2    H2 1919   0.000   1.419  10.482 -1.8641  0.8281  1.1307
  123TMC2    C7 1920   4.570   1.244  10.361 -0.4506  0.3034 -0.0771
  123TMC2    C8 1921   0.094   1.400  10.742 -0.0850  0.4531  0.0735
  123TMC2    O1 1922   4.464   1.182  10.353 -0.3520 -0.0815 -0.2874
  123TMC2    O2 1923   0.002   1.435  10.817  0.6503  0.1468 -0.2969
  123TMC2    O5 1924   0.161   1.488  10.669 -0.2334 -0.1654  0.1379
  123TMC2    H5 1925   0.229   1.444  10.614 -1.3087  1.0521 -2.1499
  124MPD2     C 1926   4.710   0.481  10.452 -0.3425  0.3378  0.1705
  124MPD2    C1 1927   4.591   0.550  10.440 -0.5389  0.0551 -0.5137
  124MPD2    C2 1928   4.568   0.667  10.513 -0.2217 -0.6989 -0.1027
  124MPD2    C3 1929   4.675   0.728  10.580 -0.0582 -0.3497  0.3463
  124MPD2    C4 1930   0.061   0.672  10.571  0.2471 -0.9510  0.3687
  124MPD2    C5 1931   0.076   0.546  10.510  0.4870 -0.4685  0.2649
  124MPD2     H 1932   4.473   0.718  10.500  0.0515 -0.4316 -1.0150
  124MPD2    H1 1933   0.152   0.723  10.600  0.9193 -1.2063 -1.2858
  124MPD2    H2 1934   0.000   0.387  10.407  1.3542  0.6986  0.5817
  124MPD2    H3 1935   0.174   0.499  10.516 -0.2784 -1.6994  3.2952
  124MPD2     N 1936   4.649   0.856  10.631 -0.6400 -0.8313  0.9584
  124MPD2    H5 1937   4.553   0.888  10.620 -0.4721 -0.5851  0.2377
  124MPD2    N1 1938   4.489   0.502  10.356  0.5228  0.2087  0.1054
  124MPD2    H7 1939   4.498   0.406  10.323 -0.1917  0.6798 -1.4713
  125TMC2    C1 1940   1.125   2.905   9.625  0.5860 -0.0203  0.0959
  125TMC2    C2 1941   1.017   2.986   9.591 -0.0047  0.0734  0.3632
  125TMC2    C3 1942   0.988   2.994   9.460 -0.0896 -0.2362 -0.4377
  125TMC2    C4 1943   1.194   2.832   9.537 -0.4832 -0.5696 -0.4744
  125TMC2    C5 1944   1.160   2.852   9.403  0.3160  0.0372  0.4594
  125TMC2    C6 1945   1.051   2.929   9.360  0.7839 -0.1695 -0.4088
  125TMC2     C 1946   1.152   2.895   9.771  0.4653  0.1980  0.3075
  125TMC2     O 1947   1.218   2.795   9.810  0.1300 -0.6718  0.2272
  125TMC2     H 1948   0.954   3.034   9.665 -0.7730 -0.1301 -0.1572
  125TMC2    H1 1949   1.283   2.778   9.568  0.1128 -1.2335 -3.2833
  125TMC2    H2 1950   1.021   2.927   9.256 -1.1334 -1.5075  0.1735
  125TMC2    C7 1951   1.213   2.770   9.296  0.6032  0.1800  0.9124
  125TMC2    C8 1952   0.909   3.112   9.420 -0.1014  0.0821  0.7981
  125TMC2    O1 1953   1.145   2.759   9.196  0.5793 -0.2874 -0.4375
  125TMC2    O2 1954   0.857   3.183   9.509  0.2603  0.3322 -0.0308
  125TMC2    O5 1955   0.911   3.143   9.290 -0.4896 -0.4591 -0.4818
  125TMC2    H5 1956   0.992   3.105   9.250 -0.8317 -2.2345  0.5066
  126MPD1     C 1957   1.068   3.067  10.247 -0.3331  0.9239  0.2310
  126MPD1    C1 1958   1.021   3.156  10.159  0.7202 -0.0078 -0.1156
  126MPD1    C2 1959   1.061   3.134  10.028  0.2925 -1.3200 -0.0602
  126MPD1    C3 1960   1.107   3.016   9.982 -0.6922 -0.3400 -0.4834
  126MPD1    C4 1961   1.151   2.922  10.074  0.2372 -0.1179 -0.7115
  126MPD1    C5 1962   1.134   2.953  10.210  0.1776  0.3228  0.6212
  126MPD1     H 1963   1.049   3.213   9.954  1.5747  1.0000  2.1869
  126MPD1    H1 1964   1.190   2.828  10.038 -0.3869 -0.0343 -1.6111
  126MPD1    H2 1965   1.039   3.087  10.349 -0.1710  0.0688  0.4502
  126MPD1    H3 1966   1.175   2.891  10.288  0.0875 -0.2230  0.2404
  126MPD1     N 1967   1.111   3.003   9.840  0.1651  0.1439  0.2206
  126MPD1    H5 1968   1.079   3.083   9.786  0.9697  2.1937  2.7540
  126MPD1    N1 1969   0.949   3.270  10.194 -0.1496  0.0652 -0.3720
  126MPD1    H6 1970   0.960   3.296  10.291 -2.8849 -0.1364 -0.0139
  126MPD1    H7 1971   0.963   3.352  10.136  2.1168  0.7419  1.1549
  127TMC2    C1 1972   1.347   1.468  10.155  0.2088 -0.0586  0.1225
  127TMC2    C2 1973   1.396   1.360  10.083 -0.1201  0.2405  0.1434
  127TMC2    C3 1974   1.326   1.240  10.090 -0.4687  0.0629 -0.4654
  127TMC2    C4 1975   1.245   1.447  10.246 -0.0075  0.2679  0.4461
  127TMC2    C5 1976   1.210   1.319  10.269 -0.3900 -0.0542 -0.4828
  127TMC2    C6 1977   1.245   1.210  10.191 -0.1816 -0.0189 -0.5478
  127TMC2     C 1978   1.418   1.595  10.147 -0.4082  0.2728  0.4491
  127TMC2     O 1979   1.526   1.581  10.097 -0.3609  0.3622  0.1289
  127TMC2     H 1980   1.477   1.375  10.012 -1.0309  0.4204 -0.8580
  127TMC2    H1 1981   1.206   1.532  10.302 -0.7037  0.7823 -0.8371
  127TMC2    H2 1982   1.199   1.113  10.196  0.9061 -0.5096  0.0890
  127TMC2    C7 1983   1.184   1.290  10.416 -0.1750 -0.2893 -0.1403
  127TMC2    C8 1984   1.366   1.123  10.010  0.1665  0.6097 -0.1893
  127TMC2    O1 1985   1.149   1.379  10.489  0.0653 -0.4750  0.2723
  127TMC2    O2 1986   1.289   1.062   9.937  0.4066  0.3126  0.4320
  127TMC2    O5 1987   1.503   1.122   9.998  0.0718  0.1970 -0.0159
  127TMC2    H5 1988   1.543   1.182  10.065  0.5522  0.0329 -0.1517
  128MPD2     C 1989   1.315   1.954  10.198 -0.1665  0.0739  0.2298
  128MPD2    C1 1990   1.395   1.844  10.190  0.1362  0.4874 -0.7951
  128MPD2    C2 1991   1.537   1.861  10.194 -0.4109 -0.3757 -0.1353
  128MPD2    C3 1992   1.590   1.992  10.201  0.3263  0.4789  0.4026
  128MPD2    C4 1993   1.509   2.104  10.199 -0.3009  0.6345 -0.1296
  128MPD2    C5 1994   1.371   2.082  10.206 -0.0403  0.2576 -0.6495
  128MPD2     H 1995   1.607   1.779  10.189 -0.3042 -0.3365  0.6701
  128MPD2    H1 1996   1.550   2.204  10.205  1.3949 -0.1125  0.7051
  128MPD2    H2 1997   1.208   1.939  10.183 -0.3157 -0.8976  2.3407
  128MPD2    H3 1998   1.305   2.168  10.214 -1.1326 -0.5139 -1.3433
  128MPD2     N 1999   1.734   2.003  10.205  0.7258 -0.5780  0.1650
  128MPD2    H5 2000   1.791   1.920  10.212  0.9156 -0.4014  0.7282
  128MPD2    N1 2001   1.341   1.707  10.180 -0.3187  0.1418  0.3214
  128MPD2    H7 2002   1.240   1.698  10.182 -0.6312  3.5095  0.8036
  129TMC2    C1 2003   0.606   2.166   1.492  0.6255  0.4871 -0.0217
  129TMC2    C2 2004   0.527   2.257   1.424 -0.7760 -0.0631  0.6443
  129TMC2    C3 2005   0.422   2.201   1.358 -0.4863 -0.7441  0.0005
  129TMC2    C4 2006   0.580   2.036   1.499 -0.5248  0.1771 -0.5983
  129TMC2    C5 2007   0.473   1.986   1.442  0.8806  0.2397 -0.3430
  129TMC2    C6 2008   0.394   2.066   1.365  0.1944  0.2868  0.2322
  129TMC2     C 2009   0.743   2.207   1.524 -0.1868  0.3024  0.9026
  129TMC2     O 2010   0.829   2.118   1.533 -0.2819 -0.1929  0.4143
  129TMC2     H 2011   0.552   2.361   1.404 -2.5004  0.3362  0.5385
  129TMC2    H1 2012   0.659   1.978   1.546  1.6948  0.8557 -3.4928
  129TMC2    H2 2013   0.313   2.023   1.307 -0.8200  2.4579  0.0249
  129TMC2    C7 2014   0.429   1.847   1.456  0.2066  0.6372 -0.2635
  129TMC2    C8 2015   0.323   2.297   1.298  0.4880  0.2678  0.4607
  129TMC2    O1 2016   0.312   1.838   1.429 -0.0437  0.2759  0.0569
  129TMC2    O2 2017   0.335   2.417   1.299  0.1400  0.4262 -0.8410
  129TMC2    O5 2018   0.291   2.234   1.184  0.5160 -0.3148 -0.0410
  129TMC2    H5 2019   0.304   2.137   1.187  1.7384 -0.1247  0.7894
  130MPD2     C 2020   0.991   2.360   1.567  0.0846 -0.9602  0.7816
  130MPD2    C1 2021   0.867   2.420   1.565 -0.3817  0.1362 -0.0637
  130MPD2    C2 2022   0.849   2.554   1.564  0.4467  0.2749 -0.7443
  130MPD2    C3 2023   0.960   2.635   1.556  0.2515  0.3059  0.2994
  130MPD2    C4 2024   1.084   2.573   1.568  0.0528  0.6505 -0.5472
  130MPD2    C5 2025   1.097   2.437   1.574  0.7086  0.3591  0.0347
  130MPD2     H 2026   0.747   2.592   1.567  1.1204  2.1699 -2.1465
  130MPD2    H1 2027   1.181   2.622   1.569 -0.8331  2.4064  0.9321
  130MPD2    H2 2028   1.010   2.254   1.555  2.7227 -0.4739  0.5964
  130MPD2    H3 2029   1.195   2.395   1.559  0.7141  0.2303  0.4271
  130MPD2     N 2030   0.936   2.773   1.551  0.2400  0.4049  0.3125
  130MPD2    H5 2031   0.839   2.801   1.554 -0.1905 -1.3034  2.4108
  130MPD2    N1 2032   0.749   2.343   1.549 -0.4902  0.0815 -0.2484
  130MPD2    H7 2033   0.668   2.404   1.550  0.0672  0.8059  0.1429
  131TMC2    C1 2034   4.232   1.403  10.086  0.1338 -1.0782 -0.4422
  131TMC2    C2 2035   4.270   1.441  10.214 -0.0813 -0.2623 -0.5540
  131TMC2    C3 2036   4.341   1.551  10.216 -0.2163  0.0588 -0.2954
  131TMC2    C4 2037   4.250   1.476   9.974 -0.1699  0.6741  0.0525
  131TMC2    C5 2038   4.321   1.594   9.982 -0.2931  0.0052  0.6613
  131TMC2    C6 2039   4.379   1.622  10.103  0.6636  0.7464 -0.0060
  131TMC2     C 2040   4.170   1.274  10.075 -0.4745  0.3583 -0.4491
  131TMC2     O 2041   4.174   1.205  10.173 -0.6857 -0.2513 -0.0340
  131TMC2     H 2042   4.242   1.380  10.299  1.1345  0.8359  0.6205
  131TMC2    H1 2043   4.220   1.447   9.874  1.6204 -0.5587 -0.1308
  131TMC2    H2 2044   4.434   1.713  10.122  1.6098  0.7482 -2.8667
  131TMC2    C7 2045   4.303   1.693   9.884 -0.0054 -0.1628  0.1427
  131TMC2    C8 2046   4.410   1.587  10.342  0.0136  0.2007  0.3218
  131TMC2    O1 2047   4.278   1.648   9.771  0.8053  0.3205  0.2973
  131TMC2    O2 2048   4.523   1.632  10.343  0.1018 -0.8866 -0.2871
  131TMC2    O5 2049   4.332   1.576  10.452  0.5768  0.1928  0.3479
  131TMC2    H5 2050   4.244   1.570  10.409  0.5064  1.5840  0.2953
  132MPD2     C 2051   3.992   1.115   9.797 -0.2686  0.1961  0.2716
  132MPD2    C1 2052   4.060   1.120   9.916  0.0369  0.2957 -0.2221
  132MPD2    C2 2053   4.087   1.000   9.987  0.2988 -0.1198  0.4191
  132MPD2    C3 2054   4.042   0.881   9.937 -1.0433  0.6259  1.3178
  132MPD2    C4 2055   3.968   0.877   9.817  1.2156 -0.8654 -0.1570
  132MPD2    C5 2056   3.950   0.993   9.755  0.2743 -0.1554  0.2557
  132MPD2     H 2057   4.148   0.989  10.076  1.4248  2.0685 -0.0910
  132MPD2    H1 2058   3.951   0.784   9.763  0.7757 -0.6486 -0.3893
  132MPD2    H2 2059   3.960   1.203   9.741  2.4250  0.8318 -0.2666
  132MPD2    H3 2060   3.885   0.999   9.668 -2.2418  0.6516  2.1723
  132MPD2     N 2061   4.096   0.763   9.996  0.9651 -0.3775 -0.2989
  132MPD2    H5 2062   4.146   0.775  10.083  0.4506  0.4282 -0.1044
  132MPD2    N1 2063   4.098   1.248   9.955 -0.3373 -0.3183  0.3476
  132MPD2    H7 2064   4.066   1.321   9.892  3.1558  1.8112  1.0215
  133TMC2    C1 2065   3.509   0.614   9.817  0.4517 -0.1816  0.4325
  133TMC2    C2 2066   3.622   0.575   9.882 -0.0107  0.0940  0.0840
  133TMC2    C3 2067   3.610   0.494   9.988 -0.1847  0.6861 -0.4024
  133TMC2    C4 2068   3.390   0.560   9.846  0.5255  0.0697 -0.1970
  133TMC2    C5 2069   3.378   0.473   9.951  0.1114 -0.1309  0.2192
  133TMC2    C6 2070   3.487   0.438  10.026 -0.4650  0.1491 -0.3183
  133TMC2     C 2071   3.504   0.745   9.759 -0.5076  0.3720 -0.5813
  133TMC2     O 2072   3.401   0.809   9.779 -0.1653 -0.4773  0.4067
  133TMC2     H 2073   3.715   0.629   9.868  0.3765 -0.5967  0.0426
  133TMC2    H1 2074   3.302   0.600   9.796 -0.4800  0.3259  1.7962
  133TMC2    H2 2075   3.464   0.392  10.122  0.5505  0.2137 -0.0410
  133TMC2    C7 2076   3.248   0.422   9.981  0.0010 -0.0914  0.4186
  133TMC2    C8 2077   3.725   0.479  10.075 -0.0132 -0.0924  0.7514
  133TMC2    O1 2078   3.145   0.482   9.953 -0.1547  0.2132  0.6666
  133TMC2    O2 2079   3.797   0.577  10.100 -0.1432  0.1845  0.3952
  133TMC2    O5 2080   3.705   0.372  10.159  0.2590 -0.7658 -0.5987
  133TMC2    H5 2081   3.639   0.307  10.129 -1.6279  1.8004 -1.9718
  134MPD2     C 2082   3.725   0.863   9.495 -0.0192  0.1491  0.0056
  134MPD2    C1 2083   3.624   0.883   9.589  0.3975 -0.4166  1.4208
  134MPD2    C2 2084   3.563   1.003   9.614  0.1324  0.0590  0.0058
  134MPD2    C3 2085   3.611   1.114   9.549 -0.7585  0.1365  0.3483
  134MPD2    C4 2086   3.715   1.100   9.452 -0.2597 -0.3607 -0.2835
  134MPD2    C5 2087   3.768   0.976   9.427  0.1003 -0.8122  0.7026
  134MPD2     H 2088   3.483   1.013   9.686  0.5016 -0.1908  0.4481
  134MPD2    H1 2089   3.769   1.177   9.397  0.2343 -0.7580 -0.3635
  134MPD2    H2 2090   3.758   0.762   9.472  1.1745  0.7857 -1.1250
  134MPD2    H3 2091   3.845   0.972   9.351  0.8821  1.5581  1.3863
  134MPD2     N 2092   3.566   1.244   9.570 -0.1111  0.0696 -0.8612
  134MPD2    H5 2093   3.609   1.314   9.512  0.2113  1.6298  1.2665
  134MPD2    N1 2094   3.597   0.763   9.670  0.2679  0.3214 -0.1040
  134MPD2    H7 2095   3.654   0.683   9.646  0.0001 -0.3787  1.6186
  135TMC2    C1 2096   1.097   3.398   9.540 -0.1043  0.9998 -0.9904
  135TMC2    C2 2097   1.089   3.440   9.411  0.9393 -0.2764  1.1601
  135TMC2    C3 2098   1.000   3.537   9.389  0.7352  0.1800  0.1360
  135TMC2    C4 2099   1.009   3.437   9.641  0.7533 -0.2576 -0.2617
  135TMC2    C5 2100   0.910   3.520   9.601  0.5036  0.5420 -0.5033
  135TMC2    C6 2101   0.914   3.581   9.480  0.2803  1.0950  0.0072
  135TMC2     C 2102   1.188   3.296   9.576  0.4159 -0.0015  0.8083
  135TMC2     O 2103   1.174   3.252   9.689 -0.2580 -0.1452  0.6635
  135TMC2     H 2104   1.143   3.385   9.335 -0.1105 -2.6056  2.0934
  135TMC2    H1 2105   1.020   3.403   9.744 -2.5993 -0.1498  0.1141
  135TMC2    H2 2106   0.842   3.660   9.459  0.2669  1.2376  0.5929
  135TMC2    C7 2107   0.830   3.583   9.704 -0.1777 -0.1684 -0.0661
  135TMC2    C8 2108   1.005   3.600   9.257 -0.0990 -0.4487  0.5567
  135TMC2    O1 2109   0.780   3.689   9.675  0.2397 -0.1135 -0.5609
  135TMC2    O2 2110   1.013   3.516   9.167  0.4883 -0.0678 -0.1239
  135TMC2    O5 2111   1.081   3.710   9.261 -0.4705 -0.2844  0.3084
  135TMC2    H5 2112   1.067   3.749   9.350  3.3517 -0.6101  1.0278
  136MPD2     C 2113   1.406   3.086   9.605  0.4694 -0.6843 -0.3833
  136MPD2    C1 2114   1.363   3.140   9.482 -0.5316  0.2339  0.1580
  136MPD2    C2 2115   1.422   3.106   9.366 -0.8935  0.3777 -0.4583
  136MPD2    C3 2116   1.528   3.013   9.369 -0.7066 -0.5336 -0.0828
  136MPD2    C4 2117   1.557   2.946   9.488 -0.5199  0.0510  0.3280
  136MPD2    C5 2118   1.496   2.985   9.606  0.2932  0.4113 -0.9746
  136MPD2     H 2119   1.398   3.166   9.278 -2.4212  1.6877  0.8480
  136MPD2    H1 2120   1.631   2.868   9.496 -1.9529 -1.5073 -1.5684
  136MPD2    H2 2121   1.365   3.112   9.702  1.6049 -1.8127  0.4102
  136MPD2    H3 2122   1.508   2.932   9.699 -0.6744  1.0744 -0.4657
  136MPD2     N 2123   1.594   2.967   9.253 -0.0486  0.0310 -0.4121
  136MPD2    H5 2124   1.673   2.904   9.265  0.6840  0.3177 -3.7421
  136MPD2    N1 2125   1.263   3.245   9.473 -0.5776 -0.9810  0.1792
  136MPD2    H7 2126   1.253   3.288   9.382 -0.0522 -0.4695  0.3538
  137TMC2    C1 2127   0.281   3.254   9.387 -0.2365 -0.5379  0.0583
  137TMC2    C2 2128   0.306   3.363   9.311 -0.7140  0.4561 -0.0380
  137TMC2    C3 2129   0.204   3.445   9.283  0.3970 -0.7380  0.0468
  137TMC2    C4 2130   0.158   3.231   9.447  0.2187  0.9530  0.1908
  137TMC2    C5 2131   0.056   3.323   9.421  0.7306  0.0762 -0.0654
  137TMC2    C6 2132   0.083   3.435   9.343 -1.0421 -1.2539  0.0378
  137TMC2     C 2133   0.371   3.143   9.400  0.1580 -0.0151  0.0875
  137TMC2     O 2134   0.364   3.077   9.503  0.2228 -0.5046  0.2652
  137TMC2     H 2135   0.398   3.371   9.253 -0.9798  0.7427 -0.4266
  137TMC2    H1 2136   0.147   3.144   9.511 -0.4802  2.1422  1.7106
  137TMC2    H2 2137   4.740   3.498   9.316 -1.4909 -1.7734  0.2220
  137TMC2    C7 2138   4.659   3.288   9.449  0.4659  0.2748  0.2913
  137TMC2    C8 2139   0.223   3.542   9.178  0.4490 -0.0716 -0.3144
  137TMC2    O1 2140   4.573   3.329   9.373  0.2987 -0.3178 -0.6587
  137TMC2    O2 2141   0.159   3.647   9.182  0.2719  0.3508  0.0755
  137TMC2    O5 2142   0.223   3.469   9.065  0.0462  0.1160  0.4730
  137TMC2    H5 2143   0.263   3.383   9.092 -0.0721 -0.6572 -1.8438
  138MPD2     C 2144   0.574   2.990   9.146  0.3846 -0.1713 -0.1209
  138MPD2    C1 2145   0.531   3.015   9.268 -0.1913  0.1315  0.4399
  138MPD2    C2 2146   0.579   2.933   9.373  0.4948 -0.1587  0.4617
  138MPD2    C3 2147   0.682   2.835   9.351 -0.6850  0.1283  0.2801
  138MPD2    C4 2148   0.721   2.810   9.220 -0.1364 -0.8700  0.3719
  138MPD2    C5 2149   0.662   2.881   9.123  0.0169 -0.2390  0.1302
  138MPD2     H 2150   0.557   2.964   9.474  1.0115 -2.8002  1.4088
  138MPD2    H1 2151   0.795   2.740   9.184 -1.1095 -0.9506 -1.5157
  138MPD2    H2 2152   0.532   3.049   9.066 -0.0916  0.1352  0.3622
  138MPD2    H3 2153   0.690   2.847   9.024  0.0838  1.4400 -0.4331
  138MPD2     N 2154   0.736   2.764   9.461  0.1249  0.0621 -0.1667
  138MPD2    H5 2155   0.721   2.809   9.551 -0.4651  2.7586 -1.6148
  138MPD2    N1 2156   0.435   3.118   9.280  0.2285 -0.0244  0.1450
  138MPD2    H7 2157   0.419   3.182   9.203 -0.0849  0.1095  0.3197
  139TMC2    C1 2158   1.300   0.545  13.534  0.0302 -0.2882 -1.1150
  139TMC2    C2 2159   1.355   0.614  13.435 -0.1516 -0.5455 -0.2053
  139TMC2    C3 2160   1.293   0.731  13.403  0.1509  0.1308 -0.3520
  139TMC2    C4 2161   1.195   0.585  13.603  0.2773  0.7999 -0.1961
  139TMC2    C5 2162   1.131   0.697  13.559 -0.4540 -0.1367 -0.3236
  139TMC2    C6 2163   1.180   0.776  13.469 -0.4583  0.1137 -0.8453
  139TMC2     C 2164   1.380   0.428  13.565 -0.1938 -0.2255  0.1204
  139TMC2     O 2165   1.492   0.420  13.516  0.6106 -0.2058 -0.2063
  139TMC2     H 2166   1.448   0.590  13.386  0.5688 -0.2920  1.0286
  139TMC2    H1 2167   1.171   0.540  13.698  0.9000 -0.2128 -0.5234
  139TMC2    H2 2168   1.137   0.870  13.438  0.2472  1.5580  2.6494
  139TMC2    C7 2169   1.026   0.762  13.637  0.1625 -0.9744  0.1964
  139TMC2    C8 2170   1.368   0.828  13.334  0.0162 -0.0334  0.4820
  139TMC2    O1 2171   1.017   0.886  13.626  0.4921  0.4371 -0.5609
  139TMC2    O2 2172   1.414   0.815  13.221  0.4652  0.0108 -0.1775
  139TMC2    O5 2173   1.454   0.853  13.435 -0.8869  0.5220 -0.2614
  139TMC2    H5 2174   1.413   0.849  13.524 -0.2322  0.6696  0.0431
  140MPD2     C 2175   1.301   0.164  13.816 -0.5713 -0.1864 -0.1360
  140MPD2    C1 2176   1.385   0.244  13.735  0.3329 -0.7128  0.0392
  140MPD2    C2 2177   1.518   0.217  13.717 -0.1034 -0.3276 -0.0007
  140MPD2    C3 2178   1.578   0.110  13.783 -0.2127 -0.1238  0.7660
  140MPD2    C4 2179   1.492   0.023  13.858  0.1078  0.1094  0.0536
  140MPD2    C5 2180   1.358   0.053  13.871 -0.8610  0.0483  0.5927
  140MPD2     H 2181   1.584   0.260  13.643  0.3743  1.5859  1.5534
  140MPD2    H1 2182   1.523   4.671  13.905 -3.4440 -0.1093  1.9917
  140MPD2    H2 2183   1.201   0.194  13.845  0.0954 -0.0630  2.0384
  140MPD2    H3 2184   1.296   4.729  13.931  0.1511 -0.4060  1.1611
  140MPD2     N 2185   1.706   0.069  13.746  0.5738 -0.7021 -0.4158
  140MPD2    H5 2186   1.739   0.097  13.654 -0.2686  1.3259 -0.1050
  140MPD2    N1 2187   1.321   0.350  13.665  0.2695  0.4089 -0.0085
  140MPD2    H7 2188   1.229   0.383  13.693 -0.0320 -1.9773  1.8659
  141TMC2    C1 2189   2.036   2.117  13.792 -0.8780  0.3872  0.2884
  141TMC2    C2 2190   1.927   2.124  13.879  0.1890 -0.0442 -0.7970
  141TMC2    C3 2191   1.951   2.194  13.999  0.9698  0.0455 -0.5053
  141TMC2    C4 2192   2.159   2.174  13.824 -0.5918  0.5888  0.4490
  141TMC2    C5 2193   2.187   2.223  13.951  0.7814  0.4373  0.3536
  141TMC2    C6 2194   2.077   2.237  14.039  0.1923  0.3995 -0.0566
  141TMC2     C 2195   2.009   2.062  13.656  0.5712  0.9539  0.0086
  141TMC2     O 2196   2.088   2.097  13.571 -0.2472  0.2018 -1.0131
  141TMC2     H 2197   1.827   2.091  13.853 -0.0067  0.2380 -0.3935
  141TMC2    H1 2198   2.241   2.170  13.754  0.1053  2.1762  1.1866
  141TMC2    H2 2199   2.072   2.297  14.129 -1.1946  0.1481  0.0296
  141TMC2    C7 2200   2.319   2.241  14.002 -0.6771  0.0611 -0.2228
  141TMC2    C8 2201   1.835   2.221  14.086  0.1594  0.4180  0.6728
  141TMC2    O1 2202   2.402   2.245  13.908  0.4315 -0.1271 -0.1839
  141TMC2    O2 2203   1.838   2.221  14.211 -0.2930  0.2503 -0.1871
  141TMC2    O5 2204   1.729   2.255  14.013 -0.1344  0.3306 -0.0627
  141TMC2    H5 2205   1.740   2.273  13.917 -0.4788 -0.2475 -0.2072
  142TMC2    C1 2206   4.381   0.679   9.724 -0.7079 -0.2947 -0.0218
  142TMC2    C2 2207   4.296   0.707   9.614  0.0570 -0.0309  0.0468
  142TMC2    C3 2208   4.245   0.830   9.605  0.0512 -0.1116  0.5342
  142TMC2    C4 2209   4.408   0.774   9.821 -0.0243  0.2027 -0.8737
  142TMC2    C5 2210   4.362   0.900   9.800 -0.4143  0.0675 -0.1280
  142TMC2    C6 2211   4.288   0.933   9.687 -0.1590  0.6327  0.2024
  142TMC2     C 2212   4.389   0.547   9.774  0.2825 -0.2572 -0.0835
  142TMC2     O 2213   4.312   0.460   9.737  0.1923  0.2490 -0.3385
  142TMC2     H 2214   4.265   0.630   9.544  1.7443  0.5968 -1.3842
  142TMC2    H1 2215   4.464   0.744   9.908 -0.7094 -1.6539 -1.0784
  142TMC2    H2 2216   4.248   1.033   9.678 -0.4315  0.4689 -0.4414
  142TMC2    C7 2217   4.413   1.000   9.899 -0.0211  0.2628 -1.0212
  142TMC2    C8 2218   4.151   0.878   9.500 -0.1232  0.6643  0.2300
  142TMC2    O1 2219   4.448   0.952  10.004 -0.5619  0.0237 -0.5858
  142TMC2    O2 2220   4.160   0.985   9.444  0.4557 -0.3667 -0.7361
  142TMC2    O5 2221   4.069   0.786   9.468  0.5288  0.1633 -0.3664
  142TMC2    H5 2222   4.072   0.706   9.524  0.0483  0.3890 -0.0212
  143MPD2     C 2223   4.594   0.231  10.123 -0.3122  0.4162 -0.3761
  143MPD2    C1 2224   4.492   0.203  10.032 -0.0008  0.1531  0.8615
  143MPD2    C2 2225   4.467   0.291   9.928 -0.1821 -0.8605 -0.4368
  143MPD2    C3 2226   4.538   0.414   9.935 -0.1808  0.7732  0.1487
  143MPD2    C4 2227   4.636   0.439  10.026 -0.2428  0.0793 -0.5213
  143MPD2    C5 2228   4.670   0.344  10.113 -0.9334  0.3464  0.8775
  143MPD2     H 2229   4.400   0.267   9.846 -0.5705  1.9215 -0.9301
  143MPD2    H1 2230   4.692   0.532  10.016 -1.0339  0.6546  0.3363
  143MPD2    H2 2231   4.620   0.158  10.199  1.8209  1.8861  0.3208
  143MPD2    H3 2232   0.002   0.371  10.190 -1.0153 -0.5921  1.2919
  143MPD2     N 2233   4.505   0.522   9.850  0.1227 -0.3098  0.3464
  143MPD2    H5 2234   4.574   0.596   9.864 -0.6674  0.2529  1.2447
  143MPD2    N1 2235   4.423   0.082  10.044 -0.9238 -0.4341 -0.2987
  143MPD2    H7 2236   4.461   0.011  10.106 -1.9934 -0.6760  0.0743
  144TMC2    C1 2237   2.297   4.228   1.060  1.0721  0.7167 -0.4521
  144TMC2    C2 2238   2.308   4.091   1.060 -0.3953  0.4385  0.1470
  144TMC2    C3 2239   2.374   4.030   1.155  0.3631  0.1732 -0.2165
  144TMC2    C4 2240   2.353   4.302   1.153  0.1313  0.0498  1.0291
  144TMC2    C5 2241   2.436   4.236   1.244  0.3249 -0.0523  0.3203
  144TMC2    C6 2242   2.456   4.097   1.240  0.4297 -0.2108 -0.3730
  144TMC2     C 2243   2.240   4.290   0.936 -0.0992 -0.2356 -0.1834
  144TMC2     O 2244   2.180   4.206   0.867 -0.1173 -0.8240 -0.1601
  144TMC2     H 2245   2.262   4.035   0.979  2.2129 -1.4088 -0.0468
  144TMC2    H1 2246   2.327   4.406   1.169 -0.7157  0.0912 -0.6258
  144TMC2    H2 2247   2.500   4.063   1.332  2.9200  1.0667 -1.1077
  144TMC2    C7 2248   2.528   4.303   1.344  0.2031  0.4308  0.3689
  144TMC2    C8 2249   2.360   3.887   1.165  0.6232  0.0617 -0.4003
  144TMC2    O1 2250   2.605   4.234   1.413  0.5059 -0.3321 -0.0872
  144TMC2    O2 2251   2.245   3.848   1.134  0.1349 -0.1824 -0.6547
  144TMC2    O5 2252   2.420   3.843   1.274  0.7110  0.2580  0.6522
  144TMC2    H5 2253   2.516   3.830   1.259  0.2598 -0.6152 -1.4083
  145MPD2     C 2254   2.075   4.661   0.628 -0.5223  0.3970 -0.0958
  145MPD2    C1 2255   2.067   4.525   0.614  0.9038  0.1561 -0.5015
  145MPD2    C2 2256   2.138   4.445   0.711 -0.0470 -0.0255 -0.4390
  145MPD2    C3 2257   2.210   4.498   0.816  0.0164 -0.4829  0.0464
  145MPD2    C4 2258   2.223   4.634   0.820  0.0144 -0.5436  0.1271
  145MPD2    C5 2259   2.142   4.711   0.738 -0.3339  0.0148  0.3667
  145MPD2     H 2260   2.129   4.338   0.697 -0.7536  0.1489 -1.3608
  145MPD2    H1 2261   2.286   4.684   0.892 -3.5340  1.2579  1.9652
  145MPD2    H2 2262   2.015   4.727   0.567 -0.2850 -0.0128 -0.7753
  145MPD2    H3 2263   2.149   0.075   0.764  0.5280  0.3665 -1.3263
  145MPD2     N 2264   2.270   4.424   0.918  0.4665 -0.4884  0.0676
  145MPD2    H5 2265   2.321   4.475   0.989  2.1477 -1.2252 -0.6182
  145MPD2    N1 2266   1.988   4.449   0.522  0.1402  0.0386 -0.2829
  145MPD2    H7 2267   2.006   4.349   0.529  1.9228  0.2757 -1.5937
  146TMC2    C1 2268   3.533   3.285  12.382 -0.3293  0.2888 -0.0460
  146TMC2    C2 2269   3.451   3.264  12.275  0.2932 -0.1479  0.3538
  146TMC2    C3 2270   3.509   3.205  12.171  0.1151  0.3728  0.0019
  146TMC2    C4 2271   3.662   3.240  12.394  0.7296 -0.1297 -0.0044
  146TMC2    C5 2272   3.717   3.187  12.279 -1.1962 -0.0354 -0.1321
  146TMC2    C6 2273   3.645   3.171  12.162  0.0807 -0.5920 -0.0549
  146TMC2     C 2274   3.490   3.377  12.486 -0.1865  0.5055  0.0431
  146TMC2     O 2275   3.415   3.472  12.451  0.7575  0.2561 -0.4222
  146TMC2     H 2276   3.359   3.320  12.268 -0.3213 -1.2110 -0.0996
  146TMC2    H1 2277   3.727   3.276  12.473 -1.3068 -1.6727  2.4150
  146TMC2    H2 2278   3.685   3.135  12.068 -1.4809  2.4647 -1.8993
  146TMC2    C7 2279   3.860   3.180  12.267 -0.7033  0.0098 -0.2876
  146TMC2    C8 2280   3.422   3.161  12.061 -0.3006  0.0138 -0.5058
  146TMC2    O1 2281   3.920   3.198  12.162  0.0075 -0.1989  0.2064
  146TMC2    O2 2282   3.470   3.122  11.957 -0.3709 -0.2911 -0.7691
  146TMC2    O5 2283   3.290   3.156  12.094  0.1194 -0.3013  0.0544
  146TMC2    H5 2284   3.275   3.161  12.191  0.5121  0.7971  0.0587
  147MPD2     C 2285   4.328   3.095  12.471 -0.3444  0.3594 -0.4682
  147MPD2    C1 2286   4.238   3.101  12.573  0.2127 -0.4658 -0.5900
  147MPD2    C2 2287   4.100   3.111  12.548 -0.3713  0.1305  0.8277
  147MPD2    C3 2288   4.059   3.126  12.416  0.5979 -0.3538 -0.0443
  147MPD2    C4 2289   4.151   3.100  12.312  0.0955 -0.2684  0.0422
  147MPD2    C5 2290   4.287   3.100  12.342  0.3666  0.5091  0.8219
  147MPD2     H 2291   4.020   3.113  12.621 -0.4860 -1.3801  0.7422
  147MPD2    H1 2292   4.128   3.094  12.207 -0.3447 -1.0556  0.1851
  147MPD2    H2 2293   4.435   3.092  12.492 -0.3988  1.9554  0.0401
  147MPD2    H3 2294   4.360   3.100  12.263 -0.6603  0.8790 -0.1293
  147MPD2     N 2295   3.922   3.152  12.390  0.3216  0.0104 -0.1393
  147MPD2    H5 2296   3.856   3.154  12.467 -0.4592  0.5494 -0.8211
  147MPD2    N1 2297   4.292   3.098  12.700 -0.4086  0.1846  0.1046
  147MPD2    H7 2298   4.392   3.081  12.706 -0.6267 -0.4268  1.7844
  148TMC2    C1 2299   3.918   1.561  10.697 -0.5233  0.3123 -0.4323
  148TMC2    C2 2300   3.962   1.624  10.810  0.8611  0.1163  0.1120
  148TMC2    C3 2301   4.086   1.596  10.858 -0.1411 -0.5744  0.1766
  148TMC2    C4 2302   3.990   1.468  10.631  0.4279 -0.5522  0.5318
  148TMC2    C5 2303   4.117   1.445  10.679 -0.4884  0.1134 -0.4717
  148TMC2    C6 2304   4.163   1.498  10.801  0.3041  0.0334  0.1262
  148TMC2     C 2305   3.789   1.597  10.652 -0.2539 -0.1628  0.1603
  148TMC2     O 2306   3.750   1.713  10.674 -0.1050 -0.0301 -0.0925
  148TMC2     H 2307   3.901   1.696  10.863  1.6598  0.0299  1.1462
  148TMC2    H1 2308   3.949   1.424  10.541  0.0089 -1.7102  1.2843
  148TMC2    H2 2309   4.252   1.461  10.850  1.1862 -0.9957 -2.2056
  148TMC2    C7 2310   4.173   1.312  10.644  0.4091 -0.3588  0.2066
  148TMC2    C8 2311   4.128   1.663  10.971  0.2018 -0.2908 -0.4383
  148TMC2    O1 2312   4.103   1.251  10.563  0.3142  0.1537 -0.1681
  148TMC2    O2 2313   4.064   1.699  11.069  0.4225 -0.1926 -0.5435
  148TMC2    O5 2314   4.244   1.718  10.928 -0.1584  0.1655  0.0563
  148TMC2    H5 2315   4.280   1.676  10.847 -1.6529 -3.2050  1.1673
  149MPD2     C 2316   3.522   1.603  10.507  1.1678 -0.2389 -0.8125
  149MPD2    C1 2317   3.604   1.491  10.522 -0.1406 -0.3682  0.4342
  149MPD2    C2 2318   3.561   1.376  10.467  0.0422 -0.3878 -0.4689
  149MPD2    C3 2319   3.460   1.371  10.373 -0.3972  0.6161 -0.1160
  149MPD2    C4 2320   3.382   1.488  10.360  1.0323 -0.9575  0.2534
  149MPD2    C5 2321   3.412   1.597  10.439  0.2248  0.7615 -0.0567
  149MPD2     H 2322   3.629   1.292  10.464 -0.0952 -0.6071  2.2295
  149MPD2    H1 2323   3.297   1.486  10.293  0.1617 -1.3812  1.3674
  149MPD2    H2 2324   3.554   1.700  10.543  3.3458 -2.7261  3.9776
  149MPD2    H3 2325   3.355   1.689  10.430 -0.3869  0.0681 -3.2465
  149MPD2     N 2326   3.423   1.252  10.297  0.2944  0.1798 -0.4326
  149MPD2    H5 2327   3.376   1.254  10.207 -1.4770 -2.3909  0.4241
  149MPD2    N1 2328   3.730   1.491  10.600 -0.4879  0.0615  0.2374
  149MPD2    H7 2329   3.771   1.398  10.604  1.5578  0.9021 -1.2791
  150TMC2    C1 2330   0.970   0.560  12.337  0.4156 -0.9866  0.1657
  150TMC2    C2 2331   0.918   0.566  12.211 -0.7665 -0.4197 -0.1014
  150TMC2    C3 2332   0.992   0.630  12.114  0.4413  0.4536 -0.1045
  150TMC2    C4 2333   1.085   0.621  12.365 -0.1870 -0.2007  0.4320
  150TMC2    C5 2334   1.157   0.687  12.263  0.0733 -0.3703 -0.4084
  150TMC2    C6 2335   1.112   0.690  12.135 -0.3651 -0.0153  0.0882
  150TMC2     C 2336   0.906   0.508  12.453 -0.7281  0.3364  0.3834
  150TMC2     O 2337   0.982   0.474  12.543  0.1090  0.3742 -0.0369
  150TMC2     H 2338   0.828   0.512  12.186 -1.4790  2.1150 -2.9156
  150TMC2    H1 2339   1.124   0.629  12.465 -1.0856  1.1485  0.6744
  150TMC2    H2 2340   1.168   0.728  12.050  1.1698  0.6823  1.4169
  150TMC2    C7 2341   1.291   0.742  12.297 -0.1381 -0.8097  0.0238
  150TMC2    C8 2342   0.954   0.614  11.979  0.2553 -0.0035 -0.2565
  150TMC2    O1 2343   1.330   0.832  12.222 -0.2444 -0.2946 -0.0906
  150TMC2    O2 2344   0.992   0.685  11.887  0.6747 -0.3193 -0.8148
  150TMC2    O5 2345   0.891   0.495  11.962  0.0073  0.2145  0.1149
  150TMC2    H5 2346   0.888   0.449  12.048 -0.4929 -1.9283 -1.0301
  151MPD2     C 2347   0.489   0.329  12.669 -0.5365 -0.8718  0.1666
  151MPD2    C1 2348   0.449   0.385  12.548 -0.3500 -0.0854  0.1588
  151MPD2    C2 2349   0.550   0.451  12.478 -0.2762  1.0233 -0.3267
  151MPD2    C3 2350   0.686   0.455  12.527 -0.3261 -0.9016  0.6570
  151MPD2    C4 2351   0.725   0.394  12.647 -0.2782 -0.6033 -1.0261
  151MPD2    C5 2352   0.620   0.343  12.719  0.0943  0.2942 -0.2616
  151MPD2     H 2353   0.522   0.500  12.385 -0.1417  0.9686 -0.3974
  151MPD2    H1 2354   0.819   0.404  12.700 -1.2338  1.6498  0.2635
  151MPD2    H2 2355   0.418   0.272  12.729 -0.1473 -2.0874 -0.5280
  151MPD2    H3 2356   0.638   0.297  12.815 -1.2137  2.7624  1.1476
  151MPD2     N 2357   0.777   0.519  12.441  0.1501  0.2401 -0.0669
  151MPD2    H5 2358   0.739   0.555  12.354  0.6302 -0.6498 -0.6523
  151MPD2    N1 2359   0.317   0.368  12.502  0.0755 -0.0113  0.0648
  151MPD2    H7 2360   0.247   0.323  12.561  1.8093 -3.1101 -0.2694
  152TMC2    C1 2361   1.040   0.675  12.825  0.3668  0.5065  0.6818
  152TMC2    C2 2362   1.123   0.572  12.839  0.5145 -0.6613 -0.0297
  152TMC2    C3 2363   1.255   0.582  12.830 -0.1187 -0.7173 -0.6125
  152TMC2    C4 2364   1.084   0.790  12.764  0.7072  0.1049  0.4346
  152TMC2    C5 2365   1.220   0.798  12.731 -0.6260 -0.6141 -0.2249
  152TMC2    C6 2366   1.306   0.700  12.772 -0.3823 -0.1133  0.2613
  152TMC2     C 2367   0.898   0.658  12.846  0.3658  0.5278  0.2571
  152TMC2     O 2368   0.827   0.750  12.807 -0.8242  0.1022 -0.3929
  152TMC2     H 2369   1.075   0.475  12.854  0.0308 -0.3500  0.4391
  152TMC2    H1 2370   1.019   0.876  12.755  3.2470  1.7822 -1.7332
  152TMC2    H2 2371   1.410   0.722  12.756 -0.7990  1.6657  0.0079
  152TMC2    C7 2372   1.270   0.910  12.655  0.0290  0.1094  0.2030
  152TMC2    C8 2373   1.332   0.493  12.914  0.2784  0.3859 -0.3772
  152TMC2    O1 2374   1.190   0.972  12.589  0.4113 -0.1977 -0.1377
  152TMC2    O2 2375   1.277   0.389  12.954 -0.6650  0.1370  0.1975
  152TMC2    O5 2376   1.419   0.569  12.981 -0.9522 -0.1017 -0.3009
  152TMC2    H5 2377   1.429   0.663  12.954  0.6813 -0.0912  0.3641
  153MPD2     C 2378   0.739   0.413  13.063 -0.4137  0.1101 -0.3128
  153MPD2    C1 2379   0.745   0.524  12.979  0.3823 -0.4389 -1.0568
  153MPD2    C2 2380   0.630   0.588  12.941  0.2830 -0.1378 -0.1714
  153MPD2    C3 2381   0.509   0.554  12.997  0.1338  0.1944 -0.8745
  153MPD2    C4 2382   0.508   0.449  13.091 -0.2401 -0.6046 -0.6250
  153MPD2    C5 2383   0.622   0.380  13.119  0.3870 -0.5638  0.1546
  153MPD2     H 2384   0.637   0.674  12.876  0.9326  1.3494  1.8595
  153MPD2    H1 2385   0.412   0.423  13.135 -0.6026  2.5748  0.4564
  153MPD2    H2 2386   0.827   0.354  13.088 -0.4547  0.1733 -0.0143
  153MPD2    H3 2387   0.612   0.295  13.185 -0.6124 -1.7267 -1.4772
  153MPD2     N 2388   0.395   0.626  12.954  0.4359  0.6015 -0.3883
  153MPD2    H5 2389   0.412   0.709  12.899  2.8532  0.8106  0.6923
  153MPD2    N1 2390   0.873   0.545  12.923 -0.4659 -0.0044  0.3936
  153MPD2    H7 2391   0.951   0.491  12.959 -0.2273 -0.7793 -1.3232
  154TMC2    C1 2392   2.544   0.948   0.665 -0.9897 -0.1234  0.5195
  154TMC2    C2 2393   2.608   0.967   0.781  0.5702  0.0537 -0.5698
  154TMC2    C3 2394   2.731   0.909   0.807  0.9891 -0.0595  0.1659
  154TMC2    C4 2395   2.608   0.890   0.560  0.0081 -0.0788  0.3748
  154TMC2    C5 2396   2.737   0.847   0.586 -0.6489  0.2192  0.0406
  154TMC2    C6 2397   2.801   0.854   0.709  0.4315 -0.0419 -0.8037
  154TMC2     C 2398   2.428   1.034   0.651 -0.6523  0.4041 -1.0260
  154TMC2     O 2399   2.403   1.124   0.730  0.1503  0.4312  0.1014
  154TMC2     H 2400   2.568   1.033   0.858 -0.0128 -1.2563  0.2469
  154TMC2    H1 2401   2.559   0.863   0.467  0.3678  0.0047  0.1596
  154TMC2    H2 2402   2.906   0.827   0.719 -0.0447 -1.7875 -0.6144
  154TMC2    C7 2403   2.823   0.784   0.478 -0.6876 -0.3030  0.9668
  154TMC2    C8 2404   2.803   0.955   0.922  0.1098 -0.4856  0.1231
  154TMC2    O1 2405   2.946   0.801   0.476 -0.7932 -0.5418  0.4134
  154TMC2    O2 2406   2.784   1.068   0.961  0.4105 -0.3277  0.3444
  154TMC2    O5 2407   2.895   0.867   0.967  0.0454  0.3320 -0.0340
  154TMC2    H5 2408   2.884   0.773   0.942  1.1067  0.2504 -0.1896
  155MPD2     C 2409   2.195   1.056   0.362 -0.2470  0.1882  0.0797
  155MPD2    C1 2410   2.248   1.085   0.488 -0.1685 -0.1239 -0.8265
  155MPD2    C2 2411   2.188   1.172   0.569 -0.1090  0.3387  0.3407
  155MPD2    C3 2412   2.072   1.232   0.526  0.1223 -0.3480 -0.1527
  155MPD2    C4 2413   2.024   1.214   0.395  0.1009  0.7072  0.1819
  155MPD2    C5 2414   2.093   1.128   0.311  0.7586  0.2751 -0.3044
  155MPD2     H 2415   2.215   1.199   0.671  0.8045 -0.2424  0.2622
  155MPD2    H1 2416   1.934   1.250   0.345 -0.7739  0.0789  1.3066
  155MPD2    H2 2417   2.245   0.989   0.294 -1.1910  0.9349 -1.3513
  155MPD2    H3 2418   2.056   1.103   0.212  2.2342 -0.6500 -0.6375
  155MPD2     N 2419   2.010   1.308   0.624  0.1120  0.3016  0.4363
  155MPD2    H5 2420   2.050   1.320   0.716 -2.1553  2.4035  1.1513
  155MPD2    N1 2421   2.355   1.009   0.537 -0.2039  0.0048  0.2693
  155MPD2    H7 2422   2.383   0.931   0.479 -0.3471 -1.4740  2.1866
  156TMC2    C1 2423   1.352   2.891  11.342  0.0864  0.4254 -0.7548
  156TMC2    C2 2424   1.385   2.759  11.330  0.6487  0.0553 -0.1717
  156TMC2    C3 2425   1.346   2.692  11.218 -0.7518 -0.4115 -0.4478
  156TMC2    C4 2426   1.282   2.958  11.252  0.0794  0.2941  0.8188
  156TMC2    C5 2427   1.235   2.886  11.140  0.2351  0.4322 -0.2749
  156TMC2    C6 2428   1.264   2.750  11.121 -0.3110  0.1822 -0.2879
  156TMC2     C 2429   1.395   2.965  11.459 -0.0177 -0.2398  0.3950
  156TMC2     O 2430   1.355   3.080  11.465 -0.0458  0.4582  0.1742
  156TMC2     H 2431   1.459   2.714  11.396 -0.1653 -0.9209  0.0740
  156TMC2    H1 2432   1.257   3.063  11.256  3.2616  1.1445 -1.8008
  156TMC2    H2 2433   1.231   2.699  11.031  0.0143  2.6516 -1.8008
  156TMC2    C7 2434   1.111   2.925  11.080 -0.1150 -0.2405  0.1929
  156TMC2    C8 2435   1.356   2.550  11.205 -0.1212 -0.4683  0.0039
  156TMC2    O1 2436   1.048   2.824  11.052 -0.1355 -0.1495 -0.1950
  156TMC2    O2 2437   1.297   2.493  11.112  0.5079 -0.6621 -0.1164
  156TMC2    O5 2438   1.355   2.499  11.333 -0.2445 -0.1133  0.5321
  156TMC2    H5 2439   1.398   2.537  11.412 -0.4799  1.4353 -0.0901
  157MPD2     C 2440   1.665   2.887  11.699 -0.1084  0.2363  0.1509
  157MPD2    C1 2441   1.575   2.970  11.633 -0.9898 -0.4449 -0.6536
  157MPD2    C2 2442   1.552   3.092  11.693 -0.0799  0.2954  0.1515
  157MPD2    C3 2443   1.616   3.136  11.807 -0.3467 -0.0412  0.0184
  157MPD2    C4 2444   1.717   3.056  11.861  0.0808  0.0419  0.1969
  157MPD2    C5 2445   1.737   2.932  11.811  0.3793 -0.1827 -0.1773
  157MPD2     H 2446   1.480   3.152  11.637 -0.9369 -1.2135 -0.3758
  157MPD2    H1 2447   1.777   3.086  11.947 -0.9859 -1.3948  1.4488
  157MPD2    H2 2448   1.701   2.792  11.661  0.2312  0.4207  0.0167
  157MPD2    H3 2449   1.808   2.862  11.854  0.8976  0.4391 -0.0136
  157MPD2     N 2450   1.571   3.257  11.865 -0.1950  0.4710  0.4146
  157MPD2    H5 2451   1.513   3.320  11.811 -1.0191 -0.1827  0.5362
  157MPD2    N1 2452   1.501   2.917  11.530  0.4609 -0.3222  0.9434
  157MPD2    H7 2453   1.516   2.819  11.508  2.9226 -0.1301  1.7124
  158TMC2    C1 2454   1.426   2.092  13.894  0.1383 -0.5238 -0.7774
  158TMC2    C2 2455   1.412   2.187  13.801 -0.2656 -0.4305  0.2227
  158TMC2    C3 2456   1.308   2.278  13.808 -0.6819 -0.2875 -0.4157
  158TMC2    C4 2457   1.330   2.077  13.995  0.4778  0.5606 -0.0676
  158TMC2    C5 2458   1.224   2.164  13.993  0.0063  0.3819  0.1827
  158TMC2    C6 2459   1.208   2.272  13.908 -0.2555 -0.2137 -0.1412
  158TMC2     C 2460   1.536   2.000  13.896 -0.2130 -0.0145  0.3510
  158TMC2     O 2461   1.595   1.991  13.790  0.2219 -0.5676 -0.0565
  158TMC2     H 2462   1.484   2.198  13.721 -2.2314 -1.0294 -1.6176
  158TMC2    H1 2463   1.334   1.995  14.065 -1.9264 -1.4029 -2.2723
  158TMC2    H2 2464   1.116   2.327  13.910  0.9586  1.8545 -2.0082
  158TMC2    C7 2465   1.107   2.134  14.075 -0.6022 -0.2506 -0.2811
  158TMC2    C8 2466   1.260   2.327  13.682 -0.0752  0.0079  0.3327
  158TMC2    O1 2467   1.042   2.235  14.105  0.1281  0.2212 -0.2914
  158TMC2    O2 2468   1.292   2.289  13.572  0.0782 -0.2580 -0.2945
  158TMC2    O5 2469   1.176   2.429  13.703  0.2101 -0.2964  0.4579
  158TMC2    H5 2470   1.156   2.460  13.794  0.8724  1.6192 -0.0664
  159MPD2     C 2471   1.842   1.617  14.095  0.5910  0.1612 -0.1514
  159MPD2    C1 2472   1.792   1.695  14.197 -0.0150 -0.4637 -0.0250
  159MPD2    C2 2473   1.707   1.806  14.170 -0.5154  0.2276  0.3422
  159MPD2    C3 2474   1.671   1.845  14.043  0.2331 -0.2880 -0.4398
  159MPD2    C4 2475   1.734   1.769  13.941 -0.5729 -0.5465  0.4656
  159MPD2    C5 2476   1.809   1.654  13.966 -0.3727  0.2286 -0.0611
  159MPD2     H 2477   1.673   1.868  14.253  1.8198 -0.5580  1.8838
  159MPD2    H1 2478   1.717   1.791  13.836  1.5976 -1.8003 -0.1618
  159MPD2    H2 2479   1.899   1.526  14.110  0.9288  0.6259  1.4111
  159MPD2    H3 2480   1.855   1.603  13.883 -0.7217 -0.3832  0.1208
  159MPD2     N 2481   1.575   1.953  14.022  0.3717  0.0087  0.0918
  159MPD2    H5 2482   1.536   1.998  14.105 -1.9894 -1.0949 -0.4091
  159MPD2    N1 2483   1.829   1.655  14.326 -0.5232  0.2682 -0.1651
  159MPD2    H7 2484   1.871   1.564  14.344  1.9929  1.7153  1.3098
  160TMC2    C1 2485   1.315   0.005   1.575  1.0306  0.1634 -0.1192
  160TMC2    C2 2486   1.374   4.627   1.601 -0.2352 -0.1746  0.3346
  160TMC2    C3 2487   1.492   4.596   1.549 -0.5841 -0.7370 -0.1309
  160TMC2    C4 2488   1.360   0.082   1.473  0.0377  0.4112  0.5076
  160TMC2    C5 2489   1.479   0.044   1.422  0.5231 -0.1073 -0.7923
  160TMC2    C6 2490   1.553   4.678   1.460 -0.1472  0.6443  0.1104
  160TMC2     C 2491   1.179   0.034   1.624 -0.1592 -0.5565  0.2131
  160TMC2     O 2492   1.128   4.675   1.676 -0.2142 -0.2111  0.3729
  160TMC2     H 2493   1.328   4.556   1.669 -0.6368 -0.6663 -0.4452
  160TMC2    H1 2494   1.304   0.149   1.408  1.4453 -0.9883 -2.1264
  160TMC2    H2 2495   1.654   4.666   1.422  0.1675  1.3298  0.7061
  160TMC2    C7 2496   1.535   0.117   1.308 -0.1663 -0.0015  0.5898
  160TMC2    C8 2497   1.571   4.499   1.619 -0.3730  0.7337 -0.1748
  160TMC2    O1 2498   1.616   0.062   1.236 -0.7348  0.1289  0.4238
  160TMC2    O2 2499   1.594   4.509   1.738  0.0811  0.4487 -0.1194
  160TMC2    O5 2500   1.657   4.457   1.525 -0.1166  0.1024  0.0453
  160TMC2    H5 2501   1.623   4.459   1.433 -2.0627 -0.3994  0.7588
  161MPD2     C 2502   0.916   0.136   1.722  0.4257 -0.2560  0.1821
  161MPD2    C1 2503   0.989   0.191   1.619  0.4013 -0.1175 -0.6541
  161MPD2    C2 2504   0.930   0.291   1.548  0.2343 -0.0673 -0.4765
  161MPD2    C3 2505   0.804   0.336   1.576 -0.6647  0.0342  0.3282
  161MPD2    C4 2506   0.735   0.268   1.676 -0.7032 -0.0605 -0.3350
  161MPD2    C5 2507   0.790   0.171   1.754 -0.3428 -0.1235 -0.0383
  161MPD2     H 2508   0.982   0.335   1.463 -0.5182 -0.1560 -0.9844
  161MPD2    H1 2509   0.634   0.298   1.700  0.1089  2.5454 -0.2133
  161MPD2    H2 2510   0.955   0.056   1.783 -0.9241 -0.9778  0.1081
  161MPD2    H3 2511   0.734   0.107   1.821  0.6319  0.9901  1.8449
  161MPD2     N 2512   0.745   0.447   1.519  0.2100 -0.0255  0.8958
  161MPD2    H5 2513   0.647   0.458   1.545 -1.0004 -1.8742 -2.8107
  161MPD2    N1 2514   1.123   0.155   1.589 -0.5239 -0.1383 -0.2474
  161MPD2    H7 2515   1.183   0.227   1.550  1.5929 -0.9192  1.5236
  162TMC2    C1 2516   3.943   2.069   1.355 -1.0133 -0.0139  0.3023
  162TMC2    C2 2517   3.902   2.150   1.453  0.0402 -0.3804 -0.1533
  162TMC2    C3 2518   3.933   2.116   1.585  0.3021 -0.4674 -0.0317
  162TMC2    C4 2519   4.041   1.976   1.380  0.5681  0.1763  0.0324
  162TMC2    C5 2520   4.081   1.964   1.508  0.0965 -0.2632 -0.4234
  162TMC2    C6 2521   4.030   2.031   1.617 -0.1333  0.2459  0.0597
  162TMC2     C 2522   3.899   2.091   1.217 -0.3956  0.4536 -0.1556
  162TMC2     O 2523   3.915   1.994   1.142 -0.2690 -0.2541  0.8420
  162TMC2     H 2524   3.815   2.213   1.439 -0.6323 -1.1582  0.5482
  162TMC2    H1 2525   4.085   1.929   1.293 -0.6780  1.2179 -1.1440
  162TMC2    H2 2526   4.051   2.009   1.720  0.5597 -3.3461 -0.8651
  162TMC2    C7 2527   4.208   1.889   1.520 -1.2452 -0.4285  0.3341
  162TMC2    C8 2528   3.872   2.210   1.680  0.7723 -0.8564  0.9553
  162TMC2    O1 2529   4.248   1.826   1.422 -0.6495  0.5343 -0.2746
  162TMC2    O2 2530   3.777   2.280   1.650  0.4352 -0.2990  0.3677
  162TMC2    O5 2531   3.955   2.236   1.784 -0.2465 -0.4326 -0.8855
  162TMC2    H5 2532   4.048   2.205   1.782 -0.8566 -2.2836 -0.8675
  163MPD2     C 2533   3.808   2.426   0.841  0.0255 -0.1859 -0.3554
  163MPD2    C1 2534   3.865   2.302   0.836 -0.0169  0.5797  0.0613
  163MPD2    C2 2535   3.887   2.228   0.954 -0.3933 -0.1650 -0.3176
  163MPD2    C3 2536   3.830   2.282   1.068  0.5799  0.0361 -0.1060
  163MPD2    C4 2537   3.760   2.404   1.064 -0.6891 -0.0928 -0.4194
  163MPD2    C5 2538   3.755   2.481   0.955 -0.3661 -0.1838  0.1719
  163MPD2     H 2539   3.925   2.127   0.960 -0.0196 -0.0277 -0.3215
  163MPD2    H1 2540   3.712   2.449   1.151 -1.1521 -2.5072  0.5658
  163MPD2    H2 2541   3.811   2.486   0.750  3.8842 -0.3532 -0.3059
  163MPD2    H3 2542   3.712   2.581   0.964 -0.9979 -0.3211 -1.2348
  163MPD2     N 2543   3.848   2.224   1.195 -0.4275 -0.0780  0.0939
  163MPD2    H5 2544   3.826   2.286   1.272  1.0629 -0.7255  1.0458
  163MPD2    N1 2545   3.900   2.246   0.713 -0.3295  0.2665 -0.2562
  163MPD2    H7 2546   3.868   2.301   0.633  1.3255  2.1413  0.3785
  164TMC2    C1 2547   0.023   1.471  11.156 -0.1415 -0.1396 -0.5785
  164TMC2    C2 2548   0.009   1.346  11.112  0.3177  0.4581 -0.1183
  164TMC2    C3 2549   4.654   1.278  11.177 -0.3498 -0.1452 -0.1273
  164TMC2    C4 2550   4.715   1.513  11.280 -0.2739 -0.4525 -0.8749
  164TMC2    C5 2551   4.638   1.425  11.355 -0.8197  0.0527 -0.0726
  164TMC2    C6 2552   4.603   1.307  11.301  0.7978  0.3555  0.4049
  164TMC2     C 2553   0.140   1.544  11.104 -0.9181 -0.5727 -0.6254
  164TMC2     O 2554   0.122   1.666  11.102 -0.3034  0.0050 -0.2867
  164TMC2     H 2555   0.047   1.313  11.016 -2.9265  1.0370 -1.6156
  164TMC2    H1 2556   4.706   1.618  11.305  0.1254 -0.8546  1.0020
  164TMC2    H2 2557   4.530   1.242  11.348 -0.3601  0.7242 -0.8946
  164TMC2    C7 2558   4.522   1.482  11.434 -0.3859 -0.3879  0.0385
  164TMC2    C8 2559   4.610   1.155  11.119  0.3152  0.4876 -0.0879
  164TMC2    O1 2560   4.421   1.409  11.448  0.5285 -0.2688 -0.3572
  164TMC2    O2 2561   4.495   1.119  11.139 -0.3239 -0.6610  0.1321
  164TMC2    O5 2562   4.702   1.084  11.045  0.1357 -0.3441  0.2540
  164TMC2    H5 2563   0.054   1.114  11.038  0.1726 -0.3980  0.5064
  165TMC2    C1 2564   0.553   4.607   1.087 -0.1461  0.1034 -0.7233
  165TMC2    C2 2565   0.504   4.676   0.979  0.5768  0.6303  0.3443
  165TMC2    C3 2566   0.594   4.714   0.884 -0.4694  0.5388  0.4003
  165TMC2    C4 2567   0.687   4.581   1.112  0.5082  0.0774  0.2397
  165TMC2    C5 2568   0.771   4.620   1.014  0.0583 -1.0408  0.0480
  165TMC2    C6 2569   0.725   4.694   0.904  0.1158 -0.3501 -0.0579
  165TMC2     C 2570   0.463   4.522   1.166  0.0342  0.5363 -0.0532
  165TMC2     O 2571   0.507   4.425   1.228 -0.5376  0.4454 -0.2060
  165TMC2     H 2572   0.400   4.703   0.965  0.8154  1.5296  0.3203
  165TMC2    H1 2573   0.706   4.526   1.204  0.0053  0.1714  0.3961
  165TMC2    H2 2574   0.794   4.738   0.833  0.7677  1.0708  1.4331
  165TMC2    C7 2575   0.912   4.595   1.025  0.5739  0.3976 -0.5786
  165TMC2    C8 2576   0.558   0.072   0.794  0.4778  0.6484  0.6253
  165TMC2    O1 2577   0.994   4.677   0.981 -0.0351 -0.2454 -0.5118
  165TMC2    O2 2578   0.492   0.171   0.824  0.5769 -0.0330  0.0077
  165TMC2    O5 2579   0.558   0.016   0.672 -0.8785 -0.1255 -0.4888
  165TMC2    H5 2580   0.617   4.679   0.667 -3.1061 -1.8140 -0.3354
  166MPD2     C 2581   4.736   4.354   1.282  0.1667 -0.3296 -0.4323
  166MPD2    C1 2582   0.119   4.320   1.333  0.5967 -0.2349  0.3146
  166MPD2    C2 2583   0.232   4.390   1.285  0.3091 -0.3633 -0.3556
  166MPD2    C3 2584   0.215   4.485   1.191  0.6049  0.3713  0.5078
  166MPD2    C4 2585   0.093   4.527   1.164  0.6939  0.1023  0.0246
  166MPD2    C5 2586   4.721   4.461   1.203  0.3781  0.4272  1.1453
  166MPD2     H 2587   0.327   4.368   1.333 -0.2543 -0.9551  0.4853
  166MPD2    H1 2588   0.081   4.621   1.112  0.0969 -0.1912 -0.3751
  166MPD2    H2 2589   4.648   4.297   1.307 -1.0858  1.2609 -1.2662
  166MPD2    H3 2590   4.621   4.480   1.167  0.3244  1.6324  1.9148
  166MPD2     N 2591   0.331   4.559   1.149 -0.1023  0.0858  0.0377
  166MPD2    H5 2592   0.326   4.643   1.093 -0.4955  0.0296 -0.0086
  166MPD2    N1 2593   0.116   4.220   1.434  0.1328  0.3397 -0.1499
  166MPD2    H7 2594   0.028   4.182   1.465  1.0303 -0.7730  1.0553
  167TMC2    C1 2595   3.829   2.141  13.124 -0.6112  0.0975 -0.4410
  167TMC2    C2 2596   3.765   2.211  13.223  0.9228 -0.2450 -0.0747
  167TMC2    C3 2597   3.760   2.149  13.347  0.0366  0.0522  0.7231
  167TMC2    C4 2598   3.883   2.019  13.145 -0.1190 -0.0368 -0.3789
  167TMC2    C5 2599   3.878   1.959  13.270 -0.3231 -0.5138  0.0425
  167TMC2    C6 2600   3.817   2.026  13.380 -0.0905 -0.2251 -0.1907
  167TMC2     C 2601   3.825   2.196  12.992 -0.2888  0.3806 -0.3242
  167TMC2     O 2602   3.800   2.315  12.995  0.0676  0.7122 -0.1524
  167TMC2     H 2603   3.717   2.306  13.204  1.9736  0.3032  0.0299
  167TMC2    H1 2604   3.932   1.962  13.067  0.4999 -1.5938  1.1158
  167TMC2    H2 2605   3.808   1.978  13.476  1.4683  0.8822  0.5084
  167TMC2    C7 2606   3.851   1.819  13.277 -0.3508 -0.6501 -0.0912
  167TMC2    C8 2607   3.735   2.229  13.465  0.7388 -0.5752  0.3961
  167TMC2    O1 2608   3.803   1.763  13.373 -0.4402  0.1656  0.1380
  167TMC2    O2 2609   3.636   2.210  13.539  0.2418 -0.6340 -0.2374
  167TMC2    O5 2610   3.792   2.345  13.430  0.1730 -0.6658 -0.2148
  167TMC2    H5 2611   3.881   2.327  13.392  2.0580  1.9876  2.9880
  168MPD2     C 2612   3.808   2.252  12.689 -0.2272  0.4690  0.2745
  168MPD2    C1 2613   3.847   2.133  12.754 -0.2152  0.2054 -0.2543
  168MPD2    C2 2614   3.892   2.027  12.674  0.2960 -0.4844  1.0466
  168MPD2    C3 2615   3.890   2.034  12.536 -1.2448 -0.2411 -0.3181
  168MPD2    C4 2616   3.852   2.149  12.473 -0.6155 -0.5691 -0.6357
  168MPD2    C5 2617   3.802   2.253  12.552  0.6118 -0.3967 -0.9090
  168MPD2     H 2618   3.923   1.935  12.722 -0.4087 -0.7914  0.9112
  168MPD2    H1 2619   3.852   2.154  12.365 -3.5508  0.1000 -0.6280
  168MPD2    H2 2620   3.765   2.328  12.755  2.1533  1.6548  0.4505
  168MPD2    H3 2621   3.773   2.341  12.497 -0.2946 -1.3457 -1.9380
  168MPD2     N 2622   3.945   1.920  12.471  0.7302  0.1711  0.5437
  168MPD2    H5 2623   3.985   1.849  12.532 -0.5406  0.2368  1.4635
  168MPD2    N1 2624   3.848   2.108  12.891 -0.2743  0.6006 -0.3976
  168MPD2    H7 2625   3.866   2.013  12.921 -0.2397  0.5701 -0.5152
  169MPD1     C 2626   1.435   2.770  10.287 -0.4381 -0.0869 -0.1469
  169MPD1    C1 2627   1.554   2.745  10.222 -0.2042 -0.1174 -0.3169
  169MPD1    C2 2628   1.560   2.647  10.130  0.1853 -0.3060  0.6784
  169MPD1    C3 2629   1.458   2.561  10.115  0.1043  0.0656 -0.4391
  169MPD1    C4 2630   1.332   2.591  10.175  0.1041  0.3568 -0.4846
  169MPD1    C5 2631   1.327   2.684  10.273 -0.1058  0.4802  0.4941
  169MPD1     H 2632   1.654   2.625  10.082 -0.3078 -1.5579  0.2803
  169MPD1    H1 2633   1.239   2.534  10.175  0.9842 -1.1018  0.6875
  169MPD1    H2 2634   1.426   2.862  10.343  2.3932  1.3266 -1.9588
  169MPD1    H3 2635   1.229   2.705  10.315  0.4087 -1.1606  2.4786
  169MPD1     N 2636   1.477   2.450  10.029  0.5791 -0.3418  0.2112
  169MPD1    H5 2637   1.571   2.426  10.000 -0.2936 -2.0029 -1.2412
  169MPD1    N1 2638   1.654   2.839  10.239 -0.1293  0.0728  0.2693
  169MPD1    H6 2639   1.750   2.808  10.225 -0.4417 -0.6837 -0.2086
  169MPD1    H7 2640   1.644   2.876  10.334 -1.5494 -0.5103  0.3369
  170MPD1     C 2641   0.605   4.379  13.829  0.3444  0.4614 -0.3822
  170MPD1    C1 2642   0.600   4.360  13.966 -0.0116  0.0417 -0.4322
  170MPD1    C2 2643   0.469   4.367  14.018  0.5595  0.2424  0.0861
  170MPD1    C3 2644   0.353   4.369  13.941  0.1420  0.4158  0.3024
  170MPD1    C4 2645   0.367   4.370  13.808 -0.8342 -0.2210 -0.2423
  170MPD1    C5 2646   0.494   4.387  13.758  0.2588  0.0874 -0.3065
  170MPD1     H 2647   0.455   4.372  14.125  1.4599 -0.7638  0.2508
  170MPD1    H1 2648   0.288   4.359  13.735 -1.9123  0.6840  0.7845
  170MPD1    H2 2649   0.699   4.390  13.776  1.0313  0.1323  0.7692
  170MPD1    H3 2650   0.491   4.389  13.650 -2.0380 -0.8150 -0.2637
  170MPD1     N 2651   0.225   4.357  14.004  0.4018  0.4780 -0.2058
  170MPD1    H5 2652   0.226   4.362  14.105  0.0826 -0.3254 -0.1625
  170MPD1    N1 2653   0.707   4.391  14.051 -0.4022 -0.5876  0.2773
  170MPD1    H6 2654   0.792   4.346  14.020 -0.7082 -2.0479  1.5599
  170MPD1    H7 2655   0.691   4.346  14.141  0.8502 -1.3349  0.1169
  171MPD1     C 2656   2.968   0.194  15.410  0.5743  0.2504 -0.0422
  171MPD1    C1 2657   3.004   0.282  15.516 -0.7321 -0.1684  0.4303
  171MPD1    C2 2658   3.065   0.226  15.632  0.1117 -0.2047  0.3880
  171MPD1    C3 2659   3.104   0.093  15.636 -0.4342  0.6155  0.1760
  171MPD1    C4 2660   3.082   0.017  15.525 -0.7092  0.4851  0.4192
  171MPD1    C5 2661   3.019   0.069  15.419 -0.1616 -0.2906  0.3535
  171MPD1     H 2662   3.079   0.289  15.718  0.8304  1.8136 -1.1996
  171MPD1    H1 2663   3.094   4.650  15.526 -1.2351  0.4424  3.0799
  171MPD1    H2 2664   2.915   0.224  15.321 -0.5525 -1.2283  0.1280
  171MPD1    H3 2665   3.016   0.002  15.334  1.0033  1.3515 -0.9733
  171MPD1     N 2666   3.151   0.037  15.761 -0.1648 -0.0005  0.2952
  171MPD1    H5 2667   3.194   4.686  15.748 -0.2570 -0.1725  1.1685
  171MPD1    N1 2668   2.954   0.411  15.517  0.5501  0.2560 -0.3091
  171MPD1    H6 2669   3.019   0.477  15.558 -0.5363 -0.6976  2.9104
  171MPD1    H7 2670   2.948   0.438  15.419 -0.6492 -0.4499 -0.4237
  172MPD1     C 2671   2.218   3.849  17.732  0.8833  0.4773 -0.0058
  172MPD1    C1 2672   2.146   3.877   0.085 -1.2528  0.2089  0.5354
  172MPD1    C2 2673   2.190   3.986   0.165 -0.0179  1.0310  0.2909
  172MPD1    C3 2674   2.303   4.059   0.124 -0.2121  0.9339  0.7989
  172MPD1    C4 2675   2.359   4.035   0.001  1.0729  0.3141 -0.0311
  172MPD1    C5 2676   2.310   3.931  17.686 -0.1332 -0.2606  0.2444
  172MPD1     H 2677   2.132   4.012   0.253 -0.6616  0.0543  0.1630
  172MPD1    H1 2678   2.439   4.096  17.722 -0.5351  1.4250 -1.6020
  172MPD1    H2 2679   2.190   3.766  17.668  2.4320  0.2206 -0.3499
  172MPD1    H3 2680   2.363   3.910  17.594  0.7405  0.9060  0.4944
  172MPD1     N 2681   2.366   4.165   0.209  0.4410  0.1458 -0.6003
  172MPD1    H5 2682   2.440   4.213   0.158 -1.1417  0.6784 -2.4051
  172MPD1    N1 2683   2.061   3.780   0.135  0.9529  0.0880 -0.3383
  172MPD1    H6 2684   1.983   3.818   0.189 -1.2207 -2.4353 -1.6870
  172MPD1    H7 2685   2.030   3.721   0.058 -1.4726 -0.1547  0.8211
  173MPD1     C 2686   3.593   0.320  14.271  0.3910  0.5915 -0.4679
  173MPD1    C1 2687   3.691   0.260  14.341 -0.2069 -0.0005 -0.2773
  173MPD1    C2 2688   3.671   0.128  14.376  0.9960 -0.9619  0.3431
  173MPD1    C3 2689   3.563   0.055  14.330 -0.2278 -0.1764 -0.3037
  173MPD1    C4 2690   3.467   0.122  14.253  0.6801 -0.3402 -0.2372
  173MPD1    C5 2691   3.485   0.252  14.216  0.7463 -0.0196 -0.4010
  173MPD1     H 2692   3.741   0.089  14.449  1.2961  0.0663  0.6014
  173MPD1    H1 2693   3.376   0.071  14.225 -0.4750  0.8318  1.4617
  173MPD1    H2 2694   3.608   0.424  14.243 -1.4279  1.0648  0.3117
  173MPD1    H3 2695   3.420   0.303  14.146  0.7215 -0.7005 -0.8718
  173MPD1     N 2696   3.556   4.664  14.373 -0.7459  0.5438 -0.2686
  173MPD1    H5 2697   3.638   4.632  14.424 -0.6166 -0.7775 -1.2929
  173MPD1    N1 2698   3.785   0.344  14.396  0.5383 -0.0900  0.3958
  173MPD1    H6 2699   3.789   0.435  14.349 -1.4519  0.2873  0.9559
  173MPD1    H7 2700   3.876   0.300  14.407  0.9157  0.5142 -0.2656
  174MPD1     C 2701   4.272   4.243  14.579  0.0782  0.1870  0.6837
  174MPD1    C1 2702   4.184   4.155  14.630  0.8485  0.6864  0.0501
  174MPD1    C2 2703   4.050   4.179  14.607  0.5903 -0.1201  0.1861
  174MPD1    C3 2704   4.010   4.268  14.507  0.3584  0.2585  0.4481
  174MPD1    C4 2705   4.110   4.331  14.432 -0.4247  0.2508 -0.5336
  174MPD1    C5 2706   4.237   4.327  14.477  0.1740  0.7138  1.0775
  174MPD1     H 2707   3.975   4.131  14.668  0.2781 -0.0250 -0.1270
  174MPD1    H1 2708   4.082   4.406  14.359 -1.7412 -2.2571 -2.6243
  174MPD1    H2 2709   4.380   4.249  14.589  0.3465  0.0928 -2.3173
  174MPD1    H3 2710   4.312   4.388  14.428 -0.3135 -0.0168 -0.5495
  174MPD1     N 2711   3.877   4.304  14.490 -0.4878  0.2909 -0.6222
  174MPD1    H5 2712   3.865   4.396  14.447 -2.3748  0.1032 -0.5083
  174MPD1    N1 2713   4.220   4.068  14.731 -0.1070 -0.3993  0.0007
  174MPD1    H6 2714   4.153   3.992  14.736 -2.3753  1.5562 -0.6037
  174MPD1    H7 2715   4.310   4.023  14.717  0.1875  0.5511 -1.1142
  175MPD1     C 2716   2.349   0.560  15.881 -0.0690 -0.0960  0.4774
  175MPD1    C1 2717   2.457   0.530  15.955 -0.1068  0.6324 -0.5186
  175MPD1    C2 2718   2.432   0.445  16.066  0.0092  0.4752  0.3820
  175MPD1    C3 2719   2.305   0.401  16.098  0.7476 -0.1630  0.5392
  175MPD1    C4 2720   2.201   0.447  16.025 -0.3004  0.1659 -0.1050
  175MPD1    C5 2721   2.222   0.526  15.917  0.2083  0.4575 -0.0712
  175MPD1     H 2722   2.511   0.401  16.125 -0.1267 -3.3403 -2.3280
  175MPD1    H1 2723   2.100   0.416  16.049  0.3867 -1.5148  0.6353
  175MPD1    H2 2724   2.360   0.619  15.791  0.0451 -2.7582 -1.2370
  175MPD1    H3 2725   2.140   0.560  15.854  1.0364  2.1551 -0.2303
  175MPD1     N 2726   2.266   0.327  16.206 -0.2792 -0.1689  0.3977
  175MPD1    H5 2727   2.169   0.307  16.224 -0.7888 -0.1589 -2.3805
  175MPD1    N1 2728   2.587   0.550  15.901  0.3807  0.0259  0.2671
  175MPD1    H6 2729   2.660   0.560  15.971 -0.8592  1.2569  1.3753
  175MPD1    H7 2730   2.587   0.635  15.844 -1.7703  0.3056  0.6952
  176MPD1     C 2731   4.014   2.155  17.368  0.8225  0.1927 -0.6554
  176MPD1    C1 2732   4.081   2.218  17.466  0.1440 -0.3230 -0.5303
  176MPD1    C2 2733   4.072   2.355  17.472  0.2568 -0.3789 -0.6787
  176MPD1    C3 2734   3.999   2.426  17.371  0.1907  0.4432 -0.4618
  176MPD1    C4 2735   3.935   2.356  17.277 -0.0279  0.1339  0.0788
  176MPD1    C5 2736   3.940   2.218  17.276 -0.5632 -0.1102 -0.0132
  176MPD1     H 2737   4.117   2.401  17.559 -1.7975  1.1585 -0.4159
  176MPD1    H1 2738   3.871   2.405  17.205  3.3915  2.0780 -1.6596
  176MPD1    H2 2739   4.020   2.047  17.359  0.5786  0.1642 -0.4784
  176MPD1    H3 2740   3.874   2.158  17.215  0.7416 -1.1528 -0.4005
  176MPD1     N 2741   3.996   2.567  17.383  0.9697 -0.4351 -0.2304
  176MPD1    H5 2742   4.046   2.603  17.464 -0.0792  2.8102 -1.0473
  176MPD1    N1 2743   4.149   2.145  17.562  0.0319  0.7457  0.0251
  176MPD1    H6 2744   4.236   2.188  17.593  1.4992 -2.7520  0.7689
  176MPD1    H7 2745   4.160   2.048  17.534 -1.4998  0.6352 -0.1780
  177MPD1     C 2746   2.414   1.517  10.651 -0.5129 -0.1110  0.1845
  177MPD1    C1 2747   2.503   1.615  10.622  0.3953 -0.3473 -0.4114
  177MPD1    C2 2748   2.453   1.719  10.542  0.8358 -0.6929 -0.0596
  177MPD1    C3 2749   2.316   1.729  10.511 -0.6002 -0.2523  0.1277
  177MPD1    C4 2750   2.232   1.626  10.555  0.3613 -0.0524  0.5099
  177MPD1    C5 2751   2.283   1.525  10.633  0.0727  0.2032  0.6349
  177MPD1     H 2752   2.513   1.800  10.501 -1.1319  0.8040 -0.0280
  177MPD1    H1 2753   2.126   1.611  10.538  0.6764 -1.0350 -0.5531
  177MPD1    H2 2754   2.453   1.433  10.707 -0.6707 -1.7189 -2.1194
  177MPD1    H3 2755   2.212   1.448  10.660 -0.4943  0.4043 -0.2917
  177MPD1     N 2756   2.260   1.839  10.445 -0.6949  0.2035 -0.0568
  177MPD1    H5 2757   2.331   1.906  10.415  0.0496  0.5419  2.4149
  177MPD1    N1 2758   2.641   1.592  10.642 -0.0476  0.7349  0.1973
  177MPD1    H6 2759   2.696   1.678  10.638  0.0724  0.6414 -0.0710
  177MPD1    H7 2760   2.650   1.544  10.731 -1.6256 -2.3542 -1.3343
  178MPD1     C 2761   4.529   4.231  17.759 -0.2529  0.0805 -0.5098
  178MPD1    C1 2762   4.442   4.197  17.658 -0.0834  0.4635 -0.3353
  178MPD1    C2 2763   4.432   4.066  17.621  0.2085  0.4650  0.1182
  178MPD1    C3 2764   4.515   3.961  17.662 -0.3898 -0.5688 -0.2759
  178MPD1    C4 2765   4.605   4.004  17.757  0.1268  0.0837 -0.0731
  178MPD1    C5 2766   4.614   4.135   0.043 -0.0584 -0.4274 -0.3696
  178MPD1     H 2767   4.348   4.040  17.557 -0.9862  1.6145  1.2093
  178MPD1    H1 2768   4.679   3.935   0.036 -0.8597 -0.8432  0.1498
  178MPD1    H2 2769   4.522   4.328   0.045  2.4343  0.0015  0.0578
  178MPD1    H3 2770   4.679   4.163   0.125  0.5455 -0.6887 -0.7641
  178MPD1     N 2771   4.514   3.832  17.612 -0.2746 -0.2171  0.2336
  178MPD1    H5 2772   4.578   3.771  17.661 -1.7053 -1.0057  1.1162
  178MPD1    N1 2773   4.335   4.284  17.623 -0.1452  0.6663 -0.6725
  178MPD1    H6 2774   4.366   4.380  17.634  2.0306 -0.3283  1.9619
  178MPD1    H7 2775   4.302   4.273  17.527 -0.8221 -0.3164 -0.3185
  179MPD1     C 2776   3.832   1.906  15.968  0.7218  0.1358 -0.9957
  179MPD1    C1 2777   3.956   1.861  16.003  0.0081  0.2255 -0.3158
  179MPD1    C2 2778   3.972   1.726  16.015  0.4861  0.3821 -0.0072
  179MPD1    C3 2779   3.864   1.640  16.014  0.4897  0.1191 -0.9959
  179MPD1    C4 2780   3.741   1.692  15.984 -0.3997  0.1477  0.2841
  179MPD1    C5 2781   3.729   1.822  15.950  0.7712  0.5194 -0.4593
  179MPD1     H 2782   4.069   1.694  16.051  0.9560  1.2325 -0.5229
  179MPD1    H1 2783   3.660   1.622  15.964 -0.5349  0.5231 -0.5153
  179MPD1    H2 2784   3.829   2.009  15.934  2.5604  0.0875 -1.2910
  179MPD1    H3 2785   3.635   1.867  15.921 -0.1769 -1.2008 -0.0210
  179MPD1     N 2786   3.869   1.497  16.041  0.2436  0.1233  0.2908
  179MPD1    H5 2787   3.781   1.445  16.040 -0.4933  1.3686  0.7818
  179MPD1    N1 2788   4.063   1.943  16.031 -0.8767  0.1336  0.0018
  179MPD1    H6 2789   4.119   1.903  16.106 -0.2598 -0.2174 -0.6515
  179MPD1    H7 2790   4.040   2.040  16.052  2.0898  0.5029  1.5013
  180MPD1     C 2791   4.117   2.850  15.527 -0.0944 -0.4458  0.0333
  180MPD1    C1 2792   4.137   2.715  15.505 -0.1283  0.3454  1.0901
  180MPD1    C2 2793   4.125   2.668  15.375  0.3778  0.4073  0.1710
  180MPD1    C3 2794   4.115   2.751  15.265 -0.2013  0.9738 -0.3413
  180MPD1    C4 2795   4.118   2.893  15.291  0.5622 -0.0664  0.2245
  180MPD1    C5 2796   4.119   2.939  15.422  0.1917  0.0355 -0.5126
  180MPD1     H 2797   4.127   2.561  15.358 -0.5036  0.4653 -0.2911
  180MPD1    H1 2798   4.126   2.965  15.210 -1.9007  0.2090  0.2245
  180MPD1    H2 2799   4.125   2.884  15.629 -2.4673 -2.0650  0.7619
  180MPD1    H3 2800   4.128   3.042  15.454 -0.8336  1.2675 -4.1839
  180MPD1     N 2801   4.117   2.695  15.139  0.1086  0.7805  0.5002
  180MPD1    H5 2802   4.144   2.597  15.128  0.1007  1.0432 -1.9616
  180MPD1    N1 2803   4.148   2.628  15.614  0.0886  0.7030 -0.6690
  180MPD1    H6 2804   4.184   2.535  15.597  0.2706  0.3247  1.8608
  180MPD1    H7 2805   4.177   2.663  15.705 -2.4742 -0.3811  0.5768
  181MPD1     C 2806   0.910   4.112   9.165 -0.2531 -0.0242 -0.3802
  181MPD1    C1 2807   0.958   4.244   9.183  0.2847  0.0080 -0.5555
  181MPD1    C2 2808   1.002   4.281   9.313  0.9340  0.2173 -0.7238
  181MPD1    C3 2809   0.990   4.187   9.416 -0.3690  1.1855  0.5705
  181MPD1    C4 2810   0.932   4.063   9.398 -0.7053 -0.1810 -0.0545
  181MPD1    C5 2811   0.894   4.026   9.274  0.0233  0.5523 -0.7476
  181MPD1     H 2812   1.060   4.372   9.323 -1.5556  1.6509  0.7566
  181MPD1    H1 2813   0.924   3.988   9.476  0.1974 -3.2831 -2.9059
  181MPD1    H2 2814   0.854   4.082   9.077 -0.3242 -0.1425 -0.2938
  181MPD1    H3 2815   0.877   3.922   9.250  1.5094 -0.3808  2.2586
  181MPD1     N 2816   1.051   4.201   9.546  0.6915 -0.6964  0.2379
  181MPD1    H5 2817   1.047   4.124   9.611 -1.2005 -0.5026  0.3735
  181MPD1    N1 2818   0.956   4.337   9.082  0.0521 -0.4268  0.6361
  181MPD1    H6 2819   1.038   4.396   9.075 -1.2330  1.4614  1.4297
  181MPD1    H7 2820   0.925   4.302   8.992  0.9212 -0.5404  0.3811
  182MPD1     C 2821   1.617   3.422   1.520  0.2847  0.1332  0.0336
  182MPD1    C1 2822   1.696   3.374   1.414 -0.3440  0.5841 -0.9785
  182MPD1    C2 2823   1.733   3.458   1.314 -0.7286  0.2499  0.1775
  182MPD1    C3 2824   1.702   3.596   1.316 -0.1262  0.0735 -0.1801
  182MPD1    C4 2825   1.624   3.639   1.415  0.4585  0.3468  0.4704
  182MPD1    C5 2826   1.600   3.559   1.526  0.5475  0.1273 -0.0696
  182MPD1     H 2827   1.807   3.423   1.243 -0.8554  1.4997 -0.5682
  182MPD1    H1 2828   1.585   3.740   1.414 -2.3751 -0.7507  0.6378
  182MPD1    H2 2829   1.587   3.372   1.611  2.2603 -0.9424  0.0853
  182MPD1    H3 2830   1.550   3.607   1.609  2.1687  0.1057  0.9174
  182MPD1     N 2831   1.732   3.681   1.209  0.7036  0.4714  0.1529
  182MPD1    H5 2832   1.716   3.780   1.224 -0.3236  0.2652  0.4409
  182MPD1    N1 2833   1.744   3.241   1.416 -0.4603  0.0071  0.1065
  182MPD1    H6 2834   1.742   3.209   1.319 -2.9220 -3.1037  1.1816
  182MPD1    H7 2835   1.706   3.168   1.476 -1.1952 -1.7298 -2.4504
  183MPD1     C 2836   2.101   3.707   9.088 -0.3210  0.0816 -0.0155
  183MPD1    C1 2837   2.020   3.814   9.121  0.4179 -0.5423  0.4313
  183MPD1    C2 2838   2.009   3.851   9.252 -0.8109 -0.1701 -0.2912
  183MPD1    C3 2839   2.088   3.792   9.351  0.5033  0.1618  0.4598
  183MPD1    C4 2840   2.178   3.689   9.316  0.0178  0.3179  0.2160
  183MPD1    C5 2841   2.185   3.653   9.184  0.2432  0.5135 -0.1937
  183MPD1     H 2842   1.935   3.923   9.284  1.4432  1.7796  0.6052
  183MPD1    H1 2843   2.241   3.634   9.385  1.0965 -0.0171 -1.0440
  183MPD1    H2 2844   2.112   3.671   8.986  1.7158  1.6329 -0.3511
  183MPD1    H3 2845   2.253   3.573   9.156 -0.3250  0.4290 -1.3245
  183MPD1     N 2846   2.073   3.836   9.482  0.7333  0.5075  0.5345
  183MPD1    H5 2847   2.012   3.916   9.499 -0.5952 -0.4324  0.2011
  183MPD1    N1 2848   1.947   3.873   9.021  0.7440 -0.0195 -0.4896
  183MPD1    H6 2849   1.994   3.879   8.931  0.1391  0.7037 -0.7568
  183MPD1    H7 2850   1.908   3.963   9.048  0.9312  0.5896 -2.2763
  184MPD1     C 2851   1.939   1.321  11.069  0.2873  0.5897  0.1309
  184MPD1    C1 2852   1.998   1.446  11.089  0.1061  0.0043 -0.4787
  184MPD1    C2 2853   1.973   1.533  10.990 -0.1100 -0.2516 -0.5485
  184MPD1    C3 2854   1.892   1.510  10.879  0.3099  0.2339 -0.5660
  184MPD1    C4 2855   1.837   1.386  10.863 -0.0614 -0.1745  0.2941
  184MPD1    C5 2856   1.859   1.298  10.960  0.2966 -0.0459 -0.0242
  184MPD1     H 2857   2.030   1.626  10.987 -0.5335 -0.0845 -3.4372
  184MPD1    H1 2858   1.769   1.366  10.781  0.3608 -0.4858  0.0257
  184MPD1    H2 2859   1.955   1.248  11.148 -0.9963  0.6616  0.4608
  184MPD1    H3 2860   1.808   1.203  10.952 -1.0220  0.6996 -0.4443
  184MPD1     N 2861   1.855   1.615  10.790 -0.0223  0.6024  0.0265
  184MPD1    H5 2862   1.783   1.596  10.722 -0.6952 -0.8255  1.1343
  184MPD1    N1 2863   2.089   1.481  11.195  0.2702 -0.0532 -0.3405
  184MPD1    H6 2864   2.065   1.429  11.279 -0.9018  0.0914 -0.5837
  184MPD1    H7 2865   2.089   1.581  11.213  1.3152 -0.4212  1.7197
  185MPD1     C 2866   0.995   1.951  10.424 -0.2681  0.6138 -0.3595
  185MPD1    C1 2867   1.053   1.833  10.449 -0.0931  0.0363 -0.1537
  185MPD1    C2 2868   1.186   1.833  10.498  0.5149  0.5373  0.1879
  185MPD1    C3 2869   1.259   1.955  10.510 -0.0074  0.1227 -0.8189
  185MPD1    C4 2870   1.199   2.075  10.480 -0.8854  0.3739  0.6774
  185MPD1    C5 2871   1.067   2.070  10.431  0.1005  0.4225 -0.1161
  185MPD1     H 2872   1.238   1.742  10.528  0.3717 -0.3845 -2.2733
  185MPD1    H1 2873   1.259   2.164  10.475 -0.9526  0.3502 -0.6024
  185MPD1    H2 2874   0.892   1.956  10.390 -0.3958 -1.7293 -0.3011
  185MPD1    H3 2875   1.023   2.162  10.396  0.9257  1.1331  0.7328
  185MPD1     N 2876   1.392   1.959  10.561  0.3581 -0.0226  0.0485
  185MPD1    H5 2877   1.433   2.051  10.567 -0.5380  0.3139  0.9384
  185MPD1    N1 2878   0.974   1.714  10.429 -0.2957  0.0100 -0.3454
  185MPD1    H6 2879   0.879   1.734  10.459 -0.0916 -1.6743  1.4524
  185MPD1    H7 2880   1.005   1.639  10.491  2.4938  1.7616  0.3681
  186MPD1     C 2881   0.235   1.819  15.596  0.8249 -0.1420  0.4098
  186MPD1    C1 2882   0.204   1.731  15.697  0.2806 -0.2722  0.3074
  186MPD1    C2 2883   0.167   1.788  15.815 -0.6715 -1.0056 -0.0029
  186MPD1    C3 2884   0.160   1.922  15.833  0.1261 -0.3653 -0.4457
  186MPD1    C4 2885   0.199   2.005  15.734  0.2972 -0.0686 -0.6089
  186MPD1    C5 2886   0.240   1.956  15.617 -0.1885 -0.1634 -0.2642
  186MPD1     H 2887   0.126   1.723  15.891 -1.4630  0.1381  0.5368
  186MPD1    H1 2888   0.191   2.111  15.753  0.2830  0.2398 -2.3064
  186MPD1    H2 2889   0.248   1.781  15.496 -1.5265 -2.2454  0.9083
  186MPD1    H3 2890   0.276   2.021  15.538  1.3691  0.9612  1.3834
  186MPD1     N 2891   0.126   1.987  15.953 -0.2708 -0.0620  0.1929
  186MPD1    H5 2892   0.126   2.088  15.948  0.8536  0.0030  1.2490
  186MPD1    N1 2893   0.182   1.594  15.662  0.0895  0.4211  0.2073
  186MPD1    H6 2894   0.238   1.566  15.582  1.0974  0.2514  0.9847
  186MPD1    H7 2895   0.202   1.529  15.737 -1.4846 -0.5599 -0.2099
  187MPD1     C 2896   4.447   3.313   0.030 -0.1145 -0.3263 -0.3804
  187MPD1    C1 2897   4.336   3.254  17.737  0.4109  0.9893 -0.0940
  187MPD1    C2 2898   4.244   3.334  17.680  0.1168 -0.1187 -0.4884
  187MPD1    C3 2899   4.254   3.473  17.690 -0.4296 -0.1820  0.3734
  187MPD1    C4 2900   4.367   3.535  17.751  0.3949  0.4377  0.5592
  187MPD1    C5 2901   4.461   3.446   0.029 -0.1577 -0.4470 -0.3675
  187MPD1     H 2902   4.168   3.276  17.628 -0.2612 -0.9436  0.9667
  187MPD1    H1 2903   4.388   3.638   0.017 -0.2377  1.1016 -1.5044
  187MPD1    H2 2904   4.517   3.245   0.077 -2.1586 -1.2359  1.3398
  187MPD1    H3 2905   4.553   3.485   0.071 -1.2460 -0.2663  1.8394
  187MPD1     N 2906   4.159   3.558  17.638 -0.6004 -0.6476  0.4154
  187MPD1    H5 2907   4.164   3.651  17.677 -1.1994 -0.1344 -0.7341
  187MPD1    N1 2908   4.339   3.116  17.708 -0.0674 -0.4135 -0.0499
  187MPD1    H6 2909   4.391   3.066   0.019  0.9894 -1.2900 -1.4283
  187MPD1    H7 2910   4.242   3.084  17.705  0.3538 -2.0678  3.7628
  188MPD1     C 2911   4.324   3.246  10.651  0.9590 -0.0965 -0.4644
  188MPD1    C1 2912   4.233   3.232  10.549 -0.3781  0.4138 -0.4391
  188MPD1    C2 2913   4.161   3.117  10.537  0.3471  0.3510 -0.3331
  188MPD1    C3 2914   4.191   3.007  10.613 -0.1307  0.2593  0.3292
  188MPD1    C4 2915   4.298   3.016  10.710 -0.6217 -0.3594 -0.7453
  188MPD1    C5 2916   4.350   3.141  10.731  0.2752 -0.1963  0.8379
  188MPD1     H 2917   4.080   3.122  10.465 -0.2146 -1.1302  0.1905
  188MPD1    H1 2918   4.322   2.937  10.780  1.9466  0.5163 -0.6527
  188MPD1    H2 2919   4.369   3.343  10.672 -0.5715  0.2497  1.1899
  188MPD1    H3 2920   4.410   3.176  10.815  1.4450 -1.6825  0.6168
  188MPD1     N 2921   4.109   2.888  10.608 -0.2567  0.4533 -0.3608
  188MPD1    H5 2922   4.128   2.811  10.670 -0.1863  0.7236 -0.0439
  188MPD1    N1 2923   4.205   3.344  10.462  0.3802 -0.3300 -0.4887
  188MPD1    H6 2924   4.169   3.326  10.369 -0.7494  0.3847 -0.1850
  188MPD1    H7 2925   4.297   3.385  10.451  0.4136 -0.0211  0.9190
  189MPD1     C 2926   1.002   4.731   0.626  0.2515 -0.1024  0.3068
  189MPD1    C1 2927   0.929   4.704   0.513 -0.2992 -0.3145  0.2007
  189MPD1    C2 2928   0.828   0.057   0.484 -0.1674  0.0841 -0.3971
  189MPD1    C3 2929   0.804   0.173   0.551 -0.5418 -0.6488  0.4214
  189MPD1    C4 2930   0.888   0.207   0.656 -0.2680  0.2722 -0.0510
  189MPD1    C5 2931   0.982   0.111   0.691  0.3970  0.1185 -0.0594
  189MPD1     H 2932   0.763   0.024   0.404  0.5537  1.0473 -1.3872
  189MPD1    H1 2933   0.886   0.296   0.719 -0.5649  2.9800 -3.8827
  189MPD1    H2 2934   1.081   4.665   0.660 -1.1074 -1.3062  1.1360
  189MPD1    H3 2935   1.044   0.135   0.776  0.7133 -0.5080 -0.1148
  189MPD1     N 2936   0.698   0.253   0.503  0.0141  0.3947 -0.0948
  189MPD1    H5 2937   0.626   0.202   0.451  0.2626  0.3629 -0.4099
  189MPD1    N1 2938   0.929   4.573   0.458  0.8938 -0.3380 -0.1789
  189MPD1    H6 2939   0.924   4.584   0.356  1.5029 -0.2888 -0.2082
  189MPD1    H7 2940   1.018   4.528   0.479  0.2869 -1.3201  0.2481
  190MPD1     C 2941   4.056   3.342  15.475  0.2808  0.1821 -0.8804
  190MPD1    C1 2942   4.092   3.262  15.585 -0.2956 -0.3572  0.8681
  190MPD1    C2 2943   4.224   3.245  15.616  0.0028  0.2433 -0.8018
  190MPD1    C3 2944   4.324   3.282  15.518 -0.6111 -0.4734  0.1576
  190MPD1    C4 2945   4.287   3.359  15.411  0.1847 -0.4567  0.3032
  190MPD1    C5 2946   4.155   3.377  15.384  0.4084  0.5388  0.2802
  190MPD1     H 2947   4.250   3.191  15.707 -1.2074  2.1109  0.6252
  190MPD1    H1 2948   4.357   3.386  15.332 -0.0825 -1.0510 -0.1445
  190MPD1    H2 2949   3.956   3.370  15.446 -0.1900 -1.3352 -0.7179
  190MPD1    H3 2950   4.127   3.423  15.290 -0.5418 -2.2344 -0.7952
  190MPD1     N 2951   4.456   3.244  15.551 -0.3230  0.0048 -0.1664
  190MPD1    H5 2952   4.456   3.189  15.637 -0.5225  0.8505  0.3739
  190MPD1    N1 2953   3.997   3.238  15.683 -0.1560 -0.0822 -0.1412
  190MPD1    H6 2954   3.903   3.231  15.646  0.1590 -0.3760 -0.8734
  190MPD1    H7 2955   4.010   3.155  15.740 -0.9971  1.3777  2.1942
  191MPD1     C 2956   3.383   4.644  13.098 -0.5462 -0.1003  0.5007
  191MPD1    C1 2957   3.513   4.610  13.052 -0.6560  0.3241  0.4860
  191MPD1    C2 2958   3.561   4.676  12.942 -0.2283 -0.8255 -0.5168
  191MPD1    C3 2959   3.485   0.019  12.863 -0.8799  0.1423  0.1639
  191MPD1    C4 2960   3.351   0.036  12.899 -0.6143 -0.0678 -0.3320
  191MPD1    C5 2961   3.303   4.731  13.022  0.2461  0.1807 -0.0999
  191MPD1     H 2962   3.666   4.666  12.915 -0.1513  0.5714 -0.7401
  191MPD1    H1 2963   3.282   0.097  12.842 -1.4914 -0.6807  0.0719
  191MPD1    H2 2964   3.335   4.587  13.177  0.1541 -2.6069 -0.8845
  191MPD1    H3 2965   3.201   0.014  13.049  0.0008 -0.3536 -0.5528
  191MPD1     N 2966   3.535   0.076  12.744  0.6748 -0.4024  0.2141
  191MPD1    H5 2967   3.634   0.091  12.758  0.7575 -0.9980  0.2480
  191MPD1    N1 2968   3.593   4.522  13.127 -0.3000  0.0894 -0.4563
  191MPD1    H6 2969   3.640   4.561  13.208  2.2307 -0.0206 -1.8974
  191MPD1    H7 2970   3.674   4.481  13.081 -0.5917 -1.5760  0.5235
  192MPD1     C 2971   3.450   0.508  11.728 -0.2271  0.4821  0.1278
  192MPD1    C1 2972   3.375   0.437  11.808 -0.3738 -0.4589  0.2642
  192MPD1    C2 2973   3.409   0.415  11.940  0.4816  1.3298  0.3536
  192MPD1    C3 2974   3.528   0.466  11.996  0.2819  0.0948  0.2259
  192MPD1    C4 2975   3.610   0.534  11.909  0.0604  0.3833 -0.1359
  192MPD1    C5 2976   3.574   0.556  11.775 -0.0888  0.3949 -0.2817
  192MPD1     H 2977   3.344   0.355  12.002  0.3381 -0.8854 -1.9297
  192MPD1    H1 2978   3.700   0.577  11.951 -0.9776  2.1349  0.3084
  192MPD1    H2 2979   3.422   0.528  11.626 -0.6583  2.1052  0.5711
  192MPD1    H3 2980   3.633   0.616  11.706 -0.2889  1.3191  0.3557
  192MPD1     N 2981   3.566   0.436  12.132  0.1362 -0.4833 -0.1943
  192MPD1    H5 2982   3.655   0.472  12.163 -0.2318 -1.5148  1.9966
  192MPD1    N1 2983   3.257   0.362  11.759  0.5593 -0.5676  0.0292
  192MPD1    H6 2984   3.205   0.312  11.831  1.2036 -1.3762 -0.0627
  192MPD1    H7 2985   3.193   0.412  11.697  0.9690  0.1758  0.2090
  193MPD1     C 2986   2.893   0.306  16.420  0.2813 -0.7996  0.3480
  193MPD1    C1 2987   2.833   0.301  16.541  1.0732 -0.5196  0.6369
  193MPD1    C2 2988   2.901   0.355  16.649 -0.5167  0.0305 -0.2171
  193MPD1    C3 2989   3.024   0.418  16.624  0.2332  0.3326 -0.2178
  193MPD1    C4 2990   3.076   0.427  16.498  0.1184  0.8736  0.0027
  193MPD1    C5 2991   3.007   0.371  16.393 -0.2036 -0.2108  0.3769
  193MPD1     H 2992   2.857   0.346  16.747 -2.5623 -0.6558 -1.1919
  193MPD1    H1 2993   3.176   0.461  16.474  0.6077 -0.6778 -0.1598
  193MPD1    H2 2994   2.838   0.258  16.340 -0.6574  0.7548  0.0811
  193MPD1    H3 2995   3.045   0.377  16.292  0.4429 -3.2636  0.4576
  193MPD1     N 2996   3.104   0.477  16.725 -0.0784  0.5121 -0.2149
  193MPD1    H5 2997   3.176   0.538  16.688  0.4995  0.5014  0.8898
  193MPD1    N1 2998   2.701   0.240  16.555 -0.2383  0.0822  0.6735
  193MPD1    H6 2999   2.635   0.275  16.486 -1.9369 -1.8349  1.3034
  193MPD1    H7 3000   2.661   0.233  16.649 -3.1650  2.9668 -0.3296
  194MPD1     C 3001   2.249   2.623  16.755  1.0033  0.0431 -0.3893
  194MPD1    C1 3002   2.144   2.560  16.693 -0.1977  0.1408  0.4804
  194MPD1    C2 3003   2.056   2.483  16.766 -0.5183  0.2923  0.3574
  194MPD1    C3 3004   2.092   2.448  16.895 -0.5529 -0.4704 -0.1394
  194MPD1    C4 3005   2.197   2.508  16.956 -0.7569 -0.6169  0.2147
  194MPD1    C5 3006   2.274   2.597  16.887 -0.4891  0.9695 -0.2993
  194MPD1     H 3007   1.963   2.449  16.722 -1.0221  0.2637  1.4430
  194MPD1    H1 3008   2.230   2.488  17.057  0.9678 -2.2607 -0.6923
  194MPD1    H2 3009   2.321   2.679  16.697  0.0526  1.9757  0.3190
  194MPD1    H3 3010   2.356   2.645  16.939  0.0091  0.8694 -0.9939
  194MPD1     N 3011   2.009   2.375  16.980 -0.0462 -0.0489 -0.9222
  194MPD1    H5 3012   2.045   2.349  17.072 -0.5946  2.9594  0.1343
  194MPD1    N1 3013   2.110   2.610  16.564 -0.4982  0.3074 -0.7116
  194MPD1    H6 3014   2.068   2.544  16.500 -1.1854  0.4065 -0.3570
  194MPD1    H7 3015   2.196   2.631  16.514 -0.1703 -0.5288 -0.4989
  195MPD1     C 3016   3.895   4.226  17.687 -0.2655  0.4855  0.2758
  195MPD1    C1 3017   3.755   4.228  17.697  0.1728  0.1239  0.4441
  195MPD1    C2 3018   3.696   4.113  17.748  0.5303  0.2431 -0.0890
  195MPD1    C3 3019   3.762   4.000   0.035  0.1036  0.2723  0.3074
  195MPD1    C4 3020   3.900   4.001   0.027 -0.2343  0.4999 -0.0152
  195MPD1    C5 3021   3.962   4.114  17.733 -0.6763 -0.1716 -0.2629
  195MPD1     H 3022   3.588   4.121  17.737  0.1569 -1.3272  2.4190
  195MPD1    H1 3023   3.955   3.919   0.070  0.4161  0.6964 -0.4704
  195MPD1    H2 3024   3.953   4.311  17.655  1.5063  0.7317  4.0797
  195MPD1    H3 3025   4.070   4.110  17.722 -0.9093 -1.3549 -1.9884
  195MPD1     N 3026   3.698   3.887   0.096  0.1756  0.3294  0.0890
  195MPD1    H5 3027   3.758   3.817   0.139 -0.5095 -0.3941 -0.1063
  195MPD1    N1 3028   3.683   4.335  17.639  0.8036  0.2910 -0.3364
  195MPD1    H6 3029   3.589   4.343  17.675  1.2133  1.9777  0.3553
  195MPD1    H7 3030   3.739   4.418  17.656  1.7391 -0.3993 -0.0430
  196MPD1     C 3031   2.749   3.861  17.633  0.2227 -0.1241 -0.1105
  196MPD1    C1 3032   2.779   3.948  17.736 -0.8465 -0.8105  0.6384
  196MPD1    C2 3033   2.706   3.944   0.089 -0.0424  0.1240  0.5682
  196MPD1    C3 3034   2.619   3.844   0.114 -0.4112 -1.0394  0.0884
  196MPD1    C4 3035   2.594   3.758   0.011  0.0397  0.3577  0.1064
  196MPD1    C5 3036   2.658   3.769  17.652  0.2250 -0.2471 -0.2932
  196MPD1     H 3037   2.724   4.021   0.164  1.3878 -0.5306  0.8996
  196MPD1    H1 3038   2.527   3.673   0.021 -0.1262  0.4145 -0.5013
  196MPD1    H2 3039   2.804   3.864  17.539 -0.8920  3.0643 -0.6658
  196MPD1    H3 3040   2.644   3.696  17.573  1.1173 -1.4305  0.6432
  196MPD1     N 3041   2.575   3.803   0.241 -0.6289  0.6156  0.0913
  196MPD1    H5 3042   2.505   3.730   0.247 -2.0990  2.0722  0.7689
  196MPD1    N1 3043   2.879   4.047  17.713  0.0334 -0.4772  0.1770
  196MPD1    H6 3044   2.959   4.017  17.658 -1.3593 -3.1641 -0.4201
  196MPD1    H7 3045   2.909   4.087   0.040 -0.4130 -0.3450  0.2705
  197MPD1     C 3046   1.837   0.177  17.356  0.3371  0.1163  0.7288
  197MPD1    C1 3047   1.906   0.251  17.450 -0.2222  0.6261 -0.2751
  197MPD1    C2 3048   1.946   0.380  17.422  0.3248 -0.4805 -1.0234
  197MPD1    C3 3049   1.896   0.442  17.307  0.6596  0.1987 -0.3889
  197MPD1    C4 3050   1.808   0.370  17.229 -0.2199 -0.0731 -0.3453
  197MPD1    C5 3051   1.785   0.239  17.248 -0.3996  0.1489 -0.0191
  197MPD1     H 3052   2.032   0.420  17.474  1.3164 -2.2846 -1.2684
  197MPD1    H1 3053   1.770   0.413  17.138 -0.4673 -0.3644 -0.3813
  197MPD1    H2 3054   1.828   0.069  17.365  1.6636 -0.0449  0.0389
  197MPD1    H3 3055   1.713   0.193  17.181 -0.0342  1.3611 -1.2571
  197MPD1     N 3056   1.931   0.565  17.258 -0.0691  0.8458  0.7031
  197MPD1    H5 3057   1.917   0.577  17.159  0.0618 -2.6047  0.2759
  197MPD1    N1 3058   1.965   0.178  17.554 -0.7469  0.3845  0.3329
  197MPD1    H6 3059   2.006   0.246  17.618  0.8071 -0.3748  0.1457
  197MPD1    H7 3060   1.900   0.116  17.602 -1.3499 -0.1619 -1.1994
  198MPD1     C 3061   4.117   3.624  14.620  0.2858 -0.4157  0.4157
  198MPD1    C1 3062   4.243   3.663  14.664 -0.9519  0.6584  0.3224
  198MPD1    C2 3063   4.250   3.742  14.779  0.8838 -0.0431  0.5630
  198MPD1    C3 3064   4.140   3.791  14.846  0.2791  0.8528  0.2707
  198MPD1    C4 3065   4.014   3.759  14.794  0.5368  0.3267 -0.0831
  198MPD1    C5 3066   4.007   3.669  14.688 -0.3950  0.7332 -0.2345
  198MPD1     H 3067   4.350   3.762  14.816  0.5435  1.1924  0.8214
  198MPD1    H1 3068   3.913   3.786  14.824  0.3702 -2.4324  1.8556
  198MPD1    H2 3069   4.105   3.553  14.539 -0.0623  0.1771 -0.0583
  198MPD1    H3 3070   3.912   3.635  14.649 -0.1054  2.9621 -2.8994
  198MPD1     N 3071   4.165   3.868  14.968  0.5059  0.2044  0.2446
  198MPD1    H5 3072   4.262   3.880  14.993 -0.1370 -1.2214  3.3727
  198MPD1    N1 3073   4.354   3.607  14.595 -0.4589 -0.3734  0.0617
  198MPD1    H6 3074   4.433   3.670  14.583 -1.4575  0.3576 -2.6803
  198MPD1    H7 3075   4.325   3.577  14.502  0.2274 -2.3457  0.4865
  199MPD1     C 3076   2.389   1.234   9.934 -0.2573  0.6945 -0.1527
  199MPD1    C1 3077   2.327   1.116   9.967 -0.3670  0.5093  0.8261
  199MPD1    C2 3078   2.205   1.074   9.914  0.4818 -0.2624 -0.0262
  199MPD1    C3 3079   2.131   1.169   9.841 -0.7915 -0.0185  0.0286
  199MPD1    C4 3080   2.189   1.290   9.817 -0.4663  0.7690 -0.1686
  199MPD1    C5 3081   2.316   1.325   9.865  0.7612  0.1204 -0.1745
  199MPD1     H 3082   2.166   0.975   9.933 -2.8764  0.9821 -0.3106
  199MPD1    H1 3083   2.125   1.358   9.762 -2.2654 -0.1980  0.7317
  199MPD1    H2 3084   2.481   1.256   9.985 -0.7957 -0.2961  1.2304
  199MPD1    H3 3085   2.355   1.425   9.853  1.2775  0.2084  2.3829
  199MPD1     N 3086   1.997   1.156   9.784 -0.2311  0.2689 -0.0827
  199MPD1    H5 3087   1.968   1.215   9.707  0.4255  0.6252 -0.0571
  199MPD1    N1 3088   2.402   1.014  10.020  0.5430 -0.3671 -0.4496
  199MPD1    H6 3089   2.345   0.941  10.062  2.0344 -1.8659 -1.0359
  199MPD1    H7 3090   2.483   1.035  10.079  0.7118 -0.2253 -0.7326
  200MPD1     C 3091   0.531   0.691  14.518 -0.6181  0.6187 -0.3893
  200MPD1    C1 3092   0.642   0.748  14.583  0.1799  0.2998 -0.2381
  200MPD1    C2 3093   0.681   0.690  14.693  0.3087  0.7987 -0.6713
  200MPD1    C3 3094   0.637   0.560  14.732 -1.0880  0.5388 -0.2123
  200MPD1    C4 3095   0.518   0.511  14.671  0.3153 -0.3516 -0.0504
  200MPD1    C5 3096   0.467   0.575  14.560 -0.3790 -0.0551 -0.5212
  200MPD1     H 3097   0.759   0.740  14.749  0.2907  1.3779 -1.1622
  200MPD1    H1 3098   0.463   0.420  14.693  0.9626 -0.9157 -0.7586
  200MPD1    H2 3099   0.493   0.736  14.427 -1.3706 -2.9175 -1.8026
  200MPD1    H3 3100   0.383   0.526  14.512 -0.0386  1.4614 -2.6682
  200MPD1     N 3101   0.708   0.506  14.834  0.1777 -0.5776 -0.1962
  200MPD1    H5 3102   0.797   0.550  14.857  0.9105 -1.4211 -1.4274
  200MPD1    N1 3103   0.692   0.877  14.551  0.0776  0.0914  0.1409
  200MPD1    H6 3104   0.676   0.916  14.459 -0.3286 -0.7257 -0.1350
  200MPD1    H7 3105   0.790   0.890  14.576  0.5498 -0.1673 -1.6364
  201MPD1     C 3106   2.290   4.191  12.729  0.1199  0.3430 -0.2428
  201MPD1    C1 3107   2.271   4.069  12.675  0.3213 -0.7532  0.0636
  201MPD1    C2 3108   2.360   3.964  12.714 -0.3475  0.7659 -0.9581
  201MPD1    C3 3109   2.449   3.991  12.817 -0.2915  0.0756  0.4194
  201MPD1    C4 3110   2.458   4.118  12.876 -0.3118 -0.4197  0.6400
  201MPD1    C5 3111   2.380   4.213  12.832  0.1686 -0.7244  0.2151
  201MPD1     H 3112   2.346   3.863  12.679 -3.4783  1.1842 -0.9585
  201MPD1    H1 3113   2.523   4.128  12.963  1.9794  1.3620 -1.2884
  201MPD1    H2 3114   2.227   4.270  12.690  1.5584  0.4483 -2.3388
  201MPD1    H3 3115   2.391   4.305  12.887 -0.9332 -0.4149 -0.1005
  201MPD1     N 3116   2.532   3.890  12.859 -0.1970  0.4726  0.3033
  201MPD1    H5 3117   2.541   3.810  12.797 -0.5650  0.9467 -0.3578
  201MPD1    N1 3118   2.185   4.056  12.566 -0.1724  0.0550  0.0419
  201MPD1    H6 3119   2.162   3.960  12.538 -2.2829 -0.0678  2.1770
  201MPD1    H7 3120   2.096   4.107  12.565 -0.6319 -0.7516 -0.8850
  202MPD1     C 3121   2.842   2.880   9.328 -0.4211  0.2573 -0.0119
  202MPD1    C1 3122   2.732   2.930   9.397  0.1231 -0.1657  0.5162
  202MPD1    C2 3123   2.755   2.983   9.525  0.4902  0.3389 -0.8262
  202MPD1    C3 3124   2.865   2.941   9.591  0.3544 -0.2522 -0.3196
  202MPD1    C4 3125   2.959   2.861   9.536  0.1735  0.0844  0.5055
  202MPD1    C5 3126   2.954   2.850   9.400  0.0496 -0.0054  0.2003
  202MPD1     H 3127   2.674   3.038   9.571 -0.7117 -1.1696 -1.1720
  202MPD1    H1 3128   3.040   2.813   9.590  0.6554  0.0240 -0.2844
  202MPD1    H2 3129   2.851   2.848   9.224  0.0756 -1.3916  0.5308
  202MPD1    H3 3130   3.037   2.801   9.350 -1.2479 -1.8587 -0.1202
  202MPD1     N 3131   2.877   2.973   9.729 -0.1482  0.4989  0.2732
  202MPD1    H5 3132   2.961   2.937   9.774 -0.1766 -0.0109 -0.0721
  202MPD1    N1 3133   2.636   2.993   9.317 -0.0454  0.2558 -0.5353
  202MPD1    H6 3134   2.551   3.013   9.368  0.8167  1.2035  0.5231
  202MPD1    H7 3135   2.605   2.944   9.233  0.7703  1.6202 -1.6496
  203MPD1     C 3136   0.886   3.946  12.357 -0.2070  0.0337 -0.2314
  203MPD1    C1 3137   0.985   3.883  12.287  0.5063 -0.3935 -0.4227
  203MPD1    C2 3138   1.112   3.884  12.343  0.2567  0.5552 -0.4522
  203MPD1    C3 3139   1.134   3.925  12.473  0.5157 -0.1131 -0.5539
  203MPD1    C4 3140   1.035   3.976  12.540  0.1807 -0.1255 -0.3017
  203MPD1    C5 3141   0.917   3.989  12.487 -0.1382 -0.4107 -0.0448
  203MPD1     H 3142   1.192   3.837  12.286  0.7731  2.3621 -1.2142
  203MPD1    H1 3143   1.061   4.008  12.640  0.4615 -0.2001 -0.3510
  203MPD1    H2 3144   0.786   3.958  12.319  0.1040  1.2335 -0.7045
  203MPD1    H3 3145   0.842   4.017  12.560 -1.6238  0.0979 -1.7472
  203MPD1     N 3146   1.269   3.915  12.524 -0.1897 -0.0463  0.1615
  203MPD1    H5 3147   1.336   3.863  12.469 -1.1038 -0.9211 -0.1213
  203MPD1    N1 3148   0.968   3.849  12.155 -0.0531 -0.5125  0.3752
  203MPD1    H6 3149   1.025   3.775  12.116  0.9027 -0.3201  1.4222
  203MPD1    H7 3150   0.871   3.830  12.132 -0.7222  2.0163  1.0493
  204MPD1     C 3151   0.874   1.508  17.732 -0.3055 -0.3276  0.6697
  204MPD1    C1 3152   0.857   1.473  17.603 -0.4242 -0.2796 -0.1744
  204MPD1    C2 3153   0.915   1.354  17.558 -0.4805  0.0499 -0.4713
  204MPD1    C3 3154   0.971   1.261  17.648  0.2264  0.0330  0.3174
  204MPD1    C4 3155   0.978   1.294   0.021  0.3367 -0.0187  0.0720
  204MPD1    C5 3156   0.925   1.411   0.058 -0.2013  0.6917  1.0331
  204MPD1     H 3157   0.932   1.349  17.451  0.6177 -0.7004 -0.2587
  204MPD1    H1 3158   1.010   1.237   0.108  2.4987  0.0303 -0.6818
  204MPD1    H2 3159   0.846   1.607   0.005 -0.5861 -0.1850  0.0311
  204MPD1    H3 3160   0.940   1.444   0.160  2.3498  0.3661  0.7748
  204MPD1     N 3161   1.034   1.141  17.603 -0.0134  0.7133  0.2970
  204MPD1    H5 3162   1.043   1.122  17.504  0.0721  0.8852  0.2715
  204MPD1    N1 3163   0.808   1.561  17.507 -0.0882 -0.1125  0.0890
  204MPD1    H6 3164   0.741   1.623  17.553 -0.6312  0.1919 -1.0993
  204MPD1    H7 3165   0.761   1.514  17.430  1.3617  0.2992 -1.0416
  205MPD1     C 3166   0.267   0.101  16.790  0.8706 -0.3014 -0.1931
  205MPD1    C1 3167   0.233   4.724  16.848  0.3647 -0.1126 -0.2857
  205MPD1    C2 3168   0.308   4.684  16.958 -0.0125  0.4932 -0.3191
  205MPD1    C3 3169   0.418   0.009  17.003 -0.0531 -0.6800 -0.1772
  205MPD1    C4 3170   0.456   0.121  16.929  0.7594  0.2220  0.0275
  205MPD1    C5 3171   0.376   0.166  16.831 -0.8098 -0.0541 -0.1603
  205MPD1     H 3172   0.285   4.584  16.995 -0.0838  0.4220 -0.5583
  205MPD1    H1 3173   0.551   0.169  16.949  0.8151 -0.2802  0.9629
  205MPD1    H2 3174   0.214   0.142  16.705 -0.6500 -1.4912  0.1918
  205MPD1    H3 3175   0.402   0.261  16.785 -3.2294  0.2714 -0.8622
  205MPD1     N 3176   0.511   4.710  17.111 -0.3574 -0.5589  0.2783
  205MPD1    H5 3177   0.599   0.019  17.122  0.7686 -2.4546 -0.0859
  205MPD1    N1 3178   0.125   4.652  16.798 -0.1810 -0.4341  0.1181
  205MPD1    H6 3179   0.103   4.683  16.704  2.8616 -0.9603 -0.7874
  205MPD1    H7 3180   0.138   4.551  16.794  0.2501 -0.4205  1.1456
  206MPD1     C 3181   1.928   3.004  16.537 -0.5634  0.4540  0.3107
  206MPD1    C1 3182   1.904   2.874  16.570  0.1796  0.7478  0.6520
  206MPD1    C2 3183   1.800   2.806  16.506  0.2386  0.5017  0.2384
  206MPD1    C3 3184   1.721   2.864  16.403 -0.1264  0.3474 -0.1666
  206MPD1    C4 3185   1.760   2.988  16.359 -0.2942 -0.7659 -0.1122
  206MPD1    C5 3186   1.856   3.058  16.432 -0.2053  0.2759  0.3467
  206MPD1     H 3187   1.779   2.705  16.539  0.5471 -0.6895 -3.2569
  206MPD1    H1 3188   1.702   3.027  16.277 -1.2645 -0.5507  0.6858
  206MPD1    H2 3189   1.997   3.066  16.593  1.4533 -1.3971 -0.1258
  206MPD1    H3 3190   1.863   3.164  16.407 -2.4411  0.2696 -0.3329
  206MPD1     N 3191   1.619   2.810  16.334  0.4308 -0.0664 -0.2372
  206MPD1    H5 3192   1.599   2.863  16.250 -0.5651 -0.3576 -0.1815
  206MPD1    N1 3193   1.948   2.828  16.691 -0.0578 -0.6521  0.2476
  206MPD1    H6 3194   2.036   2.876  16.709 -0.3449 -0.8517  2.1054
  206MPD1    H7 3195   1.974   2.732  16.671 -0.5504 -0.6425 -0.4576
  207MPD1     C 3196   3.876   3.939   9.770  0.0332 -0.1960  0.3818
  207MPD1    C1 3197   3.964   3.906   9.870  0.2876  0.1418 -0.1671
  207MPD1    C2 3198   4.029   4.013   9.927  0.1409 -1.1285  0.8068
  207MPD1    C3 3199   4.000   4.146   9.888  0.3666 -0.1078 -0.4949
  207MPD1    C4 3200   3.896   4.173   9.802 -0.0109 -0.1637 -0.5422
  207MPD1    C5 3201   3.847   4.068   9.737 -0.7833  0.8147 -0.1009
  207MPD1     H 3202   4.109   4.004   9.999 -1.0564 -1.6229  2.0623
  207MPD1    H1 3203   3.870   4.276   9.779  1.1578  0.7219  2.1616
  207MPD1    H2 3204   3.832   3.859   9.712 -2.3502  0.0308  1.8600
  207MPD1    H3 3205   3.777   4.081   9.656 -0.4126  0.3873 -0.4853
  207MPD1     N 3206   4.078   4.246   9.945 -0.2209 -0.1286  0.5341
  207MPD1    H5 3207   4.147   4.222  10.015  0.3228 -0.5125 -0.1312
  207MPD1    N1 3208   4.000   3.777   9.902  0.0097 -0.2433  0.4941
  207MPD1    H6 3209   4.041   3.769   9.995  0.0979  1.1728  0.5674
  207MPD1    H7 3210   3.926   3.708   9.904 -1.5431  1.4801  1.9704
  208MPD1     C 3211   1.817   4.555  17.234  0.8351 -0.8159 -0.6248
  208MPD1    C1 3212   1.681   4.564  17.246 -0.3116 -0.6851  0.2244
  208MPD1    C2 3213   1.615   4.467  17.333  0.3093  0.0471  0.4831
  208MPD1    C3 3214   1.682   4.386  17.422  0.0736 -0.4101  0.3105
  208MPD1    C4 3215   1.823   4.403  17.418  0.5097  0.1646 -1.0605
  208MPD1    C5 3216   1.884   4.475  17.319  0.4767  0.5205  0.2819
  208MPD1     H 3217   1.509   4.450  17.320  0.9728 -2.7059 -1.3071
  208MPD1    H1 3218   1.898   4.340  17.464 -1.2863 -0.1200  1.4804
  208MPD1    H2 3219   1.869   4.610  17.156  0.1074  0.2995 -0.3225
  208MPD1    H3 3220   1.992   4.473  17.303  0.4094 -2.0128  0.1394
  208MPD1     N 3221   1.619   4.281  17.494  0.1040  0.0571 -1.0153
  208MPD1    H5 3222   1.518   4.278  17.499  0.2392 -1.2172  0.7185
  208MPD1    N1 3223   1.605   4.629  17.144  0.2461 -0.4211 -0.3914
  208MPD1    H6 3224   1.521   4.667  17.187  2.4588  1.3717  2.3674
  208MPD1    H7 3225   1.645   4.710  17.097 -1.8162  2.0780  2.1813
  209MPD1     C 3226   4.422   4.185  11.666  0.1755  0.1956  0.1403
  209MPD1    C1 3227   4.469   4.157  11.542  0.5596  0.4567 -1.0323
  209MPD1    C2 3228   4.425   4.237  11.436 -0.2630  0.4064 -0.4757
  209MPD1    C3 3229   4.346   4.344  11.460  0.1035 -0.6553 -0.1256
  209MPD1    C4 3230   4.302   4.365  11.590 -0.1478 -0.6532  0.4082
  209MPD1    C5 3231   4.337   4.288  11.694  0.2871 -0.2394 -0.3338
  209MPD1     H 3232   4.467   4.208  11.340  1.9773 -1.1289  0.9817
  209MPD1    H1 3233   4.236   4.446  11.620  2.3954  1.1021  1.4119
  209MPD1    H2 3234   4.449   4.128  11.754  1.6494 -0.1595 -0.5478
  209MPD1    H3 3235   4.303   4.310  11.794 -0.3336 -0.4925 -0.4859
  209MPD1     N 3236   4.316   4.430  11.354  0.0235 -0.8612  0.2629
  209MPD1    H5 3237   4.372   4.423  11.269  1.6798 -0.2766  1.2950
  209MPD1    N1 3238   4.535   4.036  11.519  0.0133 -0.2426  0.3199
  209MPD1    H6 3239   4.573   4.028  11.426 -0.8542 -3.0221  0.1963
  209MPD1    H7 3240   4.600   4.001  11.589  0.1752  1.3529  0.9735
  210MPD1     C 3241   4.171   0.678  11.349 -0.5962  0.3559  0.2556
  210MPD1    C1 3242   4.242   0.643  11.240  0.5120  0.0784  0.1561
  210MPD1    C2 3243   4.270   0.513  11.211 -0.1614 -0.2820 -0.6948
  210MPD1    C3 3244   4.235   0.412  11.295 -0.3774  0.1807 -0.1228
  210MPD1    C4 3245   4.161   0.446  11.403 -0.1014  0.5080  0.7521
  210MPD1    C5 3246   4.133   0.576  11.436 -0.4311 -0.3615 -0.2195
  210MPD1     H 3247   4.330   0.499  11.121  1.5882  0.9097  0.2765
  210MPD1    H1 3248   4.126   0.367  11.469  3.0003 -0.7703  0.9016
  210MPD1    H2 3249   4.138   0.780  11.368 -3.1859 -0.3832 -0.2861
  210MPD1    H3 3250   4.088   0.590  11.533  0.3893  0.0729  0.0891
  210MPD1     N 3251   4.253   0.272  11.271  0.1403 -0.4400 -0.2073
  210MPD1    H5 3252   4.224   0.214  11.349 -0.3782 -0.8382 -0.7057
  210MPD1    N1 3253   4.272   0.739  11.145  0.4455 -0.1189  0.3642
  210MPD1    H6 3254   4.351   0.724  11.082  0.7351 -0.4291  0.8057
  210MPD1    H7 3255   4.275   0.832  11.187  0.2293  0.1165 -0.1345
  211MPD1     C 3256   1.189   3.905  16.045 -0.5388 -0.2753 -0.4226
  211MPD1    C1 3257   1.252   4.006  16.100  0.0568 -0.6185  0.1102
  211MPD1    C2 3258   1.184   4.128  16.109  0.5748  0.4131 -0.3821
  211MPD1    C3 3259   1.055   4.143  16.063 -0.1337 -0.5933  0.1766
  211MPD1    C4 3260   0.997   4.035  16.011 -0.3391 -0.2021  1.0323
  211MPD1    C5 3261   1.060   3.912  15.997 -0.5584  0.0713 -0.2279
  211MPD1     H 3262   1.239   4.211  16.151 -0.2292  0.0274  1.3914
  211MPD1    H1 3263   0.892   4.038  15.983 -0.0091 -0.0153 -0.1610
  211MPD1    H2 3264   1.246   3.813  16.034 -0.8187 -0.7228  1.8751
  211MPD1    H3 3265   1.014   3.822  15.957 -0.1659  0.2575 -1.1007
  211MPD1     N 3266   0.989   4.263  16.092  0.2790  0.0469 -0.1428
  211MPD1    H5 3267   1.027   4.336  16.151  1.1218 -1.3302  1.0164
  211MPD1    N1 3268   1.376   3.984  16.163 -0.1690 -0.3457  0.0115
  211MPD1    H6 3269   1.367   3.929  16.248  2.1277 -0.0381  0.4499
  211MPD1    H7 3270   1.413   4.068  16.206 -0.8804  1.0562 -2.0825
  212MPD1     C 3271   1.176   2.518  16.545 -0.7113 -0.1707 -0.7019
  212MPD1    C1 3272   1.149   2.570  16.671  0.4918  0.0455 -0.3764
  212MPD1    C2 3273   1.047   2.517  16.743  0.9716 -0.3940 -0.5106
  212MPD1    C3 3274   0.955   2.430  16.682 -0.0753  0.6687 -0.4375
  212MPD1    C4 3275   0.977   2.391  16.557  0.2818  0.2488 -0.4569
  212MPD1    C5 3276   1.091   2.434  16.485 -0.4995 -0.5274  0.1714
  212MPD1     H 3277   1.037   2.542  16.848  1.7481  1.9367 -0.9983
  212MPD1    H1 3278   0.910   2.324  16.504 -1.7127 -1.2494  3.9381
  212MPD1    H2 3279   1.271   2.543  16.499  0.0171 -0.1507  0.8118
  212MPD1    H3 3280   1.110   2.398  16.385 -2.3092  0.4209 -0.5126
  212MPD1     N 3281   0.850   2.367  16.755  0.3701 -0.1204  0.6668
  212MPD1    H5 3282   0.796   2.301  16.700 -1.1011  2.5596 -1.0751
  212MPD1    N1 3283   1.239   2.657  16.731 -0.0947  0.3641 -0.3921
  212MPD1    H6 3284   1.196   2.709  16.808  0.3831 -0.3061  0.3356
  212MPD1    H7 3285   1.275   2.727  16.666 -1.4958  2.3729  0.9848
  213MPD1     C 3286   3.355   2.923  16.004 -0.4050  0.1301 -0.0833
  213MPD1    C1 3287   3.273   2.847  15.927  0.3347  0.5922 -0.1387
  213MPD1    C2 3288   3.250   2.891  15.799  0.2047 -0.0402 -0.5682
  213MPD1    C3 3289   3.331   2.975  15.732  0.1725  0.2848  0.2195
  213MPD1    C4 3290   3.427   3.035  15.805  0.3693  0.0904 -0.1610
  213MPD1    C5 3291   3.437   3.004  15.941 -0.0244 -0.3878 -0.0009
  213MPD1     H 3292   3.185   2.836  15.732 -0.2196 -0.4448  0.1758
  213MPD1    H1 3293   3.500   3.108  15.772 -2.1711  1.3378 -2.9356
  213MPD1    H2 3294   3.362   2.899  16.109 -0.5515  3.0069  0.5615
  213MPD1    H3 3295   3.520   3.049  15.994  1.3021 -1.0605 -1.5299
  213MPD1     N 3296   3.307   2.996  15.595 -0.2907  0.2559 -0.1523
  213MPD1    H5 3297   3.259   2.915  15.557  0.5869  1.1634 -3.1397
  213MPD1    N1 3298   3.164   2.788  15.998 -0.5169  0.1351  0.3584
  213MPD1    H6 3299   3.115   2.722  15.938 -0.8274 -0.1262  0.8965
  213MPD1    H7 3300   3.194   2.739  16.083 -2.7797 -0.7500  0.6622
  214MPD1     C 3301   3.084   2.402  14.850 -0.4087 -0.2066 -0.3222
  214MPD1    C1 3302   3.003   2.471  14.939  0.4119  0.2579  0.0999
  214MPD1    C2 3303   3.052   2.581  15.009  0.0845  0.4861 -0.2127
  214MPD1    C3 3304   3.182   2.628  14.983  0.3901  0.3794 -0.2127
  214MPD1    C4 3305   3.259   2.568  14.883 -0.0315 -0.5491  0.2364
  214MPD1    C5 3306   3.208   2.451  14.823 -0.4609 -0.4187  0.4327
  214MPD1     H 3307   2.994   2.623  15.091 -2.8227 -0.2462 -1.8999
  214MPD1    H1 3308   3.361   2.602  14.866 -0.5508  0.8256 -0.1544
  214MPD1    H2 3309   3.039   2.318  14.799 -0.7903 -0.5585  0.6041
  214MPD1    H3 3310   3.271   2.391  14.758  0.5589  0.8572  0.2601
  214MPD1     N 3311   3.238   2.742  15.042 -0.3629  0.0277 -0.0718
  214MPD1    H5 3312   3.322   2.773  14.994  1.0103  0.7437  2.7758
  214MPD1    N1 3313   2.886   2.423  14.997  0.0067 -0.4092  0.0756
  214MPD1    H6 3314   2.832   2.362  14.936 -1.6997  1.3750 -0.1921
  214MPD1    H7 3315   2.822   2.493  15.033 -1.9605 -2.5841  0.8737
  215MPD1     C 3316   4.331   3.404  11.168 -0.0740  0.1891  0.1108
  215MPD1    C1 3317   4.235   3.408  11.265 -0.7790 -0.0762  0.4491
  215MPD1    C2 3318   4.207   3.529  11.328  0.3225 -0.3495 -0.4992
  215MPD1    C3 3319   4.276   3.643  11.299 -0.2746  0.4386 -0.2642
  215MPD1    C4 3320   4.379   3.635  11.202  0.1345 -0.3040  0.5909
  215MPD1    C5 3321   4.413   3.512  11.153 -0.5937  0.0944 -0.1323
  215MPD1     H 3322   4.112   3.532  11.380  0.7615  0.6964  0.2315
  215MPD1    H1 3323   4.438   3.724  11.182 -0.7608  0.1135 -0.1896
  215MPD1    H2 3324   4.359   3.310  11.123 -1.2758  0.0639 -0.3631
  215MPD1    H3 3325   4.488   3.502  11.075  0.0455 -1.0958  0.6458
  215MPD1     N 3326   4.234   3.765  11.357  0.2756  0.6860  0.5700
  215MPD1    H5 3327   4.155   3.757  11.421  0.3519 -0.4231  0.5247
  215MPD1    N1 3328   4.143   3.305  11.282 -0.6841 -0.3415  0.3144
  215MPD1    H6 3329   4.097   3.307  11.373 -0.3830  0.6101  0.4441
  215MPD1    H7 3330   4.174   3.213  11.252 -1.9137 -1.1754  1.5790
  216MPD1     C 3331   1.074   1.991  16.438  0.2330 -0.2545 -0.1329
  216MPD1    C1 3332   1.000   1.870  16.453  0.3090 -0.3156 -0.7560
  216MPD1    C2 3333   0.954   1.847  16.580 -0.3871 -0.2324 -0.0761
  216MPD1    C3 3334   0.991   1.917  16.690  0.0488 -0.0092 -0.2004
  216MPD1    C4 3335   1.067   2.033  16.673  0.5037  0.3844 -0.1078
  216MPD1    C5 3336   1.118   2.054  16.548 -0.4052  0.7218  0.1909
  216MPD1     H 3337   0.879   1.774  16.607 -0.2450 -1.0459 -1.8335
  216MPD1    H1 3338   1.110   2.086  16.758  1.8190 -0.2194 -0.3996
  216MPD1    H2 3339   1.114   2.019  16.342  1.8242 -1.2563  0.2445
  216MPD1    H3 3340   1.189   2.134  16.530  0.3592  0.2028  0.9061
  216MPD1     N 3341   0.944   1.876  16.813  0.2744 -0.4856 -0.4850
  216MPD1    H5 3342   0.885   1.794  16.818 -2.4639  1.4178 -0.9513
  216MPD1    N1 3343   0.933   1.805  16.345 -0.7554 -0.2279 -0.7954
  216MPD1    H6 3344   0.995   1.785  16.267  0.4680  1.9920 -0.4021
  216MPD1    H7 3345   0.895   1.712  16.365  1.6807 -1.3432 -1.4005
  217MPD1     C 3346   1.234   2.395   8.506  0.3920  0.2902 -0.5250
  217MPD1    C1 3347   1.362   2.350   8.550  0.0224 -0.1449 -0.2626
  217MPD1    C2 3348   1.441   2.440   8.632 -0.7065  0.6046  0.0994
  217MPD1    C3 3349   1.398   2.569   8.659 -0.2168 -0.1564  1.1143
  217MPD1    C4 3350   1.267   2.599   8.628  0.0169  0.8261  0.1140
  217MPD1    C5 3351   1.182   2.519   8.551  0.2690  0.0191 -0.6163
  217MPD1     H 3352   1.531   2.403   8.679 -0.7717 -0.0998 -0.3212
  217MPD1    H1 3353   1.215   2.685   8.671 -0.6205  1.0699 -1.1456
  217MPD1    H2 3354   1.157   2.339   8.455  0.5597  1.1836 -1.7537
  217MPD1    H3 3355   1.081   2.549   8.524 -0.9822 -2.3858  1.3917
  217MPD1     N 3356   1.479   2.657   8.738 -0.2606 -0.8736  0.5393
  217MPD1    H5 3357   1.424   2.738   8.764  0.6266 -0.2760  0.5361
  217MPD1    N1 3358   1.389   2.218   8.522  0.4177 -0.1579 -0.7772
  217MPD1    H6 3359   1.486   2.192   8.504  1.1235 -0.2387  3.2236
  217MPD1    H7 3360   1.332   2.186   8.443  0.6859  1.3165 -1.5649
  218MPD1     C 3361   2.851   0.269  12.777 -0.0279 -0.1261 -0.1060
  218MPD1    C1 3362   2.956   0.292  12.695 -0.6172  0.8382  0.3218
  218MPD1    C2 3363   3.052   0.190  12.687 -0.4564  0.4245 -0.7210
  218MPD1    C3 3364   3.030   0.058  12.728 -0.5596 -0.0680  0.4948
  218MPD1    C4 3365   2.910   0.028  12.787 -0.1386  0.8273  0.0810
  218MPD1    C5 3366   2.831   0.136  12.819 -0.7238  0.2739  0.2630
  218MPD1     H 3367   3.148   0.209  12.639 -0.4632 -0.8714 -1.2387
  218MPD1    H1 3368   2.884   4.677  12.837 -1.1888  0.8132 -0.4921
  218MPD1    H2 3369   2.779   0.343  12.809  1.5335  1.6743 -0.7018
  218MPD1    H3 3370   2.739   0.124  12.875 -2.0826  0.4399 -1.9357
  218MPD1     N 3371   3.123   4.698  12.696 -0.3690 -0.1523  0.5049
  218MPD1    H5 3372   3.213   4.730  12.661 -0.2346  0.2097  1.1820
  218MPD1    N1 3373   2.982   0.419  12.653  0.0325 -0.5579  0.1197
  218MPD1    H6 3374   2.908   0.488  12.656  1.5532  1.0819  0.4371
  218MPD1    H7 3375   3.052   0.437  12.581  0.7643 -1.2240  0.6629
  219MPD1     C 3376   3.603   0.072  12.000 -0.3096  0.0383 -1.0303
  219MPD1    C1 3377   3.693   0.008  12.095  0.5759  0.6158 -0.2842
  219MPD1    C2 3378   3.634   4.695  12.209  0.0370  0.0302  0.1888
  219MPD1    C3 3379   3.499   4.708  12.236 -0.3891  0.1955  0.0466
  219MPD1    C4 3380   3.414   0.034  12.149  0.0300  0.5777  0.1752
  219MPD1    C5 3381   3.467   0.083  12.030  0.5827  0.8898  0.0351
  219MPD1     H 3382   3.694   4.633  12.274  0.5882  1.3817  0.9612
  219MPD1    H1 3383   3.308   0.030  12.173 -0.1955 -3.2470 -1.4402
  219MPD1    H2 3384   3.632   0.113  11.904 -1.2855  0.0476 -1.3244
  219MPD1    H3 3385   3.397   0.118  11.954 -0.4483 -1.4602 -0.0982
  219MPD1     N 3386   3.441   4.647  12.353 -0.2695 -0.7022  0.3702
  219MPD1    H5 3387   3.340   4.641  12.364 -0.2756 -0.6358  0.3527
  219MPD1    N1 3388   3.833   4.740  12.067  0.5968 -0.2388 -0.4945
  219MPD1    H6 3389   3.893   4.712  12.144  1.4707 -0.1281 -1.1412
  219MPD1    H7 3390   3.869   0.079  12.016  1.1208 -2.1772 -3.1578
  220MPD1     C 3391   4.165   3.449  10.127 -0.6458 -0.0165  0.6442
  220MPD1    C1 3392   4.051   3.414  10.189 -0.2462 -0.5224 -0.3651
  220MPD1    C2 3393   3.986   3.511  10.256  0.1819  0.0263  0.1889
  220MPD1    C3 3394   4.022   3.640  10.250  0.6829 -0.2514 -0.2429
  220MPD1    C4 3395   4.140   3.675  10.185 -0.0406 -0.2511  0.6113
  220MPD1    C5 3396   4.211   3.576  10.121 -0.5109 -0.1529 -0.0771
  220MPD1     H 3397   3.905   3.472  10.318 -1.8792  1.3361 -1.6681
  220MPD1    H1 3398   4.174   3.777  10.172  0.9404 -0.9593 -2.3765
  220MPD1    H2 3399   4.219   3.383  10.061  0.8727  1.7596  0.1306
  220MPD1    H3 3400   4.300   3.600  10.064 -1.4731  0.8171 -1.1714
  220MPD1     N 3401   3.937   3.737  10.295  0.3406 -0.1310 -0.0355
  220MPD1    H5 3402   3.845   3.708  10.325  1.2463 -1.8130  1.0699
  220MPD1    N1 3403   4.025   3.275  10.203  0.5565 -0.1591  0.6044
  220MPD1    H6 3404   3.932   3.251  10.237 -0.6743  0.1506 -2.5852
  220MPD1    H7 3405   4.045   3.231  10.114 -1.0704 -0.1575  0.2398
  221MPD1     C 3406   0.522   4.519  16.629  0.0297 -0.7515  0.4824
  221MPD1    C1 3407   0.537   4.444  16.520  0.0501  0.7271  0.1816
  221MPD1    C2 3408   0.654   4.379  16.497 -0.1276  0.3249 -0.2605
  221MPD1    C3 3409   0.764   4.393  16.576 -0.0742 -0.1438  0.2088
  221MPD1    C4 3410   0.749   4.477  16.690 -0.5289 -0.0330 -0.0331
  221MPD1    C5 3411   0.632   4.537  16.711 -1.5753 -0.6916 -0.3399
  221MPD1     H 3412   0.656   4.312  16.412 -1.6803  0.7366 -0.6115
  221MPD1    H1 3413   0.822   4.489  16.769  0.9063  1.6666 -1.6099
  221MPD1    H2 3414   0.428   4.569  16.650 -0.8169 -0.8138 -3.2671
  221MPD1    H3 3415   0.628   4.593  16.803  2.7700 -0.2133 -0.4665
  221MPD1     N 3416   0.880   4.312  16.569 -0.0378 -0.0915 -0.3560
  221MPD1    H5 3417   0.941   4.325  16.650 -0.9407  2.9867 -0.2039
  221MPD1    N1 3418   0.432   4.434  16.428 -0.4583 -0.3365 -0.0032
  221MPD1    H6 3419   0.443   4.352  16.368  2.3984  1.8557 -2.4586
  221MPD1    H7 3420   0.342   4.424  16.474 -0.0132 -1.4438  0.6398
  222MPD1     C 3421   0.294   2.330   0.431  0.2667 -0.5716  0.5791
  222MPD1    C1 3422   0.312   2.359   0.565  0.1065  0.0337 -0.3322
  222MPD1    C2 3423   0.370   2.473   0.608  0.0450 -0.6505 -0.7498
  222MPD1    C3 3424   0.418   2.566   0.514  0.2798 -0.5208  0.2622
  222MPD1    C4 3425   0.388   2.543   0.376  0.5577  0.2455  0.0330
  222MPD1    C5 3426   0.334   2.420   0.338 -0.7027  0.5288 -0.4584
  222MPD1     H 3427   0.388   2.492   0.713  0.4141  1.9554 -1.2870
  222MPD1    H1 3428   0.424   2.611   0.299  1.2441  0.7853  0.8311
  222MPD1    H2 3429   0.241   2.244   0.391  0.6698 -0.8286  0.6042
  222MPD1    H3 3430   0.330   2.395   0.232  1.1090  2.7152 -1.0699
  222MPD1     N 3431   0.486   2.685   0.546  0.3049  0.4627 -0.1050
  222MPD1    H5 3432   0.479   2.753   0.471  1.3078  0.5732 -0.0916
  222MPD1    N1 3433   0.250   2.275   0.665 -0.1642  0.3139 -0.3270
  222MPD1    H6 3434   0.311   2.259   0.745 -0.3951  2.4004  0.2623
  222MPD1    H7 3435   0.231   2.178   0.643  1.0492  0.3214 -1.4156
  223MPD1     C 3436   0.454   3.422   1.351  0.1932 -0.5568 -0.2983
  223MPD1    C1 3437   0.478   3.492   1.232 -0.3361  0.6456 -0.4565
  223MPD1    C2 3438   0.492   3.418   1.115 -0.4489 -0.2394 -0.0244
  223MPD1    C3 3439   0.499   3.285   1.123 -0.0831  0.1212 -0.1592
  223MPD1    C4 3440   0.487   3.219   1.244  0.5282 -0.4906 -0.1829
  223MPD1    C5 3441   0.444   3.286   1.353 -0.4328 -0.1912  0.1682
  223MPD1     H 3442   0.499   3.465   1.018 -1.6350  1.6980  0.8270
  223MPD1    H1 3443   0.492   3.111   1.254  0.2918 -0.5668 -0.9376
  223MPD1    H2 3444   0.441   3.474   1.445 -1.5686  0.1074 -0.8965
  223MPD1    H3 3445   0.420   3.232   1.444 -0.0302 -1.0252 -0.2150
  223MPD1     N 3446   0.527   3.209   1.005 -0.3030 -0.6428  0.4958
  223MPD1    H5 3447   0.534   3.260   0.918 -0.7348 -1.0459  0.2267
  223MPD1    N1 3448   0.468   3.630   1.220 -0.4496  0.1901 -0.0325
  223MPD1    H6 3449   0.541   3.663   1.156 -1.1245 -1.2092 -1.5184
  223MPD1    H7 3450   0.472   3.680   1.309 -1.7299 -1.1314  0.7790
  224MPD1     C 3451   1.872   3.126   8.805 -0.1215  0.0119 -0.7408
  224MPD1    C1 3452   1.768   3.210   8.853 -0.0551  1.0908 -0.2786
  224MPD1    C2 3453   1.788   3.274   8.972  0.2652 -0.5507 -0.2252
  224MPD1    C3 3454   1.895   3.258   9.048  0.1579 -0.3335 -0.6953
  224MPD1    C4 3455   1.979   3.163   9.014 -0.1046  0.2634 -0.0833
  224MPD1    C5 3456   1.976   3.101   8.889  0.5430 -0.4867  0.1315
  224MPD1     H 3457   1.717   3.350   9.004 -1.5057 -3.1189  1.8229
  224MPD1    H1 3458   2.067   3.134   9.071 -1.4719  0.7831  2.2698
  224MPD1    H2 3459   1.873   3.099   8.700  1.7834 -0.1286 -0.6892
  224MPD1    H3 3460   2.056   3.037   8.855  1.2680  0.6800 -0.3811
  224MPD1     N 3461   1.930   3.326   9.172 -0.1148  0.5585  0.5231
  224MPD1    H5 3462   2.020   3.298   9.211 -0.3422 -2.9146 -1.3965
  224MPD1    N1 3463   1.668   3.257   8.763 -0.3303 -0.0852  0.2358
  224MPD1    H6 3464   1.589   3.304   8.807 -0.8860  1.0287 -1.9595
  224MPD1    H7 3465   1.633   3.190   8.695  2.2903 -0.7445 -0.4712
  225MPD1     C 3466   2.725   0.810  12.187 -0.1764 -0.1335  0.2346
  225MPD1    C1 3467   2.658   0.768  12.304 -0.4215  0.3226 -0.2175
  225MPD1    C2 3468   2.664   0.637  12.347  0.1879 -0.3260  0.4048
  225MPD1    C3 3469   2.712   0.538  12.265 -0.5353  0.4261 -0.4947
  225MPD1    C4 3470   2.767   0.577  12.148  0.4436  0.0949  0.5840
  225MPD1    C5 3471   2.779   0.710  12.112  0.3022 -0.6696  0.9023
  225MPD1     H 3472   2.620   0.612  12.443 -0.0554  1.0872  0.6711
  225MPD1    H1 3473   2.799   0.496  12.083  3.1330  1.1818  0.5721
  225MPD1    H2 3474   2.732   0.915  12.160  1.8669 -0.6930 -1.3618
  225MPD1    H3 3475   2.826   0.737  12.018  0.1334 -0.4041  0.8946
  225MPD1     N 3476   2.717   0.410  12.312  0.0452  0.3115 -0.1694
  225MPD1    H5 3477   2.693   0.396  12.410  0.7601 -1.4506 -0.2616
  225MPD1    N1 3478   2.614   0.870  12.393 -0.1151 -0.1872 -0.1703
  225MPD1    H6 3479   2.688   0.931  12.428  2.7087 -0.6548 -5.3438
  225MPD1    H7 3480   2.565   0.818  12.465  1.1149 -0.5489  0.4082
  226MPD1     C 3481   1.795   0.858  10.396 -0.3618  0.3050  0.3645
  226MPD1    C1 3482   1.849   0.758  10.480 -1.7358 -0.2365  0.5436
  226MPD1    C2 3483   1.884   0.640  10.424  0.4108 -0.1964 -0.0855
  226MPD1    C3 3484   1.844   0.609  10.295 -0.3525 -0.7737  0.1589
  226MPD1    C4 3485   1.771   0.704  10.220  0.5544 -0.1959  0.6593
  226MPD1    C5 3486   1.743   0.826  10.275  0.0659 -0.0230  0.2422
  226MPD1     H 3487   1.910   0.556  10.487  1.0933  0.0885  0.0136
  226MPD1    H1 3488   1.742   0.672  10.120  0.6237  0.6911  0.3609
  226MPD1    H2 3489   1.764   0.949  10.444  0.2035 -0.6039  2.4355
  226MPD1    H3 3490   1.677   0.889  10.216  0.9496  0.0360 -0.6764
  226MPD1     N 3491   1.864   0.481  10.237  0.0834 -0.1822 -0.2120
  226MPD1    H5 3492   1.891   0.416  10.310 -0.2048 -0.2405 -0.1540
  226MPD1    N1 3493   1.895   0.786  10.609  0.3538  0.3080  0.1969
  226MPD1    H6 3494   1.841   0.858  10.657 -0.0031  0.5165 -0.5300
  226MPD1    H7 3495   1.896   0.703  10.668 -0.9399  0.7736  0.8843
  227MPD1     C 3496   2.272   4.713  10.730  0.3840  0.0637  0.0891
  227MPD1    C1 3497   2.211   0.094  10.721  0.2017 -0.8835 -0.4780
  227MPD1    C2 3498   2.164   0.130  10.597  0.2773  0.6004 -0.8139
  227MPD1    C3 3499   2.193   0.068  10.480  0.5077 -0.4039  0.2813
  227MPD1    C4 3500   2.276   4.697  10.483 -0.7391  0.1208  0.3235
  227MPD1    C5 3501   2.309   4.651  10.609  0.2902 -0.1432 -0.0226
  227MPD1     H 3502   2.105   0.220  10.581 -1.1547  0.2900  2.8951
  227MPD1    H1 3503   2.309   4.637  10.399  1.4324 -0.3323  1.5236
  227MPD1    H2 3504   2.312   4.680  10.825  0.3226 -1.0880 -0.2817
  227MPD1    H3 3505   2.359   4.556  10.624  1.7302  0.6336  0.0562
  227MPD1     N 3506   2.127   0.119  10.364 -0.2834  0.1784  0.4605
  227MPD1    H5 3507   2.064   0.197  10.380 -1.0410 -0.4392  0.4858
  227MPD1    N1 3508   2.169   0.155  10.840 -0.6572 -0.0721 -0.3544
  227MPD1    H6 3509   2.235   0.129  10.914  0.7201  0.6276 -1.3488
  227MPD1    H7 3510   2.181   0.251  10.811 -4.3660  0.1171 -1.1439
  228MPD1     C 3511   0.389   2.981  12.916  0.0594  0.5253  0.3620
  228MPD1    C1 3512   0.328   3.060  12.820 -0.1072 -0.3187 -0.2950
  228MPD1    C2 3513   0.192   3.091  12.847  0.0199 -0.7537  0.2182
  228MPD1    C3 3514   0.122   3.053  12.958  0.2546 -0.7016 -0.0315
  228MPD1    C4 3515   0.192   2.983  13.053  0.3088  0.5871  0.8733
  228MPD1    C5 3516   0.325   2.948  13.029 -0.4024 -0.3332 -0.8758
  228MPD1     H 3517   0.125   3.137  12.776  1.9263  0.9245 -0.4826
  228MPD1    H1 3518   0.144   2.947  13.143 -0.3192  1.4962  0.8947
  228MPD1    H2 3519   0.486   2.936  12.903 -0.7044 -0.5167 -1.7163
  228MPD1    H3 3520   0.379   2.890  13.103  0.4156 -0.7205 -1.7799
  228MPD1     N 3521   4.728   3.079  12.963 -0.7787  0.5702  0.8056
  228MPD1    H5 3522   4.691   3.143  12.893 -0.1690  1.1628  1.0331
  228MPD1    N1 3523   0.375   3.078  12.687 -0.0015 -0.0874  0.1956
  228MPD1    H6 3524   0.476   3.090  12.687  0.0208 -0.2695  0.4489
  228MPD1    H7 3525   0.329   3.144  12.624 -1.4470 -0.4784  0.8260
  229MPD1     C 3526   3.866   1.643  15.018  0.3170  0.4352 -0.2072
  229MPD1    C1 3527   3.860   1.535  14.928 -0.1083 -0.7389 -0.3067
  229MPD1    C2 3528   3.915   1.413  14.971  0.2939 -0.3879  0.2994
  229MPD1    C3 3529   3.988   1.400  15.088  0.1439 -0.4000  0.3874
  229MPD1    C4 3530   3.997   1.514  15.165 -0.3429 -0.1229 -0.4314
  229MPD1    C5 3531   3.942   1.630  15.130 -0.0960  0.1520  0.3037
  229MPD1     H 3532   3.891   1.324  14.914  2.3050  0.0056 -1.1480
  229MPD1    H1 3533   4.045   1.504  15.262 -0.0536  0.3074 -0.5305
  229MPD1    H2 3534   3.832   1.743  14.995 -0.3090  0.1099 -0.7187
  229MPD1    H3 3535   3.965   1.711  15.198  0.7062 -1.0053  1.3969
  229MPD1     N 3536   4.049   1.280  15.135 -1.3021  0.5437 -0.1310
  229MPD1    H5 3537   4.099   1.284  15.224  0.8724 -0.7379 -1.2964
  229MPD1    N1 3538   3.772   1.539  14.822  0.1409  0.1710 -0.0942
  229MPD1    H6 3539   3.742   1.634  14.800 -1.1700 -0.4446 -0.9424
  229MPD1    H7 3540   3.792   1.486  14.737 -2.8541 -1.9393  0.5348
  230MPD1     C 3541   4.563   0.887  15.866 -0.5463  0.7028  0.3489
  230MPD1    C1 3542   4.496   0.773  15.829  0.4665 -0.0917  0.1879
  230MPD1    C2 3543   4.423   0.779  15.712 -0.4995 -0.1591  0.1849
  230MPD1    C3 3544   4.420   0.894  15.636 -0.2357  0.3807  0.1758
  230MPD1    C4 3545   4.479   1.008  15.684 -0.5123  1.0794  0.2124
  230MPD1    C5 3546   4.542   1.006  15.804 -0.2439  0.1365  0.6226
  230MPD1     H 3547   4.388   0.684  15.673  1.7490 -1.0380  0.3252
  230MPD1    H1 3548   4.463   1.101  15.632 -0.1658  1.7610  1.3401
  230MPD1    H2 3549   4.633   0.891  15.948  0.9615  1.2063 -0.9644
  230MPD1    H3 3550   4.581   1.095  15.852  3.1821 -0.1281 -1.6822
  230MPD1     N 3551   4.339   0.882  15.515 -0.2313 -0.2061  0.0765
  230MPD1    H5 3552   4.284   0.800  15.493 -0.2543 -0.4810  1.1496
  230MPD1    N1 3553   4.543   0.655  15.887 -0.7045 -0.5797 -0.3228
  230MPD1    H6 3554   4.565   0.679  15.984 -2.0284 -0.2263 -0.1072
  230MPD1    H7 3555   4.486   0.572  15.872 -1.4134  0.2970 -2.4322
  231MPD1     C 3556   2.758   3.475  15.908 -0.2347  0.5225  0.2300
  231MPD1    C1 3557   2.828   3.590  15.889  0.1278  0.5608  0.1035
  231MPD1    C2 3558   2.902   3.611  15.773 -0.0183  0.2798  0.2684
  231MPD1    C3 3559   2.924   3.514  15.679  0.0938  0.3179  0.5083
  231MPD1    C4 3560   2.862   3.397  15.702  0.2068  0.0527  0.5450
  231MPD1    C5 3561   2.775   3.377  15.811 -0.2499  0.3483  0.0816
  231MPD1     H 3562   2.943   3.708  15.748 -1.7715  0.4942 -1.7945
  231MPD1    H1 3563   2.864   3.313  15.634 -2.1072  0.1883  0.3075
  231MPD1    H2 3564   2.700   3.460  15.999  1.7433 -1.0908  1.2062
  231MPD1    H3 3565   2.722   3.283  15.816  1.9280 -0.8198  1.0296
  231MPD1     N 3566   3.012   3.537  15.573 -0.6958  0.1459 -0.3966
  231MPD1    H5 3567   3.050   3.631  15.577  0.6113 -0.4766  1.3549
  231MPD1    N1 3568   2.804   3.697  15.974 -0.5409 -0.1325  0.4884
  231MPD1    H6 3569   2.795   3.669  16.071  1.2546 -1.8414  0.1691
  231MPD1    H7 3570   2.882   3.763  15.973  0.0148 -0.7837  1.2721
  232MPD1     C 3571   0.129   1.361   0.170 -0.7526  0.0583  0.9680
  232MPD1    C1 3572   0.035   1.463   0.199  0.7311  0.2687  0.2045
  232MPD1    C2 3573   4.650   1.424   0.228  0.1724  0.8606 -0.0805
  232MPD1    C3 3574   4.612   1.291   0.234  0.3624  0.1285 -0.4139
  232MPD1    C4 3575   4.706   1.191   0.205 -0.1846  0.0356  0.5328
  232MPD1    C5 3576   0.093   1.231   0.178 -0.1064 -0.3813 -0.1613
  232MPD1     H 3577   4.574   1.501   0.227 -0.5730  0.1149 -0.6114
  232MPD1    H1 3578   4.691   1.088   0.235 -1.1397 -0.4629 -1.6654
  232MPD1    H2 3579   0.225   1.380   0.126 -1.0752  1.5337  0.9072
  232MPD1    H3 3580   0.170   1.156   0.172 -0.2098 -0.2811 -3.0273
  232MPD1     N 3581   4.476   1.270   0.250  0.3116  0.1273  0.8812
  232MPD1    H5 3582   4.419   1.353   0.265 -0.2746  0.4251 -2.8548
  232MPD1    N1 3583   0.068   1.598   0.165 -0.5347  0.7647  0.2309
  232MPD1    H6 3584   4.738   1.658   0.206  0.1627 -0.0885  2.6881
  232MPD1    H7 3585   0.165   1.629   0.174 -0.4436  0.4661  0.2911
  233MPD1     C 3586   0.503   4.425   0.736 -0.4706 -0.7673 -0.3262
  233MPD1    C1 3587   0.633   4.421   0.689 -0.2388 -0.4635 -0.5207
  233MPD1    C2 3588   0.724   4.355   0.769  0.5990 -0.2097 -0.1156
  233MPD1    C3 3589   0.688   4.288   0.883 -0.6765  0.3881  0.0790
  233MPD1    C4 3590   0.557   4.305   0.930 -0.4769  0.5293  0.6469
  233MPD1    C5 3591   0.465   4.377   0.857 -0.3917  0.4556 -0.2433
  233MPD1     H 3592   0.825   4.356   0.730  1.5387 -2.2051  2.2728
  233MPD1    H1 3593   0.524   4.262   1.024 -2.4218  0.9737  0.1643
  233MPD1    H2 3594   0.426   4.470   0.674  0.3020  0.7773 -0.1526
  233MPD1    H3 3595   0.363   4.377   0.893 -0.2383 -0.7813  0.1701
  233MPD1     N 3596   0.785   4.209   0.957 -0.1480 -0.1383  0.1114
  233MPD1    H5 3597   0.763   4.191   1.055 -0.4627  2.2776  0.4884
  233MPD1    N1 3598   0.676   4.500   0.584  0.1161 -0.2848  0.2215
  233MPD1    H6 3599   0.767   4.489   0.540  0.0097  2.5985 -0.7138
  233MPD1    H7 3600   0.611   4.521   0.508 -0.0856 -0.4288  0.3538
  234MPD1     C 3601   3.275   2.561   9.774 -0.6205  0.6155 -0.5124
  234MPD1    C1 3602   3.181   2.571   9.882 -0.3169 -0.2925 -0.4131
  234MPD1    C2 3603   3.047   2.560   9.853  0.1121  0.0889  0.6980
  234MPD1    C3 3604   3.009   2.551   9.721  0.0365  0.2918 -0.2908
  234MPD1    C4 3605   3.107   2.535   9.616  0.9114  0.5622  0.0067
  234MPD1    C5 3606   3.237   2.536   9.648 -0.1707 -0.5190 -0.6063
  234MPD1     H 3607   2.977   2.564   9.936 -0.5490 -2.1001  0.2444
  234MPD1    H1 3608   3.084   2.524   9.510 -3.1001  1.5160  0.7647
  234MPD1    H2 3609   3.381   2.574   9.793 -0.5311  0.5556 -0.9833
  234MPD1    H3 3610   3.316   2.528   9.574  0.1614  0.7259 -0.3845
  234MPD1     N 3611   2.870   2.536   9.699  0.1149 -0.1907 -0.7061
  234MPD1    H5 3612   2.810   2.546   9.780  0.0588  0.4381 -0.8215
  234MPD1    N1 3613   3.232   2.562  10.005  0.2311  0.4602 -0.8589
  234MPD1    H6 3614   3.324   2.604  10.022 -0.9717  2.5186  0.4931
  234MPD1    H7 3615   3.166   2.618  10.057 -2.5886 -2.7617 -0.9580
  235MPD1     C 3616   3.799   4.566   9.998 -0.3945  0.7929  0.3775
  235MPD1    C1 3617   3.792   4.668   9.908 -1.0517 -0.3955  0.2269
  235MPD1    C2 3618   3.855   0.048   9.941  0.5229 -0.3584 -0.5985
  235MPD1    C3 3619   3.943   0.055  10.055 -0.2959 -0.2141  0.0406
  235MPD1    C4 3620   3.939   4.691  10.145 -0.3468 -0.6494  0.1719
  235MPD1    C5 3621   3.867   4.581  10.115 -0.5264  0.0373  0.5861
  235MPD1     H 3622   3.848   0.134   9.876  1.3156 -1.1662 -1.7461
  235MPD1    H1 3623   3.993   4.694  10.239  0.5346 -0.5163 -0.3419
  235MPD1    H2 3624   3.740   4.475   9.993  1.6639 -0.4495 -1.4603
  235MPD1    H3 3625   3.884   4.496  10.180  1.4774 -0.0875 -0.0911
  235MPD1     N 3626   4.024   0.168  10.072  0.1222  0.2208  0.1043
  235MPD1    H5 3627   4.024   0.244  10.004  2.3266  2.9412  3.1298
  235MPD1    N1 3628   3.716   4.657   9.794 -0.3785 -0.5327  0.0727
  235MPD1    H6 3629   3.768   4.670   9.707 -1.3626  2.2346 -0.0873
  235MPD1    H7 3630   3.671   4.566   9.789 -0.4249 -0.6440  2.4494
  236MPD1     C 3631   2.697   0.890   9.750  0.7347 -0.0495  0.0787
  236MPD1    C1 3632   2.798   0.990   9.737  0.0071  0.5281  0.1449
  236MPD1    C2 3633   2.918   0.972   9.798 -0.0090  0.1130  0.5896
  236MPD1    C3 3634   2.931   0.869   9.897 -0.2848  0.4274  0.6951
  236MPD1    C4 3635   2.833   0.772   9.903  0.3104  0.4958  0.2846
  236MPD1    C5 3636   2.723   0.777   9.820 -0.1431  0.3407  0.4048
  236MPD1     H 3637   2.992   1.050   9.784  0.1522  0.2061  1.9074
  236MPD1    H1 3638   2.853   0.703   9.984 -4.0182 -1.7825 -0.5903
  236MPD1    H2 3639   2.598   0.896   9.704 -0.5230  0.6283  2.8857
  236MPD1    H3 3640   2.644   0.710   9.851 -1.3597  0.6563 -2.0369
  236MPD1     N 3641   3.044   0.855   9.985  0.5893 -0.0540 -0.3558
  236MPD1    H5 3642   3.047   0.774  10.046  1.6661 -0.4559 -0.9559
  236MPD1    N1 3643   2.782   1.087   9.633 -0.3356  0.0150 -0.1461
  236MPD1    H6 3644   2.837   1.169   9.657  1.2623 -1.3863  0.9743
  236MPD1    H7 3645   2.685   1.119   9.625 -0.4274  0.3058  2.0087
  237MPD1     C 3646   3.048   4.351  15.669 -0.0203 -0.2328 -0.0741
  237MPD1    C1 3647   3.051   4.319  15.538 -0.0429 -0.7389  0.0943
  237MPD1    C2 3648   2.973   4.390  15.448  0.1184 -0.5977  0.0401
  237MPD1    C3 3649   2.878   4.471  15.500 -0.1012 -0.5545 -0.5139
  237MPD1    C4 3650   2.859   4.484  15.631  0.3791  0.3816  0.0473
  237MPD1    C5 3651   2.953   4.435  15.716  0.8073  0.5433 -0.5479
  237MPD1     H 3652   2.982   4.384  15.340  0.3047 -1.3991  0.1008
  237MPD1    H1 3653   2.776   4.546  15.662  0.5436  1.3906 -1.5205
  237MPD1    H2 3654   3.104   4.298  15.745  0.2450 -0.9606 -0.7773
  237MPD1    H3 3655   2.940   4.450  15.823  1.6485 -2.1676 -0.0416
  237MPD1     N 3656   2.784   4.529  15.411 -0.5840  0.7162 -0.3994
  237MPD1    H5 3657   2.707   4.579  15.454  0.0298  1.3755 -0.0455
  237MPD1    N1 3658   3.148   4.231  15.491  0.5492 -1.2510  0.1007
  237MPD1    H6 3659   3.112   4.177  15.412  0.0167  1.8070 -1.7787
  237MPD1    H7 3660   3.186   4.171  15.564  0.8700  0.7039  1.5474
  238MPD1     C 3661   0.503   2.919  14.749 -0.0151  0.2960 -0.0585
  238MPD1    C1 3662   0.488   3.051  14.726  0.0640  0.3077  0.2675
  238MPD1    C2 3663   0.357   3.098  14.719  0.1553 -0.0188 -0.3534
  238MPD1    C3 3664   0.247   3.023  14.735  0.0435  0.2256  0.1035
  238MPD1    C4 3665   0.271   2.895  14.731  0.5723  0.5731  0.2458
  238MPD1    C5 3666   0.397   2.846  14.740 -0.3456 -0.1526  0.3168
  238MPD1     H 3667   0.337   3.197  14.679  0.1399  0.2587  0.3451
  238MPD1    H1 3668   0.188   2.828  14.750 -0.4473  1.3426 -1.5419
  238MPD1    H2 3669   0.601   2.873  14.744  0.0670  0.7614 -2.7094
  238MPD1    H3 3670   0.406   2.743  14.775  0.0908 -0.5970 -1.1220
  238MPD1     N 3671   0.108   3.067  14.725  0.0103  0.5598  0.3051
  238MPD1    H5 3672   0.037   2.995  14.724  2.3323 -1.6921 -0.4133
  238MPD1    N1 3673   0.593   3.134  14.691  0.4154 -0.2381  0.1252
  238MPD1    H6 3674   0.582   3.232  14.715 -0.4271 -0.2975 -0.0402
  238MPD1    H7 3675   0.686   3.102  14.718  0.6492  0.4876  0.1889
  239MPD1     C 3676   0.016   4.648  15.324 -1.0530  0.0544  0.6639
  239MPD1    C1 3677   0.041   0.025  15.252 -0.4259  0.5304 -0.8747
  239MPD1    C2 3678   4.723   0.033  15.126 -0.6264 -0.4468  0.2362
  239MPD1    C3 3679   4.641   4.679  15.073  0.3719 -0.1181  0.4159
  239MPD1    C4 3680   4.615   4.569  15.153 -0.1474 -0.4124  0.0203
  239MPD1    C5 3681   4.671   4.561  15.274 -0.6696  0.0300  0.0815
  239MPD1     H 3682   0.001   0.120  15.064  1.8954 -0.8753  0.4154
  239MPD1    H1 3683   4.566   4.479  15.119 -1.5378 -0.3838  1.9265
  239MPD1    H2 3684   0.065   4.630  15.419  2.5311  0.2502 -1.1751
  239MPD1    H3 3685   4.662   4.471  15.333 -2.0470  0.7243  0.9226
  239MPD1     N 3686   4.582   4.699  14.948 -0.5355  0.2058 -0.3130
  239MPD1    H5 3687   4.595   0.049  14.905 -1.9679  2.2869  3.6463
  239MPD1    N1 3688   0.104   0.132  15.315  0.6001 -0.4641  0.2701
  239MPD1    H6 3689   0.147   0.203  15.255  1.9505 -0.4683  1.2405
  239MPD1    H7 3690   0.164   0.118  15.396 -0.0020  3.2853  1.3435
  240MPD1     C 3691   3.823   4.721  14.040  0.1304  0.4289 -0.4965
  240MPD1    C1 3692   3.955   4.698  14.081  0.1506 -0.7418  0.5440
  240MPD1    C2 3693   4.009   4.569  14.096  0.0645  0.5012  0.2104
  240MPD1    C3 3694   3.919   4.459  14.097 -0.0568  0.3654 -0.2968
  240MPD1    C4 3695   3.788   4.486  14.056 -0.5301  0.1856  0.1187
  240MPD1    C5 3696   3.742   4.611  14.017 -0.0858 -0.2922  0.4444
  240MPD1     H 3697   4.114   4.549  14.110  0.4043  0.8590 -1.7400
  240MPD1    H1 3698   3.712   4.409  14.045 -0.1929 -0.1647  0.2558
  240MPD1    H2 3699   3.772   0.075  14.023 -2.0896 -0.6552  0.1466
  240MPD1    H3 3700   3.641   4.634  13.987  0.5328  0.6763 -0.9511
  240MPD1     N 3701   3.964   4.328  14.120 -0.5574  0.5904  0.1473
  240MPD1    H5 3702   4.060   4.300  14.099  0.0274  2.3570  0.4453
  240MPD1    N1 3703   4.048   0.065  14.082 -0.6554 -0.0176  0.0828
  240MPD1    H6 3704   4.115   0.055  14.158 -1.1108  2.0511  0.7490
  240MPD1    H7 3705   4.008   0.159  14.087 -0.5885 -0.1722  3.6073
  241MPD1     C 3706   0.027   4.000  14.086 -0.1541  0.6568 -0.4028
  241MPD1    C1 3707   4.733   4.006  14.220  0.1160 -0.5997  0.0921
  241MPD1    C2 3708   4.594   4.022  14.247  0.3040  0.0615 -0.3471
  241MPD1    C3 3709   4.494   4.017  14.147  0.5070 -0.1248  0.1078
  241MPD1    C4 3710   4.538   3.994  14.017  0.6039  0.2541 -0.1003
  241MPD1    C5 3711   4.670   3.986  13.986 -0.9468  0.4409  0.3780
  241MPD1     H 3712   4.570   4.055  14.348  2.8275  3.0476 -0.7551
  241MPD1    H1 3713   4.464   4.003  13.939  2.8891 -2.0108 -2.5596
  241MPD1    H2 3714   0.131   3.996  14.056 -0.5320  0.3417 -1.6634
  241MPD1    H3 3715   4.700   3.999  13.882  1.5056 -1.4728  0.8318
  241MPD1     N 3716   4.354   4.022  14.170  0.2232  0.0695  0.0767
  241MPD1    H5 3717   4.294   4.052  14.094 -0.7881 -1.3946  0.3066
  241MPD1    N1 3718   0.094   4.031  14.312 -1.1007  0.1852 -0.1211
  241MPD1    H6 3719   0.070   4.000  14.406  3.6161 -1.6123  0.4581
  241MPD1    H7 3720   0.181   3.986  14.285 -0.7614 -0.3297  1.8369
  242MPD1     C 3721   4.249   2.025  16.394 -0.2296 -0.2099 -0.0623
  242MPD1    C1 3722   4.306   2.107  16.299 -0.1135  0.3665  0.4266
  242MPD1    C2 3723   4.360   2.056  16.185 -0.3137  0.0459  0.7994
  242MPD1    C3 3724   4.374   1.921  16.164  0.7859 -0.4408  0.0938
  242MPD1    C4 3725   4.327   1.842  16.268  0.8168  0.8055 -0.2151
  242MPD1    C5 3726   4.261   1.895  16.379 -0.0339 -0.6424  0.3732
  242MPD1     H 3727   4.388   2.122  16.104 -2.4497  0.0815  0.0719
  242MPD1    H1 3728   4.328   1.735  16.250 -2.4445  0.6838  0.2826
  242MPD1    H2 3729   4.196   2.063  16.480  0.4394  1.6384 -0.4650
  242MPD1    H3 3730   4.217   1.829  16.453  0.6719 -2.0441 -0.4690
  242MPD1     N 3731   4.417   1.861  16.042  0.7439  0.4787 -0.1996
  242MPD1    H5 3732   4.410   1.760  16.035 -0.6305  0.4302  1.6362
  242MPD1    N1 3733   4.272   2.245  16.300  0.1636 -0.3505 -0.2761
  242MPD1    H6 3734   4.337   2.310  16.257  0.4225 -1.1020 -1.0287
  242MPD1    H7 3735   4.263   2.284  16.394  0.4047  3.2632 -1.7997
  243MPD1     C 3736   4.440   0.663   0.285 -0.5235 -0.3243 -0.3452
  243MPD1    C1 3737   4.539   0.578   0.328  0.5529 -0.7784 -0.2618
  243MPD1    C2 3738   4.659   0.579   0.260  0.0983  0.4887  0.2753
  243MPD1    C3 3739   4.684   0.661   0.151 -0.1043 -0.2042  0.3784
  243MPD1    C4 3740   4.575   0.741   0.111 -0.4127 -0.1820 -0.9913
  243MPD1    C5 3741   4.455   0.740   0.172 -0.0514  0.2791 -0.3400
  243MPD1     H 3742   4.738   0.519   0.305 -0.6367 -0.6824 -0.0107
  243MPD1    H1 3743   4.577   0.810   0.028 -2.9855  0.2012 -0.7524
  243MPD1    H2 3744   4.344   0.658   0.337 -0.8879 -2.3570 -1.2192
  243MPD1    H3 3745   4.378   0.808   0.137  1.1299  1.6239 -0.3261
  243MPD1     N 3746   0.072   0.671   0.100  0.5016 -0.0241  0.8254
  243MPD1    H5 3747   0.153   0.623   0.137  2.0292  1.1786 -0.9108
  243MPD1    N1 3748   4.512   0.483   0.427  0.1002  0.3771 -0.2564
  243MPD1    H6 3749   4.585   0.470   0.497 -0.7318 -1.2308  0.3169
  243MPD1    H7 3750   4.441   0.523   0.487 -2.5173 -4.4503 -0.1263
  244MPD1     C 3751   1.022   0.699   0.367 -0.3095  0.6086 -0.3221
  244MPD1    C1 3752   1.000   0.813   0.300 -0.0042  0.4687 -0.5350
  244MPD1    C2 3753   0.884   0.830   0.237  0.4850  0.2209 -0.4119
  244MPD1    C3 3754   0.786   0.730   0.226  0.1905  0.6701 -0.5190
  244MPD1    C4 3755   0.812   0.611   0.296  0.0896 -0.0828  0.0813
  244MPD1    C5 3756   0.927   0.603   0.378 -0.5195 -0.3303  0.1038
  244MPD1     H 3757   0.869   0.927   0.191  1.0001  0.2327 -0.5629
  244MPD1    H1 3758   0.738   0.532   0.302 -0.4137  0.4647  1.1514
  244MPD1    H2 3759   1.108   0.691   0.432 -0.8724 -0.2462  0.3108
  244MPD1    H3 3760   0.948   0.515   0.437  1.1948  0.2478  0.3525
  244MPD1     N 3761   0.680   0.748   0.141  0.5660  0.3504  0.3786
  244MPD1    H5 3762   0.683   0.836   0.090  0.0384 -1.0584 -2.1283
  244MPD1    N1 3763   1.088   0.923   0.318 -0.2236  0.1611  0.0779
  244MPD1    H6 3764   1.078   0.961   0.224  0.2660  0.6766  0.2352
  244MPD1    H7 3765   1.185   0.901   0.338 -0.5553 -1.9978 -0.7469
  245MPD1     C 3766   2.973   0.913  13.288 -0.1296 -0.5064 -0.0772
  245MPD1    C1 3767   3.006   0.927  13.425  0.4721 -0.4971 -0.1340
  245MPD1    C2 3768   3.030   1.050  13.488 -0.0441 -0.1866  0.2712
  245MPD1    C3 3769   3.026   1.156  13.403 -0.0551  0.0433 -0.1670
  245MPD1    C4 3770   3.003   1.142  13.265  0.4058 -0.6540  0.5958
  245MPD1    C5 3771   2.978   1.022  13.207  0.0277 -0.1791  0.3077
  245MPD1     H 3772   3.041   1.061  13.595 -1.2290 -4.8022  0.8498
  245MPD1    H1 3773   3.006   1.229  13.201  0.0347  0.8073  2.5590
  245MPD1    H2 3774   2.939   0.819  13.247  0.7083 -1.5999  1.7114
  245MPD1    H3 3775   2.946   1.016  13.103  1.2052  0.3280 -0.0809
  245MPD1     N 3776   3.055   1.282  13.460 -0.3492  0.8295 -0.4011
  245MPD1    H5 3777   3.078   1.275  13.558 -2.1630 -0.2601 -0.0598
  245MPD1    N1 3778   2.980   0.808  13.509 -0.1530 -0.0901  0.3033
  245MPD1    H6 3779   3.015   0.726  13.459 -0.9222 -0.4605  0.3689
  245MPD1    H7 3780   3.019   0.809  13.603  1.2478  3.5876 -0.3251
  246MPD1     C 3781   2.952   0.041  10.159 -0.2094  0.7079  0.7097
  246MPD1    C1 3782   3.082   4.739  10.171  0.4814  0.0029 -0.2347
  246MPD1    C2 3783   3.179   0.084  10.134  0.0355  0.2328 -0.2873
  246MPD1    C3 3784   3.153   0.213  10.087 -0.1585 -0.0048  0.3598
  246MPD1    C4 3785   3.019   0.257  10.087 -0.7385  0.3451  0.6693
  246MPD1    C5 3786   2.921   0.168  10.117 -0.1261  0.4246  0.3941
  246MPD1     H 3787   3.284   0.060  10.119  0.2285  0.7185  0.3073
  246MPD1    H1 3788   2.982   0.352  10.049 -0.8360 -0.6493 -1.7339
  246MPD1    H2 3789   2.868   4.718  10.186  0.4878 -1.4172 -2.1236
  246MPD1    H3 3790   2.821   0.207  10.118 -0.3833 -0.2279  0.3009
  246MPD1     N 3791   3.262   0.293  10.028  0.6495  0.1468  0.3355
  246MPD1    H5 3792   3.356   0.256  10.037  1.5435  2.0633 -1.3568
  246MPD1    N1 3793   3.112   4.609  10.205 -0.3918 -0.1977 -0.4101
  246MPD1    H6 3794   3.205   4.594  10.246 -0.2131  1.0197 -0.3712
  246MPD1    H7 3795   3.044   4.565  10.266 -0.3084  0.0281 -0.1523
  247MPD1     C 3796   1.924   2.412  15.600 -0.1803  0.4208 -1.0113
  247MPD1    C1 3797   1.904   2.368  15.726  0.8071 -0.4065  0.4587
  247MPD1    C2 3798   1.863   2.239  15.748 -0.1319  0.7855  0.1419
  247MPD1    C3 3799   1.852   2.155  15.640 -0.6681  0.2580  0.4999
  247MPD1    C4 3800   1.861   2.200  15.509  0.3788  0.1936  0.3795
  247MPD1    C5 3801   1.892   2.329  15.496 -0.3182 -0.3238  0.5048
  247MPD1     H 3802   1.844   2.201  15.847  0.9667 -1.6866 -0.5953
  247MPD1    H1 3803   1.838   2.143  15.420  0.5323  0.5647  0.1032
  247MPD1    H2 3804   1.963   2.512  15.584  0.5974  0.0626 -1.3405
  247MPD1    H3 3805   1.897   2.369  15.396  1.4432 -3.5143 -0.6686
  247MPD1     N 3806   1.834   2.016  15.654  0.5467  0.2897 -0.3154
  247MPD1    H5 3807   1.860   1.958  15.574 -0.5890 -1.1205  0.3410
  247MPD1    N1 3808   1.940   2.458  15.833  0.0438 -0.1002  0.0944
  247MPD1    H6 3809   1.896   2.438  15.922 -1.3901  0.1944 -0.5524
  247MPD1    H7 3810   1.927   2.557  15.812  0.4633 -0.0444  0.0877
  248MPD1     C 3811   2.888   0.571   0.001 -0.0811 -0.0495  0.3108
  248MPD1    C1 3812   2.758   0.561   0.040 -0.3750  0.1526 -0.2235
  248MPD1    C2 3813   2.720   0.592   0.170  0.0257 -0.5868  0.2996
  248MPD1    C3 3814   2.802   0.676   0.251 -0.6465  0.2227 -0.4171
  248MPD1    C4 3815   2.929   0.698   0.201  0.0151 -0.3774 -0.7999
  248MPD1    C5 3816   2.972   0.637   0.082  0.7556  0.2507 -0.1691
  248MPD1     H 3817   2.623   0.567   0.211 -0.3205  0.4102  0.0973
  248MPD1    H1 3818   2.999   0.762   0.255 -1.3032 -2.3791  3.2441
  248MPD1    H2 3819   2.923   0.540  17.664  0.6512  1.4732  0.0995
  248MPD1    H3 3820   3.070   0.659   0.041  0.2304  1.3647 -0.8233
  248MPD1     N 3821   2.748   0.726   0.376  0.1152  0.6654 -0.0002
  248MPD1    H5 3822   2.649   0.713   0.392  0.5479 -1.1847  1.1414
  248MPD1    N1 3823   2.669   0.507  17.708  0.1713  0.3163 -0.3894
  248MPD1    H6 3824   2.572   0.499  17.738  0.6546 -1.1016  0.8042
  248MPD1    H7 3825   2.681   0.541  17.613  0.1604 -1.1446 -0.9112
  249MPD1     C 3826   0.162   0.070   9.805 -0.4329  0.0603 -0.2627
  249MPD1    C1 3827   0.212   0.170   9.875 -0.9446 -0.6938  0.0753
  249MPD1    C2 3828   0.333   0.157   9.942 -0.0906 -0.5453  0.4918
  249MPD1    C3 3829   0.392   0.032   9.954  0.4685 -0.3489  0.5351
  249MPD1    C4 3830   0.324   4.662   9.898 -0.4419  0.1731 -0.0798
  249MPD1    C5 3831   0.216   4.683   9.814 -0.7918 -0.2526  0.5979
  249MPD1     H 3832   0.378   0.249   9.980  0.6683  0.1044 -1.9339
  249MPD1    H1 3833   0.372   4.564   9.900 -1.1445 -0.2007 -1.2532
  249MPD1    H2 3834   0.062   0.073   9.762 -0.5803  1.5263  0.2037
  249MPD1    H3 3835   0.178   4.605   9.749  0.2074 -0.5949  0.4203
  249MPD1     N 3836   0.513   0.014  10.027 -0.3242  0.5465 -0.4524
  249MPD1    H5 3837   0.557   0.099  10.062  1.0843 -0.5668  0.4784
  249MPD1    N1 3838   0.158   0.295   9.863  0.4152 -0.1021 -0.6663
  249MPD1    H6 3839   0.057   0.300   9.847  0.0562  1.0652  2.1029
  249MPD1    H7 3840   0.182   0.346   9.948 -0.3837 -0.2979 -0.3204
  250MPD2     C 3841   1.449   4.174  13.483 -0.2316 -0.6224 -0.4955
  250MPD2    C1 3842   1.336   4.226  13.431  0.2769  0.6724 -0.2686
  250MPD2    C2 3843   1.253   4.157  13.342  0.2560  0.0609 -0.0221
  250MPD2    C3 3844   1.291   4.036  13.296  0.2215  0.0149  0.8809
  250MPD2    C4 3845   1.410   3.982  13.354 -0.0488 -0.2968 -0.2455
  250MPD2    C5 3846   1.487   4.049  13.445  0.4902 -0.6637 -0.2220
  250MPD2     H 3847   1.157   4.196  13.311 -1.1769 -4.7124 -1.5748
  250MPD2    H1 3848   1.453   3.889  13.319 -2.5654 -1.3112 -0.6460
  250MPD2    H2 3849   1.508   4.216  13.563  0.4852 -2.5271 -0.0385
  250MPD2    H3 3850   1.581   4.003  13.476  0.3635 -1.6187 -1.2646
  250MPD2     N 3851   1.210   3.941  13.221  0.4781  0.3278  0.1245
  250MPD2    H5 3852   1.248   3.850  13.197  2.3930  2.1242 -3.5874
  250MPD2    N1 3853   1.310   4.354  13.466 -0.3231 -0.2612 -0.2136
  250MPD2    H7 3854   1.384   4.396  13.523  1.0465 -1.1557 -1.3502
  251TMC3    C1 3855   1.263   4.575  13.424  0.5677 -0.4578 -0.2065
  251TMC3    C2 3856   1.162   4.667  13.407 -0.1388 -0.1154 -0.6338
  251TMC3    C3 3857   1.193   0.059  13.403 -0.2116 -0.4303 -0.0779
  251TMC3    C4 3858   1.394   4.612  13.430  0.6340 -0.7733  0.5198
  251TMC3    C5 3859   1.425   0.007  13.425 -0.8265 -0.0203 -0.4059
  251TMC3    C6 3860   1.324   0.102  13.401 -0.6581  0.0237  0.5299
  251TMC3     C 3861   1.223   4.439  13.409 -0.4071 -0.5563  0.3621
  251TMC3     O 3862   1.144   4.426  13.318 -0.1681  0.2222 -0.1227
  251TMC3     H 3863   1.058   4.640  13.400  0.8455 -3.8287 -1.1361
  251TMC3    H1 3864   1.481   4.548  13.446  1.0212  0.5000  3.6011
  251TMC3    H2 3865   1.351   0.206  13.416  0.1809 -0.2127  0.6367
  251TMC3    C7 3866   1.566   0.034  13.420 -0.3888 -0.5883 -0.0471
  251TMC3    C8 3867   1.088   0.161  13.420 -0.2175  0.4179  0.1577
  251TMC3    O1 3868   1.643   4.701  13.483  0.1379 -0.1290  0.0176
  251TMC3    O2 3869   0.989   0.138  13.489 -0.1604  0.4071  0.0631
  252TMC3    C1 3870   1.427   2.252   9.908 -0.4225 -0.8703  1.4349
  252TMC3    C2 3871   1.565   2.239   9.879 -0.6859 -0.4078  0.1432
  252TMC3    C3 3872   1.607   2.118   9.834 -0.0715 -0.7127 -0.6500
  252TMC3    C4 3873   1.335   2.163   9.873  0.1719 -0.0322  0.3341
  252TMC3    C5 3874   1.380   2.046   9.819  0.5335  0.6678 -0.4357
  252TMC3    C6 3875   1.517   2.018   9.795 -0.0112 -0.0906  0.2169
  252TMC3     C 3876   1.377   2.365   9.982  0.1994  0.5651 -0.4572
  252TMC3     O 3877   1.262   2.369  10.022  0.1650  0.0874  0.2709
  252TMC3     H 3878   1.634   2.321   9.895  1.0537 -1.7626 -0.5449
  252TMC3    H1 3879   1.232   2.174   9.905  0.8052 -0.1597  2.3836
  252TMC3    H2 3880   1.564   1.934   9.745 -2.6270  0.4189 -3.0984
  252TMC3    C7 3881   1.285   1.943   9.817  0.5332 -0.3863  0.3910
  252TMC3    C8 3882   1.749   2.092   9.822  0.2225  0.3891 -0.2155
  252TMC3    O1 3883   1.168   1.964   9.841  0.1932  0.2853  0.0804
  252TMC3    O2 3884   1.811   2.196   9.794  0.4877 -0.4894  0.0680
  253MPD2     C 3885   2.545   0.266  15.247  0.0254 -0.3510 -0.2402
  253MPD2    C1 3886   2.411   0.269  15.231 -0.6487 -0.3389  0.6230
  253MPD2    C2 3887   2.336   0.272  15.342  0.8399 -0.1274 -0.7995
  253MPD2    C3 3888   2.393   0.264  15.468 -0.8112  0.2363 -0.4081
  253MPD2    C4 3889   2.530   0.261  15.479  0.4665 -0.2002 -0.2898
  253MPD2    C5 3890   2.609   0.271  15.369  0.2025  0.8286  0.3223
  253MPD2     H 3891   2.228   0.268  15.336  0.8145 -1.5274  0.6141
  253MPD2    H1 3892   2.583   0.258  15.574 -0.3061 -2.3821  0.0771
  253MPD2    H2 3893   2.613   0.251  15.164 -0.4525  0.8114 -0.8406
  253MPD2    H3 3894   2.716   0.254  15.377  0.0173 -0.1150  0.8277
  253MPD2     N 3895   2.320   0.250  15.586 -0.7046  0.7307 -0.6668
  253MPD2    H5 3896   2.371   0.220  15.669  2.1181  1.5106 -2.1216
  253MPD2    N1 3897   2.341   0.269  15.111  0.0674  0.0943 -0.0041
  253MPD2    H7 3898   2.240   0.270  15.109  0.0463 -1.0825  0.1668
  254TMC3    C1 3899   2.145   0.225  15.732  0.5452 -0.6882  0.1713
  254TMC3    C2 3900   2.019   0.255  15.774 -0.3268  0.1173 -0.4990
  254TMC3    C3 3901   1.963   0.204  15.889  0.8440 -0.6026 -0.1458
  254TMC3    C4 3902   2.228   0.135  15.804 -0.1837  0.0602 -0.6879
  254TMC3    C5 3903   2.167   0.084  15.919 -0.5486  0.6544  0.5544
  254TMC3    C6 3904   2.038   0.116  15.962  0.0380 -0.5389  0.1315
  254TMC3     C 3905   2.182   0.264  15.603  0.0122  0.0025  0.0066
  254TMC3     O 3906   2.105   0.332  15.532  0.5144  0.3222  0.0539
  254TMC3     H 3907   1.953   0.299  15.699 -1.3644  1.7669  1.3870
  254TMC3    H1 3908   2.324   0.100  15.769 -0.2756 -0.1650 -0.7102
  254TMC3    H2 3909   1.994   0.070  16.050 -1.0270  0.4142  0.0886
  254TMC3    C7 3910   2.255   0.025  16.019 -0.4270  0.6323 -0.3078
  254TMC3    C8 3911   1.850   0.258  15.953 -0.4222 -0.2132  0.0468
  254TMC3    O1 3912   2.193   4.710  16.110  0.2410 -0.1526 -0.7447
  254TMC3    O2 3913   1.818   0.209  16.062 -0.3501  0.2072  0.0337
  255MPD2     C 3914   0.910   2.586  10.419 -0.2598  0.3526 -0.1434
  255MPD2    C1 3915   0.854   2.689  10.346 -0.1631  0.0590 -0.8304
  255MPD2    C2 3916   0.882   2.684  10.209  0.4393  0.3478 -0.2900
  255MPD2    C3 3917   0.944   2.579  10.145 -0.4424 -0.6112 -0.7181
  255MPD2    C4 3918   0.994   2.477  10.223  0.0691  0.5408 -0.1258
  255MPD2    C5 3919   0.975   2.479  10.362  0.4996 -0.8306 -1.3167
  255MPD2     H 3920   0.853   2.776  10.159 -0.4160  0.9851  1.3857
  255MPD2    H1 3921   1.031   2.383  10.184  0.5074 -0.3291  2.3987
  255MPD2    H2 3922   0.908   2.578  10.527  0.1306  1.6358 -0.0323
  255MPD2    H3 3923   1.001   2.393  10.423  0.5745 -0.1265 -0.3637
  255MPD2     N 3924   0.957   2.574  10.008 -0.3226  0.0108  0.6855
  255MPD2    H5 3925   0.994   2.487   9.971  0.4436  0.7362 -0.2343
  255MPD2    N1 3926   0.793   2.793  10.421 -0.1962  0.3007  0.0099
  255MPD2    H7 3927   0.778   2.777  10.520 -3.2243 -0.6527 -0.5985
  256TMC3    C1 3928   0.682   3.008  10.468 -0.2609  0.3067  0.2933
  256TMC3    C2 3929   0.689   3.137  10.408  0.1464 -0.0443  0.5701
  256TMC3    C3 3930   0.572   3.210  10.417  0.4546 -0.1783  1.0492
  256TMC3    C4 3931   0.571   2.966  10.535 -0.0132  0.0153 -0.5001
  256TMC3    C5 3932   0.457   3.045  10.548 -0.2804  0.2005  0.3257
  256TMC3    C6 3933   0.458   3.167  10.488 -0.1846  0.8483  0.3668
  256TMC3     C 3934   0.748   2.916  10.370 -0.0538  0.0508  0.2449
  256TMC3     O 3935   0.754   2.957  10.255 -0.2339  0.0064  0.3325
  256TMC3     H 3936   0.763   3.171  10.337  1.5914 -1.0521  1.6167
  256TMC3    H1 3937   0.574   2.864  10.570  1.7910  0.7611  1.5454
  256TMC3    H2 3938   0.369   3.227  10.503  1.5855  3.0224  2.1958
  256TMC3    C7 3939   0.329   2.972  10.536  0.3408  0.2388 -0.0805
  256TMC3    C8 3940   0.564   3.330  10.343  0.0747 -0.0786  0.2559
  256TMC3    O1 3941   0.245   3.017  10.458  0.4088  0.4151 -0.4345
  256TMC3    O2 3942   0.504   3.422  10.396  0.1179 -0.1940 -0.2007
  257MPD2     C 3943   4.116   4.497  13.550  0.3217  0.2712  0.2363
  257MPD2    C1 3944   4.244   4.539  13.528  0.2797  1.1687  0.8677
  257MPD2    C2 3945   4.328   4.526  13.630 -0.6810  0.5703 -0.6137
  257MPD2    C3 3946   4.285   4.464  13.745 -0.3269  0.0372  0.3693
  257MPD2    C4 3947   4.153   4.435  13.765  0.3535  0.0650  0.3405
  257MPD2    C5 3948   4.066   4.451  13.664  0.8901 -0.4778  0.2097
  257MPD2     H 3949   4.429   4.563  13.621 -0.5601  0.9926  2.3227
  257MPD2    H1 3950   4.113   4.386  13.853  0.7002  0.2302  0.5924
  257MPD2    H2 3951   4.043   4.508  13.471  1.7093  0.0501 -1.0622
  257MPD2    H3 3952   3.958   4.441  13.672  0.7260  0.7344 -0.3296
  257MPD2     N 3953   4.381   4.433  13.846  0.0578  0.1947  0.3542
  257MPD2    H5 3954   4.478   4.456  13.826 -0.1719  1.3731  0.5655
  257MPD2    N1 3955   4.272   4.602  13.404 -0.9743 -0.1090  0.5627
  257MPD2    H7 3956   4.203   4.589  13.331 -0.8538  0.6025  0.3199
  258TMC3    C1 3957   4.489   4.368  14.036 -0.2128  0.8846  0.2828
  258TMC3    C2 3958   4.602   4.349  13.952  1.1479 -0.1890  0.5950
  258TMC3    C3 3959   4.725   4.354  14.011 -0.3659 -0.2536 -0.1889
  258TMC3    C4 3960   4.494   4.390  14.166  0.0011 -0.4375  0.9622
  258TMC3    C5 3961   4.613   4.371  14.219  0.3482 -1.1491  0.3216
  258TMC3    C6 3962   4.729   4.350  14.145  0.7499  0.8342 -0.9658
  258TMC3     C 3963   4.360   4.372  13.972  0.3046 -0.0479 -0.5038
  258TMC3     O 3964   4.257   4.342  14.034 -0.5743 -0.2704 -0.4311
  258TMC3     H 3965   4.606   4.340  13.844 -0.4149  2.4469  0.3257
  258TMC3    H1 3966   4.407   4.407  14.229  0.4735 -1.4817  1.8841
  258TMC3    H2 3967   0.079   4.330  14.201  0.9421  1.0107 -1.2171
  258TMC3    C7 3968   4.620   4.382  14.363 -0.2973  0.2450  0.2281
  258TMC3    C8 3969   0.104   4.346  13.932  0.1010  0.1562  0.2591
  258TMC3    O1 3970   4.543   4.449  14.422 -0.6111 -0.3303  0.5995
  258TMC3    O2 3971   0.086   4.358  13.812  0.0941  0.3027  0.8406
  259MPD2     C 3972   3.809   1.531   0.824 -0.3280  0.3559 -0.6982
  259MPD2    C1 3973   3.712   1.441   0.792 -0.3273  0.7314  0.2544
  259MPD2    C2 3974   3.606   1.487   0.714  0.4131  0.3750 -0.5540
  259MPD2    C3 3975   3.593   1.617   0.674 -0.5820 -0.6193 -0.3715
  259MPD2    C4 3976   3.691   1.710   0.709  0.0532 -0.9076  0.5400
  259MPD2    C5 3977   3.799   1.665   0.780 -0.5330 -0.2864  0.5195
  259MPD2     H 3978   3.538   1.412   0.675 -0.7093 -0.9333  3.9098
  259MPD2    H1 3979   3.679   1.816   0.691  1.1575 -1.0690 -1.0583
  259MPD2    H2 3980   3.896   1.499   0.880  0.1517  2.1588 -0.4293
  259MPD2    H3 3981   3.875   1.738   0.806  0.0006 -1.3316  1.9426
  259MPD2     N 3982   3.492   1.642   0.576 -0.7542  0.0289 -0.1226
  259MPD2    H5 3983   3.437   1.559   0.560  1.3559 -1.1326 -1.3016
  259MPD2    N1 3984   3.720   1.310   0.847  0.6192  0.2355 -0.0299
  259MPD2    H7 3985   3.813   1.294   0.885  0.6406  1.2547  0.3593
  260TMC3    C1 3986   3.379   1.746   0.400 -0.7380  0.3039 -0.3843
  260TMC3    C2 3987   3.407   1.841   0.303  0.9336 -0.3983  0.3611
  260TMC3    C3 3988   3.415   1.810   0.174 -0.7090 -0.3434  0.1499
  260TMC3    C4 3989   3.354   1.617   0.368  0.2274  0.0886  0.1185
  260TMC3    C5 3990   3.365   1.582   0.240  0.1986 -0.2759  0.2122
  260TMC3    C6 3991   3.399   1.677   0.147  0.1216 -0.3837  0.4828
  260TMC3     C 3992   3.460   1.760   0.518 -0.2512 -0.4904 -0.0818
  260TMC3     O 3993   3.519   1.870   0.527 -0.5687 -0.2906 -0.2675
  260TMC3     H 3994   3.420   1.944   0.335  1.1853 -0.2304 -0.2821
  260TMC3    H1 3995   3.322   1.549   0.447  1.6864  0.1205  0.7309
  260TMC3    H2 3996   3.415   1.644   0.045  1.4669  0.7870  0.3096
  260TMC3    C7 3997   3.388   1.444   0.198  0.1007 -0.7049  0.7183
  260TMC3    C8 3998   3.550   1.853   0.135 -0.0998 -0.2932 -0.3025
  260TMC3    O1 3999   3.491   1.429   0.130 -0.0019 -0.4707 -0.0470
  260TMC3    O2 4000   3.573   1.973   0.159 -0.2067 -0.0895  0.0453
  261MPD2     C 4001   0.421   3.884  13.013  0.6116  0.0296 -0.3108
  261MPD2    C1 4002   0.522   3.898  12.920 -0.5561 -0.2697 -0.0092
  261MPD2    C2 4003   0.485   3.960  12.802  0.0564  0.3708 -0.5067
  261MPD2    C3 4004   0.354   3.979  12.768  0.3092 -0.6685  0.8210
  261MPD2    C4 4005   0.252   3.963  12.861  0.9101 -0.0894 -0.0485
  261MPD2    C5 4006   0.287   3.906  12.980  0.3518 -0.7319  0.0628
  261MPD2     H 4007   0.559   3.986  12.727  0.9417 -0.2230  0.1486
  261MPD2    H1 4008   0.147   3.973  12.838  1.0841 -1.2106 -1.3248
  261MPD2    H2 4009   0.445   3.843  13.111  1.2650  1.2308  0.0394
  261MPD2    H3 4010   0.208   3.893  13.052 -0.3912  1.5712 -0.3342
  261MPD2     N 4011   0.330   4.039  12.643 -0.5454 -0.9437  0.8791
  261MPD2    H5 4012   0.407   4.050  12.577 -0.7935  3.9361  1.4555
  261MPD2    N1 4013   0.652   3.847  12.948 -0.0419 -0.0028 -0.0892
  261MPD2    H7 4014   0.673   3.818  13.043 -0.0549 -1.4050 -0.5229
  262TMC3    C1 4015   0.203   4.149  12.466 -0.1916 -0.3491  0.2291
  262TMC3    C2 4016   0.109   4.242  12.452  0.6613  0.3507  0.6506
  262TMC3    C3 4017   0.118   4.328  12.343 -0.3376 -0.4118  1.5145
  262TMC3    C4 4018   0.299   4.122  12.377 -0.4233  0.1775 -0.1986
  262TMC3    C5 4019   0.300   4.200  12.266  0.2018  0.9398 -0.4805
  262TMC3    C6 4020   0.211   4.305  12.241 -0.3607  0.3298  0.5198
  262TMC3     C 4021   0.203   4.074  12.589 -0.1828  0.0512 -0.4121
  262TMC3     O 4022   0.093   4.056  12.642 -0.1694  0.3286 -0.4103
  262TMC3     H 4023   0.053   4.269  12.541 -0.2169  2.4228 -0.5289
  262TMC3    H1 4024   0.344   4.023  12.378 -0.9909 -0.0838 -1.7572
  262TMC3    H2 4025   0.220   4.372  12.156 -1.3119 -1.2722 -0.8463
  262TMC3    C7 4026   0.407   4.170  12.169 -0.5508  0.6311 -0.2617
  262TMC3    C8 4027   0.057   4.459  12.342  0.9260 -0.7371 -0.5491
  262TMC3    O1 4028   0.491   4.091  12.204  0.6787  0.2000  0.1024
  262TMC3    O2 4029   0.112   4.550  12.286  0.0927  0.1237  0.2152
  263MPD2     C 4030   1.711   3.191  11.379  0.6783  0.7538  0.6898
  263MPD2    C1 4031   1.741   3.315  11.430 -0.4596 -0.1248  0.9676
  263MPD2    C2 4032   1.765   3.419  11.346  0.0941 -0.2481 -0.0707
  263MPD2    C3 4033   1.746   3.410  11.209 -0.4565 -0.4395  0.9969
  263MPD2    C4 4034   1.716   3.283  11.158  0.1288  0.5157 -0.9212
  263MPD2    C5 4035   1.701   3.175  11.240 -0.0437 -0.3402  0.5634
  263MPD2     H 4036   1.817   3.506  11.385 -0.5830  0.7448 -1.3978
  263MPD2    H1 4037   1.698   3.264  11.053  0.0120  0.1022 -0.8245
  263MPD2    H2 4038   1.696   3.109  11.449  1.0547  0.5491  0.5278
  263MPD2    H3 4039   1.686   3.080  11.190  0.6438  0.7760 -1.7354
  263MPD2     N 4040   1.763   3.527  11.131  0.0526  0.0832 -0.0936
  263MPD2    H5 4041   1.780   3.608  11.189 -0.5226  0.9537 -1.1351
  263MPD2    N1 4042   1.762   3.323  11.567 -0.3324 -0.4490 -0.2882
  263MPD2    H7 4043   1.761   3.236  11.618 -0.1555  0.8455  1.9143
  264TMC3    C1 4044   1.803   3.655  10.941 -0.1321 -1.2572  0.0580
  264TMC3    C2 4045   1.765   3.767  11.009  0.2081  0.2171 -0.9708
  264TMC3    C3 4046   1.802   3.884  10.945 -0.1135 -0.4420 -0.3354
  264TMC3    C4 4047   1.878   3.657  10.824  0.0731 -0.1960 -0.3644
  264TMC3    C5 4048   1.907   3.775  10.769  0.1525 -0.4084  0.1530
  264TMC3    C6 4049   1.868   3.896  10.828  0.3839  0.2437  1.3539
  264TMC3     C 4050   1.751   3.531  10.993  0.0513  0.0204 -0.3567
  264TMC3     O 4051   1.729   3.448  10.907 -0.0840 -0.1627 -0.1512
  264TMC3     H 4052   1.723   3.764  11.109 -0.2552  0.6612 -1.1518
  264TMC3    H1 4053   1.918   3.569  10.775  1.3948 -0.6019  1.4784
  264TMC3    H2 4054   1.904   3.987  10.780 -0.7914  0.4373  0.8434
  264TMC3    C7 4055   2.016   3.786  10.674 -0.6510 -0.0851  0.0464
  264TMC3    C8 4056   1.795   4.003  11.028 -0.3709 -0.1502  0.4020
  264TMC3    O1 4057   2.081   3.682  10.660  0.2123  0.1401 -0.6947
  264TMC3    O2 4058   1.871   4.091  10.991  0.0864  0.2950  0.2193
  265MPD2     C 4059   3.467   4.155  15.928 -0.3021  0.3081  0.0604
  265MPD2    C1 4060   3.428   4.265  15.846  0.1709 -0.0134 -0.1410
  265MPD2    C2 4061   3.453   4.260  15.713  0.6852  0.0963 -0.0930
  265MPD2    C3 4062   3.517   4.148  15.657  0.2702  0.2916  0.0901
  265MPD2    C4 4063   3.547   4.041  15.741 -0.0348 -0.3101 -0.7131
  265MPD2    C5 4064   3.522   4.041  15.876  0.5500  0.2147 -0.0880
  265MPD2     H 4065   3.413   4.335  15.646 -1.3775 -2.8034 -2.1266
  265MPD2    H1 4066   3.579   3.955  15.684  0.4935 -1.0393  0.6908
  265MPD2    H2 4067   3.435   4.158  16.032 -0.9763  0.5661 -0.1547
  265MPD2    H3 4068   3.559   3.954  15.930  0.2031 -0.6498 -1.2319
  265MPD2     N 4069   3.551   4.119  15.517 -0.9004 -0.0654 -0.3434
  265MPD2    H5 4070   3.608   4.036  15.503 -0.8771 -0.3655  1.5211
  265MPD2    N1 4071   3.372   4.382  15.898  0.2132  0.5220 -0.7842
  265MPD2    H7 4072   3.354   4.452  15.826 -2.7167  0.2789 -0.2973
  266TMC3    C1 4073   3.328   4.565  16.042 -0.6026 -0.0464 -0.2457
  266TMC3    C2 4074   3.373   4.627  16.157  0.9629  0.7736  0.3630
  266TMC3    C3 4075   3.332   0.013  16.188 -0.6061  0.2886  0.1781
  266TMC3    C4 4076   3.236   4.624  15.961 -0.3676 -0.4361 -0.1344
  266TMC3    C5 4077   3.211   0.012  15.991 -0.0660  0.2480 -0.3480
  266TMC3    C6 4078   3.253   0.080  16.099  0.2397 -0.5679 -0.3055
  266TMC3     C 4079   3.357   4.423  16.031 -0.0370  0.1453 -0.3676
  266TMC3     O 4080   3.387   4.379  16.140  0.5787 -0.6842  0.3931
  266TMC3     H 4081   3.451   4.577  16.214  0.0696 -3.5141 -2.1499
  266TMC3    H1 4082   3.195   4.569  15.877  0.5991  0.0543 -0.9267
  266TMC3    H2 4083   3.208   0.174  16.128  1.7412  0.2924 -0.7638
  266TMC3    C7 4084   3.151   0.094  15.885 -0.2041 -0.1648 -0.4639
  266TMC3    C8 4085   3.417   0.091  16.271 -0.1275  1.1077  0.0122
  266TMC3    O1 4086   3.128   0.209  15.917  0.1406  0.2926  0.0972
  266TMC3    O2 4087   3.489   0.027  16.342  0.4125 -0.2862 -0.4279
  267MPD2     C 4088   0.798   1.871   0.128  0.3603  0.4169  0.3510
  267MPD2    C1 4089   0.901   1.841   0.047 -0.4530  0.6886  0.0260
  267MPD2    C2 4090   0.891   1.858  17.672  0.3360 -0.6519  0.0557
  267MPD2    C3 4091   0.784   1.919  17.615 -0.0272 -0.3438 -0.8024
  267MPD2    C4 4092   0.674   1.942  17.696 -0.9851 -0.6837 -0.6145
  267MPD2    C5 4093   0.688   1.931   0.074 -0.3289 -0.6085  0.1002
  267MPD2     H 4094   0.969   1.818  17.608  0.8889 -1.1079  1.0146
  267MPD2    H1 4095   0.583   1.983  17.654 -1.2972 -2.4213 -1.6257
  267MPD2    H2 4096   0.801   1.863   0.237 -0.2468  0.2387  0.3547
  267MPD2    H3 4097   0.617   1.966   0.149  1.5710  0.3365  1.4697
  267MPD2     N 4098   0.775   1.925  17.473  0.2699  1.0917  0.6502
  267MPD2    H5 4099   0.681   1.942  17.439  1.0379  0.9260 -1.5515
  267MPD2    N1 4100   1.015   1.784   0.107  0.1334 -0.1664  0.4255
  267MPD2    H7 4101   1.017   1.778   0.209  0.8958 -0.8737  0.3612
  268TMC3    C1 4102   1.231   1.687   0.135 -0.2653 -0.0446 -0.1552
  268TMC3    C2 4103   1.363   1.718   0.104 -0.7899 -0.8873 -0.0650
  268TMC3    C3 4104   1.461   1.666   0.187 -0.1671 -0.0750 -0.3439
  268TMC3    C4 4105   1.198   1.628   0.254  0.4729 -0.4316  0.4158
  268TMC3    C5 4106   1.299   1.601   0.342 -0.0643  0.2175  0.2131
  268TMC3    C6 4107   1.431   1.614   0.310 -0.0498  0.3074 -0.8884
  268TMC3     C 4108   1.138   1.762   0.046 -0.6814  0.0922  0.6664
  268TMC3     O 4109   1.181   1.802  17.700 -0.3708  0.4046 -0.1297
  268TMC3     H 4110   1.395   1.755   0.008  0.3448  1.0222  1.0424
  268TMC3    H1 4111   1.099   1.600   0.287  0.2501 -0.2137 -0.0675
  268TMC3    H2 4112   1.512   1.573   0.370 -0.1677  0.0166 -0.9291
  268TMC3    C7 4113   1.264   1.593   0.483  0.0955  0.3163  0.0547
  268TMC3    C8 4114   1.603   1.715   0.172  0.8264  0.7585 -0.0009
  268TMC3    O1 4115   1.181   1.668   0.530 -0.2708 -0.0119 -0.2059
  268TMC3    O2 4116   1.666   1.722   0.276  0.3267  0.0111 -0.3602
  269MPD2     C 4117   1.431   0.443  15.663  0.4768 -0.0730 -0.0175
  269MPD2    C1 4118   1.315   0.473  15.740 -0.2163  0.3416 -0.2144
  269MPD2    C2 4119   1.251   0.595  15.709 -0.6976 -0.1337 -0.3833
  269MPD2    C3 4120   1.307   0.687  15.625 -0.0938 -0.1876  0.1374
  269MPD2    C4 4121   1.427   0.658  15.559 -0.0047  0.5619  0.2000
  269MPD2    C5 4122   1.484   0.537  15.574  0.0643  0.1444 -0.3601
  269MPD2     H 4123   1.149   0.610  15.743 -0.1128  0.7134  1.0248
  269MPD2    H1 4124   1.475   0.737  15.502 -0.1948  1.9898  2.0335
  269MPD2    H2 4125   1.475   0.345  15.682 -0.4018 -0.9201 -2.2644
  269MPD2    H3 4126   1.579   0.515  15.527 -0.0188 -0.4193 -0.2591
  269MPD2     N 4127   1.240   0.809  15.620 -0.1296 -0.3907 -0.2387
  269MPD2    H5 4128   1.159   0.808  15.680 -0.8341 -1.8392 -1.2076
  269MPD2    N1 4129   1.267   0.373  15.825  0.2162  0.5776  0.8781
  269MPD2    H7 4130   1.308   0.281  15.828 -1.1763 -0.0265  1.2691
  270TMC3    C1 4131   1.124   0.269  15.982  0.5097 -0.3149 -0.2138
  270TMC3    C2 4132   1.004   0.211  15.955 -0.2683 -0.6663  0.2860
  270TMC3    C3 4133   0.981   0.082  15.992 -1.1108  0.7748  0.1087
  270TMC3    C4 4134   1.235   0.198  16.037  0.3285  0.1408  0.2318
  270TMC3    C5 4135   1.205   0.070  16.080  0.4080 -0.1599 -0.6639
  270TMC3    C6 4136   1.078   0.010  16.057 -0.2440 -0.4826  0.2645
  270TMC3     C 4137   1.154   0.385  15.901 -0.0189 -0.6345  0.0839
  270TMC3     O 4138   1.085   0.486  15.915 -0.4188  0.0582 -0.5036
  270TMC3     H 4139   0.937   0.268  15.891 -0.0578 -1.0340 -0.2572
  270TMC3    H1 4140   1.329   0.249  16.050 -1.4188  2.7922  2.5425
  270TMC3    H2 4141   1.062   4.647  16.086 -1.3537 -0.8018 -1.4926
  270TMC3    C7 4142   1.325   4.728  16.109 -0.8389 -0.3206 -0.1900
  270TMC3    C8 4143   0.886   0.017  15.910  0.8225  0.0381  0.1967
  270TMC3    O1 4144   1.430   0.010  16.055 -0.6542 -0.6703  0.0609
  270TMC3    O2 4145   0.783   0.084  15.887  0.2128  0.2558 -0.2584
  271MPD2     C 4146   0.602   0.308  14.395  0.4182  1.1550 -0.3132
  271MPD2    C1 4147   0.496   0.226  14.426  0.0251  0.5016 -0.1233
  271MPD2    C2 4148   0.379   0.230  14.356 -0.2572 -0.7061 -0.3984
  271MPD2    C3 4149   0.369   0.311  14.246  0.3797  0.1903 -0.5814
  271MPD2    C4 4150   0.475   0.387  14.199 -0.3554  0.0089  0.1472
  271MPD2    C5 4151   0.591   0.390  14.284 -1.1774 -0.0403 -0.1833
  271MPD2     H 4152   0.301   0.171  14.403 -0.8687  0.6815  0.3198
  271MPD2    H1 4153   0.478   0.451  14.111 -0.0210  1.2035  1.0183
  271MPD2    H2 4154   0.688   0.318  14.460 -0.5363  1.1271  0.9572
  271MPD2    H3 4155   0.676   0.453  14.260 -0.7486 -0.3713  0.4614
  271MPD2     N 4156   0.246   0.304  14.173  0.0288  0.1571 -0.1670
  271MPD2    H5 4157   0.174   0.248  14.217  1.9429 -2.1832 -0.0315
  271MPD2    N1 4158   0.502   0.119  14.521  0.0134  0.7653  0.1130
  271MPD2    H7 4159   0.418   0.076  14.557 -0.2828  0.5788 -0.8138
  272TMC3    C1 4160   0.602   4.692  14.659 -0.2195  0.5533  0.9613
  272TMC3    C2 4161   0.673   4.577  14.641 -0.0615 -0.2617  0.2735
  272TMC3    C3 4162   0.694   4.496  14.752  0.1390 -0.1251  0.5182
  272TMC3    C4 4163   0.544   4.727  14.781 -0.3798 -0.4535  1.0984
  272TMC3    C5 4164   0.551   4.632  14.875 -0.1409  0.2250  0.3555
  272TMC3    C6 4165   0.634   4.523  14.873 -0.0289 -0.3501  0.1314
  272TMC3     C 4166   0.620   0.058  14.562  0.7437  0.2978  0.2439
  272TMC3     O 4167   0.732   0.062  14.512  0.1845 -0.3581 -0.2016
  272TMC3     H 4168   0.721   4.566  14.545  0.0751 -4.6677  0.8289
  272TMC3    H1 4169   0.490   0.077  14.806  1.3812  1.0994 -0.6893
  272TMC3    H2 4170   0.652   4.459  14.958 -0.0861  0.8920  1.0870
  272TMC3    C7 4171   0.508   4.686  15.005  0.0699  1.5092 -0.3362
  272TMC3    C8 4172   0.793   4.387  14.733  0.2658  0.2940 -0.2657
  272TMC3    O1 4173   0.389   4.719  15.006  0.2145 -0.3461  0.2459
  272TMC3    O2 4174   0.812   4.355  14.619 -0.3076  0.0792  0.3978
  273MPD2     C 4175   2.237   2.164  11.802  0.3353 -0.5346  0.7260
  273MPD2    C1 4176   2.349   2.224  11.846 -0.0738  0.8641  0.7653
  273MPD2    C2 4177   2.416   2.314  11.774  0.0040  0.3721 -0.0883
  273MPD2    C3 4178   2.357   2.354  11.654  0.1736  0.2940  0.3664
  273MPD2    C4 4179   2.231   2.310  11.625  0.4081  0.7706 -0.1559
  273MPD2    C5 4180   2.171   2.212  11.699  0.0146  0.4324 -0.2330
  273MPD2     H 4181   2.512   2.353  11.805  1.4582 -2.9303 -0.4605
  273MPD2    H1 4182   2.182   2.347  11.536  0.3694 -0.3274 -0.5934
  273MPD2    H2 4183   2.179   2.094  11.862  0.5812 -1.8317 -0.5632
  273MPD2    H3 4184   2.080   2.161  11.671 -0.1157  0.5230  0.0220
  273MPD2     N 4185   2.423   2.446  11.562  0.1814  0.4443 -0.2875
  273MPD2    H5 4186   2.377   2.467  11.474 -1.5431  3.2033  1.2659
  273MPD2    N1 4187   2.385   2.189  11.981  0.2679  0.4146 -0.1304
  273MPD2    H7 4188   2.327   2.116  12.023  2.8765 -2.5735 -1.7879
  274TMC3    C1 4189   2.552   2.619  11.468  0.4254 -0.1631 -0.1986
  274TMC3    C2 4190   2.502   2.595  11.343 -0.1410  0.2037  0.0730
  274TMC3    C3 4191   2.492   2.702  11.259  0.1444 -0.6215  0.6395
  274TMC3    C4 4192   2.589   2.742  11.513 -0.6078 -0.3743 -0.4641
  274TMC3    C5 4193   2.556   2.849  11.427 -0.1217 -0.0083 -0.0163
  274TMC3    C6 4194   2.503   2.832  11.300 -0.6638  0.5652 -0.4963
  274TMC3     C 4195   2.537   2.519  11.574  0.7952 -0.7315  0.7283
  274TMC3     O 4196   2.604   2.533  11.675 -0.0532 -0.1476 -0.2213
  274TMC3     H 4197   2.492   2.490  11.317 -1.6896 -0.0471  1.6558
  274TMC3    H1 4198   2.620   2.762  11.615  0.2675  2.7350 -1.3414
  274TMC3    H2 4199   2.443   2.913  11.261 -1.9647  1.7752  4.0813
  274TMC3    C7 4200   2.518   2.964  11.507 -0.3850 -0.5146 -0.0833
  274TMC3    C8 4201   2.404   2.676  11.134 -0.7312 -0.1724  0.3720
  274TMC3    O1 4202   2.478   2.936  11.618 -0.6034 -0.1905  0.1078
  274TMC3    O2 4203   2.347   2.569  11.118  0.3030 -0.0597  0.2801
  275MPD2     C 4204   2.263   0.720  14.449  0.6604  0.3402 -0.0977
  275MPD2    C1 4205   2.153   0.801  14.450  0.1213  0.2721  0.1778
  275MPD2    C2 4206   2.026   0.743  14.464 -0.0211  1.0953  0.0742
  275MPD2    C3 4207   2.008   0.606  14.478 -0.2045  0.1166  0.1787
  275MPD2    C4 4208   2.125   0.526  14.487  0.1494 -0.1317 -0.2358
  275MPD2    C5 4209   2.249   0.585  14.476  0.1669  0.6301 -0.2627
  275MPD2     H 4210   1.942   0.806  14.437  0.1468  1.0564 -0.5383
  275MPD2    H1 4211   2.117   0.419  14.499 -0.2399 -0.2306 -1.4009
  275MPD2    H2 4212   2.366   0.751  14.434  1.0582 -1.4927 -1.1597
  275MPD2    H3 4213   2.339   0.526  14.487  0.4188  0.7046 -2.0083
  275MPD2     N 4214   1.884   0.539  14.498  0.0514 -1.2010  0.5410
  275MPD2    H5 4215   1.892   0.442  14.527  1.7568 -1.2872 -0.2787
  275MPD2    N1 4216   2.156   0.943  14.442  0.1447  0.1102 -0.1317
  275MPD2    H7 4217   2.063   0.984  14.450 -0.0045  0.1169 -2.0002
  276TMC3    C1 4218   2.237   1.153  14.484  0.0700  0.5044 -0.9894
  276TMC3    C2 4219   2.105   1.184  14.500 -0.6569  0.1018  0.5277
  276TMC3    C3 4220   2.068   1.241  14.618  0.9898  0.3208  0.0810
  276TMC3    C4 4221   2.334   1.203  14.570 -0.1849 -0.5214  0.9218
  276TMC3    C5 4222   2.288   1.285  14.677  0.1014 -0.1630  0.0019
  276TMC3    C6 4223   2.151   1.294  14.709 -0.0274  0.9153 -0.2407
  276TMC3     C 4224   2.268   1.020  14.437  0.2230 -0.7063 -0.5968
  276TMC3     O 4225   2.381   0.986  14.421 -0.4599 -0.0405  0.1488
  276TMC3     H 4226   2.023   1.151  14.437 -0.8390  1.7660 -0.1021
  276TMC3    H1 4227   2.438   1.174  14.562 -0.7344 -2.2388 -0.0825
  276TMC3    H2 4228   2.115   1.346  14.797 -0.5234 -1.7839  1.1383
  276TMC3    C7 4229   2.378   1.320  14.782 -0.0991  0.3977  0.0013
  276TMC3    C8 4230   1.949   1.174  14.674  0.0328  0.2872 -0.7338
  276TMC3    O1 4231   2.339   1.394  14.870  0.1420 -0.2642  0.2871
  276TMC3    O2 4232   1.848   1.235  14.703  0.1596  0.2053 -0.6408
  277MPD2     C 4233   3.825   0.044  13.186 -0.2409  0.5033  0.7271
  277MPD2    C1 4234   3.707   0.092  13.244 -0.1134 -0.1982 -0.6934
  277MPD2    C2 4235   3.658   0.024  13.354 -0.3179  0.5093  0.1591
  277MPD2    C3 4236   3.710   4.646  13.400 -0.4220  0.4772  0.8282
  277MPD2    C4 4237   3.826   4.600  13.344 -0.4548  0.6867  0.3685
  277MPD2    C5 4238   3.888   4.673  13.240 -0.9556  0.8812  0.2714
  277MPD2     H 4239   3.562   0.044  13.401 -0.3593  3.5174 -1.2264
  277MPD2    H1 4240   3.878   4.506  13.361 -1.3849  0.0487 -0.3027
  277MPD2    H2 4241   3.873   0.096  13.103  2.1066 -0.3194  1.5558
  277MPD2    H3 4242   3.978   4.635  13.193 -0.5941  0.6036  1.1913
  277MPD2     N 4243   3.639   4.568  13.494  0.5670  0.1075 -0.4372
  277MPD2    H5 4244   3.546   4.601  13.518  1.4290  1.3980  1.1661
  277MPD2    N1 4245   3.635   0.191  13.174 -0.0521  0.3527  0.1400
  277MPD2    H7 4246   3.664   0.210  13.078 -1.4001  1.2658 -0.0827
  278TMC3    C1 4247   3.554   4.374  13.587  0.9476  0.1059  0.1162
  278TMC3    C2 4248   3.565   4.241  13.581  0.0994  0.4279 -0.0543
  278TMC3    C3 4249   3.448   4.164  13.564  0.6999 -0.3461  0.4944
  278TMC3    C4 4250   3.437   4.442  13.584  0.0335 -0.1361  0.2671
  278TMC3    C5 4251   3.327   4.363  13.578 -0.1157 -0.8170 -0.1699
  278TMC3    C6 4252   3.325   4.228  13.559  0.8993  0.2662 -0.5203
  278TMC3     C 4253   3.672   4.445  13.542 -0.2008  0.1472 -0.1111
  278TMC3     O 4254   3.781   4.390  13.547  0.5433 -0.2264 -0.2380
  278TMC3     H 4255   3.662   4.198  13.561  0.6335  0.6916  2.0248
  278TMC3    H1 4256   3.419   4.542  13.621 -2.9005 -0.1296 -1.1764
  278TMC3    H2 4257   3.231   4.176  13.574  0.4995  1.0079 -0.4411
  278TMC3    C7 4258   3.199   4.438  13.562  0.2780 -0.0865 -0.2725
  278TMC3    C8 4259   3.454   4.024  13.524  0.3377 -0.5120  0.7837
  278TMC3    O1 4260   3.203   4.528  13.482 -0.1079  0.5548 -0.0491
  278TMC3    O2 4261   3.561   3.963  13.541  0.0505  0.0605 -0.2283
  279MPD2     C 4262   3.010   4.080   0.240  0.2916 -0.1183 -0.2299
  279MPD2    C1 4263   2.951   4.202   0.243 -0.4022 -0.0380  0.6259
  279MPD2    C2 4264   3.004   4.297   0.156  0.0345  0.4476 -0.2856
  279MPD2    C3 4265   3.126   4.265   0.097 -0.3341 -0.0089  0.3175
  279MPD2    C4 4266   3.195   4.144   0.111 -0.4120 -0.3730 -0.9246
  279MPD2    C5 4267   3.121   4.046   0.171  0.2780 -0.0377 -0.4576
  279MPD2     H 4268   2.956   4.391   0.136 -2.1332 -0.6727 -0.3052
  279MPD2    H1 4269   3.278   4.108   0.052  1.4140 -1.3766  2.2311
  279MPD2    H2 4270   2.962   3.997   0.291  2.5683 -1.3044  0.0040
  279MPD2    H3 4271   3.158   3.944   0.164  3.4986  1.0890 -0.0107
  279MPD2     N 4272   3.167   4.353  17.755  0.1892  0.5023  0.2110
  279MPD2    H5 4273   3.099   4.420  17.721 -0.6379  0.0410  0.9654
  279MPD2    N1 4274   2.827   4.220   0.312 -0.0476  0.2126  0.0609
  279MPD2    H7 4275   2.780   4.134   0.339  2.0082 -1.1210 -0.6635
  280TMC3    C1 4276   2.655   4.348   0.410 -0.1780 -0.3469 -0.0983
  280TMC3    C2 4277   2.560   4.265   0.356  0.7317  0.2208 -0.4217
  280TMC3    C3 4278   2.428   4.299   0.379  0.2087 -0.4396  0.4249
  280TMC3    C4 4279   2.622   4.467   0.461  0.5624 -0.2014  0.4970
  280TMC3    C5 4280   2.495   4.500   0.473 -0.3968  0.2740 -0.0449
  280TMC3    C6 4281   2.389   4.414   0.440 -0.7880 -0.8454  0.0772
  280TMC3     C 4282   2.791   4.342   0.361  0.4314 -0.8206  0.9871
  280TMC3     O 4283   2.849   4.450   0.354 -0.2378 -0.2915 -0.0797
  280TMC3     H 4284   2.589   4.190   0.283  3.0996  1.5892 -0.8897
  280TMC3    H1 4285   2.695   4.529   0.511  0.8916 -0.4262  0.2951
  280TMC3    H2 4286   2.285   4.438   0.458 -1.0039 -2.6438  1.2364
  280TMC3    C7 4287   2.473   4.633   0.540  0.1693 -0.0052 -0.3051
  280TMC3    C8 4288   2.329   4.210   0.330 -0.4063 -0.4826 -0.5981
  280TMC3    O1 4289   2.535   4.658   0.639  0.0765  0.4425 -0.5722
  280TMC3    O2 4290   2.231   4.181   0.400  0.7461  0.0390 -0.6126
  281TMC3    C1 4291   1.894   4.670  13.764  0.3348 -0.2884 -0.4233
  281TMC3    C2 4292   1.938   0.007  13.653  0.4302  0.0398 -0.6632
  281TMC3    C3 4293   2.001   4.685  13.551  0.2387  0.3495  0.9542
  281TMC3    C4 4294   1.897   4.530  13.746 -0.0196  0.0191 -0.4849
  281TMC3    C5 4295   1.964   4.478  13.641 -0.6344  0.0005  0.6478
  281TMC3    C6 4296   2.012   4.551  13.541 -0.2942  0.0445 -0.0204
  281TMC3     C 4297   1.776   4.721  13.826 -0.4096 -0.0999 -0.5038
  281TMC3     O 4298   1.757   4.683  13.942 -0.0644 -0.5231  0.1976
  281TMC3     H 4299   1.941   0.115  13.658  0.1822 -0.1353  2.8251
  281TMC3    H1 4300   1.857   4.469  13.826  0.6250 -0.8740 -0.8469
  281TMC3    H2 4301   2.069   4.496  13.466 -1.0591 -0.1700 -0.4473
  281TMC3    C7 4302   1.961   4.332  13.624  0.3594  0.1427 -0.0708
  281TMC3    C8 4303   2.102   0.018  13.478  0.8214  0.3077 -0.0826
  281TMC3    O1 4304   2.058   4.271  13.585 -0.0047  0.1556 -0.6173
  281TMC3    O2 4305   2.212   4.706  13.480 -0.2200  0.0317 -0.2976
  282MPD2     C 4306   3.549   1.992  15.186  0.5889 -0.1381  0.0642
  282MPD2    C1 4307   3.411   1.991  15.209 -0.6779  0.0427 -0.4631
  282MPD2    C2 4308   3.325   1.974  15.105  0.2322 -0.7766  0.0689
  282MPD2    C3 4309   3.375   1.970  14.974 -0.0012  0.0932  0.3367
  282MPD2    C4 4310   3.508   1.989  14.951 -0.2310  0.0456  1.0993
  282MPD2    C5 4311   3.593   1.990  15.058  0.0995  0.7847  0.7111
  282MPD2     H 4312   3.220   1.977  15.133  0.4862  1.9472  0.7399
  282MPD2    H1 4313   3.560   1.988  14.856 -0.6560 -3.0710  0.8792
  282MPD2    H2 4314   3.616   2.004  15.270 -0.1761  0.9172  0.5248
  282MPD2    H3 4315   3.697   2.004  15.032 -0.0704  1.6165  0.5038
  282MPD2     N 4316   3.284   1.958  14.871  0.5189 -0.1252  0.3164
  282MPD2    H5 4317   3.187   1.955  14.902  0.9980 -1.8619  1.6510
  282MPD2    N1 4318   3.368   1.996  15.343 -0.3762  0.0358 -0.3447
  282MPD2    H7 4319   3.424   2.022  15.424  0.6186 -0.9622 -0.7074
  283TMC3    C1 4320   3.201   1.986  15.525  0.1967 -0.2438 -0.3995
  283TMC3    C2 4321   3.245   2.104  15.581 -0.8139  0.2970 -0.0901
  283TMC3    C3 4322   3.225   2.123  15.712 -0.1351 -1.0484  0.3006
  283TMC3    C4 4323   3.128   1.896  15.600  0.3457 -0.2406 -0.1851
  283TMC3    C5 4324   3.097   1.929  15.726  0.1243  0.1702 -0.0019
  283TMC3    C6 4325   3.144   2.041  15.785  0.4852 -0.6389  0.0283
  283TMC3     C 4326   3.245   1.945  15.385  0.1509 -0.0964 -0.6191
  283TMC3     O 4327   3.164   1.876  15.323 -0.3438  0.0566  0.2965
  283TMC3     H 4328   3.313   2.158  15.516 -1.8133  0.1011 -1.2970
  283TMC3    H1 4329   3.086   1.811  15.549 -1.0254  0.0260  0.4996
  283TMC3    H2 4330   3.127   2.062  15.890 -3.5228 -0.2892 -0.6814
  283TMC3    C7 4331   3.021   1.840  15.823 -0.0068  0.4295  0.1191
  283TMC3    C8 4332   3.292   2.230  15.780 -0.1472  0.2993 -0.6110
  283TMC3    O1 4333   2.975   1.887  15.929  0.1433 -0.2513  1.1345
  283TMC3    O2 4334   3.303   2.215  15.902  0.3497  0.0531 -0.0751
  284MPD2     C 4335   1.312   0.380  12.070 -0.2058  0.3545 -0.0810
  284MPD2    C1 4336   1.427   0.453  12.089 -0.4157  0.1541 -0.5769
  284MPD2    C2 4337   1.508   0.427  12.195 -1.0330  0.6172  0.7337
  284MPD2    C3 4338   1.479   0.317  12.277  0.9511 -0.1059 -0.4246
  284MPD2    C4 4339   1.357   0.253  12.270  0.5042 -0.0766 -0.4240
  284MPD2    C5 4340   1.277   0.287  12.165  0.8599  0.3577 -1.1649
  284MPD2     H 4341   1.609   0.466  12.198 -0.3925 -1.1847  2.9178
  284MPD2    H1 4342   1.322   0.186  12.347  0.6332 -0.9251 -1.1118
  284MPD2    H2 4343   1.240   0.396  11.990  1.3895  0.1108 -1.5848
  284MPD2    H3 4344   1.188   0.227  12.146 -0.4289  2.1745 -0.9019
  284MPD2     N 4345   1.573   0.282  12.371  0.3165  0.2205  0.2948
  284MPD2    H5 4346   1.649   0.350  12.371  1.1635 -0.7191  0.8661
  284MPD2    N1 4347   1.463   0.549  11.990  0.1417  0.3574 -0.5092
  284MPD2    H7 4348   1.546   0.601  12.016  1.4216 -1.9242 -0.0744
  285TMC3    C1 4349   1.481   0.663  11.787 -0.4320  0.9125 -0.2461
  285TMC3    C2 4350   1.499   0.619  11.659  0.0099  0.4512  0.0015
  285TMC3    C3 4351   1.592   0.683  11.585  0.2956 -0.5914 -0.6622
  285TMC3    C4 4352   1.564   0.763  11.837  0.2096 -0.6762 -0.5474
  285TMC3    C5 4353   1.642   0.832  11.748  0.2430 -0.2067 -0.4160
  285TMC3    C6 4354   1.656   0.798  11.620  0.2041  0.1588 -0.0125
  285TMC3     C 4355   1.402   0.575  11.872 -0.5776  0.3149  0.7413
  285TMC3     O 4356   1.308   0.521  11.824 -0.4792  0.3797 -0.7326
  285TMC3     H 4357   1.445   0.533  11.622 -2.8518  2.0514  0.5042
  285TMC3    H1 4358   1.551   0.790  11.941 -0.1698  0.2285 -0.8314
  285TMC3    H2 4359   1.722   0.850  11.552 -1.7084  1.2888 -1.0252
  285TMC3    C7 4360   1.772   0.857  11.801 -0.2014  0.5013 -0.4204
  285TMC3    C8 4361   1.682   0.582  11.524 -0.0567  0.1546 -0.0849
  285TMC3    O1 4362   1.823   0.755  11.854  0.3223  0.0228 -0.5050
  285TMC3    O2 4363   1.653   0.466  11.527  0.5657  0.4895 -0.3068
  286MPD2     C 4364   2.112   4.350   1.426 -0.2674  0.5438 -0.5618
  286MPD2    C1 4365   2.056   4.269   1.336 -0.3900  0.6615  0.1169
  286MPD2    C2 4366   2.058   4.134   1.358  0.4550 -0.5541  0.1398
  286MPD2    C3 4367   2.132   4.072   1.460 -0.1097  0.6345 -0.3614
  286MPD2    C4 4368   2.215   4.154   1.532 -1.4499 -0.4490 -0.1474
  286MPD2    C5 4369   2.202   4.292   1.517  0.1464  0.8117  0.0944
  286MPD2     H 4370   2.005   4.074   1.285 -1.1462  1.1029 -0.0487
  286MPD2    H1 4371   2.288   4.117   1.603 -3.4210 -1.8098  1.1390
  286MPD2    H2 4372   2.104   4.458   1.427 -0.3886  0.5130  1.6263
  286MPD2    H3 4373   2.266   4.357   1.575  0.2932  1.9235 -1.3220
  286MPD2     N 4374   2.141   3.934   1.490 -0.1410  0.3828  0.3988
  286MPD2    H5 4375   2.219   3.903   1.546  0.2375 -0.6842 -0.7255
  286MPD2    N1 4376   1.987   4.312   1.225 -0.2500  0.2107  0.1988
  286MPD2    H7 4377   1.926   4.248   1.176 -0.3859  2.3445 -2.4513
  287TMC3    C1 4378   2.091   3.704   1.462  1.1871  0.4570  1.3688
  287TMC3    C2 4379   2.062   3.630   1.349  0.5708 -0.6449  1.0437
  287TMC3    C3 4380   2.143   3.526   1.313 -0.3801 -0.4077 -0.3695
  287TMC3    C4 4381   2.208   3.673   1.522  1.7721  0.4933 -0.2630
  287TMC3    C5 4382   2.293   3.573   1.479  0.0835  0.3110  0.2677
  287TMC3    C6 4383   2.263   3.502   1.368  0.3229 -0.1103  0.2316
  287TMC3     C 4384   2.051   3.843   1.439  0.4642  0.2839 -0.3683
  287TMC3     O 4385   1.948   3.858   1.374  0.3719 -0.0275 -0.1182
  287TMC3     H 4386   1.976   3.653   1.287  2.4602 -2.5457 -2.3092
  287TMC3    H1 4387   2.236   3.729   1.611 -1.4325  1.1278  0.3316
  287TMC3    H2 4388   2.334   3.432   1.326 -1.1101 -1.0631 -0.5869
  287TMC3    C7 4389   2.423   3.571   1.549 -0.8541  0.3740 -0.1922
  287TMC3    C8 4390   2.148   3.487   1.175 -0.2352 -0.1982 -0.4433
  287TMC3    O1 4391   2.421   3.611   1.661  0.0505 -0.5052 -0.2630
  287TMC3    O2 4392   2.134   3.366   1.152 -0.3330  0.1029 -0.8868
  288TMC3    C1 4393   3.642   4.295  14.516  0.4401 -0.3316  0.5033
  288TMC3    C2 4394   3.542   4.255  14.601 -0.1564 -0.0819 -0.0231
  288TMC3    C3 4395   3.421   4.312  14.594 -0.6814  0.2143  0.7075
  288TMC3    C4 4396   3.615   4.394  14.420 -0.0722  0.2298  0.0274
  288TMC3    C5 4397   3.486   4.449  14.414 -0.2464 -0.1887 -0.8107
  288TMC3    C6 4398   3.394   4.404  14.502 -0.2056  0.1309 -0.0673
  288TMC3     C 4399   3.768   4.232  14.535 -0.0852  1.7058  0.2632
  288TMC3     O 4400   3.759   4.128  14.595 -0.1030 -0.7671 -0.8651
  288TMC3     H 4401   3.571   4.194  14.685  0.7777 -0.1112 -0.3699
  288TMC3    H1 4402   3.691   4.435  14.356 -0.4421  0.0438 -0.5357
  288TMC3    H2 4403   3.299   4.458  14.503 -0.0896  0.3261  0.5691
  288TMC3    C7 4404   3.458   4.571  14.345  0.1970 -0.3554  0.5040
  288TMC3    C8 4405   3.351   4.317  14.721  0.1084 -0.4342 -0.1180
  288TMC3    O1 4406   3.344   4.573  14.295  0.6070 -0.0418 -0.5230
  288TMC3    O2 4407   3.289   4.417  14.747  0.2558 -0.1591  0.0861
  289MPD2     C 4408   3.968   3.421  14.306  0.3600  0.1183 -0.4865
  289MPD2    C1 4409   3.889   3.527  14.332  0.5174  0.3354 -0.2426
  289MPD2    C2 4410   3.755   3.507  14.365 -0.4484 -0.2310  0.1915
  289MPD2    C3 4411   3.697   3.384  14.363  0.5797 -0.2923 -0.2615
  289MPD2    C4 4412   3.776   3.275  14.334  0.2255 -0.4476  0.3513
  289MPD2    C5 4413   3.908   3.296  14.307  0.2703  0.6255  0.0032
  289MPD2     H 4414   3.694   3.591  14.395 -0.8605 -0.1694 -0.8191
  289MPD2    H1 4415   3.735   3.175  14.336 -3.4810  1.0475 -1.6885
  289MPD2    H2 4416   4.075   3.420  14.290  0.1088  1.0056 -2.2245
  289MPD2    H3 4417   3.969   3.212  14.274 -0.0598  0.8588 -1.1893
  289MPD2     N 4418   3.561   3.364  14.398  0.0532  0.2902 -0.8393
  289MPD2    H5 4419   3.522   3.274  14.372  1.2051 -1.4040  3.1945
  289MPD2    N1 4420   3.945   3.654  14.330 -0.8463 -0.1287 -0.3186
  289MPD2    H7 4421   4.046   3.666  14.329 -0.7346 -0.9551  3.1061
  290TMC3    C1 4422   3.341   3.438  14.391 -0.0762 -0.5787  0.2352
  290TMC3    C2 4423   3.278   3.539  14.327 -0.7268  0.2221  0.7964
  290TMC3    C3 4424   3.180   3.509  14.238  0.7357 -0.1819 -0.2663
  290TMC3    C4 4425   3.306   3.307  14.371 -0.2605 -0.3725  0.1054
  290TMC3    C5 4426   3.215   3.278  14.265  0.4498 -0.5045  0.1802
  290TMC3    C6 4427   3.150   3.380  14.199  0.9868  0.1046 -0.2977
  290TMC3     C 4428   3.472   3.456  14.447 -0.3006 -0.1555  0.1153
  290TMC3     O 4429   3.481   3.570  14.489 -0.2403  0.2379 -0.0004
  290TMC3     H 4430   3.305   3.638  14.361  0.0783  0.6356 -1.0394
  290TMC3    H1 4431   3.347   3.234  14.440 -0.1783 -1.4285 -1.0603
  290TMC3    H2 4432   3.066   3.364  14.133  0.9043 -0.5222 -0.0356
  290TMC3    C7 4433   3.136   3.164  14.292 -0.0029  0.9659  0.2889
  290TMC3    C8 4434   3.145   3.611  14.146 -0.1551 -0.6207 -0.4571
  290TMC3    O1 4435   3.019   3.190  14.289  0.7122  0.3523  0.9021
  290TMC3    O2 4436   3.122   3.576  14.035 -0.1669  0.0112 -0.0906
  291MPD2     C 4437   2.808   3.620   0.634  0.0071 -0.0967  0.1427
  291MPD2    C1 4438   2.868   3.525   0.565  1.0431 -0.0320 -0.4012
  291MPD2    C2 4439   2.994   3.550   0.517 -0.6922  0.1508  0.3422
  291MPD2    C3 4440   3.062   3.669   0.539 -0.0801 -0.0016 -0.3918
  291MPD2    C4 4441   3.009   3.770   0.613 -0.8729  0.4844  0.2967
  291MPD2    C5 4442   2.877   3.741   0.656  0.0879  0.0260 -0.1841
  291MPD2     H 4443   3.042   3.462   0.476  1.3506  0.5264  1.9162
  291MPD2    H1 4444   3.057   3.867   0.627 -1.1127  0.8297 -1.2395
  291MPD2    H2 4445   2.716   3.607   0.690 -0.4974 -3.2823 -1.4081
  291MPD2    H3 4446   2.831   3.821   0.714 -1.6532 -2.3971  1.8053
  291MPD2     N 4447   3.194   3.693   0.501  0.6165 -0.4579  0.9506
  291MPD2    H5 4448   3.230   3.780   0.537 -0.6244 -0.2056  1.5633
  291MPD2    N1 4449   2.814   3.394   0.547  0.0017 -0.1585  0.3966
  291MPD2    H7 4450   2.845   3.338   0.468  1.9831  2.8748 -0.9814
  292TMC3    C1 4451   2.679   3.203   0.592 -0.2593 -0.7270  0.6268
  292TMC3    C2 4452   2.630   3.127   0.693  0.1243  0.5040 -1.1799
  292TMC3    C3 4453   2.595   2.998   0.662  0.4688  0.3637 -0.2941
  292TMC3    C4 4454   2.706   3.153   0.468  0.5235 -0.2719  0.9258
  292TMC3    C5 4455   2.667   3.020   0.445  0.2299 -0.7495 -0.6102
  292TMC3    C6 4456   2.612   2.943   0.542 -1.2025 -0.0752 -0.9978
  292TMC3     C 4457   2.716   3.336   0.631  0.5155  0.4965  0.9810
  292TMC3     O 4458   2.670   3.381   0.736 -0.2723  0.2325 -0.3911
  292TMC3     H 4459   2.595   3.173   0.785  3.1152  1.3712 -0.4713
  292TMC3    H1 4460   2.739   3.220   0.389  2.2529 -1.3280  0.7593
  292TMC3    H2 4461   2.584   2.839   0.525  0.9747 -1.0050  1.1080
  292TMC3    C7 4462   2.722   2.939   0.343  0.3286  0.2131  0.1842
  292TMC3    C8 4463   2.566   2.920   0.774 -0.7811  0.1716 -0.5298
  292TMC3    O1 4464   2.659   2.834   0.318 -0.0908  0.2890  0.3668
  292TMC3    O2 4465   2.486   2.828   0.757  0.0034  0.1849  0.0671
  293MPD2     C 4466   4.444   4.082  13.136 -0.8115  0.5223  0.6051
  293MPD2    C1 4467   4.382   4.197  13.160  0.2989 -0.9380 -0.1460
  293MPD2    C2 4468   4.430   4.288  13.253 -0.0809  0.6225  0.1194
  293MPD2    C3 4469   4.547   4.260  13.313 -0.3396 -0.3201 -0.4346
  293MPD2    C4 4470   4.609   4.139  13.284  0.2008 -0.1193 -0.5604
  293MPD2    C5 4471   4.561   4.048  13.197 -0.9006 -0.1145 -0.3812
  293MPD2     H 4472   4.384   4.385  13.271 -0.9324 -0.0284  1.4751
  293MPD2    H1 4473   4.697   4.102  13.335 -1.4222 -0.9391  1.6198
  293MPD2    H2 4474   4.404   4.005  13.071  1.6174  1.1210 -1.5820
  293MPD2    H3 4475   4.611   3.952  13.184 -4.0303 -1.5958 -1.5291
  293MPD2     N 4476   4.610   4.353  13.395 -0.1344  0.1412 -0.1425
  293MPD2    H5 4477   4.566   4.444  13.405  2.3857  1.3739 -0.2062
  293MPD2    N1 4478   4.264   4.234  13.079  0.3194  0.0517  0.9718
  293MPD2    H7 4479   4.237   4.181  12.997 -1.2543 -0.3728  1.7805
  294TMC3    C1 4480   4.074   4.335  13.005 -0.4138 -0.8808 -0.7488
  294TMC3    C2 4481   4.017   4.217  12.982  0.3220  0.3809 -0.1577
  294TMC3    C3 4482   3.922   4.217  12.885  1.1680  0.1403  0.7647
  294TMC3    C4 4483   4.031   4.453  12.942  0.0742 -0.3819 -1.0180
  294TMC3    C5 4484   3.941   4.445  12.838  0.3175 -0.5494  0.1844
  294TMC3    C6 4485   3.890   4.323  12.807 -0.6643  0.0432  0.1245
  294TMC3     C 4486   4.181   4.345  13.092  0.1739 -0.1093 -0.5119
  294TMC3     O 4487   4.190   4.443  13.165 -0.0666  0.3189 -0.0668
  294TMC3     H 4488   4.044   4.127  13.035  0.4921 -0.3884 -1.5592
  294TMC3    H1 4489   4.088   4.543  12.962  2.7054 -1.9074 -1.5659
  294TMC3    H2 4490   3.825   4.322  12.720  0.9997  2.1024 -1.1586
  294TMC3    C7 4491   3.943   4.554  12.740 -0.1008 -0.2442  0.0461
  294TMC3    C8 4492   3.899   4.089  12.822  0.6486  0.4183 -0.6012
  294TMC3    O1 4493   3.911   4.666  12.776 -0.2957  0.1781 -0.0276
  294TMC3    O2 4494   3.975   4.000  12.843 -0.4031  0.1814 -0.7477
  295MPD2     C 4495   1.018   3.672   1.034 -0.2890  0.3627 -0.2840
  295MPD2    C1 4496   1.071   3.553   0.995 -0.0976  0.3354  0.3505
  295MPD2    C2 4497   1.036   3.435   1.058 -0.0512  0.2938  0.3714
  295MPD2    C3 4498   0.938   3.444   1.151 -0.2476 -0.5336  0.2735
  295MPD2    C4 4499   0.871   3.565   1.181  0.4304  0.0580  0.1708
  295MPD2    C5 4500   0.920   3.676   1.125  0.2234  0.1058 -0.4424
  295MPD2     H 4501   1.085   3.342   1.031  2.0875  0.9569  1.9853
  295MPD2    H1 4502   0.787   3.568   1.249 -2.7111 -0.7127 -3.6602
  295MPD2    H2 4503   1.044   3.768   0.992  0.3115  0.1009 -0.5094
  295MPD2    H3 4504   0.881   3.776   1.145 -0.2824 -0.6189  2.1472
  295MPD2     N 4505   0.882   3.341   1.233 -1.2953 -0.5444 -0.3682
  295MPD2    H5 4506   0.822   3.362   1.312  0.4473 -1.6015  1.2495
  295MPD2    N1 4507   1.161   3.539   0.883  0.0071 -0.6332  0.1945
  295MPD2    H7 4508   1.195   3.445   0.867  0.7208 -0.3211 -0.1567
  296TMC3    C1 4509   0.894   3.136   1.347  0.1985 -0.2659 -0.3419
  296TMC3    C2 4510   0.802   3.185   1.434 -0.2111  0.3160 -0.2745
  296TMC3    C3 4511   0.797   3.122   1.562 -0.4031  1.2877 -0.2704
  296TMC3    C4 4512   0.991   3.047   1.389  0.5177 -0.6427  0.0353
  296TMC3    C5 4513   0.979   2.997   1.512 -0.2116 -0.5489  0.2395
  296TMC3    C6 4514   0.876   3.018   1.596  0.0312  0.0448 -0.1593
  296TMC3     C 4515   0.931   3.211   1.229  0.7178 -0.1769 -0.4705
  296TMC3     O 4516   1.007   3.160   1.150  0.7184  0.7865  0.4056
  296TMC3     H 4517   0.722   3.246   1.394  0.8292  2.3543  0.7624
  296TMC3    H1 4518   1.071   3.014   1.325 -1.2640 -0.9074 -2.0422
  296TMC3    H2 4519   0.864   2.977   1.696  1.9439 -1.5361 -0.5784
  296TMC3    C7 4520   1.036   2.871   1.534 -0.8133 -0.0283  0.8410
  296TMC3    C8 4521   0.694   3.153   1.659  0.0519 -0.0116 -1.0574
  296TMC3    O1 4522   1.156   2.865   1.511  0.9817 -0.0289  0.2320
  296TMC3    O2 4523   0.673   3.066   1.744  0.3744 -0.5823 -0.1998
  297MPD2     C 4524   2.544   0.399  16.954 -0.1627  0.3410 -0.6709
  297MPD2    C1 4525   2.535   0.422  16.811  0.2736  0.0019 -0.6106
  297MPD2    C2 4526   2.610   0.526  16.751  0.0211  0.1945  0.0510
  297MPD2    C3 4527   2.702   0.598  16.827 -0.2407 -0.2909  0.1890
  297MPD2    C4 4528   2.710   0.573  16.966 -0.3091  0.5494 -0.0453
  297MPD2    C5 4529   2.624   0.484  17.027 -0.7509  0.5588 -0.2017
  297MPD2     H 4530   2.621   0.530  16.644 -1.8257 -0.2775 -0.1566
  297MPD2    H1 4531   2.785   0.624  17.025 -0.4581  1.2379 -0.4583
  297MPD2    H2 4532   2.494   0.317  17.004 -0.5160  0.7495 -0.3495
  297MPD2    H3 4533   2.615   0.469  17.134 -0.1089  0.8178 -0.1101
  297MPD2     N 4534   2.789   0.689  16.765  0.0434  0.3110 -0.8158
  297MPD2    H5 4535   2.790   0.693  16.663  0.8790 -1.0097 -0.8638
  297MPD2    N1 4536   2.439   0.353  16.724 -0.1137  0.0681  1.1357
  297MPD2    H7 4537   2.432   0.396  16.632 -0.7024 -0.2651  1.0294
  298TMC3    C1 4538   2.271   0.214  16.670  0.4538  0.5631 -0.5689
  298TMC3    C2 4539   2.321   0.212  16.540  0.2302  0.2585  0.1815
  298TMC3    C3 4540   2.253   0.268  16.433  0.2046  0.1222  1.0325
  298TMC3    C4 4541   2.152   0.287  16.684  0.7341 -0.2030 -0.3696
  298TMC3    C5 4542   2.077   0.341  16.583  0.6247 -0.5754  0.1781
  298TMC3    C6 4543   2.133   0.330  16.454  0.9109  0.5183 -0.2095
  298TMC3     C 4544   2.367   0.246  16.768  0.3363 -0.2191  0.2366
  298TMC3     O 4545   2.355   0.194  16.882 -0.4850 -0.1840 -0.0437
  298TMC3     H 4546   2.406   0.147  16.523  0.5135  0.3068  1.3758
  298TMC3    H1 4547   2.105   0.298  16.781  3.2558 -0.7004  0.9036
  298TMC3    H2 4548   2.102   0.399  16.376  0.8330 -2.1259 -2.5060
  298TMC3    C7 4549   1.986   0.453  16.620 -0.3100 -0.1717  0.5342
  298TMC3    C8 4550   2.338   0.297  16.316 -0.0822 -0.0860 -0.3246
  298TMC3    O1 4551   1.977   0.488  16.734  0.0736 -0.6234 -0.3332
  298TMC3    O2 4552   2.460   0.312  16.334  0.8797  0.4997 -0.4017
  299MPD2     C 4553   3.359   3.937  10.654 -0.4779  0.2754  0.5157
  299MPD2    C1 4554   3.349   4.077  10.636  0.0542  0.7085 -0.4852
  299MPD2    C2 4555   3.241   4.127  10.561 -0.1178  0.2661 -0.4024
  299MPD2    C3 4556   3.139   4.036  10.526  0.5325  0.0046  0.0697
  299MPD2    C4 4557   3.153   3.907  10.544  0.2162  0.4874 -0.0013
  299MPD2    C5 4558   3.266   3.852  10.608 -0.1760 -0.5125  0.1774
  299MPD2     H 4559   3.226   4.234  10.553 -0.6268  0.1674 -0.7778
  299MPD2    H1 4560   3.073   3.841  10.512  1.1491 -1.1716  1.1439
  299MPD2    H2 4561   3.437   3.887  10.711  1.8184  1.5760 -1.4590
  299MPD2    H3 4562   3.275   3.745  10.622 -0.9270 -0.5241  0.5682
  299MPD2     N 4563   3.013   4.078  10.499 -0.7083 -0.1901 -0.2778
  299MPD2    H5 4564   2.940   4.008  10.504 -0.0632 -0.6392  2.9043
  299MPD2    N1 4565   3.443   4.164  10.693  0.6254 -0.0403  0.0388
  299MPD2    H7 4566   3.507   4.116  10.756 -0.9015  2.0373  3.1723
  300TMC3    C1 4567   2.829   4.233  10.472  0.6888 -0.2145 -0.3876
  300TMC3    C2 4568   2.782   4.341  10.403 -0.1229 -0.5346 -0.5448
  300TMC3    C3 4569   2.655   4.385  10.434  0.2035  0.6969  0.1391
  300TMC3    C4 4570   2.760   4.160  10.564  0.3501  0.1165  0.3924
  300TMC3    C5 4571   2.642   4.219  10.600 -0.3201 -0.6200 -0.2907
  300TMC3    C6 4572   2.586   4.329  10.533 -0.3474  0.6042  0.0814
  300TMC3     C 4573   2.974   4.204  10.457  0.5187  0.2369 -0.5433
  300TMC3     O 4574   3.047   4.302  10.442  0.2376  0.1491 -0.4166
  300TMC3     H 4575   2.843   4.386  10.326  1.0883  1.3144  1.4690
  300TMC3    H1 4576   2.806   4.080  10.621 -0.0623 -1.4662 -1.5008
  300TMC3    H2 4577   2.489   4.369  10.561 -0.8789 -1.6076  1.4367
  300TMC3    C7 4578   2.587   4.176  10.723  0.2022 -0.6639  0.4269
  300TMC3    C8 4579   2.631   4.521  10.416 -0.0411 -0.7767  0.7011
  300TMC3    O1 4580   2.612   4.057  10.749 -0.0887  1.0626  0.0669
  300TMC3    O2 4581   2.585   4.572  10.517 -0.4233 -0.4957  0.7746
  301MPD2     C 4582   1.049   1.382   1.266  0.0034 -0.3979  0.4337
  301MPD2    C1 4583   0.923   1.372   1.212 -0.5467  0.4334  0.2239
  301MPD2    C2 4584   0.859   1.251   1.218 -0.1592  0.4300 -0.4430
  301MPD2    C3 4585   0.906   1.144   1.294 -0.0765 -0.7178 -0.5654
  301MPD2    C4 4586   1.030   1.160   1.352  0.1903  0.0327  0.1556
  301MPD2    C5 4587   1.100   1.276   1.339 -0.0630 -0.3503  0.2776
  301MPD2     H 4588   0.772   1.234   1.155  0.4896 -1.1827 -0.8946
  301MPD2    H1 4589   1.069   1.088   1.423  2.0180 -1.4138 -2.3272
  301MPD2    H2 4590   1.109   1.470   1.247  0.6685 -1.2835 -1.5925
  301MPD2    H3 4591   1.194   1.280   1.392  0.6783  0.2145 -1.0879
  301MPD2     N 4592   0.841   1.015   1.308  1.1643  0.1804 -0.3213
  301MPD2    H5 4593   0.893   0.948   1.365 -2.0267 -1.3090  0.8406
  301MPD2    N1 4594   0.850   1.470   1.140 -0.6376 -0.2030  0.1362
  301MPD2    H7 4595   0.764   1.440   1.095 -0.1253 -0.5818 -0.5762
  302TMC3    C1 4596   0.690   0.834   1.276 -0.1651 -0.5917  0.4791
  302TMC3    C2 4597   0.770   0.746   1.345  0.1514  0.4896 -0.6474
  302TMC3    C3 4598   0.722   0.619   1.364 -0.1095 -0.8529  0.3467
  302TMC3    C4 4599   0.569   0.794   1.226 -0.1661 -0.5403  0.2765
  302TMC3    C5 4600   0.530   0.658   1.235  0.5065  0.2047  0.3156
  302TMC3    C6 4601   0.609   0.568   1.310  0.2914 -0.2594 -0.4745
  302TMC3     C 4602   0.727   0.972   1.242 -0.4456  0.2237  0.6810
  302TMC3     O 4603   0.642   1.036   1.172 -0.4009 -0.4578  1.0897
  302TMC3     H 4604   0.864   0.777   1.389 -1.0776  1.6651  1.1563
  302TMC3    H1 4605   0.521   0.859   1.154  1.8965  2.1311  1.3325
  302TMC3    H2 4606   0.588   0.462   1.300 -0.2715 -0.2885  0.9623
  302TMC3    C7 4607   0.455   0.608   1.122 -0.1580 -0.3011 -0.0251
  302TMC3    C8 4608   0.805   0.531   1.432  0.8432 -0.3011  0.4662
  302TMC3    O1 4609   0.480   0.499   1.070  0.7803 -0.6404 -0.2498
  302TMC3    O2 4610   0.923   0.553   1.419  0.4604 -0.5421  0.3013
  303MPD2     C 4611   1.043   0.611  10.535  0.1855 -0.0532 -0.1213
  303MPD2    C1 4612   1.052   0.478  10.523 -0.0629 -0.7597  0.1639
  303MPD2    C2 4613   1.050   0.413  10.400 -0.1510 -0.6843 -0.2272
  303MPD2    C3 4614   1.028   0.482  10.284  0.8702  0.1929 -0.4753
  303MPD2    C4 4615   1.018   0.621  10.298 -0.4359  0.6398 -1.0408
  303MPD2    C5 4616   1.025   0.686  10.423 -1.3377  0.3050 -0.7156
  303MPD2     H 4617   1.059   0.305  10.398 -0.4683 -0.7140  0.0628
  303MPD2    H1 4618   1.017   0.684  10.210  1.0108  1.2053 -0.6531
  303MPD2    H2 4619   1.048   0.668  10.627 -1.0624 -1.9999  1.1335
  303MPD2    H3 4620   1.033   0.793  10.438 -0.2320 -0.3179  3.2714
  303MPD2     N 4621   1.016   0.427  10.153 -0.0147 -0.0670 -0.4342
  303MPD2    H5 4622   0.989   0.491  10.079 -3.0104 -0.4847  0.2990
  303MPD2    N1 4623   1.047   0.397  10.636  0.0878  0.3684  0.1281
  303MPD2    H7 4624   1.015   0.438  10.723 -0.0565  2.4336 -0.8913
  304TMC3    C1 4625   1.074   0.189  10.754 -0.5015  0.3055 -0.1236
  304TMC3    C2 4626   0.941   0.187  10.797  0.1506  0.0674 -0.2172
  304TMC3    C3 4627   0.900   0.081  10.872 -0.2245 -0.2928 -0.3078
  304TMC3    C4 4628   1.162   0.090  10.779 -0.5599 -0.4429  0.0952
  304TMC3    C5 4629   1.115   4.735  10.867 -0.0223 -0.0695 -0.1723
  304TMC3    C6 4630   0.985   4.722  10.906 -0.2501  0.1201 -0.6155
  304TMC3     C 4631   1.109   0.274  10.649  0.4806  0.4246  0.7180
  304TMC3     O 4632   1.197   0.238  10.569 -0.1469  0.7624 -0.1821
  304TMC3     H 4633   0.866   0.255  10.759  0.3995  0.2451 -0.3962
  304TMC3    H1 4634   1.264   0.084  10.744 -0.2292  1.0335  0.7807
  304TMC3    H2 4635   0.941   4.640  10.961  2.3466 -0.9036 -0.0535
  304TMC3    C7 4636   1.146   4.600  10.823  0.2630  0.4211 -1.1478
  304TMC3    C8 4637   0.771   0.029  10.837 -1.2988 -0.6056  0.1967
  304TMC3    O1 4638   1.058   4.514  10.844  0.1120  0.1490 -0.5099
  304TMC3    O2 4639   0.677   0.108  10.853  0.2455  0.1569  0.0266
  305MPD2     C 4640   3.857   2.104  14.320 -0.2116  0.5694 -0.3776
  305MPD2    C1 4641   3.922   1.985  14.305  0.2195 -0.4972  0.3691
  305MPD2    C2 4642   3.915   1.925  14.183 -0.4588 -0.3762  0.7770
  305MPD2    C3 4643   3.841   1.976  14.079  0.5804  0.0807 -0.5920
  305MPD2    C4 4644   3.768   2.088  14.104 -0.2218 -0.1862 -0.0692
  305MPD2    C5 4645   3.787   2.162  14.215 -0.0337  0.5939  0.5582
  305MPD2     H 4646   3.966   1.831  14.172 -1.8229 -0.7872 -2.0598
  305MPD2    H1 4647   3.702   2.127  14.028  0.6671  1.4725 -0.0075
  305MPD2    H2 4648   3.884   2.158  14.410  2.2964 -0.3916 -0.5499
  305MPD2    H3 4649   3.742   2.253  14.253 -0.3544  0.5140  0.3716
  305MPD2     N 4650   3.845   1.907  13.955  0.1312 -0.5397  0.5643
  305MPD2    H5 4651   3.902   1.824  13.942  0.7768  0.1713 -0.9801
  305MPD2    N1 4652   3.980   1.927  14.419 -0.6418  0.7235  0.4526
  305MPD2    H7 4653   3.968   1.979  14.505 -0.0041  0.4495  0.7087
  306TMC3    C1 4654   4.108   1.780  14.563  0.0643 -0.1818 -0.4585
  306TMC3    C2 4655   4.158   1.649  14.583  0.8644 -0.0449 -0.6367
  306TMC3    C3 4656   4.173   1.608  14.716 -0.1300 -0.4660 -0.5724
  306TMC3    C4 4657   4.091   1.865  14.671  0.1735  0.4349  2.2132
  306TMC3    C5 4658   4.098   1.816  14.800  0.3989 -0.4122 -0.3177
  306TMC3    C6 4659   4.145   1.688  14.823  0.2999 -0.2854 -0.7917
  306TMC3     C 4660   4.072   1.820  14.428 -0.5284 -0.0345 -0.3027
  306TMC3     O 4661   4.110   1.736  14.344  0.2768  0.3790  0.3621
  306TMC3     H 4662   4.178   1.582  14.501 -1.4024 -0.9828 -0.4140
  306TMC3    H1 4663   4.071   1.970  14.659 -2.4947 -0.0638  2.2487
  306TMC3    H2 4664   4.145   1.660  14.928  1.7752  2.2921 -0.1127
  306TMC3    C7 4665   4.069   1.907  14.910 -0.3968  0.0594 -0.7974
  306TMC3    C8 4666   4.211   1.469  14.745 -0.0538  0.4039  0.4842
  306TMC3    O1 4667   3.984   1.992  14.891 -0.2389 -0.1215 -0.2232
  306TMC3    O2 4668   4.202   1.390  14.648  0.0624 -0.2380 -0.2462
  307MPD2     C 4669   1.360   4.724   0.425  0.2025 -0.2380 -0.4726
  307MPD2    C1 4670   1.339   0.113   0.424 -0.0763 -0.5545  0.5101
  307MPD2    C2 4671   1.329   0.181   0.547 -1.1553  0.9482 -0.7110
  307MPD2    C3 4672   1.323   0.106   0.663  0.1780  0.2991 -0.7315
  307MPD2    C4 4673   1.346   4.712   0.659 -0.0376 -0.1031  0.0046
  307MPD2    C5 4674   1.373   4.648   0.538 -0.2785 -0.0250 -0.0647
  307MPD2     H 4675   1.327   0.289   0.564 -1.4880  0.6756  0.9570
  307MPD2    H1 4676   1.331   4.657   0.751  0.0655  0.8416  0.5808
  307MPD2    H2 4677   1.365   4.661   0.337 -1.5209  0.1547 -0.8631
  307MPD2    H3 4678   1.380   4.540   0.540 -1.4701 -0.0758  2.2409
  307MPD2     N 4679   1.304   0.182   0.781  0.4017 -0.1514  1.0254
  307MPD2    H5 4680   1.285   0.280   0.767  2.5557  0.2117  0.6452
  307MPD2    N1 4681   1.328   0.187   0.308 -0.6278  0.5199 -0.8809
  307MPD2    H7 4682   1.342   0.287   0.315  0.3812  0.1495  2.1471
  308TMC3    C1 4683   1.086   0.234   1.161 -0.0314 -0.1410 -0.2994
  308TMC3    C2 4684   1.065   0.366   1.136 -0.0038  0.6085  0.7860
  308TMC3    C3 4685   1.160   0.420   1.052  0.4897  0.0991  0.2891
  308TMC3    C4 4686   1.183   0.153   1.107  0.1437 -0.5952 -0.4547
  308TMC3    C5 4687   1.260   0.216   1.012  0.9145  0.4315  0.2070
  308TMC3    C6 4688   1.252   0.349   0.985  0.2604 -0.8994  0.7690
  308TMC3     C 4689   0.981   0.164   1.229  0.9556 -0.3189  0.0635
  308TMC3     O 4690   1.002   0.070   1.309 -0.3071  0.3857 -0.0109
  308TMC3     H 4691   1.009   0.433   1.200 -1.0498 -1.1087  1.6642
  308TMC3    H1 4692   1.185   0.045   1.115  0.1395 -0.6076 -0.6242
  308TMC3    H2 4693   1.331   0.396   0.927  2.0602 -3.3876  1.1824
  308TMC3    C7 4694   1.315   0.129   0.909 -0.3065  0.6058  0.4426
  308TMC3    C8 4695   1.220   0.540   1.108  0.1588 -0.3071  0.1326
  308TMC3    O1 4696   1.361   0.022   0.947 -0.2959  1.0130  0.1595
  308TMC3    O2 4697   1.215   0.552   1.230  0.0620 -0.0809  0.2846
  309MPD2     C 4698   0.521   0.449  17.514  0.2442 -0.7120  0.5615
  309MPD2    C1 4699   0.417   0.456  17.424 -0.1225  0.0695  0.1919
  309MPD2    C2 4700   0.285   0.452  17.466 -0.1934 -0.5054  0.1100
  309MPD2    C3 4701   0.255   0.424  17.597  0.0315 -0.1405  0.5166
  309MPD2    C4 4702   0.358   0.412  17.685  0.3644  0.1763  0.0642
  309MPD2    C5 4703   0.492   0.432  17.647  0.3653  0.1520  0.0117
  309MPD2     H 4704   0.208   0.446  17.391 -1.7559 -3.3726  1.9601
  309MPD2    H1 4705   0.331   0.382   0.025  1.1272 -0.8319 -0.0363
  309MPD2    H2 4706   0.626   0.461  17.489 -0.6692  0.7801 -2.5605
  309MPD2    H3 4707   0.571   0.406  17.718  1.2998 -0.5267 -1.2747
  309MPD2     N 4708   0.125   0.410  17.645  0.3967  0.0036 -0.2432
  309MPD2    H5 4709   0.131   0.382  17.743 -0.1359 -0.5601 -0.3724
  309MPD2    N1 4710   0.436   0.489  17.294 -0.4760  0.3403 -0.2531
  309MPD2    H7 4711   0.347   0.509  17.249 -0.5552 -0.5385 -0.4811
  310TMC3    C1 4712   0.539   0.488  17.081  0.2295 -0.4454  0.4969
  310TMC3    C2 4713   0.441   0.562  17.022 -0.2818 -0.8197  0.1670
  310TMC3    C3 4714   0.448   0.594  16.892  0.5323 -0.3147  0.7170
  310TMC3    C4 4715   0.646   0.437  17.014 -0.2593 -0.1170 -0.6512
  310TMC3    C5 4716   0.651   0.460  16.879 -0.4833 -0.2423 -0.1105
  310TMC3    C6 4717   0.551   0.535  16.822 -0.3394  0.0603 -0.3664
  310TMC3     C 4718   0.558   0.478  17.225  0.6264 -0.5689  0.0706
  310TMC3     O 4719   0.670   0.449  17.262  0.3036 -0.5269 -0.7482
  310TMC3     H 4720   0.364   0.609  17.082 -1.2320 -2.0811 -0.0696
  310TMC3    H1 4721   0.714   0.370  17.066  1.2369  0.8294 -1.3772
  310TMC3    H2 4722   0.553   0.550  16.715  2.1383  0.7820 -0.1992
  310TMC3    C7 4723   0.713   0.366  16.782 -0.5211 -0.1678  0.5982
  310TMC3    C8 4724   0.362   0.700  16.836  0.6054  0.0366  0.2498
  310TMC3    O1 4725   0.659   0.366  16.670 -0.2939 -0.3842 -0.1430
  310TMC3    O2 4726   0.245   0.709  16.876 -0.0997 -0.3514 -0.1657
  311MPD2     C 4727   2.815   1.049  12.815  0.5219  0.6937  0.0261
  311MPD2    C1 4728   2.782   1.153  12.894 -0.2489 -0.3848 -0.1845
  311MPD2    C2 4729   2.654   1.160  12.945  0.1292  0.2323 -0.0940
  311MPD2    C3 4730   2.560   1.066  12.899  0.7992 -0.2837  0.3212
  311MPD2    C4 4731   2.598   0.970  12.807 -0.2486  0.4251  0.0048
  311MPD2    C5 4732   2.725   0.970  12.756 -0.1808  0.0184 -0.4544
  311MPD2     H 4733   2.626   1.240  13.012  1.6390  0.6778  0.0080
  311MPD2    H1 4734   2.528   0.894  12.774  0.6266 -1.2277  1.8922
  311MPD2    H2 4735   2.917   1.030  12.784  0.4562 -0.7433  0.7311
  311MPD2    H3 4736   2.761   0.897  12.685 -2.0190 -0.8131 -0.5373
  311MPD2     N 4737   2.433   1.086  12.947 -0.5908  0.4012 -0.2604
  311MPD2    H5 4738   2.424   1.171  13.002  0.5281  0.1482  0.3023
  311MPD2    N1 4739   2.874   1.251  12.943  0.2056  0.7161  0.4450
  311MPD2    H7 4740   2.835   1.331  12.989  2.8735  1.2994  1.6866
  312TMC3    C1 4741   2.190   1.072  12.924 -0.0137 -0.7753  0.0559
  312TMC3    C2 4742   2.116   1.044  12.811 -0.5028 -0.2794  0.1062
  312TMC3    C3 4743   2.014   1.130  12.796  1.0875  0.4116 -0.5523
  312TMC3    C4 4744   2.173   1.171  13.010  0.7806  0.6641  0.2809
  312TMC3    C5 4745   2.065   1.251  12.985  0.2011  0.3628 -0.0923
  312TMC3    C6 4746   1.987   1.239  12.874  0.2563 -1.0270 -0.2312
  312TMC3     C 4747   2.321   1.005  12.914 -0.8335  0.2091 -0.3100
  312TMC3     O 4748   2.323   0.900  12.852 -0.1033  0.3980  0.1315
  312TMC3     H 4749   2.135   0.961  12.744 -0.1256  0.8138 -1.1453
  312TMC3    H1 4750   2.237   1.181  13.098 -0.2799  0.3714  1.0866
  312TMC3    H2 4751   1.893   1.291  12.857  0.5221 -0.7255 -0.8239
  312TMC3    C7 4752   2.047   1.370  13.061 -0.3559  0.5046 -0.5718
  312TMC3    C8 4753   1.903   1.069  12.734 -0.2318  0.4782  0.1307
  312TMC3    O1 4754   1.987   1.464  13.004 -0.1844  0.4669  0.0220
  312TMC3    O2 4755   1.882   0.952  12.758 -1.1010  0.0698 -0.0214
  313MPD2     C 4756   1.703   0.199  11.164 -0.2301 -0.5387  0.0588
  313MPD2    C1 4757   1.826   0.246  11.120 -0.1455  0.0415 -0.1065
  313MPD2    C2 4758   1.894   0.156  11.037  0.5413 -0.0635 -0.2786
  313MPD2    C3 4759   1.855   0.024  11.019  0.7145 -0.2764  0.7566
  313MPD2    C4 4760   1.738   4.723  11.082 -0.0549  0.0390 -0.1613
  313MPD2    C5 4761   1.662   0.069  11.150 -0.0106 -0.3919 -0.0755
  313MPD2     H 4762   1.985   0.192  10.991  0.9204 -0.1053  0.4421
  313MPD2    H1 4763   1.695   4.624  11.074 -0.4528  0.1152  1.0213
  313MPD2    H2 4764   1.628   0.246  11.227  0.6348  0.9319  0.0034
  313MPD2    H3 4765   1.575   0.035  11.205 -0.2850 -1.3101 -1.0696
  313MPD2     N 4766   1.927   4.687  10.927  0.0714  0.1080  0.3076
  313MPD2    H5 4767   2.000   4.729  10.871 -0.1811  1.4507  1.0019
  313MPD2    N1 4768   1.864   0.382  11.135  0.2711  0.2617  0.4723
  313MPD2    H7 4769   1.960   0.408  11.115  0.0507  1.5441  1.0259
  314TMC3    C1 4770   1.831   0.611  11.130 -0.3031  0.6517  0.2490
  314TMC3    C2 4771   1.963   0.637  11.145  0.5115  0.0602 -0.3787
  314TMC3    C3 4772   2.014   0.761  11.108 -0.6704  0.1195  0.0314
  314TMC3    C4 4773   1.750   0.702  11.086  0.0710  0.1233  0.2442
  314TMC3    C5 4774   1.797   0.821  11.037  0.1753 -0.1829  0.1136
  314TMC3    C6 4775   1.925   0.857  11.057 -0.1394  0.1009  0.2215
  314TMC3     C 4776   1.771   0.480  11.169  0.0993  0.2396 -0.1623
  314TMC3     O 4777   1.653   0.479  11.193  0.0328  0.6476 -0.7169
  314TMC3     H 4778   2.020   0.563  11.200 -0.3275 -0.1329  0.2337
  314TMC3    H1 4779   1.645   0.685  11.065  0.0107 -0.1402  0.7663
  314TMC3    H2 4780   1.967   0.956  11.046 -2.2573  0.8382 -1.0831
  314TMC3    C7 4781   1.714   0.886  10.936 -0.4159  0.0024 -0.0806
  314TMC3    C8 4782   2.130   0.812  11.172  1.0997 -0.4052  0.3606
  314TMC3    O1 4783   1.599   0.847  10.921 -0.8054 -0.2170  0.0036
  314TMC3    O2 4784   2.145   0.933  11.174 -0.2894 -0.2903 -0.2356
  315MPD2     C 4785   1.563   4.644  17.700 -0.3586 -0.5895  0.3782
  315MPD2    C1 4786   1.626   4.659   0.059  0.0848 -0.4135 -0.0660
  315MPD2    C2 4787   1.686   0.036   0.100  0.7576  0.0872 -0.6165
  315MPD2    C3 4788   1.692   0.142   0.008  0.1651 -0.7383 -0.1160
  315MPD2    C4 4789   1.644   0.121  17.638  0.0683 -0.6320 -0.9880
  315MPD2    C5 4790   1.568   0.010  17.617 -0.8806  0.7882 -0.1013
  315MPD2     H 4791   1.720   0.043   0.203  0.0799 -1.3545 -0.2847
  315MPD2    H1 4792   1.655   0.199  17.564  0.6672 -0.6087 -0.8750
  315MPD2    H2 4793   1.523   4.555  17.654 -0.2511  0.5190 -1.8252
  315MPD2    H3 4794   1.529   4.735  17.517 -0.1920 -2.5586  0.1315
  315MPD2     N 4795   1.759   0.263   0.044 -0.2050 -0.7506 -0.1941
  315MPD2    H5 4796   1.814   0.258   0.129 -0.7523  2.4054  0.3765
  315MPD2    N1 4797   1.662   4.545   0.127  0.1783  0.3006 -0.1899
  315MPD2    H7 4798   1.742   4.557   0.189 -1.1901  0.6759  1.5146
  316TMC3    C1 4799   1.829   0.482   0.055 -0.3589 -0.0882  0.3590
  316TMC3    C2 4800   1.902   0.447   0.173  0.6214  0.6274 -0.6058
  316TMC3    C3 4801   1.996   0.534   0.218  0.9566  0.4033  0.0707
  316TMC3    C4 4802   1.835   0.605  17.760 -0.2923  0.1825  0.3174
  316TMC3    C5 4803   1.923   0.691   0.057 -0.9789  0.2741  0.0442
  316TMC3    C6 4804   2.005   0.658   0.163 -0.4838  0.7764 -0.0843
  316TMC3     C 4805   1.752   0.387  17.741 -0.5607  0.2218 -0.4819
  316TMC3     O 4806   1.687   0.419  17.643  0.0228 -0.3824 -0.0049
  316TMC3     H 4807   1.895   0.352   0.224 -0.4053  0.3550 -1.2441
  316TMC3    H1 4808   1.766   0.634  17.681 -0.2038 -1.1086 -0.2331
  316TMC3    H2 4809   2.078   0.733   0.189 -0.0997  0.2013  0.5076
  316TMC3    C7 4810   1.921   0.829   0.017  0.2383 -0.2116  0.2652
  316TMC3    C8 4811   2.080   0.497   0.328 -0.0067  0.6850 -0.0501
  316TMC3    O1 4812   1.941   0.910   0.105 -0.2214  0.1844  0.1692
  316TMC3    O2 4813   2.121   0.601   0.380 -0.2857  0.0198  0.1188
  317MPD2     C 4814   3.451   3.516  12.752 -0.2806  0.5134 -0.5838
  317MPD2    C1 4815   3.530   3.407  12.730  0.0910 -0.4806  0.7723
  317MPD2    C2 4816   3.604   3.356  12.838  0.2751  0.0903  0.1417
  317MPD2    C3 4817   3.582   3.405  12.966  0.2164  0.0123 -0.0881
  317MPD2    C4 4818   3.497   3.518  12.987  0.1659  0.3957  0.8880
  317MPD2    C5 4819   3.441   3.568  12.878 -0.5235 -0.0386 -0.4108
  317MPD2     H 4820   3.666   3.268  12.822 -0.9879 -0.9747  1.0994
  317MPD2    H1 4821   3.479   3.572  13.079 -1.8200  1.6331 -0.2256
  317MPD2    H2 4822   3.377   3.541  12.677  1.7388  2.0243 -2.0992
  317MPD2    H3 4823   3.370   3.649  12.888 -0.5438 -0.5977  3.9502
  317MPD2     N 4824   3.641   3.334  13.071  0.0982 -0.4250  0.9975
  317MPD2    H5 4825   3.685   3.249  13.036 -2.4066 -1.9176  1.4495
  317MPD2    N1 4826   3.554   3.352  12.607 -0.3820 -0.0062  0.0281
  317MPD2    H7 4827   3.620   3.275  12.603 -0.5390 -0.2085  1.4714
  318TMC3    C1 4828   3.710   3.277  13.288 -0.0373 -0.3646  0.6078
  318TMC3    C2 4829   3.687   3.143  13.255  0.7494  0.2267 -0.0873
  318TMC3    C3 4830   3.747   3.045  13.333 -0.0411  0.0620 -0.3444
  318TMC3    C4 4831   3.786   3.320  13.393  0.1685  0.2521  0.5543
  318TMC3    C5 4832   3.854   3.221  13.449 -0.3065 -0.8313 -0.8105
  318TMC3    C6 4833   3.838   3.084  13.427  0.6655 -0.0650 -0.3113
  318TMC3     C 4834   3.663   3.383  13.194 -0.4089 -0.3308  0.2306
  318TMC3     O 4835   3.662   3.499  13.228  0.4877  0.0978  0.0090
  318TMC3     H 4836   3.623   3.104  13.177 -0.2573  0.3749  0.6461
  318TMC3    H1 4837   3.804   3.425  13.410  1.2388  0.1248  0.2512
  318TMC3    H2 4838   3.896   3.007  13.476  0.3997 -1.3572 -1.9905
  318TMC3    C7 4839   3.962   3.263  13.545 -0.1750 -0.3132  0.0579
  318TMC3    C8 4840   3.723   2.902  13.330 -0.4562 -0.2968  0.1345
  318TMC3    O1 4841   3.947   3.384  13.575 -0.3826 -0.2305  0.4594
  318TMC3    O2 4842   3.791   2.827  13.398  0.2067 -0.1992 -0.2993
  319MPD2     C 4843   4.579   4.459  16.712 -0.1862  0.2911 -0.5647
  319MPD2    C1 4844   4.524   4.358  16.787 -0.5560 -0.1151  0.4297
  319MPD2    C2 4845   4.403   4.309  16.737  0.3178  0.0105 -0.5076
  319MPD2    C3 4846   4.339   4.364  16.624 -1.3223 -0.2478 -0.4947
  319MPD2    C4 4847   4.402   4.462  16.555  0.5673 -0.9155  0.0961
  319MPD2    C5 4848   4.523   4.501  16.598 -0.4260 -0.4487  0.4547
  319MPD2     H 4849   4.362   4.231  16.801 -0.9303  0.7107 -0.4477
  319MPD2    H1 4850   4.355   4.508  16.469 -0.9486  1.5195  2.2223
  319MPD2    H2 4851   4.679   4.497  16.731 -0.1038  0.0237 -0.4663
  319MPD2    H3 4852   4.571   4.579  16.541 -2.6184  1.2163  0.8429
  319MPD2     N 4853   4.219   4.319  16.564  0.2665  0.0452  0.8649
  319MPD2    H5 4854   4.186   4.374  16.485  0.4288 -0.2438  0.5948
  319MPD2    N1 4855   4.579   4.304  16.908 -0.5043 -0.8461 -0.3204
  319MPD2    H7 4856   4.511   4.244  16.955  0.4001 -2.2493 -0.8030
  320TMC3    C1 4857   4.013   4.209  16.540  0.1791 -0.4236  0.0811
  320TMC3    C2 4858   3.986   4.319  16.459 -0.1433 -0.3683 -0.1597
  320TMC3    C3 4859   3.911   4.283  16.352 -0.6367 -0.7681 -0.4698
  320TMC3    C4 4860   3.967   4.081  16.524  0.8578 -0.8029 -0.3301
  320TMC3    C5 4861   3.889   4.058  16.410  0.0751  0.4462 -0.5130
  320TMC3    C6 4862   3.867   4.158  16.320 -0.0768  0.1446  0.1983
  320TMC3     C 4863   4.137   4.219  16.616  0.1810  0.1907  0.5918
  320TMC3     O 4864   4.152   4.137  16.703  0.0973  0.5001 -0.3370
  320TMC3     H 4865   3.992   4.423  16.488 -2.0338 -0.5476  0.8885
  320TMC3    H1 4866   4.004   3.995  16.579  1.3674  0.5268  1.3982
  320TMC3    H2 4867   3.798   4.142  16.238 -3.0054 -0.0844  2.6885
  320TMC3    C7 4868   3.882   3.924  16.363 -0.8103  0.3051 -0.2375
  320TMC3    C8 4869   3.840   4.389  16.277  0.0616 -0.1980 -0.6497
  320TMC3    O1 4870   3.868   3.915  16.241  0.3024 -0.5510 -0.3551
  320TMC3    O2 4871   3.809   4.497  16.332  0.8450 -0.0928  0.3208
  321TMC3    C1 4872   4.707   4.287  17.110 -0.0179 -0.2292 -0.5310
  321TMC3    C2 4873   4.686   4.161  17.148 -0.4896  0.3977  0.6406
  321TMC3    C3 4874   4.678   4.132  17.283  0.5349  0.2614  0.0424
  321TMC3    C4 4875   4.726   4.387  17.207 -0.8878  0.1277  0.7249
  321TMC3    C5 4876   4.710   4.354  17.342  0.5973  0.3272  0.2579
  321TMC3    C6 4877   4.679   4.227  17.382  0.7418 -0.1777  0.2955
  321TMC3     C 4878   4.701   4.326  16.974 -0.4287  0.1615  0.6326
  321TMC3     O 4879   0.056   4.395  16.936  0.2396  0.7236 -0.2798
  321TMC3     H 4880   4.689   4.078  17.078 -1.5553  0.8933  0.0018
  321TMC3    H1 4881   0.016   4.488  17.180 -0.0046  0.2115  2.0406
  321TMC3    H2 4882   4.669   4.199  17.486  0.9593 -1.2784  0.0125
  321TMC3    C7 4883   0.042   4.432  17.446 -0.2698 -0.1979  0.4705
  321TMC3    C8 4884   0.022   4.022  17.320  0.8856  0.0750  0.1767
  321TMC3    O1 4885   0.042   4.382  17.557 -0.2119 -0.4869 -0.0450
  321TMC3    O2 4886   4.723   3.910  17.308  0.0606  0.4807 -0.1407
  322MPD2     C 4887   3.799   1.097  13.385  0.6357  0.7524 -0.1416
  322MPD2    C1 4888   3.768   1.061  13.513  0.5974  0.6644  0.6116
  322MPD2    C2 4889   3.729   0.930  13.527  0.0613  0.0466  0.4405
  322MPD2    C3 4890   3.704   0.841  13.424 -1.2879 -0.4519  1.0359
  322MPD2    C4 4891   3.733   0.882  13.295  0.4191  0.4266 -0.4014
  322MPD2    C5 4892   3.784   1.008  13.280 -0.0556 -0.4058 -0.0310
  322MPD2     H 4893   3.721   0.896  13.629  1.1130 -1.4800  0.0158
  322MPD2    H1 4894   3.735   0.820  13.206  1.6200  0.0688 -0.1282
  322MPD2    H2 4895   3.839   1.193  13.355 -2.5068  1.3767 -2.2794
  322MPD2    H3 4896   3.819   1.028  13.179  0.7875  1.3104  0.5949
  322MPD2     N 4897   3.663   0.709  13.457  0.7573 -0.1696 -0.1060
  322MPD2    H5 4898   3.677   0.687  13.555  0.2368  1.8108  0.4145
  322MPD2    N1 4899   3.788   1.158  13.615  0.4356 -0.3148  0.8285
  322MPD2    H7 4900   3.831   1.248  13.597 -1.0460 -0.3668 -2.8852
  323TMC3    C1 4901   3.783   1.251  13.840 -0.3261  0.3914  0.0122
  323TMC3    C2 4902   3.910   1.289  13.814  0.1344 -0.0638 -0.1206
  323TMC3    C3 4903   3.982   1.327  13.927 -0.4791  0.4151 -0.3204
  323TMC3    C4 4904   3.718   1.250  13.960 -0.2496  0.2210 -0.7218
  323TMC3    C5 4905   3.787   1.292  14.065 -0.1708  0.0402 -0.7084
  323TMC3    C6 4906   3.922   1.331  14.052 -0.5081 -0.2972  0.4285
  323TMC3     C 4907   3.726   1.163  13.743 -0.2001  0.6581 -0.5850
  323TMC3     O 4908   3.637   1.088  13.780 -0.4260 -0.2903  0.0288
  323TMC3     H 4909   3.961   1.277  13.719  2.1813  0.8039  0.8479
  323TMC3    H1 4910   3.615   1.216  13.966 -0.0129 -0.5703 -1.2248
  323TMC3    H2 4911   3.977   1.375  14.134  0.6369  2.4901 -1.8111
  323TMC3    C7 4912   3.728   1.259  14.195  0.1992 -0.3410 -0.0162
  323TMC3    C8 4913   4.124   1.371  13.923 -0.0488 -0.3356  0.3392
  323TMC3    O1 4914   3.627   1.197  14.207  0.1889 -0.2894  0.2199
  323TMC3    O2 4915   4.176   1.415  14.023 -0.6594  0.0185  0.4368
  324MPD2     C 4916   0.572   1.723  14.819  0.2116  0.3894  0.6880
  324MPD2    C1 4917   0.516   1.825  14.747  0.1595  0.4889  0.4068
  324MPD2    C2 4918   0.407   1.805  14.680 -0.0384  0.4323  0.0783
  324MPD2    C3 4919   0.341   1.680  14.676 -0.8079 -0.4444 -0.1635
  324MPD2    C4 4920   0.389   1.573  14.747 -0.6193  0.2939  0.9978
  324MPD2    C5 4921   0.509   1.597  14.821  0.5170 -0.3955  0.0183
  324MPD2     H 4922   0.356   1.886  14.628 -0.5546 -0.5786 -1.0072
  324MPD2    H1 4923   0.340   1.476  14.750  1.9883 -1.0813 -0.1006
  324MPD2    H2 4924   0.664   1.738  14.874  0.5171 -0.3674  0.3888
  324MPD2    H3 4925   0.542   1.510  14.876  1.1415 -0.3490 -0.2800
  324MPD2     N 4926   0.227   1.649  14.599 -0.4097  0.3574  0.5550
  324MPD2    H5 4927   0.187   1.556  14.609 -2.4801  1.1681 -0.0734
  324MPD2    N1 4928   0.574   1.960  14.755 -0.1005 -1.0430  0.2203
  324MPD2    H7 4929   0.541   2.038  14.699  2.5220 -0.0003  0.0957
  325TMC3    C1 4930   0.041   1.696  14.459 -0.3648 -0.0728 -0.0293
  325TMC3    C2 4931   4.737   1.773  14.352 -0.4595  0.1625 -0.3484
  325TMC3    C3 4932   4.612   1.835  14.357  0.0816  0.7354 -0.9509
  325TMC3    C4 4933   4.687   1.682  14.563  1.5278  0.1985 -0.0568
  325TMC3    C5 4934   4.569   1.749  14.570 -0.5091 -0.1968  0.2621
  325TMC3    C6 4935   4.530   1.824  14.466  0.0501 -0.2325  0.0618
  325TMC3     C 4936   0.176   1.733  14.503  0.3520 -0.4469  0.2853
  325TMC3     O 4937   0.222   1.841  14.466  0.2822  0.4592 -0.2113
  325TMC3     H 4938   0.067   1.792  14.272 -1.2915  0.7444 -0.9453
  325TMC3    H1 4939   4.704   1.623  14.652  0.5100 -0.9783 -0.6491
  325TMC3    H2 4940   4.430   1.866  14.460  0.0310 -0.3021 -0.1139
  325TMC3    C7 4941   4.541   1.796  14.708  0.0599 -0.2986  0.1136
  325TMC3    C8 4942   4.551   1.865  14.230  0.3669 -0.1495 -0.0691
  325TMC3    O1 4943   4.557   1.723  14.807 -0.4387  0.2110 -0.9299
  325TMC3    O2 4944   4.572   1.786  14.141  0.7426 -0.3139 -0.2942
  326MPD2     C 4945   1.742   2.652  11.258  0.6658 -0.0898  1.0691
  326MPD2    C1 4946   1.785   2.721  11.149  0.5647  0.0278 -0.0116
  326MPD2    C2 4947   1.872   2.825  11.165 -0.8321 -0.8394 -0.3223
  326MPD2    C3 4948   1.905   2.870  11.293 -0.0261  0.3742 -0.0158
  326MPD2    C4 4949   1.846   2.811  11.403 -0.4770 -0.4896  0.7034
  326MPD2    C5 4950   1.761   2.705  11.386  0.4927  0.9495 -0.9005
  326MPD2     H 4951   1.916   2.864  11.074 -3.8373 -0.4272 -1.5708
  326MPD2    H1 4952   1.862   2.849  11.503 -0.4368  3.3102 -0.7425
  326MPD2    H2 4953   1.677   2.565  11.256  1.2456 -0.5208  0.5393
  326MPD2    H3 4954   1.728   2.649  11.472 -0.0939  3.4500  0.4868
  326MPD2     N 4955   1.983   2.988  11.308 -0.7502 -0.5562  1.0460
  326MPD2    H5 4956   2.013   2.995  11.405  0.0003  0.6542  0.7240
  326MPD2    N1 4957   1.751   2.685  11.017  0.3279 -0.7830  0.6312
  326MPD2    H7 4958   1.782   2.748  10.944 -1.8278 -0.6011 -0.1320
  327TMC3    C1 4959   1.655   2.600  10.834  0.1405 -0.3429 -0.2227
  327TMC3    C2 4960   1.548   2.660  10.774  0.1508  0.0922 -0.1577
  327TMC3    C3 4961   1.585   2.724  10.652 -0.2107 -0.0864 -0.1935
  327TMC3    C4 4962   1.780   2.578  10.770 -0.2240 -0.1081 -0.2436
  327TMC3    C5 4963   1.814   2.643  10.651 -0.8594 -1.2276  0.5248
  327TMC3    C6 4964   1.716   2.718  10.597 -0.0641 -0.6254  0.0038
  327TMC3     C 4965   1.668   2.590  10.977 -0.2311 -0.8945  0.2285
  327TMC3     O 4966   1.622   2.492  11.041 -0.4923 -0.3159  0.4433
  327TMC3     H 4967   1.464   2.687  10.837  0.9651 -1.1921  1.4689
  327TMC3    H1 4968   1.854   2.521  10.824  0.3748 -0.5979 -1.5850
  327TMC3    H2 4969   1.732   2.770  10.503 -0.5273  0.9768  0.8068
  327TMC3    C7 4970   1.936   2.724  10.663  0.1067 -0.5064  1.0847
  327TMC3    C8 4971   1.509   2.844  10.611  0.3815  0.0759 -0.6823
  327TMC3    O1 4972   1.951   2.806  10.570  0.7012  0.0934  0.5262
  327TMC3    O2 4973   1.568   2.919  10.534  0.1483  0.0426  0.2005
  328MPD2     C 4974   3.900   3.493  17.165 -0.1869 -0.6276 -0.1657
  328MPD2    C1 4975   3.861   3.370  17.110 -0.7240  0.0235 -0.1847
  328MPD2    C2 4976   3.775   3.367  17.004  0.1866 -0.0844  0.5554
  328MPD2    C3 4977   3.719   3.478  16.950 -0.5505 -0.4265  0.6549
  328MPD2    C4 4978   3.764   3.598  16.999 -0.1939  0.6575  0.0559
  328MPD2    C5 4979   3.842   3.611  17.118 -0.9872  0.2641  0.2142
  328MPD2     H 4980   3.749   3.269  16.966 -0.8883  0.1921  0.5754
  328MPD2    H1 4981   3.722   3.686  16.952  1.2378  1.7348  0.8146
  328MPD2    H2 4982   3.969   3.500  17.249  0.3339  0.0809 -0.6604
  328MPD2    H3 4983   3.878   3.708  17.149  2.6877 -0.6998 -1.0318
  328MPD2     N 4984   3.628   3.486  16.836  0.6678 -0.0700 -0.9047
  328MPD2    H5 4985   3.577   3.567  16.803 -1.9576 -0.3294  2.5295
  328MPD2    N1 4986   3.902   3.256  17.183 -0.5812  0.3198  0.3702
  328MPD2    H7 4987   3.962   3.266  17.264 -0.1877 -0.0982  0.1319
  329TMC3    C1 4988   3.910   3.025  17.264 -0.2534  0.2171  0.2124
  329TMC3    C2 4989   3.952   3.070  17.389 -0.2453 -0.1284 -0.6977
  329TMC3    C3 4990   4.008   2.976  17.473 -0.1231 -0.1706  0.0706
  329TMC3    C4 4991   3.918   2.892  17.233  0.2499 -0.1017  0.1132
  329TMC3    C5 4992   3.971   2.797  17.318 -0.3753 -0.0130  0.5067
  329TMC3    C6 4993   4.025   2.842  17.435  0.1839  0.4172  0.7273
  329TMC3     C 4994   3.866   3.124  17.165  0.8553  0.3913  0.4688
  329TMC3     O 4995   3.820   3.080  17.058  0.8100  1.0910  0.0773
  329TMC3     H 4996   3.961   3.176  17.410  1.4812 -0.4193  0.0309
  329TMC3    H1 4997   3.878   2.856  17.138 -1.3986  1.3016  0.2882
  329TMC3    H2 4998   4.077   2.772  17.500 -1.3952 -0.0785  1.4565
  329TMC3    C7 4999   3.931   2.659  17.296  0.2865  0.2398 -0.0627
  329TMC3    C8 5000   4.025   3.005  17.616 -1.2004 -0.3048  0.0703
  329TMC3    O1 5001   3.864   2.640  17.198 -0.4136  0.2810  0.1623
  329TMC3    O2 5002   4.114   2.950  17.677  0.6041 -0.4043 -0.6878
  330TMC3    C1 5003   2.169   2.153  10.204 -0.2425  0.2929  0.0522
  330TMC3    C2 5004   2.038   2.186  10.179 -0.1476  0.4542 -0.0567
  330TMC3    C3 5005   1.941   2.104  10.225 -0.2734  0.0505 -0.4050
  330TMC3    C4 5006   2.204   2.037  10.266  0.4571  0.2292  0.0509
  330TMC3    C5 5007   2.102   1.975  10.335 -0.5293 -0.5480 -0.4942
  330TMC3    C6 5008   1.968   2.003  10.312 -0.2666 -0.4091 -0.4497
  330TMC3     C 5009   2.268   2.201  10.112 -0.4090  0.1811  0.1596
  330TMC3     O 5010   2.384   2.170  10.139 -0.8472 -0.0570  0.3528
  330TMC3     H 5011   2.026   2.288  10.144  0.5206  1.3277  2.2569
  330TMC3    H1 5012   2.307   2.003  10.264  0.2354 -0.3164 -2.0259
  330TMC3    H2 5013   1.888   1.963  10.374 -1.1335  0.3032 -1.0930
  330TMC3    C7 5014   2.123   1.854  10.410  0.6472 -0.4003  0.3914
  330TMC3    C8 5015   1.803   2.122  10.186  0.3030  0.6159  0.5647
  330TMC3    O1 5016   2.030   1.791  10.457  0.2808  0.5254  0.5441
  330TMC3    O2 5017   1.768   2.227  10.134 -0.2123  0.3143  0.0685
  331MPD2     C 5018   0.160   1.426  13.370 -0.5254  1.0977 -0.8464
  331MPD2    C1 5019   0.223   1.415  13.251  0.0583  0.4349  0.1287
  331MPD2    C2 5020   0.203   1.304  13.167  0.2989  0.0589 -0.1267
  331MPD2    C3 5021   0.114   1.208  13.202 -0.5021  0.1874  0.7797
  331MPD2    C4 5022   0.044   1.217  13.323  0.0744 -0.6521  0.0925
  331MPD2    C5 5023   0.072   1.323  13.407 -0.6638 -0.0958 -0.6395
  331MPD2     H 5024   0.265   1.299  13.079  0.4629  0.9891 -0.0596
  331MPD2    H1 5025   4.705   1.151  13.354  0.3080 -1.3816 -0.8477
  331MPD2    H2 5026   0.175   1.505  13.443  1.1406  2.1630 -2.3541
  331MPD2    H3 5027   0.029   1.323  13.507 -2.4659 -1.2053 -1.4409
  331MPD2     N 5028   0.091   1.104  13.110 -0.0294  0.6893  0.0158
  331MPD2    H5 5029   0.155   1.097  13.032 -1.1081  0.6731 -0.8802
  331MPD2    N1 5030   0.316   1.522  13.220 -0.0309  0.5368  0.0308
  331MPD2    H7 5031   0.330   1.586  13.297 -3.0407  1.0784  0.0884
  332TMC3    C1 5032   0.040   0.905  13.022  0.1168 -0.8129  1.0677
  332TMC3    C2 5033   0.068   0.970  12.906  0.4940  0.2584  0.3054
  332TMC3    C3 5034   0.145   0.899  12.812 -0.2097 -0.1577  0.2210
  332TMC3    C4 5035   0.102   0.784  13.056 -0.8855 -0.2149  0.6934
  332TMC3    C5 5036   0.180   0.721  12.958 -0.2376 -0.6638  0.3054
  332TMC3    C6 5037   0.210   0.781  12.837  0.6657 -0.1669  0.5472
  332TMC3     C 5038   0.016   0.993  13.127 -0.3470 -0.3563  0.6483
  332TMC3     O 5039   4.669   0.972  13.208 -0.3845 -0.5789  0.5527
  332TMC3     H 5040   0.004   1.052  12.875  1.1402 -0.0976 -1.9703
  332TMC3    H1 5041   0.081   0.736  13.151 -1.5038 -2.4290 -0.5682
  332TMC3    H2 5042   0.263   0.723  12.762 -2.8508 -1.2372 -1.0897
  332TMC3    C7 5043   0.262   0.613  13.002  1.1604  0.6390 -0.1303
  332TMC3    C8 5044   0.192   0.956  12.687 -0.7884  1.0110 -0.3105
  332TMC3    O1 5045   0.216   0.546  13.099  0.3543 -0.0907  0.2473
  332TMC3    O2 5046   0.304   0.926  12.652 -0.0372 -0.0546 -0.5912
  333MPD2     C 5047   0.814   0.980  11.670  0.4816 -0.3584 -0.1723
  333MPD2    C1 5048   0.694   1.033  11.629  0.4032 -0.0177  0.2609
  333MPD2    C2 5049   0.586   1.021  11.710 -0.1388 -0.3778 -0.5768
  333MPD2    C3 5050   0.605   0.960  11.833  0.3032  0.2595  0.2183
  333MPD2    C4 5051   0.727   0.923  11.889 -0.6787  0.0382  0.5602
  333MPD2    C5 5052   0.828   0.939  11.800 -0.7562  0.0235  0.2237
  333MPD2     H 5053   0.496   1.078  11.692 -0.4275 -1.2000 -1.7424
  333MPD2    H1 5054   0.749   0.875  11.984 -0.7232  0.8582  0.9915
  333MPD2    H2 5055   0.903   0.984  11.608 -2.0167 -5.0673 -4.0976
  333MPD2    H3 5056   0.929   0.909  11.827 -0.4239  3.0196  2.2759
  333MPD2     N 5057   0.483   0.941  11.899  0.5188 -0.8656 -0.3441
  333MPD2    H5 5058   0.398   0.971  11.853  0.7582 -0.0789 -0.2742
  333MPD2    N1 5059   0.693   1.092  11.502 -0.6090  0.3211  0.7247
  333MPD2    H7 5060   0.785   1.097  11.458 -1.0583 -3.0099 -0.5866
  334TMC3    C1 5061   0.635   1.216  11.325 -0.1812  0.2111  0.1969
  334TMC3    C2 5062   0.728   1.141  11.256  0.5487 -0.3143 -0.8112
  334TMC3    C3 5063   0.803   1.203  11.163  0.1780  0.5533  0.1624
  334TMC3    C4 5064   0.609   1.344  11.300 -0.5238  0.3105  0.6156
  334TMC3    C5 5065   0.685   1.407  11.204  0.3360  0.3625  0.1747
  334TMC3    C6 5066   0.788   1.345  11.139 -0.0919  0.0023  0.6094
  334TMC3     C 5067   0.585   1.154  11.442  0.4050  0.5356 -0.3103
  334TMC3     O 5068   0.469   1.173  11.476  0.3430  0.2753 -0.0140
  334TMC3     H 5069   0.746   1.034  11.262 -0.6521 -0.3627  1.9089
  334TMC3    H1 5070   0.540   1.401  11.361 -0.4516  2.2983 -1.1531
  334TMC3    H2 5071   0.848   1.402  11.068 -1.0720  1.4982  0.9860
  334TMC3    C7 5072   0.678   1.558  11.185  0.0341 -0.3690  0.7215
  334TMC3    C8 5073   0.921   1.139  11.120 -0.9084  0.2878  0.2122
  334TMC3    O1 5074   0.768   1.611  11.122 -0.0332 -0.5337  0.2840
  334TMC3    O2 5075   0.923   1.017  11.105  0.2999 -0.1806  0.1635
  335TMC3    C1 5076   4.477   3.651  17.475 -0.0138 -0.4689 -0.0006
  335TMC3    C2 5077   4.386   3.568  17.421  0.4094 -0.6037  0.3332
  335TMC3    C3 5078   4.425   3.445  17.375 -1.0496 -0.2785 -0.5578
  335TMC3    C4 5079   4.611   3.612  17.491  0.0750 -0.0093  0.0199
  335TMC3    C5 5080   4.643   3.488  17.443  0.1906 -0.3298  0.1087
  335TMC3    C6 5081   4.555   3.406  17.382 -0.1391  0.0393  0.2082
  335TMC3     C 5082   4.432   3.781  17.509 -0.3057  0.2183 -0.4964
  335TMC3     O 5083   4.335   3.831  17.451 -0.0970 -0.0061 -0.0856
  335TMC3     H 5084   4.284   3.597  17.396 -0.3013 -1.5982  2.1063
  335TMC3    H1 5085   4.687   3.673  17.539 -0.6611  0.5203  0.5088
  335TMC3    H2 5086   4.593   3.313  17.340 -3.5210 -1.1082 -0.3134
  335TMC3    C7 5087   0.026   3.438  17.501 -0.4832 -0.4213  0.0956
  335TMC3    C8 5088   4.331   3.361  17.300 -0.1722  1.0885 -0.3878
  335TMC3    O1 5089   0.117   3.519  17.516  0.1709 -0.1372 -0.1231
  335TMC3    O2 5090   4.231   3.418  17.253 -0.1588  0.0874  0.2126
  336MPD2     C 5091   4.265   0.852  16.533  1.0073 -0.1880  0.1315
  336MPD2    C1 5092   4.188   0.813  16.425  0.1617 -0.4284  0.3458
  336MPD2    C2 5093   4.155   0.675  16.414  0.5697  0.2621 -0.2520
  336MPD2    C3 5094   4.209   0.587  16.504  0.5113 -0.9989 -0.4323
  336MPD2    C4 5095   4.282   0.632  16.610  0.9630  0.4740 -0.4785
  336MPD2    C5 5096   4.316   0.766  16.622 -1.0731  0.3416 -0.3271
  336MPD2     H 5097   4.102   0.652  16.322 -0.9893  3.1910 -0.0676
  336MPD2    H1 5098   4.333   0.572  16.684 -0.7536  0.3585  0.6266
  336MPD2    H2 5099   4.282   0.958  16.550 -0.8212  0.1452 -0.1030
  336MPD2    H3 5100   4.371   0.815  16.702  0.6011  0.1702 -1.3887
  336MPD2     N 5101   4.181   0.445  16.496 -0.3304 -0.4853 -0.8086
  336MPD2    H5 5102   4.205   0.392  16.579 -1.1909 -1.2273 -1.0218
  336MPD2    N1 5103   4.133   0.900  16.340  0.1293 -0.1182  0.2686
  336MPD2    H7 5104   4.093   0.854  16.259 -0.7352  0.3890  0.3996
  337TMC3    C1 5105   4.039   1.103  16.245  0.3812 -0.7085 -0.1803
  337TMC3    C2 5106   3.959   1.021  16.172  0.1662  0.4151  0.0723
  337TMC3    C3 5107   3.886   1.079  16.074 -0.0912  0.0852  0.3492
  337TMC3    C4 5108   4.046   1.238  16.229  0.5011 -0.5061 -0.0801
  337TMC3    C5 5109   3.967   1.292  16.127  1.2249  0.1647 -0.6920
  337TMC3    C6 5110   3.887   1.213  16.052 -0.5374 -0.3423 -0.0522
  337TMC3     C 5111   4.127   1.039  16.344  0.8099  0.4284 -0.0895
  337TMC3     O 5112   4.169   1.115  16.433 -0.9252 -0.6816 -0.3857
  337TMC3     H 5113   3.960   0.913  16.173 -0.4423  0.4099  0.1774
  337TMC3    H1 5114   4.122   1.295  16.282 -0.8456 -0.2123  1.5357
  337TMC3    H2 5115   3.841   1.254  15.962  1.7014  0.8341 -0.6574
  337TMC3    C7 5116   3.981   1.432  16.094  0.0179  0.8308  0.4200
  337TMC3    C8 5117   3.811   0.998  15.970  0.0555 -0.1540 -0.2357
  337TMC3    O1 5118   4.092   1.478  16.119  0.1985  0.0035  0.3769
  337TMC3    O2 5119   3.842   0.881  15.957  0.0153 -0.2266 -0.3508
  338MPD2     C 5120   4.380   0.528   1.269 -0.0952 -0.1667  0.1275
  338MPD2    C1 5121   4.393   0.501   1.139 -0.3222  0.0701 -0.0836
  338MPD2    C2 5122   4.278   0.484   1.061 -0.8675 -0.6642 -0.1353
  338MPD2    C3 5123   4.152   0.512   1.114  0.4572 -0.1411 -0.0905
  338MPD2    C4 5124   4.138   0.546   1.244 -0.2530 -0.6635  0.0843
  338MPD2    C5 5125   4.251   0.552   1.323 -0.3506 -0.1218  0.4920
  338MPD2     H 5126   4.278   0.459   0.956 -1.4324 -1.1762 -0.0101
  338MPD2    H1 5127   4.042   0.559   1.292 -0.3268 -1.9948  0.3093
  338MPD2    H2 5128   4.465   0.530   1.336  0.8066 -0.3579 -1.0200
  338MPD2    H3 5129   4.234   0.553   1.430 -2.0124 -1.2889  0.2287
  338MPD2     N 5130   4.046   0.491   1.024  0.2306  0.1680  0.2932
  338MPD2    H5 5131   4.067   0.462   0.929  0.0926 -2.3455  1.0122
  338MPD2    N1 5132   4.519   0.476   1.080  0.1364  0.7167  0.2402
  338MPD2    H7 5133   4.517   0.447   0.983 -1.8716  1.0230  0.1939
  339TMC3    C1 5134   3.833   0.432   0.965 -0.0189 -0.3126  0.7256
  339TMC3    C2 5135   3.734   0.341   0.989  0.0724 -0.1725 -0.9339
  339TMC3    C3 5136   3.664   0.307   0.874 -0.6710 -0.3728  0.1542
  339TMC3    C4 5137   3.855   0.493   0.848  0.1599 -0.1048  0.0563
  339TMC3    C5 5138   3.783   0.462   0.737  0.2572 -0.2942  0.0748
  339TMC3    C6 5139   3.682   0.369   0.751  0.3141  0.1119  0.1166
  339TMC3     C 5140   3.919   0.468   1.071  0.3650 -0.2667 -0.0751
  339TMC3     O 5141   3.879   0.441   1.182  0.0081  0.4800  0.1804
  339TMC3     H 5142   3.735   0.294   1.086  1.5261  0.4735 -0.6213
  339TMC3    H1 5143   3.936   0.564   0.830 -0.6412  0.9692  0.6916
  339TMC3    H2 5144   3.621   0.332   0.669  1.5441  0.2482 -0.8620
  339TMC3    C7 5145   3.818   0.531   0.612 -0.2378  0.2110  0.5271
  339TMC3    C8 5146   3.582   0.183   0.866 -0.1630 -0.1975  0.0052
  339TMC3    O1 5147   3.916   0.606   0.608 -0.0148 -0.1374  0.6532
  339TMC3    O2 5148   3.506   0.167   0.775 -0.0145  0.2929  0.1029
  340MPD2     C 5149   0.084   2.518  10.561 -0.5962 -0.9784 -0.3342
  340MPD2    C1 5150   0.074   2.626  10.468  0.1679 -0.0032  0.2459
  340MPD2    C2 5151   0.151   2.744  10.484  0.1165 -0.1887 -0.2088
  340MPD2    C3 5152   0.243   2.750  10.589 -0.2964 -0.3357 -0.7680
  340MPD2    C4 5153   0.252   2.646  10.678  0.1406 -0.0496 -0.0213
  340MPD2    C5 5154   0.176   2.533  10.660 -0.5346  0.0665 -0.3608
  340MPD2     H 5155   0.138   2.824  10.412 -0.5179  0.0709  0.2007
  340MPD2    H1 5156   0.317   2.656  10.764 -0.4303 -0.1029  0.4182
  340MPD2    H2 5157   0.027   2.426  10.555 -1.0848 -0.7515  1.0405
  340MPD2    H3 5158   0.184   2.444  10.722  2.2938 -0.8657 -2.0347
  340MPD2     N 5159   0.330   2.861  10.610  0.0537 -0.2578  0.2132
  340MPD2    H5 5160   0.395   2.848  10.687 -1.3428  0.6078  1.5681
  340MPD2    N1 5161   4.731   2.599  10.357  0.1975  0.6676  0.6157
  340MPD2    H7 5162   4.687   2.508  10.348  1.9073 -0.1587  0.7841
  341TMC3    C1 5163   4.635   2.638  10.148 -0.8126  0.0653 -0.3888
  341TMC3    C2 5164   4.621   2.502  10.132  0.3597  0.1683 -0.3494
  341TMC3    C3 5165   4.530   2.458  10.039  0.4085  0.0213  0.1893
  341TMC3    C4 5166   4.567   2.727  10.075  0.0123  0.8215  0.1644
  341TMC3    C5 5167   4.476   2.679   9.987  0.4642  0.6704  0.4062
  341TMC3    C6 5168   4.457   2.546   9.969  0.2248 -0.0641  0.2256
  341TMC3     C 5169   4.717   2.693  10.258 -0.5416  0.1030 -0.2903
  341TMC3     O 5170   0.007   2.810  10.248  0.1009 -0.6047  0.0839
  341TMC3     H 5171   4.675   2.433  10.195 -1.4073  0.8154  1.9193
  341TMC3    H1 5172   4.580   2.834  10.087  0.8845  0.6367  0.8571
  341TMC3    H2 5173   4.387   2.519   9.890 -0.1712 -1.6160  1.1014
  341TMC3    C7 5174   4.399   2.774   9.897 -0.4989 -0.1912 -0.5790
  341TMC3    C8 5175   4.509   2.310  10.017 -0.7231 -0.1056 -0.6110
  341TMC3    O1 5176   4.281   2.749   9.862 -0.2325  0.0592 -0.0056
  341TMC3    O2 5177   4.545   2.229  10.101 -0.0875 -0.4970  0.2608
  342MPD2     C 5178   2.634   1.627   0.140 -0.2825  0.0068  0.6977
  342MPD2    C1 5179   2.715   1.619   0.031 -0.5491 -0.3447 -0.2954
  342MPD2    C2 5180   2.805   1.718  17.759  0.3790 -0.4155  0.2415
  342MPD2    C3 5181   2.808   1.835   0.079  0.7229  0.3102  0.3954
  342MPD2    C4 5182   2.727   1.840   0.196  0.0506  0.3162  0.0474
  342MPD2    C5 5183   2.640   1.735   0.217 -0.2844  0.3588 -0.2213
  342MPD2     H 5184   2.868   1.714  17.671 -0.5094 -0.6396 -0.3854
  342MPD2    H1 5185   2.732   1.918   0.270  0.6576  2.4363 -2.2201
  342MPD2    H2 5186   2.570   1.549   0.180 -1.0676 -0.4612 -1.4703
  342MPD2    H3 5187   2.573   1.745   0.301 -0.2587  0.8814 -0.2636
  342MPD2     N 5188   2.889   1.945   0.036  0.1337  0.3529  0.3852
  342MPD2    H5 5189   2.954   1.932  17.720  0.8847 -1.0576  1.2591
  342MPD2    N1 5190   2.717   1.503  17.709 -0.0929  0.1271 -0.1115
  342MPD2    H7 5191   2.777   1.508  17.627 -0.9920 -0.0535 -0.7833
  343TMC3    C1 5192   2.706   1.279  17.643 -0.1639 -0.2228 -0.5604
  343TMC3    C2 5193   2.805   1.311  17.542  0.3134  0.0140  0.0878
  343TMC3    C3 5194   2.821   1.208  17.446  0.5980 -0.0523 -0.7570
  343TMC3    C4 5195   2.621   1.175  17.631 -0.2037  0.2992 -0.5119
  343TMC3    C5 5196   2.643   1.080  17.540 -1.1046  0.9302 -0.4040
  343TMC3    C6 5197   2.732   1.100  17.432  0.2093 -0.1415  0.0050
  343TMC3     C 5198   2.673   1.380  17.745  0.0876  0.5918  0.2749
  343TMC3     O 5199   2.589   1.345   0.066 -0.8579 -0.4244  0.6846
  343TMC3     H 5200   2.876   1.391  17.552  1.0943 -0.3927 -2.1441
  343TMC3    H1 5201   2.541   1.161  17.703  1.0479  0.5619  0.9264
  343TMC3    H2 5202   2.740   1.025  17.355  0.2582  1.9772 -2.0402
  343TMC3    C7 5203   2.548   0.972  17.522 -0.5525  0.1583  0.5956
  343TMC3    C8 5204   2.917   1.243  17.351 -0.0281 -1.1011 -0.8886
  343TMC3    O1 5205   2.537   0.927  17.409 -0.6896 -0.8342 -0.1588
  343TMC3    O2 5206   2.959   1.352  17.366  0.3574  0.2894  0.3516
  344MPD2     C 5207   3.481   0.231  10.815 -0.0858 -0.0109 -0.1428
  344MPD2    C1 5208   3.574   0.164  10.739 -0.1297 -0.2623 -0.2131
  344MPD2    C2 5209   3.651   0.229  10.647  0.1300 -0.0888  0.2904
  344MPD2    C3 5210   3.648   0.366  10.636  0.6142 -0.0746  0.1520
  344MPD2    C4 5211   3.549   0.430  10.699 -0.1491 -0.0689 -0.0098
  344MPD2    C5 5212   3.465   0.364  10.787 -0.3133  0.0583  0.1531
  344MPD2     H 5213   3.714   0.164  10.588 -0.5147 -0.9137  0.5039
  344MPD2    H1 5214   3.539   0.537  10.687 -2.2315 -0.3653 -0.8538
  344MPD2    H2 5215   3.425   0.185  10.895  2.9669 -2.8358  0.4169
  344MPD2    H3 5216   3.394   0.421  10.845 -1.1517 -2.1083  1.2453
  344MPD2     N 5217   3.743   0.445  10.559  0.0092  0.0500 -0.0644
  344MPD2    H5 5218   3.737   0.547  10.557  0.2870  0.1349  3.2719
  344MPD2    N1 5219   3.593   0.027  10.747 -0.0482 -0.1984 -0.1241
  344MPD2    H7 5220   3.654   4.730  10.675 -0.4570  1.1483 -1.1706
  345TMC3    C1 5221   3.943   0.492  10.454  0.3147  0.4963  0.3054
  345TMC3    C2 5222   4.066   0.500  10.512  0.0938 -0.1498 -0.2869
  345TMC3    C3 5223   4.138   0.613  10.485 -0.0829  0.0395  0.2098
  345TMC3    C4 5224   3.883   0.593  10.387  0.2083  0.3367 -0.7158
  345TMC3    C5 5225   3.963   0.701  10.356 -0.5617 -0.3372 -0.2539
  345TMC3    C6 5226   4.093   0.711  10.400 -0.0540 -0.4994 -0.3910
  345TMC3     C 5227   3.860   0.393  10.522  0.2506 -0.8043  0.5934
  345TMC3     O 5228   3.917   0.292  10.562 -0.0095 -0.4429 -0.3592
  345TMC3     H 5229   4.105   0.423  10.579 -1.1301  0.5042  1.1860
  345TMC3    H1 5230   3.783   0.580  10.346  0.5752 -0.4942 -1.3351
  345TMC3    H2 5231   4.159   0.790  10.367  0.1755 -0.2932  0.5795
  345TMC3    C7 5232   3.906   0.832  10.329 -0.7549  0.4109  0.6271
  345TMC3    C8 5233   4.218   0.657  10.597  0.1205  0.0699  1.0181
  345TMC3    O1 5234   3.965   0.923  10.388  0.1100  0.1182 -0.5304
  345TMC3    O2 5235   4.251   0.592  10.694  0.3197 -0.7651 -0.1233
  346MPD2     C 5236   3.612   2.640  14.161 -0.1328  0.4746 -0.3865
  346MPD2    C1 5237   3.704   2.535  14.157 -0.2373  0.0492 -0.3263
  346MPD2    C2 5238   3.800   2.531  14.257  0.8379 -0.0776 -0.0266
  346MPD2    C3 5239   3.795   2.614  14.365  0.5011 -0.6313 -0.0583
  346MPD2    C4 5240   3.711   2.721  14.361  0.4355  0.4652 -0.4679
  346MPD2    C5 5241   3.618   2.730  14.259  0.2126 -0.8529  0.2254
  346MPD2     H 5242   3.865   2.444  14.251 -0.6329 -1.0440 -2.2371
  346MPD2    H1 5243   3.705   2.807  14.426 -0.9400  0.7848 -1.0206
  346MPD2    H2 5244   3.544   2.664  14.079 -0.4808 -2.8697 -1.0656
  346MPD2    H3 5245   3.569   2.826  14.244  2.9178  0.3822 -0.8847
  346MPD2     N 5246   3.886   2.596  14.470 -0.0182  0.3217 -0.0084
  346MPD2    H5 5247   3.954   2.523  14.451  1.2798  1.4868  0.2115
  346MPD2    N1 5248   3.703   2.443  14.059  0.2316  0.6389 -0.2568
  346MPD2    H7 5249   3.793   2.402  14.037 -0.1664  0.2575 -1.1922
  347TMC3    C1 5250   3.990   2.633  14.696 -0.6687 -0.1284  0.1142
  347TMC3    C2 5251   4.047   2.511  14.696 -0.1670 -0.3924 -0.6535
  347TMC3    C3 5252   4.129   2.477  14.803  0.3198 -0.0647  0.1246
  347TMC3    C4 5253   3.999   2.710  14.806 -0.3675  0.1597  0.1391
  347TMC3    C5 5254   4.087   2.680  14.910 -0.0742  0.1967  0.1842
  347TMC3    C6 5255   4.153   2.562  14.907 -0.2152 -0.1288 -0.0320
  347TMC3     C 5256   3.886   2.666  14.593 -0.2773 -0.2133 -0.1668
  347TMC3     O 5257   3.799   2.742  14.632  0.4670 -0.4487  0.8041
  347TMC3     H 5258   4.035   2.445  14.610  0.1313 -0.5082 -0.6067
  347TMC3    H1 5259   3.943   2.802  14.820 -1.5650 -0.6426  0.6347
  347TMC3    H2 5260   4.244   2.554  14.966  0.2384 -0.0139 -0.7157
  347TMC3    C7 5261   4.085   2.765  15.025 -0.3510  0.6638  0.0219
  347TMC3    C8 5262   4.192   2.343  14.810  0.4103 -0.1383 -0.5686
  347TMC3    O1 5263   4.034   2.877  15.006  0.3544  0.0706 -0.1245
  347TMC3    O2 5264   4.191   2.287  14.704 -0.1717  0.7242 -0.0854
  348MPD2     C 5265   3.088   1.884  12.224  0.2723  0.0173  0.3178
  348MPD2    C1 5266   3.138   1.821  12.109 -0.8840 -0.0975 -0.0662
  348MPD2    C2 5267   3.150   1.899  11.992  0.2695  0.5489 -0.2862
  348MPD2    C3 5268   3.098   2.028  11.984  0.1551  0.4954 -0.0576
  348MPD2    C4 5269   3.049   2.082  12.099  0.3813  0.1531  0.5582
  348MPD2    C5 5270   3.050   2.011  12.218  0.1899  0.2758  0.1946
  348MPD2     H 5271   3.187   1.849  11.903  0.6467  0.2343  0.0498
  348MPD2    H1 5272   3.004   2.181  12.106  0.6327  0.1744  1.9219
  348MPD2    H2 5273   3.060   1.825  12.311 -0.2263  1.5251  1.1746
  348MPD2    H3 5274   2.988   2.049  12.299 -1.1641  0.1370 -0.7794
  348MPD2     N 5275   3.088   2.104  11.872 -0.0901  0.3561  0.6420
  348MPD2    H5 5276   3.049   2.197  11.886 -0.0806  0.3771  0.5335
  348MPD2    N1 5277   3.184   1.687  12.098 -0.1662  0.4545 -0.2494
  348MPD2    H7 5278   3.206   1.635  12.013  0.7601  0.0316  0.2362
  349TMC3    C1 5279   3.157   1.467  12.148 -0.1551 -0.3858  0.1297
  349TMC3    C2 5280   3.184   1.367  12.243 -0.1850  0.1036 -0.4946
  349TMC3    C3 5281   3.093   1.273  12.267  1.0820  0.5423  0.0516
  349TMC3    C4 5282   3.037   1.462  12.078 -0.5683  0.3420 -0.6693
  349TMC3    C5 5283   2.943   1.360  12.110  0.6751  0.8735  0.0784
  349TMC3    C6 5284   2.974   1.260  12.202 -0.2959  0.2718 -0.1869
  349TMC3     C 5285   3.176   1.597  12.205 -0.1414  0.3987 -0.5401
  349TMC3     O 5286   3.155   1.602  12.322 -0.0381 -0.3288  1.1439
  349TMC3     H 5287   3.277   1.377  12.299 -0.8799  2.2576  0.2688
  349TMC3    H1 5288   3.005   1.539  12.008 -1.6933 -0.2391 -0.7939
  349TMC3    H2 5289   2.900   1.183  12.223 -0.3318  0.2484 -0.3929
  349TMC3    C7 5290   2.805   1.405  12.110 -0.2602 -0.0032  0.0086
  349TMC3    C8 5291   3.120   1.190  12.376 -0.2324 -0.3678 -0.3437
  349TMC3    O1 5292   2.717   1.339  12.056  0.6205  0.0618  0.2000
  349TMC3    O2 5293   3.197   1.236  12.460 -0.6756  0.2152 -0.2064
  350MPD2     C 5294   1.510   4.703  10.094 -0.5137  0.1926 -0.8216
  350MPD2    C1 5295   1.538   4.565  10.094  0.5691  0.4202  0.3734
  350MPD2    C2 5296   1.645   4.518  10.174 -0.3467 -0.1108 -0.8810
  350MPD2    C3 5297   1.710   4.606  10.261  0.8772 -1.4387  0.7152
  350MPD2    C4 5298   1.681   4.740  10.254  0.4238  0.0057  0.2629
  350MPD2    C5 5299   1.582   0.045  10.168  0.0684 -0.2106  0.5874
  350MPD2     H 5300   1.677   4.414  10.178  1.1837  0.4254  1.1030
  350MPD2    H1 5301   1.729   0.071  10.319  1.8625 -1.7767  1.1512
  350MPD2    H2 5302   1.422   4.738  10.041  0.8959  1.9806 -1.9877
  350MPD2    H3 5303   1.567   0.153  10.169 -0.3858 -0.2426 -2.7775
  350MPD2     N 5304   1.800   4.556  10.359 -0.2111  0.0260  0.6816
  350MPD2    H5 5305   1.814   4.456  10.355  1.0875  0.1530  2.3926
  350MPD2    N1 5306   1.469   4.475  10.005 -0.2603 -0.2671  0.0680
  350MPD2    H7 5307   1.468   4.373  10.008 -0.4797 -0.2603  0.1960
  351TMC3    C1 5308   1.342   4.402   9.838 -0.0831  0.6447 -0.2624
  351TMC3    C2 5309   1.416   4.286   9.833 -0.5836  0.0548 -0.4574
  351TMC3    C3 5310   1.351   4.178   9.789 -0.1198 -0.6942  0.6867
  351TMC3    C4 5311   1.216   4.414   9.779  0.0853  0.0102  0.6829
  351TMC3    C5 5312   1.166   4.302   9.725  0.2890  1.3309  0.1806
  351TMC3    C6 5313   1.227   4.182   9.737 -1.0198 -0.3677 -0.2746
  351TMC3     C 5314   1.391   4.513   9.903 -0.0762  0.7267  0.4045
  351TMC3     O 5315   1.354   4.628   9.866 -0.5772 -0.0801 -0.2231
  351TMC3     H 5316   1.511   4.273   9.883 -0.6085 -0.5808 -0.5692
  351TMC3    H1 5317   1.163   4.508   9.774 -1.3451 -0.8382 -0.0758
  351TMC3    H2 5318   1.182   4.087   9.708 -1.9260  0.2029 -0.7407
  351TMC3    C7 5319   1.097   4.321   9.594  0.2280  0.0566  0.1029
  351TMC3    C8 5320   1.405   4.044   9.797  0.4228 -0.0234  0.4591
  351TMC3    O1 5321   1.087   4.434   9.557 -0.1858 -0.4241 -0.1586
  351TMC3    O2 5322   1.372   3.955   9.716 -0.5278 -0.4710  0.2834
  352MPD2     C 5323   0.829   2.475   1.199  0.0731 -0.3393  0.2629
  352MPD2    C1 5324   0.697   2.445   1.167  1.0407  0.4060  0.2877
  352MPD2    C2 5325   0.671   2.310   1.140  1.0143 -0.3297 -0.0678
  352MPD2    C3 5326   0.767   2.213   1.165 -0.2873  0.4289  0.4020
  352MPD2    C4 5327   0.890   2.249   1.205 -0.0498 -0.2086  0.5920
  352MPD2    C5 5328   0.923   2.381   1.216  0.1508 -0.6093  0.1698
  352MPD2     H 5329   0.568   2.283   1.120  0.0174  2.6493  1.0795
  352MPD2    H1 5330   0.971   2.179   1.222  0.3500  0.3162  0.8167
  352MPD2    H2 5331   0.857   2.576   1.225  1.7558 -0.3678 -1.4261
  352MPD2    H3 5332   1.025   2.412   1.234  0.4016 -1.9534  1.0166
  352MPD2     N 5333   0.745   2.074   1.155  0.0661  0.6684  0.2795
  352MPD2    H5 5334   0.821   2.015   1.189  1.4178  0.3837 -3.2028
  352MPD2    N1 5335   0.608   2.558   1.155  0.7862 -0.6039  0.5030
  352MPD2    H7 5336   0.642   2.649   1.185 -0.2225  0.3019 -1.1481
  353TMC3    C1 5337   0.641   1.874   1.099  0.4228 -0.8833  0.8652
  353TMC3    C2 5338   0.758   1.807   1.088 -0.7320 -0.3197 -0.2972
  353TMC3    C3 5339   0.755   1.671   1.093  0.4268 -0.0089 -0.0257
  353TMC3    C4 5340   0.523   1.812   1.114 -0.2397 -0.2325 -0.4214
  353TMC3    C5 5341   0.526   1.674   1.116  0.4320 -0.0201  0.7103
  353TMC3    C6 5342   0.636   1.600   1.108 -0.1295 -0.9970  0.4228
  353TMC3     C 5343   0.631   2.018   1.104  0.0148 -0.1203 -0.0470
  353TMC3     O 5344   0.522   2.067   1.091  0.1822  0.2203 -0.1322
  353TMC3     H 5345   0.850   1.863   1.081 -1.2884  0.6287 -0.0483
  353TMC3    H1 5346   0.435   1.873   1.098  0.4332  1.0641  0.7438
  353TMC3    H2 5347   0.621   1.494   1.123 -0.0170 -1.1299 -0.3697
  353TMC3    C7 5348   0.402   1.607   1.097  0.0399  0.1292  0.6916
  353TMC3    C8 5349   0.880   1.602   1.124  0.2259  0.3033 -0.1545
  353TMC3    O1 5350   0.407   1.494   1.057 -0.3565  0.6233 -0.6049
  353TMC3    O2 5351   0.970   1.673   1.175  0.1514  0.0280 -0.0992
  354TMC3    C1 5352   1.598   3.231  13.651 -0.3850 -0.8148  0.1447
  354TMC3    C2 5353   1.568   3.352  13.598 -0.4651 -0.4796  0.3305
  354TMC3    C3 5354   1.555   3.357  13.465 -0.4293  0.0624  0.3943
  354TMC3    C4 5355   1.615   3.113  13.581  0.1118  0.3951  0.8252
  354TMC3    C5 5356   1.619   3.135  13.445  0.1022 -0.2944  0.5591
  354TMC3    C6 5357   1.585   3.250  13.384  0.4563 -0.2304 -0.0453
  354TMC3     C 5358   1.534   3.202  13.775 -0.5090 -0.3732 -0.5246
  354TMC3     O 5359   1.436   3.267  13.806 -0.3327 -0.0351  0.2670
  354TMC3     H 5360   1.552   3.433  13.669 -0.8572  0.5301 -0.9166
  354TMC3    H1 5361   1.677   3.028  13.605 -0.2930 -0.0813  0.1584
  354TMC3    H2 5362   1.608   3.266  13.279  3.1132  1.3977  0.7640
  354TMC3    C7 5363   1.663   3.017  13.368  0.3300 -0.4300 -0.3270
  354TMC3    C8 5364   1.576   3.490  13.389  0.5203 -0.3907 -0.5260
  354TMC3    O1 5365   1.609   2.910  13.387 -0.0726  0.2363 -0.0219
  354TMC3    O2 5366   1.531   3.485  13.273  0.8766  0.2598 -0.1053
  355MPD2     C 5367   1.306   3.939  11.964 -0.2797  0.2027 -0.3035
  355MPD2    C1 5368   1.379   3.887  11.857 -0.9953  0.1784 -0.4235
  355MPD2    C2 5369   1.514   3.883  11.864  0.6487 -0.0481 -1.0843
  355MPD2    C3 5370   1.586   3.944  11.964 -0.7083 -0.6263  0.3248
  355MPD2    C4 5371   1.518   4.001  12.070  0.5139  0.2179 -0.9100
  355MPD2    C5 5372   1.381   4.000  12.063  0.4466 -0.4325  0.0339
  355MPD2     H 5373   1.558   3.821  11.787  1.5158  1.2834 -1.6597
  355MPD2    H1 5374   1.568   4.050  12.153 -1.4364 -1.8926  1.5246
  355MPD2    H2 5375   1.200   3.956  11.956 -0.2933 -0.8805 -2.7415
  355MPD2    H3 5376   1.321   4.047  12.140  0.6664  1.8754 -1.1812
  355MPD2     N 5377   1.727   3.943  11.972 -0.3531 -0.3955  0.0624
  355MPD2    H5 5378   1.767   3.999  12.047  1.7075 -0.7018 -0.7919
  355MPD2    N1 5379   1.307   3.829  11.756  0.3760 -0.1399  0.1545
  355MPD2    H7 5380   1.214   3.808  11.788 -0.4053  1.0016 -1.3740
  356TMC3    C1 5381   1.956   3.938  11.893 -0.2576 -0.0613  0.4974
  356TMC3    C2 5382   2.024   3.975  11.784 -0.3991  0.6056  0.8315
  356TMC3    C3 5383   2.136   4.051  11.805  0.2413  0.5970 -0.1394
  356TMC3    C4 5384   1.991   3.976  12.023  0.5684 -0.6470  0.3319
  356TMC3    C5 5385   2.096   4.068  12.038 -0.3710  0.3669 -0.2181
  356TMC3    C6 5386   2.177   4.103  11.930 -0.0271  0.1559 -0.9778
  356TMC3     C 5387   1.815   3.893  11.876 -0.0049  0.0666  0.2914
  356TMC3     O 5388   1.790   3.851  11.761 -0.3845 -0.1689  0.1751
  356TMC3     H 5389   1.994   3.948  11.683  0.0626  1.5442  0.4461
  356TMC3    H1 5390   1.935   3.943  12.110  0.3963 -0.5452  0.2606
  356TMC3    H2 5391   2.271   4.155  11.940 -0.2346  0.2751  0.4652
  356TMC3    C7 5392   2.113   4.132  12.163  0.5730 -0.3906  0.2060
  356TMC3    C8 5393   2.224   4.067  11.687 -0.3943 -0.1595 -0.3975
  356TMC3    O1 5394   2.059   4.072  12.256  0.1500 -0.1396 -0.6792
  356TMC3    O2 5395   2.220   3.983  11.600 -0.2020 -0.5142 -0.2994
  357MPD2     C 5396   1.757   4.337   0.749  0.1507 -0.7881  0.1369
  357MPD2    C1 5397   1.758   4.231   0.840 -0.3148 -0.1052 -0.4274
  357MPD2    C2 5398   1.632   4.202   0.901 -0.1572  0.1709 -0.8009
  357MPD2    C3 5399   1.511   4.265   0.868 -0.0796  0.1540  0.1661
  357MPD2    C4 5400   1.518   4.366   0.772  0.7159  0.2031 -0.3629
  357MPD2    C5 5401   1.638   4.401   0.721  0.7850 -0.2316  0.0171
  357MPD2     H 5402   1.624   4.126   0.978 -1.7758  0.2108 -0.9394
  357MPD2    H1 5403   1.432   4.424   0.740  0.7882 -0.1749 -1.2191
  357MPD2    H2 5404   1.848   4.364   0.696  1.4874 -0.7553  2.4515
  357MPD2    H3 5405   1.657   4.486   0.656 -0.6814  0.3506  0.3507
  357MPD2     N 5406   1.391   4.235   0.926  0.3303 -0.7175  0.1358
  357MPD2    H5 5407   1.309   4.281   0.888  0.9447  0.4112  0.1796
  357MPD2    N1 5408   1.876   4.159   0.869  0.1268 -0.4002 -0.1031
  357MPD2    H7 5409   1.953   4.170   0.804 -1.1741 -0.4865 -1.6691
  358TMC3    C1 5410   1.902   3.932   0.926 -0.0646  0.6336  0.3619
  358TMC3    C2 5411   1.866   3.911   0.794  0.4565  0.4317 -0.4297
  358TMC3    C3 5412   1.805   3.790   0.769 -0.5821 -0.0929 -0.1564
  358TMC3    C4 5413   1.859   3.844   1.021 -0.1619  0.7328  0.3716
  358TMC3    C5 5414   1.792   3.735   0.986 -0.1678 -0.0014 -0.1808
  358TMC3    C6 5415   1.773   3.697   0.858  0.6883  0.0276 -0.1165
  358TMC3     C 5416   1.884   4.071   0.968  0.0618  0.5366 -0.2517
  358TMC3     O 5417   1.839   4.085   1.084  0.1575  0.3786  0.0075
  358TMC3     H 5418   1.870   3.982   0.713 -2.6729  0.2641 -0.7240
  358TMC3    H1 5419   1.892   3.844   1.125 -1.3302  0.4920  0.7422
  358TMC3    H2 5420   1.694   3.623   0.854  1.1511 -0.3639 -2.0122
  358TMC3    C7 5421   1.770   3.635   1.084  0.0686  0.1230  0.3747
  358TMC3    C8 5422   1.734   3.775   0.644  0.7767 -0.0983  0.1911
  358TMC3    O1 5423   1.762   3.524   1.043  0.5352 -0.9333  0.8210
  358TMC3    O2 5424   1.720   3.873   0.574  0.3072 -0.6721 -0.5774
  359MPD2     C 5425   1.931   2.276  12.470  0.3303  0.3540 -0.1386
  359MPD2    C1 5426   2.018   2.171  12.469 -0.1857  0.3978  0.6498
  359MPD2    C2 5427   1.964   2.050  12.508 -0.3650  0.7912 -0.6289
  359MPD2    C3 5428   1.829   2.033  12.548 -0.0021  0.4498 -0.2992
  359MPD2    C4 5429   1.749   2.137  12.525  1.1504 -0.1043  0.2897
  359MPD2    C5 5430   1.798   2.262  12.501 -0.2784 -0.1555 -0.5787
  359MPD2     H 5431   2.025   1.961  12.498 -2.6862 -0.4979 -3.3389
  359MPD2    H1 5432   1.642   2.117  12.528  1.5879 -2.6107 -0.6773
  359MPD2    H2 5433   1.962   2.380  12.459  2.3535 -0.3026 -0.7003
  359MPD2    H3 5434   1.733   2.346  12.480  2.0016  1.4817 -1.0152
  359MPD2     N 5435   1.773   1.908  12.601  0.0343  0.5130 -0.0835
  359MPD2    H5 5436   1.673   1.890  12.607  0.1815  0.1557  1.1222
  359MPD2    N1 5437   2.150   2.166  12.434  0.0430 -0.0188  0.7095
  359MPD2    H7 5438   2.188   2.075  12.411  0.0098 -0.7670  3.5355
  360TMC3    C1 5439   2.364   2.229  12.400  0.0962  0.2983  0.3732
  360TMC3    C2 5440   2.468   2.303  12.454  0.3240  0.3641 -0.8373
  360TMC3    C3 5441   2.589   2.307  12.392  0.0688  0.0619  0.0594
  360TMC3    C4 5442   2.373   2.198  12.266  0.3422 -0.0920 -0.1730
  360TMC3    C5 5443   2.487   2.225  12.201 -0.3382  0.2573 -0.3090
  360TMC3    C6 5444   2.598   2.278  12.263 -0.0859  0.5282  0.5448
  360TMC3     C 5445   2.234   2.273  12.436  0.6791 -0.3466 -0.8892
  360TMC3     O 5446   2.229   2.384  12.494 -0.4283 -0.3610  0.2948
  360TMC3     H 5447   2.456   2.321  12.560 -2.2189 -0.6680 -0.9582
  360TMC3    H1 5448   2.293   2.143  12.218 -0.5629  2.3868 -1.4622
  360TMC3    H2 5449   2.686   2.302  12.205 -0.8474 -0.5458 -1.0502
  360TMC3    C7 5450   2.482   2.253  12.058 -0.4167 -0.3312 -0.1706
  360TMC3    C8 5451   2.714   2.313  12.469 -0.1099 -0.8300  0.1646
  360TMC3    O1 5452   2.576   2.323  12.024 -0.0047  0.2659  0.2364
  360TMC3    O2 5453   2.684   2.336  12.586 -0.4199 -0.2064 -0.1395
  361MPD2     C 5454   3.827   1.983  17.011  0.4248  0.2408 -0.3870
  361MPD2    C1 5455   3.747   1.918  17.096  0.4731  0.0792  0.6976
  361MPD2    C2 5456   3.799   1.834  17.195  0.0665 -0.7387  0.3543
  361MPD2    C3 5457   3.937   1.818  17.205 -0.7392 -0.0217  0.1255
  361MPD2    C4 5458   4.018   1.892  17.120 -0.6020  0.4665 -0.4327
  361MPD2    C5 5459   3.960   1.976  17.031 -0.3683  0.0493  0.2795
  361MPD2     H 5460   3.729   1.783  17.260 -1.1469 -0.9157 -1.0922
  361MPD2    H1 5461   4.125   1.873  17.121 -0.6758  0.0782  0.9323
  361MPD2    H2 5462   3.787   2.036  16.925  1.2060 -0.1902 -1.0097
  361MPD2    H3 5463   4.018   2.027  16.955  0.0395 -0.0337  0.5339
  361MPD2     N 5464   3.996   1.732  17.303  0.3915  0.5199 -0.2235
  361MPD2    H5 5465   4.093   1.741  17.333 -0.4716 -0.8372  2.8889
  361MPD2    N1 5466   3.603   1.940  17.072  0.5894 -0.5115 -0.7896
  361MPD2    H7 5467   3.577   2.008  17.001 -0.6837 -1.9284 -1.6686
  362TMC3    C1 5468   3.372   1.956  17.110  0.2591  0.0575 -0.5503
  362TMC3    C2 5469   3.297   2.014  17.205  0.7890 -0.5314  0.5239
  362TMC3    C3 5470   3.185   2.079  17.156 -0.2895  0.5057  0.6652
  362TMC3    C4 5471   3.337   1.966  16.973 -0.0963  0.0082  0.3402
  362TMC3    C5 5472   3.220   2.024  16.931  0.4740  0.2467  0.3122
  362TMC3    C6 5473   3.150   2.088  17.028  0.1416 -0.1068 -0.3227
  362TMC3     C 5474   3.503   1.906  17.155  0.2136 -0.5101 -0.2004
  362TMC3     O 5475   3.504   1.832  17.251 -0.7041 -0.2558  0.2164
  362TMC3     H 5476   3.318   2.002  17.311  0.6819  0.0187  0.6045
  362TMC3    H1 5477   3.401   1.915  16.902  0.6926  1.1828  0.2103
  362TMC3    H2 5478   3.058   2.139  17.001 -1.1249 -0.6972  2.8482
  362TMC3    C7 5479   3.156   1.977  16.808 -0.4674  0.0294 -0.1932
  362TMC3    C8 5480   3.081   2.084  17.261 -0.1004 -0.7980 -0.5300
  362TMC3    O1 5481   3.218   1.886  16.750 -0.8827 -0.5847  0.0627
  362TMC3    O2 5482   3.074   1.986  17.330  0.7659  0.1089 -0.4256
  363TMC3    C1 5483   2.104   3.839   9.716  0.3577 -0.5792  0.8884
  363TMC3    C2 5484   2.169   3.777   9.816  0.5760  0.4653  0.2667
  363TMC3    C3 5485   2.133   3.826   9.939  0.0201 -1.0048  0.3392
  363TMC3    C4 5486   2.030   3.953   9.731 -0.8688 -0.6109  0.1279
  363TMC3    C5 5487   1.988   3.984   9.854  0.1658 -0.7905 -0.3058
  363TMC3    C6 5488   2.052   3.931   9.966 -0.1513 -0.4529 -0.1165
  363TMC3     C 5489   2.146   3.787   9.588  0.1983  0.1085 -0.3141
  363TMC3     O 5490   2.245   3.716   9.589 -0.2261 -0.1495  0.0647
  363TMC3     H 5491   2.228   3.688   9.800  1.6279  1.5436 -1.8794
  363TMC3    H1 5492   1.987   4.003   9.645  0.8933 -1.5985 -1.3333
  363TMC3    H2 5493   2.023   3.960  10.066  2.6705 -1.3827  0.9782
  363TMC3    C7 5494   1.906   4.101   9.879 -0.4011  0.2626 -0.5465
  363TMC3    C8 5495   2.178   3.752  10.055 -0.1747 -0.2558 -0.7515
  363TMC3    O1 5496   1.927   4.154   9.986  0.3077  0.6774 -0.4856
  363TMC3    O2 5497   2.103   3.758  10.152 -0.1665  0.7601  0.3798
  364MPD2     C 5498   1.081   3.131  10.640 -0.6158 -0.7137  0.2082
  364MPD2    C1 5499   1.203   3.153  10.566  0.3726 -0.5393  0.9502
  364MPD2    C2 5500   1.305   3.064  10.583 -0.0183 -0.2144 -0.0532
  364MPD2    C3 5501   1.287   2.955  10.669 -0.7772  0.3279 -0.8709
  364MPD2    C4 5502   1.172   2.936  10.743  0.7787  0.0374 -0.9716
  364MPD2    C5 5503   1.073   3.029  10.734 -0.2396  0.2481  0.4563
  364MPD2     H 5504   1.401   3.079  10.536 -1.4253  2.3861 -2.1495
  364MPD2    H1 5505   1.174   2.856  10.817 -0.2123  0.8237 -0.0921
  364MPD2    H2 5506   1.003   3.207  10.641 -2.1183 -2.2472 -1.2961
  364MPD2    H3 5507   0.983   3.035  10.794 -0.3303  1.2489  0.2209
  364MPD2     N 5508   1.390   2.855  10.681 -0.2769 -0.1435  0.0606
  364MPD2    H5 5509   1.362   2.776  10.739  1.6737 -1.0183 -0.2122
  364MPD2    N1 5510   1.213   3.276  10.493  0.3042 -0.0830 -0.2988
  364MPD2    H7 5511   1.123   3.318  10.472  0.5028  0.7656  0.5562
  365TMC3    C1 5512   1.288   3.418  10.322 -0.2449  0.0751 -0.2558
  365TMC3    C2 5513   1.380   3.439  10.226 -0.0259  0.8516 -0.2924
  365TMC3    C3 5514   1.355   3.537  10.133 -0.5895 -0.5213 -0.4343
  365TMC3    C4 5515   1.191   3.513  10.350  0.4678  0.1529 -0.8825
  365TMC3    C5 5516   1.177   3.619  10.259 -0.5418  0.3046  0.0151
  365TMC3    C6 5517   1.254   3.626  10.151  1.0529  0.4261  0.4015
  365TMC3     C 5518   1.325   3.314  10.420  0.1887  0.0382 -0.8746
  365TMC3     O 5519   1.431   3.257  10.405 -0.1807 -0.6657  0.5113
  365TMC3     H 5520   1.452   3.359  10.214  0.2813  1.1708 -0.5555
  365TMC3    H1 5521   1.138   3.520  10.445 -2.4096 -0.3897 -2.4430
  365TMC3    H2 5522   1.243   3.715  10.090  0.7347  1.5724  2.1207
  365TMC3    C7 5523   1.056   3.691  10.263 -0.5077  0.2947 -0.0752
  365TMC3    C8 5524   1.402   3.522   9.996  0.1128 -0.0771  0.4909
  365TMC3    O1 5525   0.993   3.710  10.157 -0.1110 -0.2058  0.5459
  365TMC3    O2 5526   1.334   3.571   9.908 -0.4743 -0.1552 -0.1762
  366MPD2     C 5527   3.420   0.577  15.456  0.8105  0.3907  0.2814
  366MPD2    C1 5528   3.553   0.559  15.436  0.3825 -1.5115 -0.5543
  366MPD2    C2 5529   3.605   0.432  15.446  0.4201 -0.1513  0.6709
  366MPD2    C3 5530   3.521   0.320  15.468  0.3466 -0.2644  0.1238
  366MPD2    C4 5531   3.386   0.346  15.488  0.2936  0.5088 -0.6033
  366MPD2    C5 5532   3.338   0.470  15.487 -0.1887 -0.2271  0.2010
  366MPD2     H 5533   3.712   0.421  15.433  0.0806 -0.4131 -1.9580
  366MPD2    H1 5534   3.318   0.261  15.496 -0.3427  1.2058  1.3745
  366MPD2    H2 5535   3.366   0.670  15.441  0.5923  0.6908  2.8893
  366MPD2    H3 5536   3.234   0.498  15.497 -0.3898 -1.3905  1.2823
  366MPD2     N 5537   3.579   0.195  15.452  0.5080 -0.1036 -0.3741
  366MPD2    H5 5538   3.676   0.195  15.423  0.2411 -0.3870 -1.2483
  366MPD2    N1 5539   3.644   0.663  15.407 -0.3553 -0.5292  0.0370
  366MPD2    H7 5540   3.743   0.648  15.392 -0.1982 -1.3431  1.9998
  367TMC3    C1 5541   3.702   0.883  15.390 -0.0048 -0.0501 -0.1946
  367TMC3    C2 5542   3.784   0.861  15.500  0.0196 -0.3013  0.7893
  367TMC3    C3 5543   3.831   0.973  15.563 -0.0039  0.5127 -0.3218
  367TMC3    C4 5544   3.674   1.005  15.348  0.1730 -0.0673 -0.2697
  367TMC3    C5 5545   3.706   1.116  15.426  0.6012  0.4316 -0.4500
  367TMC3    C6 5546   3.786   1.096  15.536 -0.5048  0.7275 -0.1727
  367TMC3     C 5547   3.598   0.785  15.375  0.2369 -0.0181  0.4859
  367TMC3     O 5548   3.493   0.821  15.326  0.2869  0.0301  0.0502
  367TMC3     H 5549   3.806   0.764  15.542 -1.7134 -1.1289 -0.2306
  367TMC3    H1 5550   3.620   1.016  15.254  0.1269  1.7688 -0.0193
  367TMC3    H2 5551   3.826   1.181  15.590  0.0467  0.1960  0.2444
  367TMC3    C7 5552   3.657   1.248  15.404 -0.0061  0.3474  0.4203
  367TMC3    C8 5553   3.959   0.955  15.630 -0.4610  0.2111 -0.1812
  367TMC3    O1 5554   3.682   1.324  15.496 -0.4389 -0.5573  0.3620
  367TMC3    O2 5555   3.977   0.842  15.676  0.1895 -0.9331 -0.3658
  368MPD2     C 5556   0.381   1.821  13.629  0.4922 -0.1822 -0.0330
  368MPD2    C1 5557   0.511   1.869  13.621  0.1332 -0.4099 -0.0891
  368MPD2    C2 5558   0.611   1.782  13.576  0.5150 -0.2787  0.0505
  368MPD2    C3 5559   0.582   1.653  13.536 -0.9996 -0.4556  0.6911
  368MPD2    C4 5560   0.453   1.614  13.537 -0.1314 -0.0039  0.1944
  368MPD2    C5 5561   0.351   1.691  13.587 -0.2285 -0.1777  0.8632
  368MPD2     H 5562   0.710   1.826  13.560  0.3521 -0.0307 -0.2838
  368MPD2    H1 5563   0.422   1.514  13.509  0.1912  0.2532 -1.0648
  368MPD2    H2 5564   0.296   1.884  13.655  2.0185  1.8903 -0.0472
  368MPD2    H3 5565   0.253   1.646  13.601 -1.0229  2.1420  2.8606
  368MPD2     N 5566   0.676   1.569  13.474 -0.3915  0.2110  0.0922
  368MPD2    H5 5567   0.649   1.483  13.429  0.4313  0.5126 -0.9630
  368MPD2    N1 5568   0.535   2.007  13.645  0.1286 -0.7815  0.0518
  368MPD2    H7 5569   0.451   2.064  13.656 -0.0357 -0.7994 -1.0975
  369TMC3    C1 5570   0.649   2.208  13.617 -0.3290  0.2208  0.0088
  369TMC3    C2 5571   0.718   2.265  13.514  0.0581  0.2243  0.1823
  369TMC3    C3 5572   0.697   2.398  13.487 -0.2938  0.7280 -0.3692
  369TMC3    C4 5573   0.563   2.273  13.696 -0.8563 -0.4902  0.9163
  369TMC3    C5 5574   0.547   2.405  13.667 -0.1298  0.8843  0.0439
  369TMC3    C6 5575   0.608   2.467  13.562  0.0420  0.0412 -0.1207
  369TMC3     C 5576   0.659   2.068  13.631 -0.0312 -0.0632 -0.0598
  369TMC3     O 5577   0.771   2.021  13.616  0.1379  0.5345  0.1200
  369TMC3     H 5578   0.778   2.206  13.445  1.4679 -1.1483  2.5744
  369TMC3    H1 5579   0.531   2.219  13.785 -0.0195 -0.2208  1.3844
  369TMC3    H2 5580   0.617   2.574  13.556 -0.9378  0.0111 -2.1104
  369TMC3    C7 5581   0.413   2.459  13.687 -0.5861  0.4365  0.1031
  369TMC3    C8 5582   0.791   2.465  13.404  0.3221  0.4486 -0.2106
  369TMC3    O1 5583   0.343   2.396  13.766  0.1359 -0.2846  0.1125
  369TMC3    O2 5584   0.760   2.581  13.379  0.0236  0.0849 -0.3150
  370TMC3    C1 5585   0.346   3.021  16.339  0.1992 -0.4755  0.7109
  370TMC3    C2 5586   0.302   2.938  16.435  0.3697 -0.1245  0.1193
  370TMC3    C3 5587   0.221   2.835  16.395  0.3197 -0.1519  0.2496
  370TMC3    C4 5588   0.330   2.989  16.207 -0.1525  0.0521  0.3618
  370TMC3    C5 5589   0.251   2.885  16.172 -0.4313  0.2077 -0.2612
  370TMC3    C6 5590   0.200   2.799  16.265  0.0973  0.5193  0.5479
  370TMC3     C 5591   0.460   3.093  16.395 -0.8446  0.3008  0.1903
  370TMC3     O 5592   0.518   3.041  16.487  0.0216  0.2471 -0.2589
  370TMC3     H 5593   0.321   2.956  16.540 -0.7914 -0.1671  0.3353
  370TMC3    H1 5594   0.399   3.038  16.138 -3.8176  0.0966 -3.2374
  370TMC3    H2 5595   0.124   2.725  16.245 -2.6986  3.7063 -0.6107
  370TMC3    C7 5596   0.256   2.826  16.047 -0.0402  0.2352 -0.1973
  370TMC3    C8 5597   0.147   2.754  16.487  0.2743  0.7615 -0.3468
  370TMC3    O1 5598   0.269   2.893  15.945 -0.9138  0.0619  0.4729
  370TMC3    O2 5599   0.101   2.648  16.458 -0.5654 -0.0519  0.3645
  371TMC3    C1 5600   1.203   1.043  15.569 -0.4194 -0.5212 -0.1414
  371TMC3    C2 5601   1.067   1.033  15.602 -0.1121 -0.2467  0.5117
  371TMC3    C3 5602   0.999   1.148  15.628  0.0315  0.0670  0.2710
  371TMC3    C4 5603   1.277   1.154  15.565 -0.0550 -0.0418 -0.2231
  371TMC3    C5 5604   1.205   1.268  15.596  0.0852  0.3836  0.0651
  371TMC3    C6 5605   1.069   1.268  15.626 -0.2152 -0.4476  0.5226
  371TMC3     C 5606   1.281   0.919  15.552  0.1412 -0.3587  0.0335
  371TMC3     O 5607   1.380   0.931  15.479 -0.0555  0.4228  0.2388
  371TMC3     H 5608   1.023   0.934  15.595 -1.1703 -0.0142  3.5997
  371TMC3    H1 5609   1.381   1.155  15.534  0.6578  0.6774  2.1903
  371TMC3    H2 5610   1.020   1.359  15.658  0.4777  0.4946 -1.1394
  371TMC3    C7 5611   1.274   1.393  15.602 -0.5132  0.5733  0.5941
  371TMC3    C8 5612   0.874   1.129  15.693 -0.0574 -0.2268 -0.0842
  371TMC3    O1 5613   1.232   1.477  15.677  0.1839  0.4421  0.2704
  371TMC3    O2 5614   0.848   1.018  15.742  0.1180 -0.5526 -0.3762
  372MPD2     C 5615   0.900   2.033  14.236 -0.5440 -0.4064 -0.1972
  372MPD2    C1 5616   0.976   1.952  14.157 -0.0798 -0.4318  0.0409
  372MPD2    C2 5617   0.957   1.817  14.146 -0.7315 -0.1172  0.2962
  372MPD2    C3 5618   0.858   1.753  14.222 -0.7258 -0.1216  0.0378
  372MPD2    C4 5619   0.777   1.838  14.301  1.2649 -0.8386 -0.5257
  372MPD2    C5 5620   0.787   1.973  14.297 -0.2098 -0.8189 -0.1056
  372MPD2     H 5621   1.015   1.757  14.079 -0.0153  0.7853  0.1063
  372MPD2    H1 5622   0.699   1.796  14.363  1.6077  0.8994  1.0825
  372MPD2    H2 5623   0.917   2.136  14.265 -1.6388  0.0839 -1.3227
  372MPD2    H3 5624   0.737   2.026  14.378  0.8088  0.6080 -0.4074
  372MPD2     N 5625   0.837   1.616  14.238 -0.5198  0.7032  0.1698
  372MPD2    H5 5626   0.776   1.590  14.315  1.2910 -0.4443  1.2149
  372MPD2    N1 5627   1.082   2.000  14.077  0.0875 -0.0790  0.4611
  372MPD2    H7 5628   1.135   1.938  14.018 -0.6235  1.0199 -1.3381
  373TMC3    C1 5629   0.884   1.383  14.209  0.3191  0.8610  0.3875
  373TMC3    C2 5630   0.881   1.363  14.340 -0.8933 -0.0898  0.2477
  373TMC3    C3 5631   0.878   1.227  14.376  0.3492 -0.4666 -0.2705
  373TMC3    C4 5632   0.861   1.291  14.117  0.3642  0.2275  0.8884
  373TMC3    C5 5633   0.846   1.162  14.158  0.3329 -0.6588 -0.0465
  373TMC3    C6 5634   0.853   1.125  14.287  0.1567  0.2657 -0.1501
  373TMC3     C 5635   0.903   1.523  14.167 -0.6728  0.1078  0.2910
  373TMC3     O 5636   0.962   1.534  14.060 -0.4427  0.4655  0.1727
  373TMC3     H 5637   0.896   1.448  14.405 -1.1484  0.2637 -0.1583
  373TMC3    H1 5638   0.849   1.326  14.015  3.3359 -2.4046 -0.3517
  373TMC3    H2 5639   0.864   1.023  14.321 -0.3918  0.4694  0.6348
  373TMC3    C7 5640   0.865   1.058  14.051 -0.0091  0.0222 -0.2639
  373TMC3    C8 5641   0.940   1.188  14.503  0.1466 -0.3038  0.5243
  373TMC3    O1 5642   0.909   1.101  13.942  0.5080 -0.0556  0.6866
  373TMC3    O2 5643   0.887   1.098  14.570 -0.2341 -0.1237 -0.5547
  374TMC3    C1 5644   1.811   1.835  10.727  0.0222 -0.5758 -0.1761
  374TMC3    C2 5645   1.863   1.961  10.687  0.6259 -0.2853  1.2487
  374TMC3    C3 5646   1.787   2.043  10.609 -0.1464 -0.1828 -0.1124
  374TMC3    C4 5647   1.682   1.803  10.704  0.6272 -0.1553  0.0633
  374TMC3    C5 5648   1.608   1.885  10.628 -0.1312 -0.8376 -0.1209
  374TMC3    C6 5649   1.666   1.998  10.576  0.1742  0.1237 -0.0064
  374TMC3     C 5650   1.902   1.746  10.791 -0.1036  0.3412 -0.8635
  374TMC3     O 5651   2.017   1.786  10.820  0.1125 -0.2677  0.1682
  374TMC3     H 5652   1.967   1.983  10.707  0.5138  0.3368  1.1236
  374TMC3    H1 5653   1.637   1.724  10.762 -0.9102  0.4048 -0.3784
  374TMC3    H2 5654   1.611   2.060  10.507  0.9790  1.3921  0.4978
  374TMC3    C7 5655   1.470   1.859  10.598  1.2823 -0.4136  0.4570
  374TMC3    C8 5656   1.833   2.168  10.545  0.6004 -0.2101 -0.0897
  374TMC3    O1 5657   1.443   1.743  10.626  0.7463 -0.0363 -0.4644
  374TMC3    O2 5658   1.761   2.227  10.471 -0.1638 -0.1791  0.3952
  375MPD2     C 5659   1.368   3.093  17.430 -0.3619 -0.2587 -0.0781
  375MPD2    C1 5660   1.312   3.185  17.344  0.2551 -0.2713  0.2272
  375MPD2    C2 5661   1.374   3.231  17.230 -0.2020 -0.1797 -0.4021
  375MPD2    C3 5662   1.488   3.165  17.194  0.8260  0.4537 -0.3326
  375MPD2    C4 5663   1.547   3.066  17.276 -0.0255 -0.1514 -0.0075
  375MPD2    C5 5664   1.482   3.033  17.387  0.6657 -0.4050 -0.8877
  375MPD2     H 5665   1.334   3.316  17.178 -2.9114 -1.2457 -0.0635
  375MPD2    H1 5666   1.647   3.032  17.252  0.3019  0.3703  0.6126
  375MPD2    H2 5667   1.320   3.061  17.521  0.8612  1.1681  1.0537
  375MPD2    H3 5668   1.522   2.952  17.448  1.6522  0.2310 -0.6795
  375MPD2     N 5669   1.549   3.187  17.071 -0.3479  0.2467  0.1210
  375MPD2    H5 5670   1.642   3.146  17.066 -0.3015  0.1223  1.9825
  375MPD2    N1 5671   1.186   3.244  17.366  0.0450 -0.4190  0.1613
  375MPD2    H7 5672   1.157   3.320  17.305  1.2330 -0.0315  0.0799
  376TMC3    C1 5673   1.582   3.275  16.864 -0.1862  0.1178  0.2030
  376TMC3    C2 5674   1.717   3.279  16.895  0.6972 -0.3757 -0.3077
  376TMC3    C3 5675   1.791   3.337  16.796  0.5660 -0.1146  0.9330
  376TMC3    C4 5676   1.526   3.315  16.752  0.1828  0.0035 -0.0939
  376TMC3    C5 5677   1.614   3.371  16.660  0.2192  0.7398 -0.0711
  376TMC3    C6 5678   1.743   3.397  16.685  0.1425  0.1604  0.0781
  376TMC3     C 5679   1.493   3.262  16.972 -0.1289 -0.0172  0.3001
  376TMC3     O 5680   1.393   3.330  16.956 -0.8487  0.7152 -0.3691
  376TMC3     H 5681   1.755   3.258  16.994 -1.2765  0.6801  0.6659
  376TMC3    H1 5682   1.423   3.289  16.729 -0.1728 -0.7718  2.3193
  376TMC3    H2 5683   1.806   3.460  16.623  1.9646 -0.6156  1.1440
  376TMC3    C7 5684   1.576   3.357  16.523 -0.0984 -0.1659  0.7745
  376TMC3    C8 5685   1.928   3.290  16.774 -0.0016 -0.8765 -0.5961
  376TMC3    O1 5686   1.651   3.387  16.435 -0.2918  0.0866 -0.1780
  376TMC3    O2 5687   1.970   3.316  16.663  0.3578  0.1270  0.3142
  377MPD2     C 5688   0.077   2.737  12.873  0.7018  0.3712  0.8137
  377MPD2    C1 5689   4.707   2.791  12.814 -0.2246 -0.9297 -0.0871
  377MPD2    C2 5690   4.579   2.773  12.863  0.1577  0.0052 -0.2852
  377MPD2    C3 5691   4.570   2.703  12.988  1.2303 -0.3701 -0.5017
  377MPD2    C4 5692   4.683   2.655  13.045 -0.3560  0.1729  0.0897
  377MPD2    C5 5693   0.066   2.674  12.994  0.0731  0.1622 -0.2985
  377MPD2     H 5694   4.490   2.814  12.816 -0.5479  0.4729  1.4639
  377MPD2    H1 5695   4.660   2.600  13.135 -1.7271 -1.9293 -1.5208
  377MPD2    H2 5696   0.175   2.749  12.829  0.2118 -3.2917 -1.2897
  377MPD2    H3 5697   0.152   2.633  13.048  2.1945  1.2211 -2.8827
  377MPD2     N 5698   4.447   2.675  13.050 -0.0740  0.0705 -0.9373
  377MPD2    H5 5699   4.449   2.624  13.138 -2.8502 -1.3430 -1.6943
  377MPD2    N1 5700   4.730   2.861  12.691 -0.0261 -0.4959 -0.7378
  377MPD2    H7 5701   0.085   2.873  12.659 -0.3365  0.7485 -1.2204
  378TMC3    C1 5702   4.645   2.967  12.249 -0.0094  0.1518 -0.1180
  378TMC3    C2 5703   4.605   2.922  12.375 -0.3309  0.0615  0.1609
  378TMC3    C3 5704   4.687   2.945  12.473  0.0255 -0.1067 -0.4575
  378TMC3    C4 5705   0.023   3.038  12.225  0.6603  0.0342 -0.1183
  378TMC3    C5 5706   0.104   3.052  12.337 -0.8140 -0.0997 -0.7908
  378TMC3    C6 5707   0.066   3.013  12.459 -0.1570 -0.0991 -0.4334
  378TMC3     C 5708   4.578   2.894  12.144  0.0095 -0.7436  0.5395
  378TMC3     O 5709   4.466   2.851  12.170  0.0669 -0.5252 -0.0951
  378TMC3     H 5710   4.519   2.856  12.386 -1.0475  0.8908 -0.4773
  378TMC3    H1 5711   0.057   3.064  12.126 -0.6286 -0.0818 -0.5837
  378TMC3    H2 5712   0.131   3.030  12.544 -1.2914 -1.5246  0.7034
  378TMC3    C7 5713   0.235   3.112  12.322  0.5699 -0.3006 -0.7110
  378TMC3    C8 5714   4.633   2.911  12.603  0.0457 -0.2291  0.1282
  378TMC3    O1 5715   0.264   3.183  12.416 -0.1905  0.1593  0.2340
  378TMC3    O2 5716   4.510   2.913  12.614  0.6864  0.4558 -0.6667
  379MPD2     C 5717   0.261   0.945  16.393  0.1028  0.1506 -0.4077
  379MPD2    C1 5718   0.178   0.886  16.485  0.0410 -0.4450  0.0727
  379MPD2    C2 5719   0.223   0.826  16.597  0.5608 -0.7309  0.2732
  379MPD2    C3 5720   0.359   0.831  16.626 -0.4260  0.1262 -0.5291
  379MPD2    C4 5721   0.444   0.891  16.536 -0.1558  0.2215  0.5839
  379MPD2    C5 5722   0.394   0.948  16.421 -0.9325 -0.1382 -0.9202
  379MPD2     H 5723   0.163   0.758  16.656  0.7272 -0.0043  1.2872
  379MPD2    H1 5724   0.552   0.883  16.538 -0.0302  1.4525 -0.9655
  379MPD2    H2 5725   0.236   0.981  16.294 -0.7252 -2.3255 -1.0991
  379MPD2    H3 5726   0.462   0.977  16.341  0.8367  0.9710  0.9864
  379MPD2     N 5727   0.422   0.759  16.729  0.5018  0.2140 -0.2469
  379MPD2    H5 5728   0.523   0.769  16.730  0.5397 -0.3724  0.9824
  379MPD2    N1 5729   0.047   0.876  16.439  0.1668  0.1920  0.0601
  379MPD2    H7 5730   0.021   0.920  16.351 -2.0986 -1.8109 -0.2501
  380TMC3    C1 5731   4.584   0.798  16.396  0.1919  0.4352 -0.6272
  380TMC3    C2 5732   4.551   0.674  16.363  0.0779 -0.3921  0.1266
  380TMC3    C3 5733   4.470   0.644  16.256  0.5038  0.0933  0.9303
  380TMC3    C4 5734   4.540   0.901  16.322 -0.4440  0.2514  0.6129
  380TMC3    C5 5735   4.464   0.876  16.216 -0.5937 -0.4542 -0.1588
  380TMC3    C6 5736   4.424   0.749  16.181 -0.3224 -0.1808  0.3523
  380TMC3     C 5737   4.683   0.818  16.497 -0.2059  0.4539 -0.0735
  380TMC3     O 5738   4.672   0.746  16.595  0.0560  0.4268  0.0910
  380TMC3     H 5739   4.610   0.596  16.410  0.8767  0.2183  0.1408
  380TMC3    H1 5740   4.573   1.003  16.342 -0.6354  0.6512 -1.1083
  380TMC3    H2 5741   4.366   0.731  16.091 -0.5649 -2.6307  0.9822
  380TMC3    C7 5742   4.416   0.994  16.148 -0.0832  0.0179 -0.4066
  380TMC3    C8 5743   4.449   0.510  16.210 -0.7568 -0.0618 -0.8432
  380TMC3    O1 5744   4.451   1.103  16.189 -0.3581  0.4764  0.0828
  380TMC3    O2 5745   4.413   0.511  16.091 -0.1296  0.2165 -0.0681
  381TMC3    C1 5746   0.074   2.022  16.174  0.2226 -0.0961  0.0242
  381TMC3    C2 5747   0.173   2.121  16.194  0.3306  0.4807 -0.3428
  381TMC3    C3 5748   0.162   2.198  16.302 -0.0399 -0.4101 -1.2005
  381TMC3    C4 5749   4.715   1.997  16.267  0.5495  0.2209 -0.1466
  381TMC3    C5 5750   4.710   2.081  16.375 -0.0136  0.0754 -0.0937
  381TMC3    C6 5751   0.062   2.187  16.392 -0.0637 -0.0858  0.1063
  381TMC3     C 5752   0.087   1.926  16.068  0.1103  0.3199  0.2568
  381TMC3     O 5753   0.057   1.809  16.089 -0.1486  0.3187 -0.4386
  381TMC3     H 5754   0.249   2.153  16.123  1.1865 -0.6219  0.0757
  381TMC3    H1 5755   4.649   1.913  16.249 -0.5117  0.8660  0.7720
  381TMC3    H2 5756   0.047   2.251  16.478 -0.9211 -1.6658  1.1273
  381TMC3    C7 5757   4.639   2.021  16.482  0.6459  0.0785  0.0890
  381TMC3    C8 5758   0.277   2.284  16.330 -0.2146 -0.5952  0.3051
  381TMC3    O1 5759   4.596   1.908  16.464 -0.6638  0.0503 -0.1632
  381TMC3    O2 5760   0.365   2.290  16.246 -0.3517 -0.0121  0.0940
  382MPD2     C 5761   4.288   4.325  17.277  0.4680  0.2732  0.3409
  382MPD2    C1 5762   4.180   4.355  17.358  0.3984 -0.6404  0.4634
  382MPD2    C2 5763   4.119   4.241  17.401  0.5974  0.4331 -0.2702
  382MPD2    C3 5764   4.163   4.108  17.367  0.5702  0.3960 -0.0875
  382MPD2    C4 5765   4.291   4.096  17.321 -0.8086 -0.3432  0.2880
  382MPD2    C5 5766   4.346   4.202  17.265 -0.0525  0.0170 -0.3863
  382MPD2     H 5767   4.038   4.257  17.472  0.6331  2.1744 -0.6306
  382MPD2    H1 5768   4.331   3.997  17.304  0.3921  0.5224 -1.8471
  382MPD2    H2 5769   4.339   4.410  17.231 -1.2935  0.1352 -1.9076
  382MPD2    H3 5770   4.441   4.204  17.212 -0.0795 -1.7321 -0.4860
  382MPD2     N 5771   4.096   3.992  17.403 -0.2269 -0.5880 -0.2565
  382MPD2    H5 5772   4.146   3.904  17.398  0.3360 -0.1771 -2.0517
  382MPD2    N1 5773   4.131   4.481  17.383 -0.1506 -0.0113 -0.7857
  382MPD2    H7 5774   4.040   4.496  17.426 -0.1818 -1.4197 -0.3656
  383TMC3    C1 5775   3.920   3.843  17.458 -0.1807  0.5512  0.4325
  383TMC3    C2 5776   3.793   3.817  17.413 -0.2861 -0.4613 -0.2015
  383TMC3    C3 5777   3.748   3.694  17.436  0.0535  0.0396 -0.3012
  383TMC3    C4 5778   3.998   3.754  17.520  0.0004  0.1917 -0.0322
  383TMC3    C5 5779   3.945   3.631  17.551  0.1027 -0.5021  0.2314
  383TMC3    C6 5780   3.818   3.603  17.503 -0.5465 -0.0846 -0.0959
  383TMC3     C 5781   3.965   3.981  17.436 -0.6735  0.2727 -0.0361
  383TMC3     O 5782   3.877   4.061  17.414 -0.0111 -0.7397 -0.9473
  383TMC3     H 5783   3.747   3.894  17.353  0.1498  0.2654  0.3946
  383TMC3    H1 5784   4.103   3.773  17.536  0.3447 -0.9009 -1.0228
  383TMC3    H2 5785   3.789   3.499  17.509  2.8107 -0.8972  1.8383
  383TMC3    C7 5786   4.040   3.525  17.573  0.3207 -0.2149 -0.3085
  383TMC3    C8 5787   3.624   3.670  17.374 -0.2602  0.3568  0.6599
  383TMC3    O1 5788   4.011   3.423  17.507  0.1236  0.6469 -0.4395
  383TMC3    O2 5789   3.564   3.768  17.333  0.1337 -0.0953 -0.1793
  384MPD2     C 5790   0.445   4.664  11.983 -0.2864  1.1747 -0.6043
  384MPD2    C1 5791   0.549   4.701  12.069  0.3517 -0.4936 -0.6625
  384MPD2    C2 5792   0.671   4.692  12.017 -0.4562 -0.7407  0.1179
  384MPD2    C3 5793   0.701   4.645  11.887  0.0233  0.5173 -0.3060
  384MPD2    C4 5794   0.598   4.612  11.806  0.2611  0.1192  0.2320
  384MPD2    C5 5795   0.473   4.635  11.851 -1.1231  0.2725 -0.5687
  384MPD2     H 5796   0.754   4.694  12.087  1.6004 -0.8322 -2.3253
  384MPD2    H1 5797   0.612   4.596  11.700 -2.6174 -2.5560  0.2707
  384MPD2    H2 5798   0.341   4.677  12.012 -1.0890 -1.8251 -2.1710
  384MPD2    H3 5799   0.395   4.630  11.777 -0.4669  0.9289 -1.3049
  384MPD2     N 5800   0.829   4.621  11.844 -0.0186 -0.0283  0.8484
  384MPD2    H5 5801   0.838   4.590  11.748  2.2212 -0.9792  1.3882
  384MPD2    N1 5802   0.525   4.734  12.205  0.4934 -0.9109  0.0584
  384MPD2    H7 5803   0.429   4.737  12.237 -0.1926 -0.7203 -1.9940
  385TMC3    C1 5804   1.071   4.591  11.840 -0.6547  0.1384 -0.1320
  385TMC3    C2 5805   1.074   4.467  11.787  0.0504  0.3689  0.9261
  385TMC3    C3 5806   1.176   4.380  11.824  0.4167 -1.1225 -0.1411
  385TMC3    C4 5807   1.181   4.636  11.905 -0.2509 -0.4724 -0.1214
  385TMC3    C5 5808   1.275   4.546  11.946  0.5872  0.5405 -0.8687
  385TMC3    C6 5809   1.269   4.416  11.917  0.1067 -0.5115  0.5637
  385TMC3     C 5810   0.948   4.632  11.909 -0.0128  0.1417 -0.3200
  385TMC3     O 5811   0.968   4.690  12.012 -0.3570  0.3531  0.1612
  385TMC3     H 5812   0.981   4.423  11.753  0.3945 -0.3380  0.8790
  385TMC3    H1 5813   1.181   0.000  11.930 -2.5012 -0.1807 -1.3390
  385TMC3    H2 5814   1.344   4.349  11.958  1.2841  0.7743  0.5205
  385TMC3    C7 5815   1.307   4.575  12.081 -0.3201  0.0045  0.7997
  385TMC3    C8 5816   1.139   4.242  11.834 -0.1114 -0.0626  0.5182
  385TMC3    O1 5817   1.414   4.532  12.121  0.9799  0.4087  0.4650
  385TMC3    O2 5818   1.135   4.199  11.948 -0.1255 -0.3609 -0.2252
  386TMC3    C1 5819   1.510   2.206  12.088  1.1081  0.5967  0.3172
  386TMC3    C2 5820   1.482   2.175  11.963  0.1798  0.0920 -0.1552
  386TMC3    C3 5821   1.379   2.251  11.900 -1.0750  0.2537 -0.9735
  386TMC3    C4 5822   1.476   2.321  12.153 -0.3547 -0.2324  0.3621
  386TMC3    C5 5823   1.388   2.399  12.088  0.4806 -0.3518  0.4360
  386TMC3    C6 5824   1.341   2.371  11.967  0.4193 -0.1587  0.2421
  386TMC3     C 5825   1.620   2.125  12.143 -0.2189  0.2771 -0.0694
  386TMC3     O 5826   1.706   2.184  12.205  0.7955 -0.3716 -0.2596
  386TMC3     H 5827   1.512   2.082  11.917  0.0875 -0.4087  0.7933
  386TMC3    H1 5828   1.516   2.342  12.252  0.0364  0.6764  0.0115
  386TMC3    H2 5829   1.281   2.435  11.904  1.2038  1.2565  0.9548
  386TMC3    C7 5830   1.332   2.513  12.163  0.0144 -0.2530 -0.0434
  386TMC3    C8 5831   1.346   2.230  11.762 -0.0539 -0.2406  0.0090
  386TMC3    O1 5832   1.364   2.534  12.278  0.1563  0.7309 -0.2624
  386TMC3    O2 5833   1.260   2.310  11.725  0.4699 -0.4336  0.6833
  387MPD2     C 5834   3.494   2.365  10.201 -0.6540 -0.4812 -0.1913
  387MPD2    C1 5835   3.591   2.328  10.292 -0.4520  0.7748 -0.1838
  387MPD2    C2 5836   3.600   2.192  10.302 -0.5296 -0.1572  0.4030
  387MPD2    C3 5837   3.545   2.097  10.227  0.4298 -0.0875  0.1175
  387MPD2    C4 5838   3.463   2.141  10.128 -0.1543  0.0314  0.3018
  387MPD2    C5 5839   3.438   2.270  10.119 -0.6496 -0.4993  0.5828
  387MPD2     H 5840   3.665   2.149  10.377  1.3227  0.0883 -1.0765
  387MPD2    H1 5841   3.407   2.072  10.066 -1.1375  0.4800  0.6888
  387MPD2    H2 5842   3.470   2.468  10.180  4.2091  0.7826  0.4920
  387MPD2    H3 5843   3.365   2.304  10.047  0.0690 -1.8958 -0.8045
  387MPD2     N 5844   3.588   1.963  10.245 -0.2070  0.0193 -0.1583
  387MPD2    H5 5845   3.634   1.930  10.329 -0.1057 -1.3001 -0.7307
  387MPD2    N1 5846   3.653   2.404  10.389 -0.0011 -0.2182  0.0997
  387MPD2    H7 5847   3.700   2.345  10.457 -2.6124  0.1718  2.2398
  388TMC3    C1 5848   3.769   2.576  10.499 -0.3805 -0.2419 -0.3233
  388TMC3    C2 5849   3.825   2.704  10.485  0.5583 -0.9567  0.3854
  388TMC3    C3 5850   3.946   2.725  10.530  0.5137 -0.1522  0.3680
  388TMC3    C4 5851   3.849   2.472  10.563  0.1825 -0.1529  0.3876
  388TMC3    C5 5852   3.981   2.502  10.593 -0.6518 -0.4207 -0.4248
  388TMC3    C6 5853   4.025   2.629  10.586  0.8663 -0.0837 -0.1634
  388TMC3     C 5854   3.664   2.545  10.396 -0.6928 -0.7820  0.4089
  388TMC3     O 5855   3.628   2.630  10.322  0.2191 -0.5548 -0.1204
  388TMC3     H 5856   3.763   2.785  10.448  2.2075  1.0348  2.0447
  388TMC3    H1 5857   3.817   2.375  10.600 -2.9604  0.6760 -0.1114
  388TMC3    H2 5858   4.131   2.640  10.604  0.8023  0.2053  0.0397
  388TMC3    C7 5859   4.078   2.396  10.609 -0.0796 -0.6482  0.1961
  388TMC3    C8 5860   4.012   2.857  10.513  0.0529 -0.7145 -0.1042
  388TMC3    O1 5861   4.179   2.419  10.673 -0.3030 -0.5947 -0.4472
  388TMC3    O2 5862   3.952   2.933  10.438  0.7825 -0.7507  0.4821
  389MPD2     C 5863   2.871   0.327  11.192 -0.3192  0.3221  0.0082
  389MPD2    C1 5864   2.762   0.260  11.140 -0.5509 -0.0388 -0.2969
  389MPD2    C2 5865   2.660   0.220  11.231 -0.1688 -0.4863  0.4305
  389MPD2    C3 5866   2.667   0.255  11.365  0.3950 -0.2689 -0.2673
  389MPD2    C4 5867   2.780   0.314  11.413 -0.0706  0.1438  0.2809
  389MPD2    C5 5868   2.874   0.359  11.327  0.6563  0.0680 -0.6556
  389MPD2     H 5869   2.574   0.180  11.177 -0.4537  1.8254 -0.8012
  389MPD2    H1 5870   2.784   0.332  11.520 -0.0811 -1.5439  0.5564
  389MPD2    H2 5871   2.947   0.350  11.118 -2.0883  3.9007 -0.6909
  389MPD2    H3 5872   2.962   0.411  11.363 -1.0300 -0.6908  4.5644
  389MPD2     N 5873   2.563   0.236  11.461 -0.4869  0.6575 -0.4419
  389MPD2    H5 5874   2.586   0.271  11.553 -1.0249 -3.1414  1.1172
  389MPD2    N1 5875   2.764   0.240  10.997  0.1065  0.3428  0.4408
  389MPD2    H7 5876   2.839   0.280  10.943 -0.6095  2.1854  0.8372
  390TMC3    C1 5877   2.378   0.139  11.565  0.2437 -0.9055 -0.5172
  390TMC3    C2 5878   2.292   0.033  11.564  0.0795 -0.1075  0.0534
  390TMC3    C3 5879   2.222   0.007  11.678 -0.1151  0.7352 -0.2630
  390TMC3    C4 5880   2.389   0.227  11.672 -0.2062  0.1217  0.5243
  390TMC3    C5 5881   2.310   0.199  11.777 -0.4751  0.6323  0.2050
  390TMC3    C6 5882   2.228   0.087  11.784  0.1970  0.3182  0.0960
  390TMC3     C 5883   2.448   0.165  11.441 -0.0773  0.8843 -0.0885
  390TMC3     O 5884   2.393   0.120  11.344 -0.1660  0.0708 -0.7736
  390TMC3     H 5885   2.283   4.714  11.475 -1.1142 -0.1814  0.2351
  390TMC3    H1 5886   2.433   0.326  11.672 -2.3911  1.0870  0.0954
  390TMC3    H2 5887   2.168   0.066  11.871 -0.1305 -1.7188 -0.6280
  390TMC3    C7 5888   2.334   0.277  11.901 -0.5705 -0.8525  0.9149
  390TMC3    C8 5889   2.121   4.645  11.663  0.2755  0.1848  0.4191
  390TMC3    O1 5890   2.385   0.387  11.889  1.2494  0.3115 -0.1576
  390TMC3    O2 5891   2.142   4.540  11.600 -0.0395 -0.1574 -0.1928
  391MPD2     C 5892   2.943   1.805  11.186 -0.2019  0.2887 -0.3683
  391MPD2    C1 5893   2.921   1.943  11.173  0.1229  0.5911  0.5908
  391MPD2    C2 5894   2.914   2.003  11.049 -0.0671  0.3237  0.2815
  391MPD2    C3 5895   2.908   1.924  10.937  0.3667 -0.6868  0.0793
  391MPD2    C4 5896   2.915   1.787  10.947  0.4247 -0.1151  0.1078
  391MPD2    C5 5897   2.932   1.728  11.073  0.2878  0.8688  0.1236
  391MPD2     H 5898   2.915   2.111  11.037 -0.7570  0.3150  0.1403
  391MPD2    H1 5899   2.926   1.726  10.858 -1.9356 -1.4700  0.7657
  391MPD2    H2 5900   2.970   1.763  11.282  1.7462  0.4958 -0.8200
  391MPD2    H3 5901   2.935   1.620  11.082  2.6263  1.1291  2.7921
  391MPD2     N 5902   2.895   1.997  10.815  0.1689 -0.0605  0.7455
  391MPD2    H5 5903   2.912   2.096  10.825  2.8658 -0.3305 -0.9731
  391MPD2    N1 5904   2.918   2.015  11.294  0.6144 -0.0777  0.1137
  391MPD2    H7 5905   2.911   1.956  11.377  1.2085 -0.9528 -0.4678
  392TMC3    C1 5906   2.813   2.065  10.615  0.4692 -0.3817  0.2377
  392TMC3    C2 5907   2.690   2.060  10.551  0.5209  0.2952 -0.4843
  392TMC3    C3 5908   2.621   2.175  10.528 -0.0299 -0.1160 -0.8015
  392TMC3    C4 5909   2.881   2.180  10.647 -1.3954  0.2128  0.0722
  392TMC3    C5 5910   2.809   2.290  10.614 -0.8675  0.2750  0.1205
  392TMC3    C6 5911   2.689   2.292  10.556 -0.0395  0.3393  0.0956
  392TMC3     C 5912   2.842   1.948  10.700 -0.8189 -0.1900 -0.1691
  392TMC3     O 5913   2.783   1.842  10.678  0.4576 -0.1130 -0.9291
  392TMC3     H 5914   2.638   1.967  10.529  2.4051 -0.9217  0.2124
  392TMC3    H1 5915   2.981   2.184  10.689 -0.6501  0.1385 -1.7132
  392TMC3    H2 5916   2.630   2.383  10.569 -0.6087 -0.0511  0.2633
  392TMC3    C7 5917   2.880   2.417  10.633 -1.3708  0.4465  0.0908
  392TMC3    C8 5918   2.480   2.168  10.543  0.1956 -0.7844 -0.3220
  392TMC3    O1 5919   2.983   2.414  10.697 -0.3106 -0.6827  0.0988
  392TMC3    O2 5920   2.433   2.059  10.584  0.6084 -0.2853  0.2700
  393TMC3    C1 5921   1.155   4.502  11.213 -0.6634 -0.4670  0.0816
  393TMC3    C2 5922   1.057   4.453  11.296 -0.8275  0.3081  0.1019
  393TMC3    C3 5923   1.001   4.328  11.267 -0.0547 -0.6730 -0.1342
  393TMC3    C4 5924   1.207   4.427  11.110 -0.7064 -0.4808 -0.6489
  393TMC3    C5 5925   1.148   4.313  11.077 -0.0720 -0.0905  0.0273
  393TMC3    C6 5926   1.040   4.269  11.151 -0.4575  0.3517 -0.5877
  393TMC3     C 5927   1.197   4.645  11.209 -0.1511 -0.2198  0.0255
  393TMC3     O 5928   1.311   4.661  11.167 -0.3400  0.0593 -0.1372
  393TMC3     H 5929   1.020   4.510  11.381 -2.2441  0.1234 -0.3831
  393TMC3    H1 5930   1.270   4.471  11.033  1.0508  0.6933  1.4556
  393TMC3    H2 5931   0.999   4.174  11.118 -0.2004 -0.6797  2.0772
  393TMC3    C7 5932   1.216   4.215  10.990 -0.2332 -0.3786 -0.2234
  393TMC3    C8 5933   0.886   4.283  11.340  0.4280 -0.4059  0.4043
  393TMC3    O1 5934   1.153   4.114  10.956 -0.2549  0.8082 -0.0107
  393TMC3    O2 5935   0.879   4.311  11.460  0.5403 -0.3124  0.1242
  394TMC3    C1 5936   2.685   0.203  10.775  0.2325 -0.2868 -0.0468
  394TMC3    C2 5937   2.569   0.219  10.699 -0.7240  0.2514 -0.5119
  394TMC3    C3 5938   2.587   0.221  10.567 -0.4485 -0.3803 -0.6464
  394TMC3    C4 5939   2.808   0.212  10.723  0.0988  0.2238 -0.5487
  394TMC3    C5 5940   2.817   0.230  10.588  0.2717 -0.6814  0.0772
  394TMC3    C6 5941   2.705   0.234  10.507 -0.4066  0.4938 -0.6419
  394TMC3     C 5942   2.657   0.192  10.918 -0.0787  0.2043  0.9843
  394TMC3     O 5943   2.542   0.170  10.959  0.1260  0.5128 -0.0714
  394TMC3     H 5944   2.466   0.218  10.733 -1.2580  1.1575 -2.1232
  394TMC3    H1 5945   2.895   0.197  10.787 -0.8138 -0.6444  0.4938
  394TMC3    H2 5946   2.724   0.253  10.402 -1.1114  2.0777 -0.4967
  394TMC3    C7 5947   2.929   0.301  10.536 -0.2841 -0.2634  0.1699
  394TMC3    C8 5948   2.482   0.295  10.493  0.3366 -0.1642 -0.1917
  394TMC3    O1 5949   2.893   0.389  10.453  0.0635  0.6547 -0.4033
  394TMC3    O2 5950   2.432   0.388  10.560 -0.4706 -0.1455 -0.0831
  395TMC3    C1 5951   2.450   2.709  14.826  0.1369 -0.7634  0.4253
  395TMC3    C2 5952   2.477   2.623  14.722 -0.3190  0.6877 -0.3238
  395TMC3    C3 5953   2.615   2.607  14.695 -0.0916 -0.2087 -0.7319
  395TMC3    C4 5954   2.544   2.781  14.896  0.5273  0.6973  0.5110
  395TMC3    C5 5955   2.677   2.763  14.871 -0.5777 -0.1054 -0.3561
  395TMC3    C6 5956   2.709   2.682  14.764  0.2167  0.1266  0.3412
  395TMC3     C 5957   2.317   2.717  14.861  0.2561 -0.2469  0.2786
  395TMC3     O 5958   2.288   2.801  14.946  0.2294  0.4976  0.4580
  395TMC3     H 5959   2.404   2.590  14.650 -2.8824  1.2657  2.0302
  395TMC3    H1 5960   2.517   2.847  14.978  1.2814 -1.0578  2.1677
  395TMC3    H2 5961   2.811   2.660  14.737 -0.4718 -0.8416 -1.4482
  395TMC3    C7 5962   2.763   2.869  14.913  0.5909  0.1400 -0.2452
  395TMC3    C8 5963   2.658   2.531  14.580  0.1765  0.2988  0.7531
  395TMC3    O1 5964   2.723   2.939  15.006  0.1038  0.5639  0.6199
  395TMC3    O2 5965   2.778   2.526  14.560 -0.5609  0.2758 -1.3884
  396MPD2     C 5966   1.966   4.094  17.237 -0.8521  0.0250 -0.3491
  396MPD2    C1 5967   2.086   4.036  17.228  0.7008 -0.8069 -0.2570
  396MPD2    C2 5968   2.179   4.090  17.141  0.7483  0.2318 -0.8298
  396MPD2    C3 5969   2.154   4.206  17.070 -0.3632 -0.5355 -0.1387
  396MPD2    C4 5970   2.028   4.266  17.076  0.7403  0.2123  0.2691
  396MPD2    C5 5971   1.942   4.201  17.154 -0.0525  0.4367 -0.1385
  396MPD2     H 5972   2.277   4.048  17.122 -0.8654 -2.9529 -2.0616
  396MPD2    H1 5973   1.986   4.357  17.036  2.0930  0.7116 -0.0202
  396MPD2    H2 5974   1.889   4.056  17.303  0.7532 -0.1279  1.4399
  396MPD2    H3 5975   1.842   4.243  17.162 -1.1023 -1.7415 -1.8573
  396MPD2     N 5976   2.249   4.257  16.987 -0.1303 -0.3346 -0.7259
  396MPD2    H5 5977   2.342   4.225  17.011  0.4275  2.0699  0.2970
  396MPD2    N1 5978   2.106   3.926  17.307 -0.4652  0.1457 -0.5825
  396MPD2    H7 5979   2.029   3.894  17.364 -1.1121 -1.1560 -2.2164
  397TMC3    C1 5980   2.199   3.724  17.394 -0.3611 -0.0567 -0.3040
  397TMC3    C2 5981   2.308   3.646  17.364  0.1917  0.2286 -0.3593
  397TMC3    C3 5982   2.310   3.511  17.354  0.0644 -0.2562  0.0533
  397TMC3    C4 5983   2.083   3.662  17.385  0.0864  0.2896  0.3352
  397TMC3    C5 5984   2.075   3.521  17.374 -0.4265 -0.2310 -0.4251
  397TMC3    C6 5985   2.191   3.446  17.361  0.2149 -0.2104 -0.0377
  397TMC3     C 5986   2.220   3.855  17.318 -0.1093  0.0859 -0.6330
  397TMC3     O 5987   2.327   3.880  17.266  0.4239  0.1706 -0.1779
  397TMC3     H 5988   2.405   3.693  17.371 -0.3271  0.9867  1.6900
  397TMC3    H1 5989   1.988   3.713  17.399 -0.1455  0.2552 -1.1103
  397TMC3    H2 5990   2.192   3.339  17.377  1.9869 -0.3950 -1.3434
  397TMC3    C7 5991   1.955   3.452  17.417  0.4732  0.5335 -0.6256
  397TMC3    C8 5992   2.429   3.430  17.353 -0.5783  0.0486 -0.4572
  397TMC3    O1 5993   1.847   3.503  17.396 -0.2953  0.4694 -0.2384
  397TMC3    O2 5994   2.416   3.330  17.415 -0.6293 -0.1719  0.2807
  398MPD2     C 5995   0.478   1.048   0.380 -0.2650  0.3567  0.3164
  398MPD2    C1 5996   0.566   0.963   0.447  0.1758  0.5613  0.4241
  398MPD2    C2 5997   0.695   1.009   0.483 -0.5211 -0.5240  0.1763
  398MPD2    C3 5998   0.744   1.128   0.432 -0.0880  0.0705 -0.1763
  398MPD2    C4 5999   0.662   1.202   0.344  0.0531 -0.5268 -0.0144
  398MPD2    C5 6000   0.527   1.163   0.328  0.6525  0.1508 -0.4929
  398MPD2     H 6001   0.751   0.964   0.564  0.3814 -0.5444 -0.4609
  398MPD2    H1 6002   0.706   1.291   0.301 -2.4561 -0.5412 -2.6608
  398MPD2    H2 6003   0.379   1.014   0.352 -0.2777  0.1807  0.5727
  398MPD2    H3 6004   0.460   1.219   0.264 -0.8310 -0.7171  0.3146
  398MPD2     N 6005   0.876   1.168   0.473  0.7642 -0.6071  0.0100
  398MPD2    H5 6006   0.920   1.098   0.531  0.6879 -2.8783 -2.7151
  398MPD2    N1 6007   0.527   0.834   0.493  0.1658  0.7401 -0.0941
  398MPD2    H7 6008   0.593   0.776   0.545 -0.2009  2.3581  2.1854
  399TMC3    C1 6009   0.422   0.625   0.516 -0.9273  0.0292 -0.4882
  399TMC3    C2 6010   0.543   0.576   0.534  0.4573  0.2739  0.2872
  399TMC3    C3 6011   0.559   0.446   0.500 -0.1432 -0.0875 -0.8116
  399TMC3    C4 6012   0.319   0.559   0.457 -0.0767  0.4108  0.2495
  399TMC3    C5 6013   0.334   0.426   0.430  0.0499  0.7125  0.2067
  399TMC3    C6 6014   0.453   0.370   0.462 -0.3468 -0.0939  0.0891
  399TMC3     C 6015   0.407   0.767   0.477  0.6185 -0.2867  0.5082
  399TMC3     O 6016   0.302   0.797   0.429 -0.1797  0.0943  0.8225
  399TMC3     H 6017   0.627   0.635   0.571  1.1554 -0.5959  0.1092
  399TMC3    H1 6018   0.218   0.596   0.460 -0.0443  0.3142  2.1274
  399TMC3    H2 6019   0.475   0.266   0.441 -0.7782 -0.3683  1.0080
  399TMC3    C7 6020   0.250   0.365   0.330 -0.2145 -0.1493 -0.2534
  399TMC3    C8 6021   0.683   0.389   0.538  0.5829 -0.4464 -0.1880
  399TMC3    O1 6022   0.205   0.434   0.240 -0.0234 -0.2758 -0.1109
  399TMC3    O2 6023   0.760   0.459   0.605 -0.5509  0.0082 -0.3502
  400TMC3    C1 6024   3.508   3.409  16.649  0.2211 -0.4775 -0.0074
  400TMC3    C2 6025   3.411   3.324  16.616 -0.4638 -0.3879 -0.1798
  400TMC3    C3 6026   3.332   3.367  16.509 -0.4869 -0.4300 -0.0329
  400TMC3    C4 6027   3.535   3.525  16.590 -0.2789 -0.2232  0.9023
  400TMC3    C5 6028   3.470   3.546  16.473 -0.1584  0.0327  0.7143
  400TMC3    C6 6029   3.369   3.467  16.428  0.6026 -0.4010 -0.1385
  400TMC3     C 6030   3.593   3.377  16.764 -0.3426 -0.9348  0.1325
  400TMC3     O 6031   3.623   3.259  16.775 -0.2838 -0.2674 -0.1468
  400TMC3     H 6032   3.393   3.238  16.679  1.8942 -0.3167  0.5935
  400TMC3    H1 6033   3.623   3.580  16.621  0.4192 -0.7571 -0.1335
  400TMC3    H2 6034   3.333   3.482  16.327 -0.0606 -0.7027  0.0502
  400TMC3    C7 6035   3.485   3.676  16.403 -0.5073 -0.0179 -0.6407
  400TMC3    C8 6036   3.211   3.301  16.472 -0.4081 -0.1779  0.4489
  400TMC3    O1 6037   3.428   3.695  16.296 -0.1473 -0.2510  0.1535
  400TMC3    O2 6038   3.178   3.287  16.354 -0.6080 -0.3436  0.0379
  401MPD2     C 6039   1.754   2.228   0.944 -0.0242  0.5722  0.4101
  401MPD2    C1 6040   1.845   2.152   1.020  0.1855  0.0904  0.3647
  401MPD2    C2 6041   1.824   2.018   1.011 -0.2556  0.1487 -0.1319
  401MPD2    C3 6042   1.737   1.958   0.922 -0.2715 -0.1724  0.0659
  401MPD2    C4 6043   1.639   2.035   0.863  0.2689  0.7645  0.2281
  401MPD2    C5 6044   1.644   2.171   0.884 -0.5939  0.3646 -0.9031
  401MPD2     H 6045   1.883   1.947   1.068 -1.1157  1.0948  1.9607
  401MPD2    H1 6046   1.568   1.993   0.792 -1.1061  0.9942  1.4700
  401MPD2    H2 6047   1.740   2.334   0.964  0.0527  0.5984  0.3258
  401MPD2    H3 6048   1.571   2.244   0.851 -1.2472  0.5676  1.0046
  401MPD2     N 6049   1.748   1.814   0.913  0.2046  1.1395 -0.2581
  401MPD2    H5 6050   1.819   1.772   0.973  1.0570  0.8239 -1.5047
  401MPD2    N1 6051   1.949   2.197   1.105 -0.1597 -0.4492 -0.4929
  401MPD2    H7 6052   2.013   2.131   1.148  0.8589  0.5843 -0.4421
  402TMC3    C1 6053   1.724   1.600   0.831  0.7340 -0.3101 -0.5571
  402TMC3    C2 6054   1.768   1.549   0.952  0.0051  0.5870  0.6716
  402TMC3    C3 6055   1.831   1.430   0.956 -0.7352 -0.3156  0.3982
  402TMC3    C4 6056   1.761   1.540   0.713  0.1449  0.4008  0.6791
  402TMC3    C5 6057   1.832   1.424   0.723  0.4532  0.9014 -0.2683
  402TMC3    C6 6058   1.860   1.367   0.837  0.4333 -0.2207 -0.4849
  402TMC3     C 6059   1.688   1.738   0.818  0.2899  0.9215  0.0045
  402TMC3     O 6060   1.620   1.772   0.719 -0.1707 -0.6403 -0.2350
  402TMC3     H 6061   1.748   1.611   1.039  0.2642 -0.1032  1.2148
  402TMC3    H1 6062   1.752   1.594   0.620  0.5794  0.5884  0.7452
  402TMC3    H2 6063   1.905   1.268   0.845  0.4988 -0.2902 -1.8091
  402TMC3    C7 6064   1.892   1.379   0.602 -0.8029  0.0210 -0.2334
  402TMC3    C8 6065   1.904   1.388   1.072  0.0341 -0.3307  0.2135
  402TMC3    O1 6066   1.835   1.402   0.495  0.5649 -0.0665  0.3244
  402TMC3    O2 6067   1.989   1.302   1.052 -0.1580 -0.0949 -0.2557
  403MPD2     C 6068   0.601   4.462  13.342 -0.7784  0.3455  0.7896
  403MPD2    C1 6069   0.562   4.558  13.429 -0.7455  0.0835  0.4940
  403MPD2    C2 6070   0.647   4.602  13.530  0.4367 -0.3893 -0.1625
  403MPD2    C3 6071   0.773   4.545  13.543  0.2347  0.3236  0.1398
  403MPD2    C4 6072   0.816   4.446  13.454 -0.1643 -0.2917  0.1341
  403MPD2    C5 6073   0.721   4.405  13.359 -0.6283 -0.3657 -0.1544
  403MPD2     H 6074   0.615   4.673  13.606 -1.3084 -0.0768 -1.2033
  403MPD2    H1 6075   0.906   4.385  13.446 -0.8074 -1.0187 -1.7056
  403MPD2    H2 6076   0.531   4.433  13.264  0.7936 -0.4471 -0.3108
  403MPD2    H3 6077   0.751   4.327  13.291  0.1624 -0.0847 -0.1243
  403MPD2     N 6078   0.859   4.586  13.647  0.2236 -0.0005  0.4924
  403MPD2    H5 6079   0.835   4.670  13.699 -0.3696  0.1490 -0.0278
  403MPD2    N1 6080   0.426   4.583  13.427  0.1960 -0.1223  0.0034
  403MPD2    H7 6081   0.370   4.561  13.345 -0.9484  0.3521  0.6532
  404TMC3    C1 6082   0.218   4.636  13.524 -0.0478 -0.2183 -0.3604
  404TMC3    C2 6083   0.135   4.689  13.622 -0.3740  0.0404 -0.7302
  404TMC3    C3 6084   0.012   4.638  13.652  0.3732 -0.0853 -0.1336
  404TMC3    C4 6085   0.174   4.522  13.460 -0.3388 -0.1748 -0.6449
  404TMC3    C5 6086   0.048   4.476  13.485 -0.6214 -0.2114  0.0359
  404TMC3    C6 6087   4.715   4.526  13.587  0.0779 -0.5589 -0.1502
  404TMC3     C 6088   0.361   4.667  13.518  0.4659  0.5926  0.0310
  404TMC3     O 6089   0.399   4.739  13.609 -0.4189 -0.3548 -1.0299
  404TMC3     H 6090   0.167   0.044  13.662  0.9170 -0.8860  0.4671
  404TMC3    H1 6091   0.219   4.479  13.371 -0.2805  0.6152 -1.0046
  404TMC3    H2 6092   4.626   4.482  13.630 -0.2692 -1.9130 -2.2792
  404TMC3    C7 6093   4.740   4.355  13.420 -0.0524 -0.0131  0.0087
  404TMC3    C8 6094   4.701   4.645  13.789  0.2807  0.6597  0.4744
  404TMC3    O1 6095   0.082   4.273  13.399 -0.3875 -0.4028  0.1678
  404TMC3    O2 6096   4.577   4.648  13.809  0.2567 -0.6760  0.2396
  405MPD2     C 6097   0.289   0.483  15.355 -0.0678 -0.0597  0.6335
  405MPD2    C1 6098   0.390   0.547  15.291 -0.3248  0.3247 -0.0301
  405MPD2    C2 6099   0.367   0.668  15.231  0.1056  0.0591 -0.0116
  405MPD2    C3 6100   0.245   0.733  15.241 -0.2288  0.4438 -0.3549
  405MPD2    C4 6101   0.143   0.674  15.311 -0.0919  0.0942  0.0564
  405MPD2    C5 6102   0.164   0.544  15.361 -0.2601 -0.1330 -0.2672
  405MPD2     H 6103   0.447   0.718  15.178  1.5042 -3.4204 -1.1343
  405MPD2    H1 6104   0.045   0.709  15.341 -0.5711 -1.4502  0.3011
  405MPD2    H2 6105   0.308   0.385  15.397  2.6555  0.8051  1.3958
  405MPD2    H3 6106   0.092   0.495  15.425  0.0012  1.1134  0.9723
  405MPD2     N 6107   0.236   0.870  15.202 -0.2720  0.2456 -0.8853
  405MPD2    H5 6108   0.322   0.909  15.164 -0.0633  0.4242 -0.2212
  405MPD2    N1 6109   0.514   0.477  15.285  0.1200  0.5167 -0.7461
  405MPD2    H7 6110   0.523   0.381  15.314 -0.3684  0.0674 -2.0994
  406TMC3    C1 6111   0.120   1.240  15.010  0.2002 -0.3479  0.0749
  406TMC3    C2 6112   0.223   1.313  15.064  0.3601 -0.0292 -0.0364
  406TMC3    C3 6113   0.311   1.244  15.147  1.4576 -0.0795 -0.0854
  406TMC3    C4 6114   0.068   1.127  15.065 -0.2903 -0.3222 -0.3153
  406TMC3    C5 6115   0.150   1.067  15.157 -0.8781  0.1425 -0.5773
  406TMC3    C6 6116   0.271   1.121  15.201  0.2535 -0.1971 -0.5705
  406TMC3     C 6117   0.071   1.296  14.885 -0.2367 -0.8678 -0.2984
  406TMC3     O 6118   0.076   1.418  14.868  0.4628 -0.0581 -0.5759
  406TMC3     H 6119   0.257   1.408  15.024 -0.2391  0.9556  1.8314
  406TMC3    H1 6120   4.724   1.070  15.029 -0.0233 -0.5199 -0.6280
  406TMC3    H2 6121   0.322   1.076  15.285  1.2431  0.7171 -0.6859
  406TMC3    C7 6122   0.119   0.939  15.207 -0.7604 -0.1923 -0.4426
  406TMC3    C8 6123   0.452   1.246  15.109 -0.3048  0.1287  0.6446
  406TMC3    O1 6124   0.001   0.903  15.218 -0.2257  0.0842 -0.2433
  406TMC3    O2 6125   0.492   1.333  15.035 -0.3168 -0.4339 -0.4023
  407MPD2     C 6126   3.013   1.798   9.967  0.6055  0.1175  0.5528
  407MPD2    C1 6127   3.147   1.807  10.007 -0.7405 -0.3702  0.6048
  407MPD2    C2 6128   3.172   1.877  10.119  0.0413 -0.7955  0.1715
  407MPD2    C3 6129   3.078   1.956  10.177 -0.3710  0.2043 -0.7535
  407MPD2    C4 6130   2.947   1.958  10.132  0.2602  0.1563 -0.1877
  407MPD2    C5 6131   2.914   1.878  10.025  0.2448 -0.6058 -0.1068
  407MPD2     H 6132   3.275   1.875  10.153 -0.4266  2.1803  1.8743
  407MPD2    H1 6133   2.866   2.017  10.172  0.2407 -0.6899  1.0057
  407MPD2    H2 6134   2.975   1.727   9.895 -2.6009  0.2968  2.0891
  407MPD2    H3 6135   2.810   1.880   9.996 -0.2689  1.0632  1.8199
  407MPD2     N 6136   3.109   2.032  10.298 -0.5678  0.1789  0.3249
  407MPD2    H5 6137   3.052   2.112  10.321  0.7552  0.8369  1.3383
  407MPD2    N1 6138   3.247   1.736   9.940 -0.5958  0.5231  0.3390
  407MPD2    H7 6139   3.343   1.764   9.961 -0.4539  1.6696 -1.8133
  408TMC3    C1 6140   3.349   1.596   9.779 -0.8403 -0.9030 -0.5939
  408TMC3    C2 6141   3.464   1.675   9.784 -0.2673 -0.1669 -0.3834
  408TMC3    C3 6142   3.570   1.639   9.711 -0.0104 -0.0193  0.0632
  408TMC3    C4 6143   3.347   1.475   9.713 -1.2819 -0.0452 -1.0027
  408TMC3    C5 6144   3.464   1.432   9.664  0.4808 -0.1036 -0.7287
  408TMC3    C6 6145   3.578   1.511   9.664  0.1337 -0.4211  1.0212
  408TMC3     C 6146   3.227   1.638   9.847 -0.4457 -0.4852  0.3926
  408TMC3     O 6147   3.124   1.581   9.811  0.3811  0.0694 -0.0637
  408TMC3     H 6148   3.453   1.779   9.813  2.9689  1.0499 -3.6085
  408TMC3    H1 6149   3.256   1.417   9.716 -0.1711 -1.7867 -0.9086
  408TMC3    H2 6150   3.673   1.481   9.621  0.5645 -0.6480  2.1322
  408TMC3    C7 6151   3.473   1.286   9.661  0.2936 -0.0273 -0.0268
  408TMC3    C8 6152   3.699   1.678   9.759 -0.6696  0.3758  0.3295
  408TMC3    O1 6153   3.392   1.218   9.725  0.0813  0.0759 -0.5289
  408TMC3    O2 6154   3.781   1.591   9.789  0.0783 -0.2347 -0.2705
  409MPD2     C 6155   2.364   3.193  17.075 -0.6283  0.5420  0.3306
  409MPD2    C1 6156   2.493   3.149  17.091  0.5722 -0.0810 -0.0088
  409MPD2    C2 6157   2.591   3.208  17.024 -0.7564  0.1190  0.5827
  409MPD2    C3 6158   2.567   3.313  16.938  0.1283 -0.0006 -0.3490
  409MPD2    C4 6159   2.437   3.356  16.924 -0.5987  0.5677  0.0994
  409MPD2    C5 6160   2.339   3.299  16.995  0.2687  0.1812  0.7006
  409MPD2     H 6161   2.693   3.172  17.041 -0.4466  0.7171 -0.0253
  409MPD2    H1 6162   2.408   3.439  16.860  0.1103  1.1629  0.5550
  409MPD2    H2 6163   2.277   3.150  17.122 -0.1684  0.9988  1.5965
  409MPD2    H3 6164   2.244   3.350  16.988 -0.1092 -0.9937 -2.8577
  409MPD2     N 6165   2.666   3.385  16.871 -0.5860 -0.3166 -0.7601
  409MPD2    H5 6166   2.628   3.463  16.818 -0.0789 -0.3960 -1.2422
  409MPD2    N1 6167   2.523   3.057  17.196  0.1511 -0.2223 -0.0767
  409MPD2    H7 6168   2.621   3.036  17.213  0.9361  0.2338 -4.1837
  410TMC3    C1 6169   2.870   3.499  16.858  0.0577 -0.5701 -1.1261
  410TMC3    C2 6170   2.984   3.534  16.931 -0.4223  0.3571 -0.3345
  410TMC3    C3 6171   3.095   3.567  16.859  0.1654  0.0316 -0.0933
  410TMC3    C4 6172   2.859   3.508  16.723  0.2037 -0.0347 -0.4112
  410TMC3    C5 6173   2.975   3.552  16.663  0.2051  0.7954  0.0237
  410TMC3    C6 6174   3.092   3.568  16.727  0.1303 -0.2264 -0.4609
  410TMC3     C 6175   2.794   3.384  16.909 -0.4938  0.4999 -0.1308
  410TMC3     O 6176   2.855   3.322  16.993 -0.2493  0.4919  0.2439
  410TMC3     H 6177   2.985   3.519  17.038 -0.4241 -0.6876 -0.4863
  410TMC3    H1 6178   2.773   3.469  16.669  0.2119  1.5156 -1.5572
  410TMC3    H2 6179   3.188   3.582  16.678  0.5803  0.4606  0.6319
  410TMC3    C7 6180   2.985   3.557  16.516  0.1614  0.4915 -0.0807
  410TMC3    C8 6181   3.208   3.500  16.901 -0.1071  0.8816 -0.3056
  410TMC3    O1 6182   2.912   3.501  16.441 -0.8107 -0.4395 -0.4557
  410TMC3    O2 6183   3.232   3.402  16.828 -0.7197 -0.2706  0.0558
  411MPD2     C 6184   2.851   3.670  15.145  0.2482 -0.2777  0.2022
  411MPD2    C1 6185   2.912   3.689  15.021  0.4852  0.0431  0.4798
  411MPD2    C2 6186   2.922   3.585  14.932 -0.7190 -0.2503  0.1264
  411MPD2    C3 6187   2.869   3.456  14.969 -0.0729  0.5198  0.1767
  411MPD2    C4 6188   2.821   3.431  15.094 -0.8383 -0.1461  0.8588
  411MPD2    C5 6189   2.805   3.541  15.176  0.4172 -0.0035 -0.3779
  411MPD2     H 6190   2.962   3.603  14.832 -0.5280  0.9820  0.4222
  411MPD2    H1 6191   2.776   3.338  15.128  0.8595 -1.1894  0.2764
  411MPD2    H2 6192   2.823   3.749  15.213  0.0574 -0.9717  0.9259
  411MPD2    H3 6193   2.760   3.513  15.270 -0.8595  2.1873 -0.3194
  411MPD2     N 6194   2.848   3.355  14.867  0.0285  0.2334 -0.4454
  411MPD2    H5 6195   2.794   3.276  14.901  1.1604 -0.5363 -0.4099
  411MPD2    N1 6196   2.941   3.824  14.994 -0.3781 -0.1216 -0.5739
  411MPD2    H7 6197   2.913   3.894  15.062  0.3718 -0.9877  0.6248
  412TMC3    C1 6198   2.798   3.246  14.664 -0.2493  0.1141  0.1439
  412TMC3    C2 6199   2.697   3.176  14.728  0.2856  0.9915 -0.7512
  412TMC3    C3 6200   2.624   3.089  14.651 -0.4963 -0.1912 -0.3084
  412TMC3    C4 6201   2.826   3.233  14.530 -0.7063  0.4329 -0.0523
  412TMC3    C5 6202   2.744   3.143  14.462 -0.2359  0.0762 -0.2103
  412TMC3    C6 6203   2.655   3.063  14.525  0.2202 -0.2180  0.4396
  412TMC3     C 6204   2.858   3.360  14.734  0.0175  0.0752 -0.5496
  412TMC3     O 6205   2.900   3.455  14.662 -0.5109 -0.2946 -0.3109
  412TMC3     H 6206   2.665   3.187  14.831 -1.0598 -0.1958 -1.0409
  412TMC3    H1 6207   2.901   3.298  14.487 -0.8422  1.5570  1.4174
  412TMC3    H2 6208   2.613   2.976  14.475 -2.5767  1.9504 -0.9141
  412TMC3    C7 6209   2.677   3.204  14.350 -0.2754 -0.0334 -0.2551
  412TMC3    C8 6210   2.485   3.076  14.684 -0.1078  0.3902 -0.7235
  412TMC3    O1 6211   2.563   3.169  14.339 -0.3427 -0.3765  0.2822
  412TMC3    O2 6212   2.454   3.043  14.798 -0.0712 -1.3369  0.4764
  413MPD2     C 6213   4.721   1.312  16.066  0.7099  0.3360 -0.1232
  413MPD2    C1 6214   4.717   1.338  15.933 -0.3321 -0.0363  0.6015
  413MPD2    C2 6215   0.045   1.249  15.849 -0.9543  0.2917  0.4051
  413MPD2    C3 6216   0.100   1.131  15.898 -0.3828  0.0587 -0.0185
  413MPD2    C4 6217   0.113   1.115  16.033  0.1611  0.4179  0.4904
  413MPD2    C5 6218   0.050   1.206  16.112 -0.2992  0.1438 -0.3466
  413MPD2     H 6219   0.033   1.257  15.741 -1.6046 -0.4264  0.4225
  413MPD2    H1 6220   0.154   1.028  16.083 -0.0548 -0.1665 -0.3332
  413MPD2    H2 6221   4.689   1.383  16.142  0.7310  1.2482 -0.9605
  413MPD2    H3 6222   0.064   1.190  16.219  0.8226 -1.8490 -0.7855
  413MPD2     N 6223   0.160   1.045  15.801  0.2279 -0.1426  0.3727
  413MPD2    H5 6224   0.157   1.067  15.703  0.9958 -2.6717 -0.2246
  413MPD2    N1 6225   4.667   1.463  15.895 -0.7037 -0.2232  0.2219
  413MPD2    H7 6226   4.625   1.513  15.972 -0.9788  0.5469 -0.4305
  414TMC3    C1 6227   0.294   0.859  15.718  0.2333 -0.3064  0.2208
  414TMC3    C2 6228   0.311   0.723  15.725 -0.1093  0.8350 -0.2535
  414TMC3    C3 6229   0.410   0.669  15.645 -1.0177  0.2029 -0.1831
  414TMC3    C4 6230   0.363   0.941  15.632  0.0493 -0.6205 -0.1381
  414TMC3    C5 6231   0.465   0.882  15.559  0.2983  1.2945  0.0565
  414TMC3    C6 6232   0.492   0.749  15.567  0.4707 -0.4476  0.0334
  414TMC3     C 6233   0.208   0.917  15.825 -1.0459 -0.4255 -0.2614
  414TMC3     O 6234   0.214   0.858  15.934  0.2556 -0.2569  0.3830
  414TMC3     H 6235   0.252   0.663  15.792  1.4484 -1.0846 -0.5887
  414TMC3    H1 6236   0.344   1.047  15.621  2.1168 -0.1529  0.7502
  414TMC3    H2 6237   0.559   0.694  15.501  2.7831  0.4207  1.6336
  414TMC3    C7 6238   0.544   0.967  15.474  0.6944  0.1587 -0.2148
  414TMC3    C8 6239   0.418   0.524  15.650  0.5762  0.4021  0.3343
  414TMC3    O1 6240   0.494   1.077  15.456  0.1992  0.1987  0.3999
  414TMC3    O2 6241   0.522   0.469  15.613  0.3766 -0.3937  0.9262
  415TMC3    C1 6242   0.975   0.273   9.976  0.5657  0.4215  0.2054
  415TMC3    C2 6243   1.010   0.368   9.888 -0.1406  0.1273  0.4665
  415TMC3    C3 6244   0.966   0.353   9.763  0.0903  0.0035 -0.1470
  415TMC3    C4 6245   0.921   0.153   9.950  0.1024 -0.8133 -0.2649
  415TMC3    C5 6246   0.877   0.145   9.820  0.3861  0.2293  0.0354
  415TMC3    C6 6247   0.899   0.238   9.726  0.0000  0.6544 -0.8787
  415TMC3     C 6248   1.002   0.292  10.122  0.5709  0.0588  0.6380
  415TMC3     O 6249   0.996   0.192  10.188  0.0126 -0.6318  0.1800
  415TMC3     H 6250   1.068   0.456   9.914  3.3545 -2.3126  0.9578
  415TMC3    H1 6251   0.898   0.084  10.031 -2.1862  1.1433  0.7544
  415TMC3    H2 6252   0.866   0.218   9.625 -0.7753 -3.0459  0.0958
  415TMC3    C7 6253   0.823   0.017   9.784 -0.7293  0.6410 -0.1792
  415TMC3    C8 6254   0.976   0.447   9.657 -0.0861 -0.0173 -0.1712
  415TMC3    O1 6255   0.732   0.014   9.700 -0.2516 -0.6418  0.0631
  415TMC3    O2 6256   0.902   0.445   9.559 -0.0239 -0.0689 -0.1871
  416MPD2     C 6257   2.425   3.455  11.561 -0.8920  0.0023 -0.6736
  416MPD2    C1 6258   2.374   3.349  11.629 -0.2894  0.4562 -0.1245
  416MPD2    C2 6259   2.416   3.223  11.592  0.4675  0.3919  0.1378
  416MPD2    C3 6260   2.510   3.207  11.496 -0.2015 -0.4066 -0.1251
  416MPD2    C4 6261   2.564   3.319  11.425  0.1880  0.0628  0.1901
  416MPD2    C5 6262   2.521   3.444  11.465  0.4530  0.1232 -0.3721
  416MPD2     H 6263   2.380   3.143  11.655 -1.0586  1.3015  0.4216
  416MPD2    H1 6264   2.623   3.311  11.334 -1.7446 -3.5326 -0.7242
  416MPD2    H2 6265   2.383   3.554  11.574 -2.0280 -0.3014 -2.0905
  416MPD2    H3 6266   2.547   3.529  11.403 -0.9997  0.5867 -0.3620
  416MPD2     N 6267   2.552   3.084  11.450 -0.4902 -0.2930 -0.7134
  416MPD2    H5 6268   2.616   3.087  11.372 -0.4645 -1.1236 -0.7212
  416MPD2    N1 6269   2.263   3.373  11.717  0.5520 -0.2929  0.3653
  416MPD2    H7 6270   2.243   3.471  11.737 -1.8090 -0.1835 -2.6171
  417TMC3    C1 6271   2.066   3.335  11.821  0.1690 -0.7701 -0.3334
  417TMC3    C2 6272   2.081   3.447  11.903  0.4370  0.4681  0.1855
  417TMC3    C3 6273   1.976   3.528  11.929  0.9950 -0.1173  0.3196
  417TMC3    C4 6274   1.957   3.321  11.750  0.3587 -0.2185 -0.1204
  417TMC3    C5 6275   1.857   3.413  11.761  0.4769 -0.1933  0.1166
  417TMC3    C6 6276   1.863   3.521  11.848 -0.7275 -0.5429 -0.1676
  417TMC3     C 6277   2.184   3.279  11.771  0.5874  0.6231 -1.0566
  417TMC3     O 6278   2.192   3.159  11.759  0.4915 -0.3473 -0.4094
  417TMC3     H 6279   2.174   3.449  11.958  0.4301 -0.9417  0.2485
  417TMC3    H1 6280   1.952   3.237  11.682 -0.1611 -1.9953  2.0986
  417TMC3    H2 6281   1.786   3.598  11.856  1.6249  1.9209 -0.9430
  417TMC3    C7 6282   1.776   3.439  11.638  0.0973 -0.0946  0.4343
  417TMC3    C8 6283   1.960   3.606  12.052 -0.9202  0.3864 -0.0340
  417TMC3    O1 6284   1.744   3.553  11.608 -0.4017 -0.4347 -0.4590
  417TMC3    O2 6285   1.845   3.641  12.077 -0.3632 -0.1917 -0.2278
  418TMC3    C1 6286   1.276   1.204   0.364  0.6916 -1.0635  0.0644
  418TMC3    C2 6287   1.171   1.292   0.372 -0.8503 -0.0893 -0.3129
  418TMC3    C3 6288   1.081   1.278   0.480 -1.0314 -0.1047  0.5627
  418TMC3    C4 6289   1.316   1.136   0.476 -0.1751  0.3668  0.4994
  418TMC3    C5 6290   1.234   1.134   0.591  0.3272 -0.3124 -0.6971
  418TMC3    C6 6291   1.114   1.199   0.585  0.1168 -0.0043 -0.1148
  418TMC3     C 6292   1.341   1.182   0.239 -0.0713 -0.9506 -0.2791
  418TMC3     O 6293   1.323   1.273   0.154  0.4129 -0.6945 -0.3038
  418TMC3     H 6294   1.147   1.361   0.292  0.2713  0.2950 -0.3122
  418TMC3    H1 6295   1.405   1.075   0.474 -0.9301 -0.7690  0.9183
  418TMC3    H2 6296   1.038   1.178   0.659  2.2175 -2.4398  1.3425
  418TMC3    C7 6297   1.264   1.038   0.691  0.0577 -0.8299  0.5459
  418TMC3    C8 6298   0.944   1.281   0.442 -0.3083  0.2346  1.0328
  418TMC3    O1 6299   1.329   0.938   0.655  0.5338 -0.0591  0.2843
  418TMC3    O2 6300   0.901   1.389   0.389  0.4987 -0.0811 -0.0697
  419MPD2     C 6301   4.408   3.495  12.938  0.1440 -0.0456  0.5714
  419MPD2    C1 6302   4.312   3.572  12.877  0.2158  0.1715  0.8384
  419MPD2    C2 6303   4.244   3.671  12.958 -0.4502 -0.1346 -0.1022
  419MPD2    C3 6304   4.283   3.697  13.085  0.0608  1.1753  0.4312
  419MPD2    C4 6305   4.386   3.629  13.139  0.0901 -0.5434  0.1904
  419MPD2    C5 6306   4.446   3.521  13.067 -0.3990 -0.1425 -0.4814
  419MPD2     H 6307   4.151   3.710  12.919 -0.0652 -0.3843 -1.2798
  419MPD2    H1 6308   4.431   3.647  13.236  2.7862 -3.5457 -0.4823
  419MPD2    H2 6309   4.446   3.407  12.888  3.2280  1.7980 -0.3254
  419MPD2    H3 6310   4.527   3.464  13.112  1.0752  2.2170 -0.1400
  419MPD2     N 6311   4.215   3.806  13.151  0.1905 -0.2905 -0.3364
  419MPD2    H5 6312   4.141   3.857  13.104 -1.8890 -2.3516  0.7010
  419MPD2    N1 6313   4.246   3.542  12.757  0.3171 -0.8803 -0.3882
  419MPD2    H7 6314   4.171   3.603  12.726 -0.5275 -0.3820  2.5591
  420TMC3    C1 6315   4.144   3.952  13.321  0.1052 -0.1191  0.1820
  420TMC3    C2 6316   4.023   3.967  13.255  0.3370  0.0349 -0.0708
  420TMC3    C3 6317   3.942   4.067  13.305 -0.4297  0.6815  0.3948
  420TMC3    C4 6318   4.178   4.029  13.425  0.2217 -0.0531 -0.3570
  420TMC3    C5 6319   4.102   4.126  13.470  0.3575  0.7711 -0.5151
  420TMC3    C6 6320   3.983   4.150  13.401 -0.2007  0.1150  0.4051
  420TMC3     C 6321   4.230   3.835  13.286 -0.2077 -0.2274 -0.5863
  420TMC3     O 6322   4.311   3.800  13.373 -0.5567  0.1271  0.4245
  420TMC3     H 6323   3.999   3.904  13.171  0.6071  0.2125 -0.2845
  420TMC3    H1 6324   4.280   4.017  13.462 -0.4145  2.7107  2.3645
  420TMC3    H2 6325   3.929   4.241  13.425 -1.0687 -0.2161 -0.3215
  420TMC3    C7 6326   4.091   4.107  13.612  0.6523  0.1958 -0.0180
  420TMC3    C8 6327   3.817   4.099  13.246 -0.2842  0.5842  0.2009
  420TMC3    O1 6328   4.175   4.033  13.660  0.1341 -0.3385  0.6062
  420TMC3    O2 6329   3.773   4.209  13.259  0.1381  0.4441 -0.1644
  421TMC3    C1 6330   1.019   4.584  13.817  0.0323 -0.1469  0.3812
  421TMC3    C2 6331   0.977   4.716  13.838  0.1745  0.6140 -0.0854
  421TMC3    C3 6332   0.961   0.012  13.964  0.4653 -0.3917  1.2136
  421TMC3    C4 6333   1.063   4.497  13.914 -0.2226  0.2612  0.4043
  421TMC3    C5 6334   1.047   4.536  14.041 -0.3885 -0.2173 -0.2008
  421TMC3    C6 6335   0.989   4.663  14.067  0.1507  0.0971  0.1061
  421TMC3     C 6336   0.976   4.529  13.694 -0.2057  0.2272  0.0777
  421TMC3     O 6337   1.030   4.426  13.658 -0.0924  0.0657  0.5670
  421TMC3     H 6338   0.963   0.050  13.760 -1.8656  0.0968 -0.2269
  421TMC3    H1 6339   1.099   4.398  13.890 -0.2406  0.0893  1.0818
  421TMC3    H2 6340   0.993   4.693  14.171 -0.3696 -2.1009  0.7558
  421TMC3    C7 6341   1.156   4.498  14.120 -0.2286  0.4809  0.4939
  421TMC3    C8 6342   0.966   0.158  13.994 -0.1911  0.4095  0.4137
  421TMC3    O1 6343   1.260   4.512  14.061  0.0580  0.2689  0.5246
  421TMC3    O2 6344   0.988   0.238  13.903  0.1685  0.3549  0.3197
  422TMC3    C1 6345   3.286   1.489  12.895  0.5980  0.0178  1.0555
  422TMC3    C2 6346   3.224   1.606  12.933 -0.3980  0.0628  0.1899
  422TMC3    C3 6347   3.096   1.601  12.982  0.1793 -0.0782 -0.4589
  422TMC3    C4 6348   3.207   1.376  12.879  0.0472  0.4002 -0.4496
  422TMC3    C5 6349   3.078   1.376  12.927  0.4008  0.0066 -0.9015
  422TMC3    C6 6350   3.025   1.482  12.986  0.0202 -0.6089 -0.6054
  422TMC3     C 6351   3.405   1.498  12.814 -0.0566 -0.0324 -0.3216
  422TMC3     O 6352   3.447   1.610  12.779 -0.1167 -0.4331 -0.0679
  422TMC3     H 6353   3.275   1.699  12.911 -0.1761 -0.1266 -0.0948
  422TMC3    H1 6354   3.246   1.283  12.840 -1.0062 -0.8593  1.5011
  422TMC3    H2 6355   2.924   1.478  13.026  0.1434  0.2485 -0.2028
  422TMC3    C7 6356   3.006   1.253  12.914 -0.7240  0.2001 -0.0086
  422TMC3    C8 6357   3.029   1.732  12.987  0.2142  0.2616  0.8417
  422TMC3    O1 6358   3.079   1.160  12.888 -0.4492 -0.6198 -0.4862
  422TMC3    O2 6359   3.104   1.820  13.031 -0.2389  0.3797  0.5662
  423MPD2     C 6360   0.204   2.964   0.615  0.1326 -0.2678 -0.2447
  423MPD2    C1 6361   0.155   2.836   0.648  0.7098  1.0800  0.1217
  423MPD2    C2 6362   0.104   2.759   0.546  0.4806  0.3105  0.6982
  423MPD2    C3 6363   0.109   2.797   0.411  0.0732  0.5427 -0.9344
  423MPD2    C4 6364   0.163   2.920   0.380 -0.3528  0.9853 -0.5697
  423MPD2    C5 6365   0.203   3.000   0.487  0.3087  0.5713  0.1831
  423MPD2     H 6366   0.077   2.656   0.566 -0.9459  0.2053 -1.7302
  423MPD2    H1 6367   0.155   2.958   0.279 -1.2064 -0.0342 -0.8778
  423MPD2    H2 6368   0.242   3.036   0.687 -1.5398 -1.5848  1.9791
  423MPD2    H3 6369   0.244   3.098   0.468 -0.3852  0.8068 -0.1068
  423MPD2     N 6370   0.055   2.724   0.301 -0.3366 -0.5812  0.2279
  423MPD2    H5 6371   0.053   2.777   0.215 -0.8471  0.3279  0.7964
  423MPD2    N1 6372   0.161   2.782   0.779  0.2307 -0.1167  0.2989
  423MPD2    H7 6373   0.169   2.683   0.798 -0.7012  0.4325  3.7285
  424TMC3    C1 6374   0.230   2.792   1.008 -0.0169  0.0497  0.2592
  424TMC3    C2 6375   0.325   2.694   0.994  0.0532 -0.4387  0.1741
  424TMC3    C3 6376   0.398   2.658   1.104  0.6508  0.3127 -0.9730
  424TMC3    C4 6377   0.226   2.865   1.124 -0.1769 -0.5095  0.4584
  424TMC3    C5 6378   0.298   2.826   1.228 -0.1546 -0.8467 -0.5929
  424TMC3    C6 6379   0.385   2.719   1.226  0.4753  1.3442  0.4294
  424TMC3     C 6380   0.194   2.857   0.890  0.7888 -0.3275  0.1271
  424TMC3     O 6381   0.176   2.978   0.895  0.1058  0.2820  0.2896
  424TMC3     H 6382   0.348   2.650   0.897 -0.9427  2.0096 -1.1850
  424TMC3    H1 6383   0.164   2.954   1.125  1.1704  0.4462  0.0989
  424TMC3    H2 6384   0.449   2.680   1.304  1.5128 -1.4475 -1.8075
  424TMC3    C7 6385   0.285   2.893   1.355 -0.1032  0.1458 -0.1775
  424TMC3    C8 6386   0.490   2.547   1.083 -0.2235  0.3487 -0.2862
  424TMC3    O1 6387   0.371   2.870   1.439 -0.1080 -0.0074  0.4973
  424TMC3    O2 6388   0.467   2.459   1.000 -0.0201 -0.1194 -0.8316
  425MPD2     C 6389   3.686   1.769  17.544  0.4775  0.2395  0.0434
  425MPD2    C1 6390   3.566   1.702  17.557  0.4013 -0.0189 -0.3770
  425MPD2    C2 6391   3.449   1.779  17.569  0.3766 -0.1108  0.4261
  425MPD2    C3 6392   3.454   1.915  17.595 -0.3883 -0.0366 -0.0514
  425MPD2    C4 6393   3.577   1.978  17.591 -0.4919  0.1343 -0.2419
  425MPD2    C5 6394   3.688   1.908  17.552 -0.2337  0.2161  0.2953
  425MPD2     H 6395   3.350   1.734  17.565  1.4616 -2.5458  0.9931
  425MPD2    H1 6396   3.594   2.082  17.615 -1.1765 -0.1475  1.4940
  425MPD2    H2 6397   3.783   1.721  17.535 -0.2994 -1.7637  2.2216
  425MPD2    H3 6398   3.785   1.956  17.549 -1.2510  2.0741 -2.8063
  425MPD2     N 6399   3.331   1.984  17.619 -0.3650 -0.1449 -0.5558
  425MPD2    H5 6400   3.248   1.926  17.628  0.5471 -1.3404  0.0978
  425MPD2    N1 6401   3.571   1.560  17.553  0.3649 -0.0482 -0.6983
  425MPD2    H7 6402   3.661   1.514  17.557  1.1457  1.4634 -0.8480
  426TMC3    C1 6403   3.487   1.340  17.523 -0.5342 -0.5091  0.1782
  426TMC3    C2 6404   3.582   1.323  17.426  0.1671  0.3618  0.7074
  426TMC3    C3 6405   3.564   1.231  17.329  0.0584  0.3978  0.3964
  426TMC3    C4 6406   3.377   1.258  17.537 -0.6130 -0.4007  0.1203
  426TMC3    C5 6407   3.365   1.158  17.442 -0.1625  0.5895  0.8158
  426TMC3    C6 6408   3.458   1.141  17.342 -0.4066  0.3149 -0.2240
  426TMC3     C 6409   3.464   1.476  17.576  0.1689  0.2846 -0.6585
  426TMC3     O 6410   3.345   1.507  17.578  0.2185  0.3200  0.0324
  426TMC3     H 6411   3.667   1.390  17.421  0.4781 -0.0816  0.0759
  426TMC3    H1 6412   3.305   1.281  17.615  0.7230 -3.5832  2.3166
  426TMC3    H2 6413   3.446   1.069  17.261 -0.2409 -0.6369  0.5920
  426TMC3    C7 6414   3.255   1.073  17.440 -0.2724  0.3587 -0.0963
  426TMC3    C8 6415   3.617   1.253  17.202  0.3858 -0.6591 -0.5299
  426TMC3    O1 6416   3.269   0.975  17.365 -0.2284 -0.3420  0.2599
  426TMC3    O2 6417   3.643   1.156  17.134  0.1016  0.2244 -0.2476
  427MPD2     C 6418   1.772   4.314  15.610  0.3854 -0.5152  0.4716
  427MPD2    C1 6419   1.742   4.182  15.591  0.5634 -0.2399 -0.8988
  427MPD2    C2 6420   1.608   4.148  15.587 -0.6404  0.4612 -0.3671
  427MPD2    C3 6421   1.507   4.241  15.585  0.6056 -0.7799 -0.7247
  427MPD2    C4 6422   1.541   4.372  15.577 -0.7213  0.0603 -0.2449
  427MPD2    C5 6423   1.673   4.405  15.595 -0.3469  0.3839  0.2957
  427MPD2     H 6424   1.583   4.043  15.576  1.6490  0.0612 -1.7918
  427MPD2    H1 6425   1.469   4.450  15.556 -0.7178  0.3112  0.6825
  427MPD2    H2 6426   1.869   4.355  15.633  1.6558 -2.3655 -1.5812
  427MPD2    H3 6427   1.703   4.509  15.598  0.2199  0.2195  0.1938
  427MPD2     N 6428   1.371   4.204  15.584 -0.3894 -0.3283 -0.3027
  427MPD2    H5 6429   1.306   4.279  15.563  0.6583  1.0021  1.2157
  427MPD2    N1 6430   1.842   4.079  15.581  0.1148 -0.2223  0.4647
  427MPD2    H7 6431   1.811   3.983  15.576 -1.6889  0.3799  0.1164
  428TMC3    C1 6432   2.062   3.981  15.569  0.2039 -0.2104 -0.2780
  428TMC3    C2 6433   2.015   3.862  15.526  0.5102 -0.2299  0.0106
  428TMC3    C3 6434   2.113   3.770  15.498 -0.3686 -0.0085  0.9552
  428TMC3    C4 6435   2.196   4.009  15.603  0.4506 -0.0369  0.2826
  428TMC3    C5 6436   2.285   3.913  15.574 -0.3395  0.1164 -0.1030
  428TMC3    C6 6437   2.241   3.792  15.523  0.1361 -0.2145 -0.1047
  428TMC3     C 6438   1.976   4.101  15.577 -0.9405  0.2133 -0.9351
  428TMC3     O 6439   2.033   4.211  15.594  0.6391 -0.1839  0.1394
  428TMC3     H 6440   1.912   3.851  15.497  0.9319 -0.0278 -1.5469
  428TMC3    H1 6441   2.233   4.100  15.649  0.5754  0.7621 -1.3819
  428TMC3    H2 6442   2.311   3.709  15.528 -2.2999 -2.2271  0.9711
  428TMC3    C7 6443   2.427   3.915  15.627  0.7555  0.4629 -0.2718
  428TMC3    C8 6444   2.061   3.641  15.444 -0.7441 -0.2403  0.6420
  428TMC3    O1 6445   2.451   3.932  15.744  0.3223 -0.0964 -0.8560
  428TMC3    O2 6446   1.946   3.644  15.404 -0.1527  0.4129 -0.4228
  429MPD2     C 6447   3.169   4.113  17.448  0.2705 -0.5014 -0.7243
  429MPD2    C1 6448   3.293   4.053  17.463  0.7184  0.4663 -0.2277
  429MPD2    C2 6449   3.395   4.106  17.380  0.4274 -0.1162  0.0059
  429MPD2    C3 6450   3.375   4.211  17.297  0.5941 -0.4512 -0.4643
  429MPD2    C4 6451   3.250   4.252  17.280 -0.4911 -0.4096 -0.2929
  429MPD2    C5 6452   3.143   4.203  17.353  0.3747  0.2360  0.2169
  429MPD2     H 6453   3.492   4.058  17.374  1.3716  1.6117  1.4967
  429MPD2    H1 6454   3.223   4.311  17.193  1.3125 -2.1054 -2.0071
  429MPD2    H2 6455   3.079   4.085  17.501 -0.0585  1.6705 -0.1312
  429MPD2    H3 6456   3.041   4.229  17.326 -0.4295 -1.8210  1.3061
  429MPD2     N 6457   3.483   4.254  17.223  0.3012 -0.4370 -0.4980
  429MPD2    H5 6458   3.573   4.219  17.254  1.2741  1.2482 -1.3888
  429MPD2    N1 6459   3.313   3.941  17.549 -0.5532 -0.0156 -0.1790
  429MPD2    H7 6460   3.410   3.910  17.555 -1.3347 -2.2897  0.8935
  430TMC3    C1 6461   3.599   4.371  17.068  0.2915  0.4796  0.1855
  430TMC3    C2 6462   3.616   4.484  16.995  0.1155  0.2962  1.1013
  430TMC3    C3 6463   3.703   4.490  16.885 -0.0380 -0.0740 -0.0299
  430TMC3    C4 6464   3.649   4.252  17.021 -0.0015 -0.3637 -0.3343
  430TMC3    C5 6465   3.731   4.259  16.908 -0.3459 -0.3128  0.4805
  430TMC3    C6 6466   3.774   4.378  16.847  0.2719  0.4015 -0.3247
  430TMC3     C 6467   3.485   4.375  17.160 -0.1564  0.6576  0.2535
  430TMC3     O 6468   3.413   4.475  17.162  0.5751 -0.1550 -0.0652
  430TMC3     H 6469   3.559   4.571  17.025 -0.4233 -0.0489  1.0661
  430TMC3    H1 6470   3.601   4.158  17.047 -1.3447  0.5382  0.4219
  430TMC3    H2 6471   3.831   4.381  16.754  2.2762 -0.5615  0.8600
  430TMC3    C7 6472   3.696   4.150  16.817  0.3048 -0.2077 -0.3845
  430TMC3    C8 6473   3.642   4.550  16.773 -0.7750 -0.0331  0.7486
  430TMC3    O1 6474   3.693   4.034  16.861  0.1762  0.1621  0.5909
  430TMC3    O2 6475   3.636   4.480  16.669 -0.1049  1.1277  0.1630
  431MPD2     C 6476   3.587   3.934  12.666  1.5286  0.5745 -0.3545
  431MPD2    C1 6477   3.722   3.961  12.696 -0.4360  0.0461 -0.2325
  431MPD2    C2 6478   3.816   3.881  12.632 -0.4030 -0.4218  0.5892
  431MPD2    C3 6479   3.778   3.771  12.549  0.1330  0.2922 -0.4640
  431MPD2    C4 6480   3.643   3.737  12.545  0.3197 -0.0739  0.0571
  431MPD2    C5 6481   3.548   3.815  12.603 -0.1383 -0.1227  0.8439
  431MPD2     H 6482   3.922   3.904  12.642 -0.3571 -0.7493  0.8461
  431MPD2    H1 6483   3.610   3.657  12.479  2.4644 -0.8771 -0.0658
  431MPD2    H2 6484   3.508   3.995  12.709 -0.0513 -0.7847 -1.2804
  431MPD2    H3 6485   3.442   3.795  12.595  0.6011 -4.1240  0.7077
  431MPD2     N 6486   3.882   3.693  12.508 -0.1454 -0.3662  0.4051
  431MPD2    H5 6487   3.974   3.718  12.541 -0.7442  0.1232  1.7405
  431MPD2    N1 6488   3.766   4.076  12.768  0.0256  0.5859  0.9462
  431MPD2    H7 6489   3.700   4.145  12.804  1.1590  1.8124  0.6952
  432TMC3    C1 6490   3.998   3.503  12.434 -0.3865 -0.4438 -0.2864
  432TMC3    C2 6491   4.057   3.472  12.319  0.1228  0.5672 -0.5398
  432TMC3    C3 6492   4.190   3.442  12.311 -0.1297 -0.4394  0.9521
  432TMC3    C4 6493   4.073   3.505  12.546  0.3801  0.7915  1.0217
  432TMC3    C5 6494   4.205   3.459  12.540  0.0549 -0.3969 -0.1218
  432TMC3    C6 6495   4.265   3.432  12.426  0.4916 -0.0431 -0.0490
  432TMC3     C 6496   3.879   3.585  12.429 -0.2437 -0.0348 -0.7305
  432TMC3     O 6497   3.811   3.562  12.329 -0.0906  0.6634 -0.0943
  432TMC3     H 6498   4.010   3.496  12.225 -3.0101  0.0151  0.8942
  432TMC3    H1 6499   4.025   3.508  12.643 -2.5146  1.2484 -0.4305
  432TMC3    H2 6500   4.369   3.401  12.420  0.8262  1.3441 -1.4097
  432TMC3    C7 6501   4.295   3.455  12.657  0.6554  0.2998  0.5679
  432TMC3    C8 6502   4.247   3.405  12.179 -0.0534  0.5220 -0.1135
  432TMC3    O1 6503   4.399   3.389  12.651 -0.1601 -0.1720 -0.2617
  432TMC3    O2 6504   4.169   3.391  12.086  0.0288  0.5216  0.2481
  433MPD2     C 6505   3.328   2.308  11.364  0.3063 -0.1532 -0.1915
  433MPD2    C1 6506   3.315   2.173  11.396  0.8807  0.0992 -0.3642
  433MPD2    C2 6507   3.353   2.138  11.522 -0.0088 -0.7843  0.3683
  433MPD2    C3 6508   3.377   2.221  11.625 -0.5896 -0.0491  0.0457
  433MPD2    C4 6509   3.374   2.360  11.594  0.4009 -0.0417  0.5446
  433MPD2    C5 6510   3.351   2.410  11.463 -0.0900  0.0622 -0.1986
  433MPD2     H 6511   3.369   2.038  11.559 -0.0169 -0.9807 -0.1581
  433MPD2    H1 6512   3.396   2.433  11.671 -2.6253  1.0421  0.4048
  433MPD2    H2 6513   3.306   2.351  11.267 -0.4965 -3.5615 -1.4883
  433MPD2    H3 6514   3.342   2.515  11.437 -3.3008 -0.2656 -0.3588
  433MPD2     N 6515   3.411   2.175  11.754 -0.0906 -0.3458 -0.1867
  433MPD2    H5 6516   3.419   2.075  11.769  0.1825 -0.0350  1.8801
  433MPD2    N1 6517   3.290   2.077  11.301  0.8648 -0.1642  0.6103
  433MPD2    H7 6518   3.303   2.091  11.201 -0.6085 -2.6143  0.0836
  434TMC3    C1 6519   3.247   1.860  11.218 -0.0724  0.1754  0.8478
  434TMC3    C2 6520   3.273   1.730  11.250  0.6931 -0.7975  0.0694
  434TMC3    C3 6521   3.347   1.658  11.158 -0.0989  0.2861  0.5340
  434TMC3    C4 6522   3.265   1.918  11.094 -0.4765  0.2127  0.3560
  434TMC3    C5 6523   3.332   1.841  11.005 -0.1171 -0.4497  0.4234
  434TMC3    C6 6524   3.375   1.713  11.035 -0.4410  0.0330 -0.4465
  434TMC3     C 6525   3.254   1.950  11.329 -0.1837  0.5675 -0.7172
  434TMC3     O 6526   3.220   1.899  11.438 -0.6548 -0.2560 -0.7682
  434TMC3     H 6527   3.268   1.697  11.353  0.3997 -0.1459  0.2663
  434TMC3    H1 6528   3.238   2.017  11.059  1.5734  0.8663  0.6437
  434TMC3    H2 6529   3.454   1.669  10.975 -0.3959  0.9137 -1.0328
  434TMC3    C7 6530   3.283   1.848  10.875  0.1272 -0.2341  0.2235
  434TMC3    C8 6531   3.422   1.548  11.216  0.6333  0.5855  0.1566
  434TMC3    O1 6532   3.283   1.954  10.814 -0.1911 -0.6190 -0.5924
  434TMC3    O2 6533   3.404   1.517  11.333  0.2167 -0.1452 -0.3717
  435MPD2     C 6534   0.455   2.831  15.417 -0.1261 -0.8375  0.0394
  435MPD2    C1 6535   0.395   2.856  15.542  0.5496 -0.5929  1.0305
  435MPD2    C2 6536   0.457   2.807  15.656 -0.2325 -0.0363  0.0590
  435MPD2    C3 6537   0.566   2.723  15.654  0.7420  0.0021  0.1115
  435MPD2    C4 6538   0.617   2.689  15.529 -0.3524  0.1784 -0.4271
  435MPD2    C5 6539   0.560   2.744  15.412 -0.1034  0.2290  0.3105
  435MPD2     H 6540   0.413   2.833  15.752 -0.0959  0.1721  0.0673
  435MPD2    H1 6541   0.691   2.611  15.515  0.4040  1.0382 -1.2130
  435MPD2    H2 6542   0.423   2.878  15.325 -0.1848  0.9218  0.9547
  435MPD2    H3 6543   0.601   2.737  15.312 -1.5875  2.2087 -0.4339
  435MPD2     N 6544   0.625   2.686  15.779 -0.5345  0.4813  0.4640
  435MPD2    H5 6545   0.574   2.721  15.860 -0.1588 -0.2764  1.0220
  435MPD2    N1 6546   0.291   2.948  15.567 -0.3723  0.5808  0.3878
  435MPD2    H7 6547   0.271   2.969  15.664 -2.7191  0.1112  0.0151
  436TMC3    C1 6548   0.063   3.203  15.747 -0.0696 -0.4615 -0.2669
  436TMC3    C2 6549   0.172   3.152  15.670 -0.1856  0.5181  0.0519
  436TMC3    C3 6550   0.156   3.132  15.535  0.0179 -0.8644  0.9077
  436TMC3    C4 6551   4.683   3.237  15.690  0.1058  0.0284  0.1763
  436TMC3    C5 6552   4.680   3.219  15.557 -0.1312  0.2835 -0.3728
  436TMC3    C6 6553   0.039   3.168  15.474  0.1479 -0.5741  0.7401
  436TMC3     C 6554   0.070   3.192  15.895  0.1212  0.0851  0.4145
  436TMC3     O 6555   0.187   3.199  15.942 -0.1818  0.4758 -0.2332
  436TMC3     H 6556   0.265   3.138  15.725  0.4176  1.9717 -0.5840
  436TMC3    H1 6557   4.604   3.290  15.741 -0.0769 -0.5439  0.4967
  436TMC3    H2 6558   0.025   3.158  15.367  3.2093  0.5689  0.2340
  436TMC3    C7 6559   4.570   3.275  15.485 -0.5325  0.9621  0.3169
  436TMC3    C8 6560   0.227   3.023  15.472  0.0884  0.2627 -0.3688
  436TMC3    O1 6561   4.591   3.316  15.374  0.3415  0.5404  0.3894
  436TMC3    O2 6562   0.252   3.026  15.353  0.2884 -0.0972  0.0611
  437TMC3    C1 6563   3.542   0.218  12.553  0.6536  0.3330 -0.2712
  437TMC3    C2 6564   3.480   0.259  12.436  0.0648 -0.0892  1.1689
  437TMC3    C3 6565   3.560   0.325  12.346 -0.0933  0.1345  0.1860
  437TMC3    C4 6566   3.666   0.261  12.586 -0.1903 -0.3753 -0.2905
  437TMC3    C5 6567   3.743   0.325  12.492 -0.5086  0.2508 -0.4761
  437TMC3    C6 6568   3.689   0.355  12.367  0.4623  0.1086  0.2089
  437TMC3     C 6569   3.469   0.120  12.626  0.6278 -0.8572  0.6153
  437TMC3     O 6570   3.349   0.100  12.598  0.3494 -0.7311  1.0618
  437TMC3     H 6571   3.381   0.225  12.411  0.8191 -2.2216  1.1259
  437TMC3    H1 6572   3.703   0.247  12.687  0.1025 -0.9704 -0.4796
  437TMC3    H2 6573   3.750   0.414  12.299  0.0663 -1.1621 -1.2230
  437TMC3    C7 6574   3.870   0.387  12.519  0.7670 -0.1728 -0.8494
  437TMC3    C8 6575   3.489   0.374  12.224  0.2267 -0.0923 -0.7334
  437TMC3    O1 6576   3.913   0.450  12.424 -0.1757 -0.0916  0.2225
  437TMC3    O2 6577   3.372   0.351  12.223  0.0108  0.1145 -0.4265
  438MPD2     C 6578   1.272   0.960  16.751  0.8766 -0.8388  0.0903
  438MPD2    C1 6579   1.319   0.852  16.819 -0.5024  0.2710 -0.3304
  438MPD2    C2 6580   1.310   0.851  16.959 -0.1813 -0.6370 -0.4358
  438MPD2    C3 6581   1.265   0.956  17.029  0.1259 -0.3596  0.7762
  438MPD2    C4 6582   1.222   1.073  16.962  0.2621  0.3455  0.2860
  438MPD2    C5 6583   1.227   1.068  16.827  0.1581  0.2686  0.0542
  438MPD2     H 6584   1.339   0.758  17.007  0.4821  0.1966  0.7786
  438MPD2    H1 6585   1.171   1.150  17.017 -1.3439 -0.5292  0.0176
  438MPD2    H2 6586   1.257   0.958  16.644 -1.6933  0.9657  0.4266
  438MPD2    H3 6587   1.194   1.148  16.761  1.9227 -1.0478 -2.4384
  438MPD2     N 6588   1.251   0.965  17.174  0.0443  0.3583 -0.0531
  438MPD2    H5 6589   1.187   1.034  17.212  2.0363  2.4254 -0.4957
  438MPD2    N1 6590   1.369   0.728  16.761  0.3427  0.5030  0.0303
  438MPD2    H7 6591   1.405   0.654  16.821 -2.5736 -2.1118 -1.4564
  439TMC3    C1 6592   1.403   0.564  16.590 -0.3315 -0.3240  0.2257
  439TMC3    C2 6593   1.371   0.514  16.472  0.5426 -0.9222 -0.5682
  439TMC3    C3 6594   1.439   0.397  16.439 -0.2598 -0.2727 -0.2634
  439TMC3    C4 6595   1.498   0.510  16.673  0.1369  0.5128 -0.7973
  439TMC3    C5 6596   1.562   0.406  16.629 -0.1184  0.0229 -0.0514
  439TMC3    C6 6597   1.537   0.337  16.515  0.7429  0.1073 -0.3015
  439TMC3     C 6598   1.361   0.699  16.627 -0.2927 -0.7948  0.0826
  439TMC3     O 6599   1.296   0.756  16.538  0.3797 -0.5372 -0.9387
  439TMC3     H 6600   1.291   0.553  16.410 -0.0255  0.9059  1.3277
  439TMC3    H1 6601   1.537   0.563  16.759  1.3743 -0.8008 -0.5602
  439TMC3    H2 6602   1.607   0.268  16.471  1.8874  0.2102  1.3498
  439TMC3    C7 6603   1.659   0.330  16.718 -0.0629 -0.2287  0.3666
  439TMC3    C8 6604   1.461   0.371  16.299  0.2459  0.3683 -0.3066
  439TMC3    O1 6605   1.682   0.400  16.817  0.4085  0.1548  0.0938
  439TMC3    O2 6606   1.494   0.262  16.263  0.3498 -0.3079 -0.4684
  440MPD2     C 6607   4.262   0.399  15.040 -0.3413 -0.0240  0.5988
  440MPD2    C1 6608   4.227   0.447  15.160 -0.2929  0.7037  1.3948
  440MPD2    C2 6609   4.246   0.369  15.280  0.1434 -0.3826 -0.4968
  440MPD2    C3 6610   4.296   0.241  15.263 -0.1741 -0.9924 -0.4316
  440MPD2    C4 6611   4.325   0.193  15.139 -0.0023 -0.2671 -0.4223
  440MPD2    C5 6612   4.309   0.271  15.027 -0.7637 -0.2112  0.2853
  440MPD2     H 6613   4.218   0.406  15.377 -1.8216  0.3554 -1.3532
  440MPD2    H1 6614   4.350   0.090  15.116  1.3283 -0.5481  2.2464
  440MPD2    H2 6615   4.262   0.468  14.956  0.0171 -1.1640 -0.3424
  440MPD2    H3 6616   4.330   0.235  14.926  0.9626 -0.4731  0.7357
  440MPD2     N 6617   4.328   0.151  15.369  0.7193  0.0652  0.5973
  440MPD2    H5 6618   4.364   0.058  15.346  0.3943  0.2445 -0.6325
  440MPD2    N1 6619   4.198   0.588  15.182 -0.5855 -0.1039 -0.5275
  440MPD2    H7 6620   4.189   0.621  15.277  0.3228  0.4643 -0.6398
  441TMC3    C1 6621   4.360   0.053  15.582  0.2001  0.3697  0.3385
  441TMC3    C2 6622   4.492   0.021  15.564  0.7118  0.1991 -0.6684
  441TMC3    C3 6623   4.552   4.697  15.663 -0.5840 -0.8631  0.4397
  441TMC3    C4 6624   4.296   0.037  15.706  0.2402 -0.0891  0.2705
  441TMC3    C5 6625   4.373   4.725  15.809  0.1256 -0.2710 -0.0535
  441TMC3    C6 6626   4.497   4.678  15.789 -0.1023 -0.0487 -0.2510
  441TMC3     C 6627   4.301   0.164  15.498 -0.3018  0.5900  0.2543
  441TMC3     O 6628   4.248   0.254  15.557 -0.3846  0.2615 -0.6792
  441TMC3     H 6629   4.533   0.032  15.465  0.9359 -1.4350 -0.7557
  441TMC3    H1 6630   4.201   0.083  15.733  0.4949  0.8377 -0.4177
  441TMC3    H2 6631   4.562   4.635  15.864 -0.9510  0.4681  0.7843
  441TMC3    C7 6632   4.354   0.066  15.930  0.1867 -0.8616  0.2982
  441TMC3    C8 6633   4.693   4.709  15.672 -0.3938  0.1281 -0.2315
  441TMC3    O1 6634   4.271   0.153  15.933 -0.0982 -0.5282  0.1534
  441TMC3    O2 6635   0.010   4.606  15.707  0.0157  0.5712  0.1466
  442MPD2     C 6636   3.112   1.637  16.943 -0.1417  0.2624 -1.1922
  442MPD2    C1 6637   3.019   1.545  16.999 -0.3774 -0.3218  0.0329
  442MPD2    C2 6638   2.991   1.422  16.935 -0.3928 -0.1668 -0.0602
  442MPD2    C3 6639   3.070   1.369  16.832  0.4986  0.3907  0.3996
  442MPD2    C4 6640   3.172   1.456  16.784  0.3555  0.5468 -0.4736
  442MPD2    C5 6641   3.185   1.583  16.837 -0.0582 -0.0547  0.6752
  442MPD2     H 6642   2.924   1.355  16.987 -0.4907 -0.6406 -0.8004
  442MPD2    H1 6643   3.246   1.424  16.712 -0.7702 -0.5737 -1.1494
  442MPD2    H2 6644   3.147   1.724  16.996  0.9102 -0.6980 -0.2955
  442MPD2    H3 6645   3.268   1.636  16.792 -2.0670  1.8247 -0.7980
  442MPD2     N 6646   3.040   1.244  16.771 -0.0960  0.0952  0.4899
  442MPD2    H5 6647   2.971   1.194  16.827  0.2456 -0.4081  0.4606
  442MPD2    N1 6648   2.942   1.578  17.107  0.1241 -0.0572 -0.5408
  442MPD2    H7 6649   2.886   1.505  17.150  1.0025 -0.4481 -0.0467
  443TMC3    C1 6650   2.811   1.722  17.248  0.7410 -0.0751  0.5242
  443TMC3    C2 6651   2.734   1.833  17.215  0.0493  0.1625 -0.0251
  443TMC3    C3 6652   2.602   1.835  17.244 -0.5486 -0.6240  0.5154
  443TMC3    C4 6653   2.748   1.603  17.297 -0.3484  0.3327  0.0660
  443TMC3    C5 6654   2.622   1.619  17.331  0.6509 -0.6526  0.2028
  443TMC3    C6 6655   2.541   1.733  17.313 -0.0071  0.2558  0.7881
  443TMC3     C 6656   2.929   1.707  17.165 -0.5211 -0.8914  0.1027
  443TMC3     O 6657   2.977   1.809  17.116  0.1118 -0.3105 -0.5563
  443TMC3     H 6658   2.780   1.917  17.165  0.6172 -0.5655 -0.7127
  443TMC3    H1 6659   2.800   1.508  17.303  1.4627  1.3201  0.1978
  443TMC3    H2 6660   2.440   1.737  17.352 -0.7183  2.2270 -1.2850
  443TMC3    C7 6661   2.559   1.494  17.358  0.9708  0.0065 -0.8002
  443TMC3    C8 6662   2.529   1.850  17.127  0.1208 -0.0659 -0.2071
  443TMC3    O1 6663   2.607   1.387  17.316  0.1556  0.3894 -0.5266
  443TMC3    O2 6664   2.445   1.764  17.101  0.0425 -0.2869 -0.1449
  444MPD2     C 6665   3.152   1.252  17.166 -0.4966  0.5246  0.4640
  444MPD2    C1 6666   3.054   1.153  17.169 -0.3939  0.3704 -0.2115
  444MPD2    C2 6667   3.086   1.042  17.097 -0.5541  0.1808 -0.2185
  444MPD2    C3 6668   3.213   1.026  17.046 -0.5141 -0.6047  0.0151
  444MPD2    C4 6669   3.310   1.126  17.036  0.0319 -0.0361  0.3409
  444MPD2    C5 6670   3.277   1.248  17.102 -0.3497  0.4284 -0.1169
  444MPD2     H 6671   3.020   0.956  17.103 -0.9997  0.4632 -1.1170
  444MPD2    H1 6672   3.403   1.116  16.982 -0.3105  0.6587 -0.3787
  444MPD2    H2 6673   3.124   1.344  17.215  1.2960  1.9050 -1.1321
  444MPD2    H3 6674   3.357   1.322  17.097 -0.2074  0.3317  0.8474
  444MPD2     N 6675   3.236   0.896  17.005  0.3296 -0.5910 -0.1585
  444MPD2    H5 6676   3.163   0.826  16.994 -1.6879  1.5387 -0.2572
  444MPD2    N1 6677   2.943   1.152  17.257  0.5203  0.0280 -0.3793
  444MPD2    H7 6678   2.880   1.077  17.233 -1.0573  1.1739  0.2049
  445TMC3    C1 6679   3.342   0.702  16.963  0.9136 -0.0229 -0.2327
  445TMC3    C2 6680   3.234   0.643  16.908 -0.4830  0.8777  0.5505
  445TMC3    C3 6681   3.225   0.509  16.914  0.4139  0.0901 -0.6394
  445TMC3    C4 6682   3.449   0.625  17.010  0.2188 -0.4312 -0.2933
  445TMC3    C5 6683   3.437   0.484  17.015  0.2930 -0.1611  0.3762
  445TMC3    C6 6684   3.315   0.425  16.975  0.5189 -0.3231 -0.1762
  445TMC3     C 6685   3.354   0.841  16.975  0.2367 -0.6136 -1.0435
  445TMC3     O 6686   3.463   0.891  16.984  0.1714 -0.1973 -0.3493
  445TMC3     H 6687   3.161   0.708  16.860  0.0001  0.6636 -0.4709
  445TMC3    H1 6688   3.541   0.671  17.044 -0.4051 -0.7396  1.8068
  445TMC3    H2 6689   3.307   0.317  16.979  0.2895 -0.4457 -4.4629
  445TMC3    C7 6690   3.556   0.403  16.989  0.1316  0.3562 -0.5017
  445TMC3    C8 6691   3.113   0.447  16.859 -0.7225 -0.1261 -0.0011
  445TMC3    O1 6692   3.635   0.473  16.929  0.2748 -0.3395  0.0724
  445TMC3    O2 6693   3.077   0.337  16.904  0.3101 -0.4726 -0.5646
  446MPD2     C 6694   3.209   1.287  11.785  0.4754  0.1636  0.2058
  446MPD2    C1 6695   3.173   1.347  11.669 -0.4547  0.9168  0.4034
  446MPD2    C2 6696   3.248   1.444  11.616  1.0589 -0.2619 -0.6240
  446MPD2    C3 6697   3.373   1.477  11.677  0.7152 -1.1368  0.8226
  446MPD2    C4 6698   3.405   1.410  11.790 -0.7266  0.4427 -0.7528
  446MPD2    C5 6699   3.320   1.326  11.856  0.8981 -0.0676  0.7280
  446MPD2     H 6700   3.226   1.488  11.520 -3.6001 -1.8105 -0.2753
  446MPD2    H1 6701   3.499   1.425  11.842 -2.6554  0.9846  2.6147
  446MPD2    H2 6702   3.155   1.209  11.839 -0.4580  0.1710 -0.7190
  446MPD2    H3 6703   3.352   1.278  11.948  0.6888  0.1092  0.8941
  446MPD2     N 6704   3.456   1.569  11.613 -0.4282  0.1009  0.7277
  446MPD2    H5 6705   3.431   1.586  11.517  0.2566  1.8270  0.8469
  446MPD2    N1 6706   3.054   1.313  11.598  0.0290  0.1437  0.1310
  446MPD2    H7 6707   3.034   1.365  11.514  0.4952  0.8252  0.4466
  447TMC3    C1 6708   3.677   1.648  11.552  0.5432 -0.3175  0.4217
  447TMC3    C2 6709   3.624   1.709  11.439 -0.0810  0.5474 -0.6915
  447TMC3    C3 6710   3.716   1.752  11.339 -0.3272 -0.1492  0.1663
  447TMC3    C4 6711   3.808   1.624  11.568  0.3666 -0.2523 -1.0602
  447TMC3    C5 6712   3.888   1.659  11.469  1.3524  0.0623  0.5273
  447TMC3    C6 6713   3.851   1.726  11.359 -0.3799  0.6149 -0.9794
  447TMC3     C 6714   3.592   1.587  11.649 -0.0065 -0.1141  0.5898
  447TMC3     O 6715   3.655   1.548  11.747  0.0202 -0.5527  0.2742
  447TMC3     H 6716   3.517   1.716  11.422  0.1893  1.4563 -1.9520
  447TMC3    H1 6717   3.838   1.557  11.648 -0.6342  0.4385 -0.0946
  447TMC3    H2 6718   3.927   1.763  11.292  2.5764  0.2449  2.1342
  447TMC3    C7 6719   4.031   1.644  11.493 -0.6726  0.1892 -0.4187
  447TMC3    C8 6720   3.676   1.824  11.225  0.5781  0.3384 -0.5015
  447TMC3    O1 6721   4.097   1.637  11.389  0.2891 -0.2293  0.4444
  447TMC3    O2 6722   3.561   1.852  11.206  0.2524 -0.1743 -0.2182
  448TMC3    C1 6723   1.857   2.192  17.031  0.0659  0.7248  0.1778
  448TMC3    C2 6724   1.763   2.107  16.977  0.1213 -0.2901  0.1277
  448TMC3    C3 6725   1.711   2.017  17.072 -0.7728 -0.7840 -0.5340
  448TMC3    C4 6726   1.910   2.198  17.160  0.3908 -0.8312 -0.0557
  448TMC3    C5 6727   1.853   2.104  17.244 -0.2148 -0.5324  0.5199
  448TMC3    C6 6728   1.758   2.012  17.200 -0.1048 -0.2719 -0.4056
  448TMC3     C 6729   1.901   2.301  16.942  0.0747 -0.0404  0.5249
  448TMC3     O 6730   1.835   2.319  16.844  0.3204  0.0454  0.4202
  448TMC3     H 6731   1.721   2.110  16.877  0.6107 -0.1332 -0.0788
  448TMC3    H1 6732   1.984   2.267  17.200  0.3818 -1.0856  0.4095
  448TMC3    H2 6733   1.709   1.936  17.261 -2.1200  2.8182  1.8089
  448TMC3    C7 6734   1.884   2.112  17.388  0.4785 -0.3128 -0.7822
  448TMC3    C8 6735   1.627   1.908  17.030 -0.0670 -0.2579  0.0872
  448TMC3    O1 6736   1.975   2.180  17.428  0.3010 -0.3760  0.1969
  448TMC3    O2 6737   1.656   1.801  17.083  0.1253  0.8649  0.6067
  449MPD2     C 6738   2.826   0.388  13.936 -0.2129  0.0618 -1.0496
  449MPD2    C1 6739   2.703   0.443  13.949 -0.5254 -0.1117 -0.3299
  449MPD2    C2 6740   2.606   0.374  14.020 -0.3694  0.0216  0.1124
  449MPD2    C3 6741   2.624   0.243  14.057 -0.0008 -0.3957  0.6486
  449MPD2    C4 6742   2.745   0.180  14.042 -0.3192 -0.2082  0.3797
  449MPD2    C5 6743   2.845   0.262  13.986  0.2485  0.1195 -0.3297
  449MPD2     H 6744   2.507   0.414  14.040  0.6143  1.8504  1.2910
  449MPD2    H1 6745   2.765   0.078  14.071  1.8290 -0.3251 -1.5147
  449MPD2    H2 6746   2.915   0.439  13.901  1.2675 -0.6505  1.6411
  449MPD2    H3 6747   2.946   0.223  13.990  1.5143  3.3672 -1.3257
  449MPD2     N 6748   2.514   0.175  14.103 -0.8067 -0.2360  0.3516
  449MPD2    H5 6749   2.424   0.222  14.104  0.3070  1.8851  0.2287
  449MPD2    N1 6750   2.671   0.566  13.901 -0.2238 -0.6931 -0.1511
  449MPD2    H7 6751   2.572   0.588  13.907  0.4244  2.7766 -1.7923
  450TMC3    C1 6752   2.637   0.712  13.738  0.4024  0.4306  0.2141
  450TMC3    C2 6753   2.648   0.684  13.604 -0.1984  0.2231  0.6267
  450TMC3    C3 6754   2.538   0.674  13.525  0.0335 -0.2750 -0.1093
  450TMC3    C4 6755   2.512   0.717  13.795  0.0008 -0.2301 -0.0499
  450TMC3    C5 6756   2.404   0.706  13.709  0.0214  0.3584 -0.5862
  450TMC3    C6 6757   2.412   0.694  13.572 -0.5414  0.4996  0.4499
  450TMC3     C 6758   2.740   0.647  13.818 -0.1113 -0.7176  0.0857
  450TMC3     O 6759   2.860   0.653  13.790 -0.0292  0.6076 -0.5315
  450TMC3     H 6760   2.749   0.681  13.566 -0.5919 -1.2102 -0.3503
  450TMC3    H1 6761   2.500   0.752  13.896  1.3794 -1.0157  0.3835
  450TMC3    H2 6762   2.329   0.684  13.503 -0.0793  2.0585 -0.3243
  450TMC3    C7 6763   2.297   0.633  13.780 -0.4951  0.1584  0.1516
  450TMC3    C8 6764   2.555   0.650  13.381  0.2582  0.8574  0.2639
  450TMC3    O1 6765   2.319   0.613  13.903  0.5939  0.2403 -0.6894
  450TMC3    O2 6766   2.457   0.678  13.317 -0.3179 -0.4112 -0.7991
  451MPD2     C 6767   4.563   3.647   1.601 -0.3389  0.4276 -0.7568
  451MPD2    C1 6768   4.521   3.638   1.472 -0.0168 -0.2197  0.3488
  451MPD2    C2 6769   4.584   3.565   1.376 -0.4181 -0.0851  0.1989
  451MPD2    C3 6770   4.702   3.509   1.410  0.3960  0.6433  0.6318
  451MPD2    C4 6771   0.021   3.540   1.531 -0.4524  0.1611  0.4115
  451MPD2    C5 6772   4.684   3.596   1.622 -0.4095 -0.1522  0.0375
  451MPD2     H 6773   4.540   3.548   1.278  1.0381  3.6392 -1.1000
  451MPD2    H1 6774   0.121   3.514   1.562 -0.0254  1.9253  0.4842
  451MPD2    H2 6775   4.512   3.693   1.685  0.6689  0.2261 -0.0335
  451MPD2    H3 6776   4.723   3.607   1.722 -0.8131 -0.1627  0.1966
  451MPD2     N 6777   0.039   3.446   1.313  0.1455 -0.6094  0.2779
  451MPD2    H5 6778   0.134   3.427   1.343  0.2866  1.7894  1.2717
  451MPD2    N1 6779   4.393   3.696   1.445 -0.0945 -0.7724 -0.3184
  451MPD2    H7 6780   4.325   3.702   1.520  1.6030  0.5187  1.1370
  452TMC3    C1 6781   0.110   3.351   1.101 -0.2435  0.3940  0.2081
  452TMC3    C2 6782   0.063   3.271   0.999  0.0534  0.3601 -0.0307
  452TMC3    C3 6783   0.110   3.294   0.864 -0.1369  0.0131 -0.5064
  452TMC3    C4 6784   0.196   3.457   1.070 -0.5227 -0.2288 -0.2846
  452TMC3    C5 6785   0.229   3.480   0.939 -0.0125 -0.5685 -0.2818
  452TMC3    C6 6786   0.207   3.395   0.836 -0.2153 -0.2039 -0.1130
  452TMC3     C 6787   4.740   3.388   1.198 -0.4999 -1.1376  0.1947
  452TMC3     O 6788   4.626   3.362   1.162 -0.0194 -0.1431  0.3092
  452TMC3     H 6789   4.726   3.198   1.016 -0.7728  1.3839  0.5926
  452TMC3    H1 6790   0.207   3.536   1.144 -0.8551 -0.7888  0.3648
  452TMC3    H2 6791   0.230   3.424   0.734  0.3174  0.9500  0.3399
  452TMC3    C7 6792   0.258   3.613   0.899  0.3468 -0.4263  0.3811
  452TMC3    C8 6793   0.010   3.264   0.762 -0.1347  0.7610  0.2433
  452TMC3    O1 6794   0.263   3.639   0.781  0.0112 -0.4370  0.2675
  452TMC3    O2 6795   4.738   3.346   0.673 -0.1102 -0.0597  0.6087
  453TMC3    C1 6796   0.136   0.414  12.344  0.5813  0.0423  0.0242
  453TMC3    C2 6797   0.041   0.388  12.442 -0.2011 -0.0077 -0.1966
  453TMC3    C3 6798   4.654   0.398  12.399 -0.7138 -0.6019  0.3453
  453TMC3    C4 6799   0.107   0.428  12.210  0.0314  0.0082 -0.0405
  453TMC3    C5 6800   4.716   0.432  12.172 -0.0185  0.3127  0.1818
  453TMC3    C6 6801   4.617   0.426  12.270  0.4787  0.4755  0.6935
  453TMC3     C 6802   0.279   0.404  12.375  0.1652 -0.1502 -0.3083
  453TMC3     O 6803   0.351   0.436  12.276  0.0368 -0.1398 -0.0816
  453TMC3     H 6804   0.057   0.380  12.549 -0.0571 -0.9123 -0.2824
  453TMC3    H1 6805   0.187   0.428  12.137 -2.0274  1.6754 -2.2835
  453TMC3    H2 6806   4.516   0.395  12.246  1.4455 -1.1535 -1.3112
  453TMC3    C7 6807   4.692   0.387  12.040  0.6080 -0.0845 -0.1698
  453TMC3    C8 6808   4.566   0.302  12.450  0.0265  0.2027  0.3179
  453TMC3    O1 6809   0.051   0.356  11.971 -0.2374  0.1761  1.1205
  453TMC3    O2 6810   4.444   0.324  12.456 -0.5195 -0.0168 -0.5575
  454MPD2     C 6811   3.788   0.602  16.394 -0.3012 -0.3769 -0.0047
  454MPD2    C1 6812   3.765   0.667  16.274  0.2797 -0.1315  0.6747
  454MPD2    C2 6813   3.737   0.802  16.280  0.3671 -0.7135  0.0502
  454MPD2    C3 6814   3.733   0.883  16.392 -1.1037 -0.2279 -0.0476
  454MPD2    C4 6815   3.792   0.823  16.507  0.7803  0.4810 -0.5594
  454MPD2    C5 6816   3.809   0.683  16.504  0.2882 -0.1600 -0.1365
  454MPD2     H 6817   3.705   0.840  16.183 -0.7272 -3.3570 -0.6333
  454MPD2    H1 6818   3.808   0.882  16.597  1.4030 -0.3338 -0.1304
  454MPD2    H2 6819   3.809   0.496  16.402 -0.6190 -0.2903  1.7960
  454MPD2    H3 6820   3.848   0.628  16.589  2.5050 -0.0986 -1.1291
  454MPD2     N 6821   3.682   1.015  16.393 -0.6212  0.2591  0.5634
  454MPD2    H5 6822   3.688   1.055  16.486  0.2812  1.0941  0.1412
  454MPD2    N1 6823   3.738   0.604  16.156  0.3944  0.0452 -0.5141
  454MPD2    H7 6824   3.708   0.660  16.076 -2.1109 -1.9035 -0.9664
  455TMC3    C1 6825   3.471   1.089  16.369  0.7832  0.3982  0.5446
  455TMC3    C2 6826   3.471   1.173  16.474  0.1531  0.3036  0.1269
  455TMC3    C3 6827   3.425   1.128  16.591 -0.2858 -0.1364  0.4921
  455TMC3    C4 6828   3.408   0.966  16.380 -0.5845  1.4767  0.3138
  455TMC3    C5 6829   3.369   0.916  16.510  0.1928 -0.3317  0.2717
  455TMC3    C6 6830   3.375   1.002  16.613  0.2412 -0.6166  0.1178
  455TMC3     C 6831   3.592   1.056  16.294  0.0177 -0.3551  0.1485
  455TMC3     O 6832   3.577   1.018  16.182 -0.4336  0.1801  0.1796
  455TMC3     H 6833   3.537   1.259  16.463  1.1182 -0.7685 -2.5545
  455TMC3    H1 6834   3.431   0.883  16.313 -0.4298  0.1996  1.9291
  455TMC3    H2 6835   3.351   0.971  16.714  1.5987 -0.8177  0.3779
  455TMC3    C7 6836   3.357   0.773  16.544 -0.3019 -0.1090 -0.1381
  455TMC3    C8 6837   3.498   1.184  16.709 -0.1936 -0.1481 -0.2122
  455TMC3    O1 6838   3.320   0.750  16.660  0.0435 -0.2075  0.0794
  455TMC3    O2 6839   3.541   1.098  16.790 -0.8366  0.3082 -0.2861
  456MPD2     C 6840   1.762   0.609  16.381 -0.1337 -0.2276  0.3640
  456MPD2    C1 6841   1.820   0.589  16.498  0.2838 -0.2914  0.5870
  456MPD2    C2 6842   1.793   0.676  16.599 -1.0451 -0.3400  0.5909
  456MPD2    C3 6843   1.716   0.784  16.576  0.7501  0.5312 -0.5507
  456MPD2    C4 6844   1.654   0.802  16.459  0.3298  1.0481 -0.1271
  456MPD2    C5 6845   1.675   0.715  16.357  0.3923 -0.1035 -0.2680
  456MPD2     H 6846   1.830   0.666  16.700  0.1202  2.1188  0.4243
  456MPD2    H1 6847   1.579   0.878  16.442  0.4082  1.0789 -0.3306
  456MPD2    H2 6848   1.782   0.553  16.291 -1.9391  0.3521 -0.3957
  456MPD2    H3 6849   1.626   0.725  16.260 -3.8630 -0.0254  1.8971
  456MPD2     N 6850   1.704   0.877  16.684 -0.7068 -0.2222  0.1350
  456MPD2    H5 6851   1.763   0.853  16.764  0.2221  1.5313 -0.0377
  456MPD2    N1 6852   1.906   0.478  16.509  0.0930 -0.1348 -0.1887
  456MPD2    H7 6853   1.912   0.412  16.432 -0.7370 -0.3040 -0.1116
  457TMC3    C1 6854   1.613   1.051  16.811 -0.0962  0.3475 -0.4161
  457TMC3    C2 6855   1.567   1.179  16.810  0.7569 -0.0576  0.6077
  457TMC3    C3 6856   1.532   1.242  16.928  0.6157 -0.3789  0.2273
  457TMC3    C4 6857   1.633   0.971  16.924 -0.6986 -0.4155  0.1398
  457TMC3    C5 6858   1.612   1.042  17.035 -0.2561 -0.4525 -0.6379
  457TMC3    C6 6859   1.566   1.170  17.036  0.5354  0.5607 -0.4637
  457TMC3     C 6860   1.624   0.988  16.685  0.2742 -0.1945  0.5004
  457TMC3     O 6861   1.569   1.047  16.593  0.0790  0.2978  0.7406
  457TMC3     H 6862   1.542   1.223  16.714  1.2683 -1.8200 -0.3339
  457TMC3    H1 6863   1.680   0.874  16.933  1.7562  0.5238 -2.4421
  457TMC3    H2 6864   1.535   1.205  17.134  1.4265 -0.4955  0.1945
  457TMC3    C7 6865   1.664   0.987  17.163 -0.3667  0.3592 -0.4939
  457TMC3    C8 6866   1.525   1.393  16.928  0.1773 -0.0409 -0.0230
  457TMC3    O1 6867   1.701   0.870  17.164 -0.2166 -0.3309  0.3230
  457TMC3    O2 6868   1.572   1.447  17.028  0.0511 -0.3138  0.0641
  458MPD2     C 6869   4.316   0.378  12.754  0.3317 -0.2759  0.4933
  458MPD2    C1 6870   4.240   0.271  12.794  0.6129  0.0351 -0.0398
  458MPD2    C2 6871   4.108   0.261  12.757 -0.2279  0.3893 -0.3693
  458MPD2    C3 6872   4.064   0.352  12.669 -0.6680 -0.1204  0.6738
  458MPD2    C4 6873   4.139   0.460  12.628  0.5003 -0.3017 -0.4828
  458MPD2    C5 6874   4.269   0.464  12.665  0.3945  0.3538 -0.2015
  458MPD2     H 6875   4.045   0.177  12.784 -1.1209  1.2345  0.1510
  458MPD2    H1 6876   4.099   0.529  12.555 -1.8174 -0.7985  0.3238
  458MPD2    H2 6877   4.421   0.373  12.781  0.1561  0.7734  1.3345
  458MPD2    H3 6878   4.337   0.537  12.622  0.7758 -0.2152 -0.5761
  458MPD2     N 6879   3.934   0.324  12.619  0.5585  0.2910  0.2604
  458MPD2    H5 6880   3.893   0.249  12.675  4.1544 -1.1525  0.9425
  458MPD2    N1 6881   4.301   0.182  12.886 -0.4042  0.2871 -0.4801
  458MPD2    H7 6882   4.400   0.198  12.902 -0.0016 -0.5979 -2.0104
  459TMC3    C1 6883   4.325   0.008  13.034  0.0630 -0.4198 -0.3844
  459TMC3    C2 6884   4.440   4.711  12.964 -0.0202 -0.8133 -0.5419
  459TMC3    C3 6885   4.546   4.662  13.031 -0.4115  0.1288 -0.3772
  459TMC3    C4 6886   4.311   4.724  13.168  0.8706 -0.0111  0.3684
  459TMC3    C5 6887   4.418   4.672  13.229  0.7689 -0.4251  0.5258
  459TMC3    C6 6888   4.535   4.639  13.165  0.3289  0.8236 -0.1600
  459TMC3     C 6889   4.231   0.084  12.954  0.3023 -0.1274  0.3325
  459TMC3     O 6890   4.114   0.088  12.993 -0.4303 -0.2390 -0.5624
  459TMC3     H 6891   4.452   4.700  12.857  1.7459 -0.4633 -0.3852
  459TMC3    H1 6892   4.228   0.020  13.228  3.8411  1.6285  3.4742
  459TMC3    H2 6893   4.616   4.603  13.226 -0.4471 -0.4330  0.1245
  459TMC3    C7 6894   4.398   4.636  13.367 -0.5457  0.2257 -0.2929
  459TMC3    C8 6895   4.669   4.621  12.964 -0.3263  0.0398 -0.3804
  459TMC3    O1 6896   4.504   4.624  13.430  0.6013  0.0743 -0.5104
  459TMC3    O2 6897   4.696   4.688  12.865 -0.2455 -0.2588  0.6462
  460MPD2     C 6898   3.906   1.941  10.956  0.5821  0.5676  0.7994
  460MPD2    C1 6899   3.778   1.914  11.007  0.3882 -0.2264 -0.1795
  460MPD2    C2 6900   3.661   1.974  10.947 -0.1520  0.2544  0.3340
  460MPD2    C3 6901   3.668   2.051  10.832  0.0771  0.2799 -0.1669
  460MPD2    C4 6902   3.798   2.066  10.777 -0.1977 -0.1563  0.2148
  460MPD2    C5 6903   3.910   2.019  10.844 -0.0163 -0.0099 -0.0877
  460MPD2     H 6904   3.560   1.966  10.985 -0.5326  1.2167 -0.4857
  460MPD2    H1 6905   3.810   2.135  10.693 -0.7563  0.6136  0.7675
  460MPD2    H2 6906   4.002   1.905  10.991  0.8093 -1.3533 -1.7646
  460MPD2    H3 6907   4.003   2.065  10.814  0.3754  0.0383  1.2120
  460MPD2     N 6908   3.547   2.092  10.770 -0.1222  0.3209  0.2102
  460MPD2    H5 6909   3.459   2.055  10.805  0.8237 -0.9862  1.1874
  460MPD2    N1 6910   3.779   1.837  11.131  0.5569  0.1618  0.4144
  460MPD2    H7 6911   3.868   1.797  11.159  0.6776 -0.7110 -1.2430
  461TMC3    C1 6912   3.409   2.204  10.621 -0.1115 -0.0243  0.1873
  461TMC3    C2 6913   3.356   2.093  10.563 -0.8299 -0.2489  0.5561
  461TMC3    C3 6914   3.253   2.121  10.469 -0.1756 -0.3137 -0.3282
  461TMC3    C4 6915   3.370   2.334  10.586 -0.0120 -0.5080  0.8952
  461TMC3    C5 6916   3.277   2.354  10.489  0.1483  0.1344 -0.0258
  461TMC3    C6 6917   3.213   2.248  10.430  1.0044 -0.6767  0.0673
  461TMC3     C 6918   3.536   2.205  10.694 -0.1938  0.3505 -0.0991
  461TMC3     O 6919   3.630   2.272  10.658 -0.0378 -0.1175  0.2369
  461TMC3     H 6920   3.392   1.994  10.590 -1.1064  0.1433  2.3823
  461TMC3    H1 6921   3.420   2.419  10.631  2.9241 -0.5213 -2.3472
  461TMC3    H2 6922   3.146   2.252  10.345 -0.3379  1.5212  1.2319
  461TMC3    C7 6923   3.247   2.482  10.442 -0.4380 -0.1804 -0.0576
  461TMC3    C8 6924   3.230   2.018  10.373  0.0459  0.1643  0.3418
  461TMC3    O1 6925   3.149   2.480  10.367  0.1101  0.0814 -0.2124
  461TMC3    O2 6926   3.310   1.926  10.384 -0.3278  0.4451 -0.3605
  462TMC3    C1 6927   3.529   3.762   0.207 -0.3237  0.5580 -0.0660
  462TMC3    C2 6928   3.627   3.671   0.233  0.1208 -0.1682  0.8928
  462TMC3    C3 6929   3.606   3.571   0.323 -0.1313  0.5479  0.2673
  462TMC3    C4 6930   3.412   3.767   0.284 -0.3610  0.6132 -0.2387
  462TMC3    C5 6931   3.400   3.671   0.382  0.3533  0.0088  0.1078
  462TMC3    C6 6932   3.498   3.580   0.409  0.5373  0.4498  0.1742
  462TMC3     C 6933   3.562   3.877   0.130 -1.2898 -0.2125 -0.1750
  462TMC3     O 6934   3.473   3.957   0.122 -0.3204 -0.0685 -0.4694
  462TMC3     H 6935   3.716   3.663   0.172 -0.4138 -1.5118  0.2877
  462TMC3    H1 6936   3.344   3.852   0.284 -1.0565  0.0535 -1.4940
  462TMC3    H2 6937   3.461   3.489   0.455 -0.4633  1.3444  1.1384
  462TMC3    C7 6938   3.273   3.619   0.410 -0.0332  0.0979  0.1364
  462TMC3    C8 6939   3.692   3.452   0.330  1.0732  0.2132 -0.6812
  462TMC3    O1 6940   3.226   3.534   0.335 -0.0813 -0.1349 -0.4941
  462TMC3    O2 6941   3.711   3.399   0.438  0.2165 -0.2069  0.4749
  463MPD2     C 6942   0.474   1.340   1.468  0.6335  0.4908 -0.6294
  463MPD2    C1 6943   0.365   1.423   1.467  0.5351  0.4733 -0.0532
  463MPD2    C2 6944   0.378   1.563   1.464 -0.5242 -0.5339  0.7838
  463MPD2    C3 6945   0.502   1.619   1.469 -0.0655  0.6682  0.3803
  463MPD2    C4 6946   0.615   1.532   1.476 -0.2879  0.4061 -0.2640
  463MPD2    C5 6947   0.599   1.396   1.479 -0.6422  0.8799 -0.0885
  463MPD2     H 6948   0.282   1.614   1.462  0.8600  2.1093  1.6745
  463MPD2    H1 6949   0.714   1.575   1.469 -0.5315  0.6569 -2.2969
  463MPD2    H2 6950   0.478   1.232   1.472 -2.6216  0.3841 -0.0424
  463MPD2    H3 6951   0.681   1.327   1.465  0.6506  2.3673  0.2068
  463MPD2     N 6952   0.528   1.756   1.473  0.4105 -0.8945 -0.5923
  463MPD2    H5 6953   0.625   1.786   1.470 -0.5184  2.0764 -0.2941
  463MPD2    N1 6954   0.236   1.373   1.466  0.5970 -0.6368 -0.7597
  463MPD2    H7 6955   0.169   1.449   1.475 -0.7205 -2.0138  0.8683
  464TMC3    C1 6956   0.049   1.237   1.446  0.0787  0.5138 -0.1528
  464TMC3    C2 6957   4.719   1.336   1.504  0.0324 -0.0307  0.1627
  464TMC3    C3 6958   4.586   1.326   1.489 -0.9434 -0.5040  0.8343
  464TMC3    C4 6959   4.733   1.143   1.363 -0.5019 -0.4754  0.7650
  464TMC3    C5 6960   4.596   1.150   1.342 -0.9892  0.1258  0.5140
  464TMC3    C6 6961   4.521   1.246   1.405  0.1393  0.2013 -0.3324
  464TMC3     C 6962   0.192   1.245   1.458  0.3327 -0.0262 -0.3545
  464TMC3     O 6963   0.260   1.144   1.440  0.0924 -0.0048 -0.6102
  464TMC3     H 6964   0.023   1.402   1.577 -2.0619  0.1716  1.2790
  464TMC3    H1 6965   0.059   1.081   1.303  0.2604  1.5594 -0.4659
  464TMC3    H2 6966   4.417   1.268   1.383  0.3016 -0.7484 -2.0657
  464TMC3    C7 6967   4.541   1.072   1.231  0.4437 -0.4684  0.3042
  464TMC3    C8 6968   4.501   1.444   1.525  0.0799  0.0814 -0.4693
  464TMC3    O1 6969   4.619   1.032   1.143 -0.2167 -0.4321 -0.6492
  464TMC3    O2 6970   4.410   1.479   1.452  0.0580 -0.2212 -0.0441
  465MPD2     C 6971   0.556   0.954  17.172  0.7021  1.0465 -0.4678
  465MPD2    C1 6972   0.430   0.925  17.220 -0.0502  0.4446 -0.0184
  465MPD2    C2 6973   0.321   0.941  17.141 -0.1024  0.5691  0.2734
  465MPD2    C3 6974   0.331   0.999  17.017  1.0170 -0.0000  0.1140
  465MPD2    C4 6975   0.457   1.023  16.968  1.1080 -0.1423  0.4301
  465MPD2    C5 6976   0.569   0.998  17.045 -0.3727  0.0299  0.2516
  465MPD2     H 6977   0.222   0.931  17.184  0.5653  0.7994  1.8634
  465MPD2    H1 6978   0.481   1.054  16.867 -1.7528  0.7503  0.0139
  465MPD2    H2 6979   0.647   0.950  17.230  1.2240  1.5697 -1.2558
  465MPD2    H3 6980   0.662   1.031  17.000 -0.6863 -0.6647 -0.9117
  465MPD2     N 6981   0.214   1.050  16.953 -0.1729 -0.8607 -0.0218
  465MPD2    H5 6982   0.134   1.048  17.016 -0.1317 -0.3558  0.0494
  465MPD2    N1 6983   0.391   0.876  17.344 -0.2064 -0.4916 -0.0804
  465MPD2    H7 6984   0.295   0.845  17.354 -0.0547 -1.1197 -0.5642
  466TMC3    C1 6985   4.576   1.088  16.869 -0.4116 -0.2313 -0.0644
  466TMC3    C2 6986   4.555   1.204  16.801  0.2057 -0.3236  0.2784
  466TMC3    C3 6987   4.651   1.252  16.717  0.2709  0.4581 -0.3348
  466TMC3    C4 6988   4.700   1.031  16.865  0.0235 -0.1413 -0.1155
  466TMC3    C5 6989   0.062   1.086  16.786 -0.3175  0.2281 -0.2114
  466TMC3    C6 6990   0.033   1.190  16.704 -0.5263  0.5368  0.5931
  466TMC3     C 6991   4.499   1.066  16.986  0.0068 -0.2883  0.4190
  466TMC3     O 6992   4.466   1.163  17.047 -0.5894  0.5755 -0.4066
  466TMC3     H 6993   4.458   1.250  16.791  1.0580  0.9814 -2.0212
  466TMC3    H1 6994   4.729   0.947  16.927 -1.2360  0.0901  0.7683
  466TMC3    H2 6995   0.116   1.243  16.659 -2.3601  1.9847 -1.1000
  466TMC3    C7 6996   0.201   1.097  16.826  0.3358 -0.3021  0.1386
  466TMC3    C8 6997   4.647   1.398  16.689 -0.7855 -0.0679  0.3589
  466TMC3    O1 6998   0.289   1.157  16.765  0.2411 -0.1649 -0.1019
  466TMC3    O2 6999   4.597   1.472  16.774 -0.2363  0.3614 -0.2271
  467TMC3    C1 7000   1.559   4.170  14.243 -0.4641 -0.2771 -0.8327
  467TMC3    C2 7001   1.521   4.202  14.117 -0.3662 -0.2148  0.7620
  467TMC3    C3 7002   1.410   4.139  14.072 -0.5667 -0.2911  0.7520
  467TMC3    C4 7003   1.498   4.084  14.326 -0.5487 -0.5907 -0.1970
  467TMC3    C5 7004   1.383   4.026  14.281 -0.1008 -0.5133 -0.5045
  467TMC3    C6 7005   1.333   4.051  14.150 -0.1822 -0.1515  0.1053
  467TMC3     C 7006   1.702   4.166  14.255  0.6187  0.3014  0.8142
  467TMC3     O 7007   1.766   4.262  14.287  0.3072  0.5639  0.1829
  467TMC3     H 7008   1.576   4.269  14.051  0.8383 -1.5058  0.4729
  467TMC3    H1 7009   1.543   4.056  14.421  0.1561  0.7081 -0.1471
  467TMC3    H2 7010   1.238   4.014  14.113 -0.0499 -0.6631  0.2799
  467TMC3    C7 7011   1.334   3.905  14.349 -0.3118  0.3410  0.4670
  467TMC3    C8 7012   1.419   4.121  13.931 -0.2756 -0.4088 -0.1722
  467TMC3    O1 7013   1.424   3.832  14.379 -0.5656  0.0834  0.1371
  467TMC3    O2 7014   1.388   4.209  13.856 -0.7442  0.5030  0.7891
  468MPD2     C 7015   0.462   2.019  11.205  0.8196 -0.9251  0.3530
  468MPD2    C1 7016   0.591   1.992  11.175 -0.4766  0.0601 -0.0871
  468MPD2    C2 7017   0.631   1.861  11.187  0.0367  0.6379  0.0713
  468MPD2    C3 7018   0.538   1.764  11.230  0.4970 -0.2849  0.0146
  468MPD2    C4 7019   0.409   1.796  11.254  0.3774  0.0806 -0.1140
  468MPD2    C5 7020   0.375   1.922  11.233  0.1691  0.2122  0.0338
  468MPD2     H 7021   0.731   1.827  11.162  0.0575  0.2868  0.6175
  468MPD2    H1 7022   0.334   1.722  11.275  1.1480 -0.5032  0.5810
  468MPD2    H2 7023   0.414   2.116  11.216  0.0759 -1.1403 -0.9537
  468MPD2    H3 7024   0.273   1.948  11.261 -0.2170  0.3152 -1.4592
  468MPD2     N 7025   0.569   1.623  11.235 -0.1041 -1.0665 -0.1304
  468MPD2    H5 7026   0.497   1.563  11.274 -0.6619 -1.1559 -1.3226
  468MPD2    N1 7027   0.691   2.087  11.131 -0.0267  0.0579  0.4084
  468MPD2    H7 7028   0.789   2.063  11.125 -0.4421 -1.2426 -1.1501
  469TMC3    C1 7029   0.799   2.301  11.112 -0.1866 -0.7144 -0.1970
  469TMC3    C2 7030   0.913   2.232  11.086  0.4919 -0.1556  0.0836
  469TMC3    C3 7031   1.027   2.282  11.148 -0.7878 -0.1798 -0.5801
  469TMC3    C4 7032   0.787   2.413  11.187  0.1483  0.0025  0.3682
  469TMC3    C5 7033   0.905   2.456  11.250  0.1663 -0.7339 -1.4513
  469TMC3    C6 7034   1.023   2.392  11.230  0.3137  0.4883  0.4486
  469TMC3     C 7035   0.671   2.221  11.103  0.5485 -0.0109 -0.6307
  469TMC3     O 7036   0.564   2.278  11.106  0.2579 -0.4734 -0.3671
  469TMC3     H 7037   0.919   2.146  11.020  0.7785  1.3199 -1.7902
  469TMC3    H1 7038   0.689   2.454  11.213  0.6788  1.7299 -0.3244
  469TMC3    H2 7039   1.107   2.428  11.288 -0.7461  0.5915  1.9075
  469TMC3    C7 7040   0.891   2.590  11.308  0.7827 -0.2166  0.4681
  469TMC3    C8 7041   1.135   2.188  11.170 -0.3076 -0.4800  0.1224
  469TMC3    O1 7042   0.785   2.647  11.278  0.2367  0.0855  0.6409
  469TMC3    O2 7043   1.140   2.086  11.100 -0.0430  0.0715 -0.2219
  470TMC3    C1 7044   2.528   3.831   0.481  0.1925  0.4967  0.1907
  470TMC3    C2 7045   2.523   3.917   0.591 -0.2909  0.0614 -0.0281
  470TMC3    C3 7046   2.482   3.860   0.711 -0.0562 -0.0971  0.2968
  470TMC3    C4 7047   2.482   3.703   0.490  0.2281  0.1276  0.5891
  470TMC3    C5 7048   2.441   3.654   0.611 -0.9558  0.7088 -0.4984
  470TMC3    C6 7049   2.445   3.731   0.726 -1.5629 -0.3498  0.2160
  470TMC3     C 7050   2.601   3.876   0.357  0.1977  0.2412  0.1579
  470TMC3     O 7051   2.659   3.982   0.378 -0.2313  0.0884 -0.4351
  470TMC3     H 7052   2.561   4.018   0.587 -1.3367  0.4232 -0.9205
  470TMC3    H1 7053   2.499   3.634   0.409 -0.7748  0.0150  0.4806
  470TMC3    H2 7054   2.423   3.686   0.823  1.4347 -1.1281  0.5253
  470TMC3    C7 7055   2.392   3.516   0.620  0.1085  0.4283 -0.6440
  470TMC3    C8 7056   2.558   3.911   0.824 -0.0072 -1.1363 -0.6336
  470TMC3    O1 7057   2.394   3.452   0.516 -0.1853  0.0117 -0.6287
  470TMC3    O2 7058   2.612   3.832   0.900 -0.4449 -0.0390 -0.2119
  471MPD2     C 7059   3.229   0.059  16.608  0.3469  0.5572 -1.6577
  471MPD2    C1 7060   3.285   4.683  16.559  0.0208 -0.3161 -0.7146
  471MPD2    C2 7061   3.404   4.641  16.614 -0.3238 -0.7716  0.3204
  471MPD2    C3 7062   3.463   4.712  16.722  0.2755 -0.8406 -0.0770
  471MPD2    C4 7063   3.403   0.081  16.769 -0.7310 -0.4229 -0.2140
  471MPD2    C5 7064   3.290   0.125  16.709 -0.4316  0.0307 -0.4855
  471MPD2     H 7065   3.448   4.545  16.591 -2.7499 -1.9250  0.4576
  471MPD2    H1 7066   3.441   0.123  16.861  0.1399 -1.0042 -0.3085
  471MPD2    H2 7067   3.137   0.097  16.564 -0.9082  1.1663  1.4917
  471MPD2    H3 7068   3.242   0.211  16.755  0.1594  0.1241 -0.0486
  471MPD2     N 7069   3.573   4.663  16.798  0.1012 -0.0496  0.5370
  471MPD2    H5 7070   3.600   4.723  16.874 -0.3604  0.7526  0.0680
  471MPD2    N1 7071   3.236   4.591  16.470  0.5013  0.1570  0.5914
  471MPD2    H7 7072   3.298   4.515  16.444 -3.2026 -2.3761 -0.9487
  472TMC3    C1 7073   3.088   4.501  16.296 -0.1316  0.8065  0.5719
  472TMC3    C2 7074   2.985   4.523  16.210 -0.3349 -0.2849 -0.0698
  472TMC3    C3 7075   2.935   4.416  16.138 -0.0917  0.4151 -0.3560
  472TMC3    C4 7076   3.143   4.379  16.316 -0.3597 -0.3586 -0.4898
  472TMC3    C5 7077   3.098   4.273  16.240  0.4933 -1.0285  0.2549
  472TMC3    C6 7078   2.995   4.294  16.153 -0.1834 -0.1692  0.1849
  472TMC3     C 7079   3.114   4.599  16.397 -0.4107 -0.4446  0.1951
  472TMC3     O 7080   3.029   4.688  16.402 -0.3133 -0.2775  0.0446
  472TMC3     H 7081   2.930   4.617  16.209  0.4668  0.2372  2.5493
  472TMC3    H1 7082   3.221   4.363  16.390  0.3935  0.2969 -1.1380
  472TMC3    H2 7083   2.947   4.207  16.110 -0.3266  0.8695 -1.8023
  472TMC3    C7 7084   3.140   4.141  16.282  0.4339  0.6797  0.1243
  472TMC3    C8 7085   2.790   4.413  16.117  0.2207 -0.1951 -0.2909
  472TMC3    O1 7086   3.166   4.141  16.399 -0.5248  0.3967  0.2818
  472TMC3    O2 7087   2.742   4.494  16.044  0.0330  0.1562 -0.0500
  473MPD2     C 7088   3.507   1.594  13.993 -0.4550  0.3178  0.0572
  473MPD2    C1 7089   3.408   1.687  13.966  0.4443 -0.4767  0.7164
  473MPD2    C2 7090   3.402   1.798  14.047  0.0300 -0.6853 -0.7259
  473MPD2    C3 7091   3.495   1.820  14.150  0.1963 -0.1519  0.1800
  473MPD2    C4 7092   3.599   1.732  14.160  0.3305  0.2204  0.1009
  473MPD2    C5 7093   3.600   1.612  14.093  0.0067 -0.2050  0.5395
  473MPD2     H 7094   3.322   1.871  14.037  1.7020  1.4390  1.2592
  473MPD2    H1 7095   3.674   1.745  14.237  1.9045 -2.6804 -0.9277
  473MPD2    H2 7096   3.529   1.507  13.931 -1.3018  0.2017 -0.0704
  473MPD2    H3 7097   3.688   1.552  14.110 -0.7629 -1.6281 -0.4812
  473MPD2     N 7098   3.495   1.940  14.220  0.2592  0.5071  0.2332
  473MPD2    H5 7099   3.575   1.947  14.281  1.1336 -0.0130 -0.8544
  473MPD2    N1 7100   3.325   1.685  13.853  0.0376  0.1076  0.1469
  473MPD2    H7 7101   3.258   1.761  13.844  1.3356  1.4218  1.6781
  474TMC3    C1 7102   3.429   2.145  14.311 -0.3547 -0.6645 -0.2496
  474TMC3    C2 7103   3.344   2.245  14.301  0.9538 -0.2059 -0.0563
  474TMC3    C3 7104   3.361   2.360  14.371 -0.4536 -0.9729 -0.2432
  474TMC3    C4 7105   3.532   2.140  14.400 -0.0522 -0.2488 -0.5172
  474TMC3    C5 7106   3.545   2.248  14.485  0.5761 -0.4317 -0.7845
  474TMC3    C6 7107   3.459   2.358  14.470 -0.1118  0.0793 -0.4054
  474TMC3     C 7108   3.399   2.034  14.222 -0.2624 -0.7351  0.4348
  474TMC3     O 7109   3.287   2.035  14.172 -0.7286 -0.6625 -0.3564
  474TMC3     H 7110   3.262   2.242  14.230  0.5041 -1.4367  0.5210
  474TMC3    H1 7111   3.596   2.054  14.419  1.7740  1.6213  1.8688
  474TMC3    H2 7112   3.461   2.444  14.536 -2.9090 -1.2569  1.3965
  474TMC3    C7 7113   3.633   2.233  14.601  0.4685 -0.0284 -0.0912
  474TMC3    C8 7114   3.255   2.451  14.385 -0.2150 -0.2837  0.6964
  474TMC3    O1 7115   3.691   2.128  14.603 -0.1825 -0.0083 -0.3412
  474TMC3    O2 7116   3.146   2.416  14.344  0.1239 -0.4372 -0.2929
  475MPD2     C 7117   1.598   4.058  10.700  0.1690  0.0955 -0.0084
  475MPD2    C1 7118   1.636   4.171  10.764  1.0012  1.0433 -0.1015
  475MPD2    C2 7119   1.558   4.236  10.857 -0.2619 -0.2016 -0.3562
  475MPD2    C3 7120   1.432   4.182  10.870 -0.2048 -0.4920  0.4956
  475MPD2    C4 7121   1.389   4.057  10.804  0.1060 -0.6375  0.2215
  475MPD2    C5 7122   1.478   3.999  10.724 -0.0406  0.1803 -0.2340
  475MPD2     H 7123   1.589   4.331  10.899  0.3518 -0.6227  0.1402
  475MPD2    H1 7124   1.294   4.008  10.824  0.3538 -1.1767  0.0707
  475MPD2    H2 7125   1.677   4.012  10.640 -2.1034 -1.4305 -1.8374
  475MPD2    H3 7126   1.461   3.898  10.687  1.9346 -0.3267  0.2432
  475MPD2     N 7127   1.341   4.248  10.958  0.2227  0.4348 -0.5851
  475MPD2    H5 7128   1.385   4.329  11.000 -1.9740  1.6340 -0.5945
  475MPD2    N1 7129   1.758   4.236  10.752  0.2909 -1.1583  0.3132
  475MPD2    H7 7130   1.785   4.307  10.819 -1.4333  0.6544 -0.8975
  476TMC3    C1 7131   1.951   4.315  10.652  0.1609  0.4533  0.3675
  476TMC3    C2 7132   1.933   4.397  10.544 -0.6078 -0.3740 -0.2164
  476TMC3    C3 7133   1.932   4.534  10.562  0.1376  0.0138 -0.2307
  476TMC3    C4 7134   1.964   4.376  10.775 -0.4858  0.1550  0.3615
  476TMC3    C5 7135   1.970   4.510  10.792  0.7125 -0.0024 -0.0298
  476TMC3    C6 7136   1.957   4.594  10.683 -0.8589 -0.7687 -1.2227
  476TMC3     C 7137   1.853   4.205  10.657  0.5666  0.6277  0.0089
  476TMC3     O 7138   1.848   4.131  10.560  0.0215  0.1210 -0.0046
  476TMC3     H 7139   1.945   4.350  10.447  1.5348  1.9001 -1.0631
  476TMC3    H1 7140   1.966   4.311  10.862 -0.7031  1.0334  1.0185
  476TMC3    H2 7141   1.961   4.702  10.689 -0.3773 -0.8052 -0.8960
  476TMC3    C7 7142   1.908   4.553  10.915  0.2248 -0.0519 -0.0790
  476TMC3    C8 7143   1.854   4.617  10.469 -0.5863 -0.4137 -0.3566
  476TMC3    O1 7144   1.848   4.471  10.985  0.9136  0.0474  0.3474
  476TMC3    O2 7145   1.837   4.729  10.507  0.4007  0.0831  0.3088
  477MPD2     C 7146   4.297   1.437  12.040  0.4330 -0.1882 -0.1984
  477MPD2    C1 7147   4.255   1.308  12.054  0.0027 -0.3712 -0.0017
  477MPD2    C2 7148   4.262   1.250  12.184  0.4214  0.4430  0.9145
  477MPD2    C3 7149   4.288   1.327  12.297 -0.1195  0.3683  0.0637
  477MPD2    C4 7150   4.320   1.460  12.278  0.7130 -0.4846  0.2168
  477MPD2    C5 7151   4.317   1.516  12.149 -0.5265 -0.2550  0.3443
  477MPD2     H 7152   4.244   1.143  12.194  1.4888  0.1600 -0.1512
  477MPD2    H1 7153   4.343   1.517  12.368  0.8827 -1.4774  0.8010
  477MPD2    H2 7154   4.304   1.484  11.943  0.5023  2.2554  1.0148
  477MPD2    H3 7155   4.357   1.616  12.138 -0.2142 -0.4318 -0.1305
  477MPD2     N 7156   4.274   1.259  12.420  0.2059 -0.3580  0.6827
  477MPD2    H5 7157   4.250   1.160  12.420  1.2635 -0.6188  1.0528
  477MPD2    N1 7158   4.208   1.245  11.935  0.1667 -0.1048 -0.2032
  477MPD2    H7 7159   4.195   1.306  11.854  0.8535  0.9804  0.5076
  478TMC3    C1 7160   4.014   1.142  11.860 -0.1602 -0.1967  0.4738
  478TMC3    C2 7161   3.907   1.147  11.935 -0.1263  0.2428 -0.4985
  478TMC3    C3 7162   3.796   1.197  11.876  0.5741 -0.3666 -0.2883
  478TMC3    C4 7163   4.023   1.201  11.736 -0.2852 -0.0371  0.5910
  478TMC3    C5 7164   3.914   1.264  11.685  0.4324 -0.2817  0.6805
  478TMC3    C6 7165   3.794   1.255  11.751  0.0346  0.3145 -0.0797
  478TMC3     C 7166   4.139   1.125  11.936 -0.1342 -0.9059 -0.2688
  478TMC3     O 7167   4.137   1.037  12.020  0.8487  0.4198 -0.2436
  478TMC3     H 7168   3.911   1.115  12.038 -0.6632  0.8455 -0.2933
  478TMC3    H1 7169   4.124   1.205  11.698 -0.1918 -3.2940  0.4213
  478TMC3    H2 7170   3.704   1.300  11.711  0.6002 -0.2874 -2.0136
  478TMC3    C7 7171   3.934   1.299  11.541 -0.0229 -0.1793  0.4124
  478TMC3    C8 7172   3.710   1.244  11.982  0.1571  0.0031 -0.1975
  478TMC3    O1 7173   4.050   1.301  11.503 -0.2285  0.0834  0.4367
  478TMC3    O2 7174   3.661   1.157  12.048 -0.1509  0.2653  0.1244
  479MPD2     C 7175   2.708   3.928  15.401 -0.5895  0.1397 -0.0552
  479MPD2    C1 7176   2.656   3.904  15.522  0.0969  0.0611 -0.5017
  479MPD2    C2 7177   2.740   3.908  15.634  0.0998 -0.3433  0.7695
  479MPD2    C3 7178   2.868   3.953  15.623 -0.3936 -0.0043 -0.4223
  479MPD2    C4 7179   2.917   3.977  15.495 -0.6881  0.1446  0.2165
  479MPD2    C5 7180   2.841   3.959  15.387 -0.1025 -0.0837  0.0736
  479MPD2     H 7181   2.706   3.894  15.736 -1.1373  0.2035  0.4308
  479MPD2    H1 7182   3.019   4.010  15.480 -1.1672  1.0005 -1.2338
  479MPD2    H2 7183   2.651   3.913  15.311 -1.2631  1.1789  0.1935
  479MPD2    H3 7184   2.877   3.968  15.285  1.5498 -2.1321  0.4949
  479MPD2     N 7185   2.953   3.988  15.731 -0.8153 -0.0243  0.0338
  479MPD2    H5 7186   3.048   4.012  15.705 -1.1067  0.4458 -0.6138
  479MPD2    N1 7187   2.514   3.887  15.520  0.1705 -0.2480 -0.4804
  479MPD2    H7 7188   2.468   3.870  15.431 -1.2411 -0.6493  0.3171
  480TMC3    C1 7189   2.615   4.091  16.033  0.4259 -0.4897  0.7128
  480TMC3    C2 7190   2.541   4.173  15.950  0.1367  0.0385 -0.0991
  480TMC3    C3 7191   2.598   4.209  15.828 -0.5826  0.5766 -1.2429
  480TMC3    C4 7192   2.735   4.039  15.996  0.0023  0.5952 -0.2856
  480TMC3    C5 7193   2.785   4.078  15.875  0.1897  1.1147 -0.3126
  480TMC3    C6 7194   2.719   4.165  15.793  1.0733 -0.9892 -0.0863
  480TMC3     C 7195   2.565   4.015  16.146  0.8492 -0.4508  0.6541
  480TMC3     O 7196   2.647   3.970  16.226  0.3003  0.6490 -0.2913
  480TMC3     H 7197   2.439   4.198  15.977  0.3332  2.3923 -1.5857
  480TMC3    H1 7198   2.810   3.999  16.064  0.8222  3.5721  0.6031
  480TMC3    H2 7199   2.771   4.215  15.712 -0.1580  0.9282  0.3056
  480TMC3    C7 7200   2.921   4.044  15.849 -0.1275  0.0787 -0.1129
  480TMC3    C8 7201   2.510   4.263  15.720  0.1048 -0.4860 -0.5998
  480TMC3    O1 7202   2.999   4.081  15.937 -0.5577 -0.0124  0.3793
  480TMC3    O2 7203   2.394   4.300  15.741  0.0452  0.2805  0.1790
  481MPD2     C 7204   4.485   3.654  14.020 -0.6987  0.1660 -0.1758
  481MPD2    C1 7205   4.402   3.552  14.061 -0.4981 -0.8505  0.3555
  481MPD2    C2 7206   4.433   3.468  14.163 -0.0103 -0.3334 -0.0278
  481MPD2    C3 7207   4.533   3.504  14.252  0.3061 -0.3732  0.1867
  481MPD2    C4 7208   4.607   3.613  14.220 -0.3145 -0.7857  0.1171
  481MPD2    C5 7209   4.593   3.680  14.097  0.5937 -0.4809 -0.1888
  481MPD2     H 7210   4.382   3.373  14.177  0.3256 -0.3554  1.0527
  481MPD2    H1 7211   4.684   3.640  14.292  1.0720  2.4874 -2.6104
  481MPD2    H2 7212   4.455   3.715  13.936 -2.1637  0.9857  0.9557
  481MPD2    H3 7213   4.658   3.761  14.068 -0.3055 -0.9364 -3.4779
  481MPD2     N 7214   4.564   3.442  14.373  0.5825  0.6743  0.5761
  481MPD2    H5 7215   4.652   3.474  14.412  1.9728  1.4113 -3.2399
  481MPD2    N1 7216   4.286   3.532  13.986 -0.2345 -0.0626 -0.6935
  481MPD2    H7 7217   4.255   3.605  13.923  0.2267 -1.0591 -2.0910
  482TMC3    C1 7218   4.078   3.439  13.930 -0.3729 -0.0023 -0.1076
  482TMC3    C2 7219   4.002   3.331  13.911 -0.0063  0.2476  0.2301
  482TMC3    C3 7220   3.870   3.335  13.938 -0.2218  0.0511 -0.3550
  482TMC3    C4 7221   4.013   3.548  13.980 -0.0888  0.5745  0.2485
  482TMC3    C5 7222   3.882   3.543  13.997 -0.1404  0.5070 -0.1693
  482TMC3    C6 7223   3.799   3.439  13.961 -0.8931 -0.0617  0.0947
  482TMC3     C 7224   4.215   3.417  13.971 -0.2708 -0.1794  0.1046
  482TMC3     O 7225   4.225   3.311  14.031 -0.3130  0.4794  0.2282
  482TMC3     H 7226   4.051   3.237  13.888 -0.0452  0.1173  0.6661
  482TMC3    H1 7227   4.061   3.641  14.010  1.9362 -0.6682  0.8503
  482TMC3    H2 7228   3.690   3.439  13.956 -0.8447  0.6667 -0.9924
  482TMC3    C7 7229   3.807   3.662  13.987  0.3206  0.8237  0.3912
  482TMC3    C8 7230   3.808   3.217  13.883  0.0511  0.2735  0.0863
  482TMC3    O1 7231   3.706   3.672  14.052 -0.5696  0.3584 -0.1731
  482TMC3    O2 7232   3.855   3.111  13.918 -0.0756  0.1461  0.6954
  483TMC3    C1 7233   2.094   2.359   1.199  0.1679  0.1912  0.2044
  483TMC3    C2 7234   2.151   2.485   1.179 -0.0143 -0.3657 -0.2227
  483TMC3    C3 7235   2.266   2.521   1.242  0.2351  0.4190 -0.1432
  483TMC3    C4 7236   2.161   2.267   1.270 -0.2940  0.0582  0.5397
  483TMC3    C5 7237   2.280   2.310   1.337 -0.5310  0.2154  0.1219
  483TMC3    C6 7238   2.339   2.433   1.314 -0.4712  0.0173 -0.0528
  483TMC3     C 7239   1.977   2.328   1.115  0.4091  0.2247 -0.1328
  483TMC3     O 7240   1.923   2.424   1.057  0.2374  0.0581 -0.5826
  483TMC3     H 7241   2.103   2.552   1.108  0.8788 -0.8399 -1.2551
  483TMC3    H1 7242   2.133   2.163   1.282  2.8224 -0.6638  1.3622
  483TMC3    H2 7243   2.442   2.442   1.346 -0.6282  1.4470  0.0187
  483TMC3    C7 7244   2.362   2.209   1.396 -0.1722  0.0123  0.0339
  483TMC3    C8 7245   2.342   2.632   1.184  0.6788  0.3644 -0.0813
  483TMC3    O1 7246   2.359   2.104   1.340 -0.3011 -0.7368  0.7478
  483TMC3    O2 7247   2.290   2.691   1.090 -0.0506 -0.2617  0.5855
  484MPD2     C 7248   0.124   4.330  13.042 -0.7268  0.0491 -0.1320
  484MPD2    C1 7249   0.098   4.446  12.973 -0.3608  0.4062 -0.1819
  484MPD2    C2 7250   0.185   4.495  12.878 -0.0579 -0.0582  0.2415
  484MPD2    C3 7251   0.301   4.429  12.862 -0.7356  0.0011 -0.3415
  484MPD2    C4 7252   0.336   4.320  12.937  1.0883  0.4285  0.2919
  484MPD2    C5 7253   0.242   4.260  13.016  0.2512 -0.1171 -0.7306
  484MPD2     H 7254   0.150   4.573  12.812 -2.5840 -0.4558  1.1329
  484MPD2    H1 7255   0.431   4.273  12.916  0.3578 -2.6332  3.6919
  484MPD2    H2 7256   0.049   4.288  13.109 -2.6370  0.1871 -2.1586
  484MPD2    H3 7257   0.264   4.165  13.062 -2.3967 -1.0624 -1.4264
  484MPD2     N 7258   0.396   4.465  12.761  0.3622 -0.9201 -0.3352
  484MPD2    H5 7259   0.487   4.422  12.769  0.9931  0.2549 -1.1625
  484MPD2    N1 7260   4.720   4.506  13.013  0.0388  0.1443 -0.0900
  484MPD2    H7 7261   4.670   4.457  13.087 -0.6306  0.4465 -0.3518
  485TMC3    C1 7262   0.491   4.603  12.590  0.3879  0.0627 -0.3298
  485TMC3    C2 7263   0.606   4.606  12.658 -0.0346 -0.2826 -0.0253
  485TMC3    C3 7264   0.696   4.708  12.634 -0.2788 -0.8042  0.1693
  485TMC3    C4 7265   0.476   4.674  12.477  0.2880 -0.2758  0.3936
  485TMC3    C5 7266   0.570   0.023  12.433  0.3041 -0.2043 -0.5056
  485TMC3    C6 7267   0.673   0.050  12.521 -0.1931 -0.2825 -0.2698
  485TMC3     C 7268   0.370   4.557  12.661 -0.0247 -0.0893 -0.5854
  485TMC3     O 7269   0.267   4.616  12.630 -0.1592  0.0266  0.4388
  485TMC3     H 7270   0.621   4.535  12.739 -3.7988  2.1190  2.7621
  485TMC3    H1 7271   0.383   4.657  12.424 -0.6202 -2.7130  2.7719
  485TMC3    H2 7272   0.730   0.140  12.503  1.4836 -1.7214 -2.1763
  485TMC3    C7 7273   0.619   0.032  12.298  0.2374  0.5115  0.2261
  485TMC3    C8 7274   0.833   4.669  12.640 -0.1918  0.7276  0.0917
  485TMC3    O1 7275   0.738   0.041  12.291  0.0794  0.3582 -0.2179
  485TMC3    O2 7276   0.882   4.612  12.737 -0.6210  0.5465 -0.5710
  486MPD2     C 7277   2.648   3.628  13.306 -0.0567 -0.3647 -0.3585
  486MPD2    C1 7278   2.540   3.587  13.227  0.1742  0.5373  0.4299
  486MPD2    C2 7279   2.437   3.672  13.199 -0.2960 -0.1203 -0.6468
  486MPD2    C3 7280   2.436   3.803  13.241  0.2704  0.5169 -0.3229
  486MPD2    C4 7281   2.544   3.841  13.318  0.0974 -1.2710  0.0099
  486MPD2    C5 7282   2.643   3.757  13.350  0.0473 -0.0072  0.0414
  486MPD2     H 7283   2.344   3.639  13.153  0.1888 -2.6923  0.2222
  486MPD2    H1 7284   2.547   3.942  13.357 -3.0071 -1.5871  1.0651
  486MPD2    H2 7285   2.726   3.564  13.343  0.4362  1.7585  2.3622
  486MPD2    H3 7286   2.719   3.797  13.415 -0.7929 -1.6664  2.0340
  486MPD2     N 7287   2.338   3.889  13.193  0.6443 -0.5514 -0.2786
  486MPD2    H5 7288   2.268   3.844  13.134 -0.2512  0.5218 -0.0267
  486MPD2    N1 7289   2.538   3.449  13.198  0.1206 -0.4743 -0.0170
  486MPD2    H7 7290   2.618   3.389  13.216 -0.3820 -0.9695  0.5988
  487TMC3    C1 7291   2.452   3.249  13.096 -0.5158  0.1919 -0.7137
  487TMC3    C2 7292   2.385   3.196  12.996 -0.2647 -0.3074 -0.3869
  487TMC3    C3 7293   2.345   3.065  12.999 -0.0871 -0.0016  0.3777
  487TMC3    C4 7294   2.492   3.168  13.199  0.2872  0.1034  0.5268
  487TMC3    C5 7295   2.450   3.033  13.201  0.3955 -0.0392 -0.0695
  487TMC3    C6 7296   2.383   2.981  13.095  0.1487  0.1738  0.1171
  487TMC3     C 7297   2.451   3.397  13.106 -0.1858  0.1118 -0.1994
  487TMC3     O 7298   2.376   3.448  13.029 -0.1026 -0.6174  0.1363
  487TMC3     H 7299   2.359   3.253  12.907  0.1774  0.7187  0.1394
  487TMC3    H1 7300   2.542   3.208  13.287 -1.2233 -0.1067  1.4758
  487TMC3    H2 7301   2.359   2.875  13.092 -3.1553  0.9400 -0.2371
  487TMC3    C7 7302   2.402   2.996  13.332 -0.7596  0.1051  0.3944
  487TMC3    C8 7303   2.202   3.061  12.987  0.0645  0.1625  0.6269
  487TMC3    O1 7304   2.440   3.074  13.418 -0.4806  0.0266  0.1199
  487TMC3    O2 7305   2.145   3.171  12.979  0.0817  0.2790  0.0199
  488MPD2     C 7306   2.130   1.062  16.443  0.0846  0.4211 -0.0083
  488MPD2    C1 7307   2.195   1.137  16.537  0.3571 -0.4824 -0.4178
  488MPD2    C2 7308   2.177   1.106  16.671 -0.0221  0.7661 -0.2365
  488MPD2    C3 7309   2.104   0.992  16.705  0.1120 -0.2775 -0.6543
  488MPD2    C4 7310   2.038   0.916  16.607 -0.3352  0.3472  0.6935
  488MPD2    C5 7311   2.048   0.966  16.477  0.1893  0.6514 -0.2554
  488MPD2     H 7312   2.228   1.165  16.747 -1.2700  0.5108  0.7996
  488MPD2    H1 7313   1.981   0.828  16.635 -0.9092 -0.0984 -1.8090
  488MPD2    H2 7314   2.155   1.086  16.340  2.7719  0.4071  0.6399
  488MPD2    H3 7315   1.990   0.916  16.401  0.0124 -0.3421  0.5292
  488MPD2     N 7316   2.106   0.954  16.843 -0.0335 -0.0082  0.5746
  488MPD2    H5 7317   2.175   1.006  16.896 -0.6912  0.1006  1.3184
  488MPD2    N1 7318   2.286   1.239  16.503 -0.2455  0.2849 -0.1542
  488MPD2    H7 7319   2.313   1.288  16.588  2.6625  0.6443 -1.3007
  489TMC3    C1 7320   2.046   0.881  17.053  0.3637  0.6726  0.4758
  489TMC3    C2 7321   2.149   0.963  17.100  0.4271 -0.2163  0.2434
  489TMC3    C3 7322   2.197   0.941  17.224 -0.2023 -0.5862 -0.1795
  489TMC3    C4 7323   1.991   0.782  17.128 -0.1779  0.4717  0.3369
  489TMC3    C5 7324   2.048   0.760  17.247  0.1672 -0.1068 -0.2336
  489TMC3    C6 7325   2.147   0.840  17.300 -0.2356 -1.2906 -0.4074
  489TMC3     C 7326   2.018   0.871  16.910 -0.4873  0.6226  0.0120
  489TMC3     O 7327   1.918   0.816  16.867 -0.5845 -0.1541  0.4706
  489TMC3     H 7328   2.170   1.058  17.053 -0.4393 -1.4301 -2.5705
  489TMC3    H1 7329   1.907   0.730  17.084  0.7046 -0.1432 -0.6305
  489TMC3    H2 7330   2.198   0.824  17.394  1.2155 -0.4617 -1.0583
  489TMC3    C7 7331   1.992   0.656  17.334 -0.1034  0.1564 -0.2510
  489TMC3    C8 7332   2.268   1.056  17.285 -0.2856  0.3687  0.1050
  489TMC3    O1 7333   2.016   0.651  17.453 -0.4735  0.1877  0.0481
  489TMC3    O2 7334   2.332   1.124  17.205  0.7117  0.1918  0.4007
  490MPD2     C 7335   3.747   0.182  17.403  0.0640 -0.4308 -0.0012
  490MPD2    C1 7336   3.617   0.202  17.411 -0.9126  0.8133  0.3278
  490MPD2    C2 7337   3.573   0.335  17.403  0.6143  0.4471  0.8851
  490MPD2    C3 7338   3.657   0.436  17.359  0.6626 -0.4816 -0.1827
  490MPD2    C4 7339   3.787   0.407  17.334  0.2342 -0.3389  0.0320
  490MPD2    C5 7340   3.833   0.278  17.358 -0.2462 -0.2785 -0.2884
  490MPD2     H 7341   3.469   0.361  17.418  0.1677 -0.4322 -0.6113
  490MPD2    H1 7342   3.859   0.477  17.293 -0.0112 -0.4196 -0.5343
  490MPD2    H2 7343   3.788   0.084  17.426 -1.6650 -0.6603  2.1098
  490MPD2    H3 7344   3.938   0.255  17.343 -0.5892 -1.9482 -0.1185
  490MPD2     N 7345   3.623   0.569  17.340 -0.1335  0.6567 -0.4498
  490MPD2    H5 7346   3.689   0.629  17.292  1.1043 -0.9332 -0.6966
  490MPD2    N1 7347   3.519   0.103  17.446 -0.1184 -0.0235 -0.1905
  490MPD2    H7 7348   3.426   0.138  17.469 -0.9520 -1.3859 -1.4944
  491TMC3    C1 7349   3.416   4.631  17.497 -0.2241 -0.0011 -0.4382
  491TMC3    C2 7350   3.418   4.529  17.580  0.0502  0.3972  0.0602
  491TMC3    C3 7351   3.304   4.460  17.599  0.8569 -0.2736  0.2437
  491TMC3    C4 7352   3.310   4.652  17.411 -0.5279  0.1581 -0.3696
  491TMC3    C5 7353   3.191   4.573  17.422  0.1079 -0.5645  0.2687
  491TMC3    C6 7354   3.184   4.484  17.527 -0.3160  0.3607  1.0225
  491TMC3     C 7355   3.540   4.709  17.471  0.0214 -0.0410  0.3065
  491TMC3     O 7356   3.646   4.645  17.463  0.1445  0.0175  0.6662
  491TMC3     H 7357   3.504   4.511  17.643 -1.8239  0.1358  2.5426
  491TMC3    H1 7358   3.321   4.717  17.325 -1.1418 -0.9447 -1.2867
  491TMC3    H2 7359   3.102   4.413  17.530  1.2669 -1.4500  1.4115
  491TMC3    C7 7360   3.088   4.574  17.319  0.0981 -0.5789  0.5194
  491TMC3    C8 7361   3.299   4.375  17.714 -0.6820 -0.0091 -0.0071
  491TMC3    O1 7362   2.973   4.527  17.330 -0.4089 -0.6144 -0.1126
  491TMC3    O2 7363   3.402   4.321  17.755  0.2913 -0.3793 -0.1958
  492MPD2     C 7364   3.681   4.553  11.375 -0.4855 -0.6988 -0.2758
  492MPD2    C1 7365   3.578   4.481  11.314  0.5838 -0.0243  0.2446
  492MPD2    C2 7366   3.452   4.466  11.373  0.5372 -0.6986  0.0227
  492MPD2    C3 7367   3.433   4.512  11.499 -0.1873  0.1620 -0.4689
  492MPD2    C4 7368   3.535   4.597  11.553 -0.0640  0.5728 -0.0953
  492MPD2    C5 7369   3.652   4.615  11.492 -0.1594  0.2124  0.2981
  492MPD2     H 7370   3.374   4.416  11.316  0.7276  1.3358 -2.0458
  492MPD2    H1 7371   3.516   4.638  11.652  0.5628  1.0022 -0.1522
  492MPD2    H2 7372   3.778   4.577  11.334 -1.5811 -1.4829 -3.3537
  492MPD2    H3 7373   3.732   4.672  11.539 -1.7402  1.2440  1.7492
  492MPD2     N 7374   3.312   4.505  11.567 -0.1998 -0.0725  0.5325
  492MPD2    H5 7375   3.322   4.543  11.661 -1.1723 -1.2295  1.1045
  492MPD2    N1 7376   3.624   4.424  11.198  0.7969 -0.1668  0.5492
  492MPD2    H7 7377   3.722   4.439  11.177  0.3373  2.6108  0.4537
  493TMC3    C1 7378   3.609   4.376  10.982 -0.3505 -0.1392 -0.8857
  493TMC3    C2 7379   3.661   4.498  10.968  0.1137  0.0951  0.0401
  493TMC3    C3 7380   3.630   4.558  10.847 -0.3874 -0.2336  0.6002
  493TMC3    C4 7381   3.550   4.306  10.882 -0.0301  0.2934 -0.2540
  493TMC3    C5 7382   3.545   4.360  10.756 -0.7710  0.4626  0.1772
  493TMC3    C6 7383   3.586   4.488  10.734  0.5123  0.0239  0.4124
  493TMC3     C 7384   3.544   4.354  11.108 -0.0617  0.0110  0.4392
  493TMC3     O 7385   3.436   4.297  11.116  0.7954  0.1064 -0.4325
  493TMC3     H 7386   3.696   4.570  11.041  0.2021  0.6671 -0.5544
  493TMC3    H1 7387   3.504   4.211  10.909 -2.9275  1.6956 -0.2698
  493TMC3    H2 7388   3.564   4.545  10.645  1.1774  1.3341  1.0726
  493TMC3    C7 7389   3.468   4.290  10.659  0.1397 -0.2850  0.7201
  493TMC3    C8 7390   3.591   4.695  10.867  0.1876  0.0500  0.1123
  493TMC3    O1 7391   3.419   4.360  10.573  1.0072  0.4227 -0.3965
  493TMC3    O2 7392   3.550   4.738  10.973 -0.6671  0.1213 -0.0661
  494TMC3    C1 7393   3.973   2.088   0.549  0.0807  0.6465  0.0767
  494TMC3    C2 7394   3.962   1.947   0.530 -0.0571 -0.0147  0.4757
  494TMC3    C3 7395   4.049   1.885   0.438  0.1748 -0.2265  0.4878
  494TMC3    C4 7396   4.047   2.169   0.465  0.9548 -0.2994  0.2167
  494TMC3    C5 7397   4.119   2.099   0.369 -0.0536  0.5070  0.1032
  494TMC3    C6 7398   4.132   1.962   0.361  0.0658 -0.7124 -0.0327
  494TMC3     C 7399   3.961   2.125   0.692 -0.0842 -0.7325  0.0101
  494TMC3     O 7400   3.996   2.039   0.771 -0.2127  0.1561 -0.1951
  494TMC3     H 7401   3.909   1.887   0.603 -0.9339 -0.4186 -0.4895
  494TMC3    H1 7402   4.045   2.277   0.472  0.1434 -0.6112  4.8026
  494TMC3    H2 7403   4.200   1.920   0.288  1.2875  0.3525  0.4886
  494TMC3    C7 7404   4.197   2.180   0.273  0.7835  0.1192  0.0646
  494TMC3    C8 7405   4.064   1.747   0.423  0.5888  0.0134  0.2195
  494TMC3    O1 7406   4.204   2.130   0.162  0.1889  0.2394  1.0554
  494TMC3    O2 7407   4.181   1.708   0.394  0.4740  0.3422  0.2145
  495TMC3    C1 7408   2.959   4.011  14.865  0.2076 -0.4758  0.3522
  495TMC3    C2 7409   2.888   4.035  14.747  0.9345 -0.2542  0.3331
  495TMC3    C3 7410   2.775   4.116  14.745 -0.0751  0.1059  0.1413
  495TMC3    C4 7411   2.932   4.083  14.974  0.3374 -0.1100 -0.3079
  495TMC3    C5 7412   2.818   4.161  14.974 -0.3660 -0.0976 -0.4008
  495TMC3    C6 7413   2.733   4.178  14.863  0.1515 -0.1639  0.1693
  495TMC3     C 7414   2.999   3.874  14.883 -0.0859 -0.9587  0.8298
  495TMC3     O 7415   3.062   3.813  14.801  0.3904 -0.3817 -0.2147
  495TMC3     H 7416   2.909   3.965  14.667 -1.5446 -0.0555 -0.4809
  495TMC3    H1 7417   3.000   4.065  15.056 -0.3743  1.1232  0.5402
  495TMC3    H2 7418   2.640   4.234  14.859 -0.3579 -1.0124  0.1776
  495TMC3    C7 7419   2.770   4.195  15.108  0.1016  0.3908 -0.0064
  495TMC3    C8 7420   2.665   4.070  14.660 -0.1305 -0.3795  0.2982
  495TMC3    O1 7421   2.847   4.171  15.202 -0.0451  0.1715 -0.4742
  495TMC3    O2 7422   2.561   4.048  14.710 -0.1321 -0.0382  0.2953
  496MPD2     C 7423   0.098   4.198  15.288 -0.5871  0.0118 -0.6703
  496MPD2    C1 7424   0.015   4.228  15.391  0.5267 -0.6679 -0.1448
  496MPD2    C2 7425   4.623   4.224  15.364 -0.9463  0.4506  0.0753
  496MPD2    C3 7426   4.570   4.180  15.242 -0.1378 -0.4333  0.0095
  496MPD2    C4 7427   4.651   4.159  15.134 -0.1914 -0.3075  0.1632
  496MPD2    C5 7428   0.045   4.172  15.161 -0.2272  0.3868 -0.2298
  496MPD2     H 7429   4.563   4.240  15.453 -1.7356  0.7706 -0.5249
  496MPD2    H1 7430   4.613   4.119  15.041 -0.3522 -2.4989  1.1757
  496MPD2    H2 7431   0.202   4.228  15.291 -1.0066  1.3420  0.3362
  496MPD2    H3 7432   0.113   4.165  15.077 -0.6644 -0.7333 -0.4914
  496MPD2     N 7433   4.429   4.171  15.217  0.2377 -0.2197 -0.7734
  496MPD2    H5 7434   4.397   4.146  15.124  1.2901  0.7473 -1.3969
  496MPD2    N1 7435   0.063   4.276  15.509 -0.0322 -0.6312  0.8469
  496MPD2    H7 7436   0.163   4.286  15.513  0.0028 -0.7692  0.2396
  497TMC3    C1 7437   4.211   4.171  15.255 -0.0364  0.3843  0.3403
  497TMC3    C2 7438   4.196   4.082  15.148  0.2419 -0.3398  0.2996
  497TMC3    C3 7439   4.085   4.004  15.148  0.0997 -0.7238  0.9108
  497TMC3    C4 7440   4.107   4.193  15.339  0.4624 -0.1354 -0.5557
  497TMC3    C5 7441   3.993   4.122  15.337 -0.0106 -0.7192  0.3103
  497TMC3    C6 7442   3.988   4.013  15.249  0.3349  0.3121 -0.9988
  497TMC3     C 7443   4.338   4.176  15.314 -0.5688  0.2551 -0.2413
  497TMC3     O 7444   4.351   4.203  15.435 -0.5804 -0.3737 -0.6752
  497TMC3     H 7445   4.269   4.066  15.069  0.9094  0.7600  0.6881
  497TMC3    H1 7446   4.113   4.271  15.414 -0.5791 -2.1814  1.6475
  497TMC3    H2 7447   3.911   3.937  15.249  1.7241 -1.0857  0.0335
  497TMC3    C7 7448   3.927   4.087  15.463  0.4960  0.0177 -0.6118
  497TMC3    C8 7449   4.062   3.898  15.052 -0.0744 -0.6078  0.0948
  497TMC3    O1 7450   3.816   4.035  15.457 -0.1783  0.4170  0.2886
  497TMC3    O2 7451   3.946   3.860  15.036 -0.5334 -0.8245  0.2011
  498MPD2     C 7452   1.192   0.863   9.460  0.4674  0.3155  0.5117
  498MPD2    C1 7453   1.276   0.818   9.557 -0.7264 -0.3812 -0.3068
  498MPD2    C2 7454   1.248   0.705   9.633 -0.2426 -0.0947 -1.3239
  498MPD2    C3 7455   1.131   0.636   9.596  0.0988 -0.0317  0.1517
  498MPD2    C4 7456   1.050   0.681   9.495 -0.4007 -0.4402  0.6467
  498MPD2    C5 7457   1.074   0.798   9.431  0.0617  0.4034  0.0853
  498MPD2     H 7458   1.323   0.668   9.703 -1.2399 -1.7843 -1.1473
  498MPD2    H1 7459   0.963   0.630   9.456  0.6722 -1.7887  0.0183
  498MPD2    H2 7460   1.221   0.944   9.394  0.2557 -1.2092 -1.4609
  498MPD2    H3 7461   1.016   0.832   9.346  0.0575 -1.7078 -0.7676
  498MPD2     N 7462   1.095   0.522   9.676  0.6333  0.1148  0.7506
  498MPD2    H5 7463   1.163   0.504   9.749 -0.2402 -3.0344  0.7697
  498MPD2    N1 7464   1.387   0.901   9.588 -0.2684 -0.4835  0.8884
  498MPD2    H7 7465   1.393   0.993   9.547 -0.0368 -0.7572  0.2996
  499TMC3    C1 7466   1.575   0.986   9.692 -0.1055  0.4581 -0.4108
  499TMC3    C2 7467   1.701   0.967   9.734 -0.8115 -0.4582  1.3258
  499TMC3    C3 7468   1.786   1.070   9.750  0.2844 -0.5253 -0.5958
  499TMC3    C4 7469   1.524   1.109   9.675 -0.2287 -0.0295  0.0358
  499TMC3    C5 7470   1.607   1.212   9.706  0.5686  0.9022 -0.1878
  499TMC3    C6 7471   1.738   1.198   9.746 -0.2742 -0.1354  0.0275
  499TMC3     C 7472   1.496   0.870   9.664  0.4855  0.8389 -0.0172
  499TMC3     O 7473   1.538   0.756   9.698  0.2109 -0.0792  0.3223
  499TMC3     H 7474   1.739   0.866   9.749 -0.4960 -0.8883 -2.1788
  499TMC3    H1 7475   1.421   1.129   9.650 -0.1599  0.0976 -0.1442
  499TMC3    H2 7476   1.801   1.279   9.780  0.9440 -1.0167 -0.1414
  499TMC3    C7 7477   1.549   1.343   9.721 -0.1193  0.2337 -0.1429
  499TMC3    C8 7478   1.918   1.047   9.805  0.3743 -0.0380 -0.8978
  499TMC3    O1 7479   1.627   1.434   9.725 -0.2074 -0.1970  0.1508
  499TMC3    O2 7480   1.932   0.956   9.882 -0.0337 -0.2269 -0.2506
  500MPD2     C 7481   2.693   0.793  10.381  0.0889 -0.5898 -0.5547
  500MPD2    C1 7482   2.732   0.930  10.381  0.1562 -0.2947 -0.6915
  500MPD2    C2 7483   2.643   1.030  10.354 -0.8533  0.0106 -0.3170
  500MPD2    C3 7484   2.509   0.997  10.354  0.3120 -0.3648 -0.3862
  500MPD2    C4 7485   2.469   0.865  10.368 -0.5313 -0.5092 -0.4177
  500MPD2    C5 7486   2.559   0.760  10.372 -0.3665 -0.4546 -0.0620
  500MPD2     H 7487   2.675   1.130  10.330  3.6885 -1.2221  0.6456
  500MPD2    H1 7488   2.364   0.840  10.368 -0.7201  0.2690 -0.6769
  500MPD2    H2 7489   2.760   0.708  10.385  0.9744  0.1088 -0.5946
  500MPD2    H3 7490   2.528   0.656  10.378 -5.1478  0.9665  0.3055
  500MPD2     N 7491   2.403   1.092  10.344 -0.0173 -0.7263  0.3097
  500MPD2    H5 7492   2.309   1.054  10.338 -0.0892 -0.4765 -0.1505
  500MPD2    N1 7493   2.867   0.963  10.406  0.2528 -0.2711 -0.3293
  500MPD2    H7 7494   2.887   1.061  10.388 -2.2180 -0.0918 -2.0908
  501TMC3    C1 7495   3.083   0.935  10.520  0.3941 -0.4213  0.3028
  501TMC3    C2 7496   3.099   1.069  10.527  0.0333 -0.1160 -0.3189
  501TMC3    C3 7497   3.212   1.124  10.576 -0.1852  1.0028  0.8333
  501TMC3    C4 7498   3.192   0.851  10.561 -0.3231 -0.3054  0.1969
  501TMC3    C5 7499   3.308   0.911  10.602  0.2112 -0.8480 -0.1928
  501TMC3    C6 7500   3.318   1.043  10.610  0.4519  0.7295  0.7050
  501TMC3     C 7501   2.959   0.883  10.465 -0.7156 -0.3403  0.2202
  501TMC3     O 7502   2.956   0.759  10.478  0.1072 -0.4263 -0.1681
  501TMC3     H 7503   3.009   1.129  10.521 -1.3185 -2.0090  0.8178
  501TMC3    H1 7504   3.181   0.743  10.574  0.2637 -0.2526  1.1769
  501TMC3    H2 7505   3.409   1.098  10.634 -0.0407  2.1725 -0.7697
  501TMC3    C7 7506   3.401   0.822  10.666  0.4315 -0.1386 -0.0698
  501TMC3    C8 7507   3.220   1.263  10.623 -0.6866 -0.0697  0.0285
  501TMC3    O1 7508   3.368   0.708  10.697 -0.1046 -0.0820  0.2296
  501TMC3    O2 7509   3.317   1.285  10.697  0.0092 -0.4589  0.2558
  502TMC3    C1 7510   2.297   0.262  14.895  0.2633 -1.2685  0.2586
  502TMC3    C2 7511   2.255   0.395  14.885  0.1092 -0.1385  0.3883
  502TMC3    C3 7512   2.129   0.434  14.912 -0.3861 -0.2263 -0.1712
  502TMC3    C4 7513   2.211   0.177  14.944 -0.2776  0.2081  0.0691
  502TMC3    C5 7514   2.079   0.215  14.974  0.6475  0.0931  0.2236
  502TMC3    C6 7515   2.038   0.340  14.944 -0.6551  0.0333 -0.1505
  502TMC3     C 7516   2.399   0.267  14.987  0.4518 -0.7500  0.5154
  502TMC3     O 7517   2.509   0.297  14.947  0.1589 -0.3412 -0.4945
  502TMC3     H 7518   2.336   0.465  14.868  1.9837 -2.4492 -0.1951
  502TMC3    H1 7519   2.248   0.076  14.961 -1.1509 -0.4023 -1.6419
  502TMC3    H2 7520   1.935   0.370  14.964 -0.0841  2.6170 -1.1919
  502TMC3    C7 7521   1.983   0.111  15.013 -0.0965 -0.0012  0.0431
  502TMC3    C8 7522   2.101   0.577  14.899 -0.1751  0.1095  0.1709
  502TMC3    O1 7523   2.020   4.736  14.989  0.0350 -0.0176  0.1712
  502TMC3    O2 7524   2.197   0.648  14.881 -0.5000  0.3540 -0.2165
  503MPD2     C 7525   4.015   0.974  17.686 -0.2825 -0.3768  0.0189
  503MPD2    C1 7526   4.130   0.989  17.607  0.2029  0.4400 -0.7123
  503MPD2    C2 7527   4.226   0.889  17.611  0.1138  0.7177 -0.2731
  503MPD2    C3 7528   4.203   0.764  17.672  0.0984 -0.1846 -0.4734
  503MPD2    C4 7529   4.081   0.746  17.741  0.5343  0.2277 -0.0868
  503MPD2    C5 7530   3.992   0.853  17.750  0.4983 -0.1117 -0.6246
  503MPD2     H 7531   4.327   0.907  17.574 -0.7710  0.8722 -2.5975
  503MPD2    H1 7532   4.052   0.649   0.020  0.7004 -1.0009 -2.9306
  503MPD2    H2 7533   3.934   1.044  17.702  2.0656  2.5325 -0.9297
  503MPD2    H3 7534   3.897   0.843   0.041  2.8800  0.0593  3.7045
  503MPD2     N 7535   4.303   0.665  17.665  0.1199 -1.0806 -0.1689
  503MPD2    H5 7536   4.388   0.691  17.616 -1.2470 -1.6175 -2.7985
  503MPD2    N1 7537   4.164   1.112  17.542  0.2965 -0.3705  0.2425
  503MPD2    H7 7538   4.259   1.120  17.506  0.0412 -0.4701 -0.4659
  504TMC3    C1 7539   4.407   0.450  17.708 -0.2229  0.3515 -0.4978
  504TMC3    C2 7540   4.398   0.339   0.019  0.3162 -0.1786  0.8754
  504TMC3    C3 7541   4.516   0.270   0.040  0.2893 -0.8392 -0.7412
  504TMC3    C4 7542   4.525   0.488  17.647  0.8159 -0.2469 -0.4001
  504TMC3    C5 7543   4.637   0.414  17.672 -0.1543 -0.2714 -0.1937
  504TMC3    C6 7544   4.634   0.301  17.741  0.1237  0.1410 -0.2030
  504TMC3     C 7545   4.287   0.534  17.713  0.0184  0.7872 -0.3696
  504TMC3     O 7546   4.180   0.484  17.755  0.3008  0.2863  0.1567
  504TMC3     H 7547   4.314   0.327   0.086 -2.3657  0.1220 -2.4530
  504TMC3    H1 7548   4.527   0.577  17.586 -0.0470 -0.6545 -1.0260
  504TMC3    H2 7549   4.718   0.235  17.757 -0.5585 -0.6714 -0.0215
  504TMC3    C7 7550   0.009   0.444  17.589  0.3231 -0.4808 -0.3130
  504TMC3    C8 7551   4.506   0.167   0.140 -0.0691  0.0317 -1.0867
  504TMC3    O1 7552   4.730   0.519  17.498  0.5247 -0.4384 -0.7193
  504TMC3    O2 7553   4.417   0.084   0.127 -0.2324  0.4970  0.6285
  505MPD2     C 7554   0.542   4.408  10.558 -0.0146  0.1320 -0.8326
  505MPD2    C1 7555   0.674   4.380  10.574 -0.0818 -0.6830  0.5192
  505MPD2    C2 7556   0.752   4.464  10.649 -0.3643  0.5634  0.0097
  505MPD2    C3 7557   0.698   4.572  10.712 -0.3450  0.0286  0.0977
  505MPD2    C4 7558   0.563   4.595  10.710  0.8224  0.4694 -0.6922
  505MPD2    C5 7559   0.489   4.504  10.637 -0.0736 -0.9246 -0.3784
  505MPD2     H 7560   0.853   4.438  10.678 -1.6216 -2.0497  2.0215
  505MPD2    H1 7561   0.525   4.688  10.751 -0.4029  1.0001 -3.0425
  505MPD2    H2 7562   0.479   4.346  10.496  0.6400  0.0602 -1.4231
  505MPD2    H3 7563   0.382   4.516  10.624  0.1131 -0.0520 -1.0795
  505MPD2     N 7564   0.795   4.651  10.771  0.1373  0.3238  0.4304
  505MPD2    H5 7565   0.892   4.627  10.758  0.0002 -0.5826  1.0878
  505MPD2    N1 7566   0.748   4.275  10.512 -0.2673  0.4808 -0.6070
  505MPD2    H7 7567   0.849   4.281  10.525 -0.1596  0.2715 -1.3508
  506TMC3    C1 7568   0.810   4.107  10.357  0.2793 -0.6575 -0.1341
  506TMC3    C2 7569   0.779   4.058  10.231 -0.0269 -0.0907  0.3493
  506TMC3    C3 7570   0.885   4.027  10.156  0.1163  0.1239 -0.1043
  506TMC3    C4 7571   0.936   4.100  10.415 -0.2493  0.0455  0.0691
  506TMC3    C5 7572   1.042   4.074  10.335 -0.8277 -0.0973  1.1371
  506TMC3    C6 7573   1.014   4.040  10.204  0.7118  0.6885  0.6662
  506TMC3     C 7574   0.702   4.181  10.426 -0.2335 -0.0612  0.4050
  506TMC3     O 7575   0.589   4.185  10.374  0.2573 -0.1230 -0.2419
  506TMC3     H 7576   0.685   4.085  10.186  0.5901  2.2088  0.4295
  506TMC3    H1 7577   0.942   4.106  10.523 -2.3228  0.6268  0.1559
  506TMC3    H2 7578   1.103   4.017  10.145  0.7963 -0.3462  1.1930
  506TMC3    C7 7579   1.167   4.139  10.370  0.2881  0.1574 -0.6016
  506TMC3    C8 7580   0.872   4.080  10.021 -0.0445 -0.5388  0.0855
  506TMC3    O1 7581   1.256   4.130  10.288  0.6983 -0.8423 -0.1867
  506TMC3    O2 7582   0.806   4.001   9.948  0.5189  0.2429  0.2919
  507TMC3    C1 7583   0.772   0.374  15.010  0.2357  0.0428 -0.3182
  507TMC3    C2 7584   0.879   0.454  14.989  0.0866 -0.6628 -0.1108
  507TMC3    C3 7585   0.910   0.550  15.081 -0.2363 -0.0447 -1.1499
  507TMC3    C4 7586   0.713   0.365  15.130  1.3234  0.1880 -0.0293
  507TMC3    C5 7587   0.747   0.458  15.225  1.0667  0.3550  0.1092
  507TMC3    C6 7588   0.847   0.551  15.206 -0.3176  0.1183 -0.8665
  507TMC3     C 7589   0.666   0.396  14.900  0.0257  0.5106  0.6057
  507TMC3     O 7590   0.546   0.355  14.907 -0.1388  0.4302  0.1880
  507TMC3     H 7591   0.931   0.443  14.894 -0.8883  1.9600 -0.9321
  507TMC3    H1 7592   0.620   0.310  15.135  0.3328  1.7914 -0.5949
  507TMC3    H2 7593   0.863   0.642  15.263 -0.7414  0.0318 -0.6056
  507TMC3    C7 7594   0.636   0.538  15.270  0.4727  0.2173  0.8613
  507TMC3    C8 7595   0.910   0.678  15.018  0.6574  0.3670 -0.4702
  507TMC3    O1 7596   0.649   0.657  15.285 -0.1018 -0.1876  0.3621
  507TMC3    O2 7597   0.953   0.685  14.900  0.1206  0.1263  0.7773
  508MPD2     C 7598   1.258   3.236  16.381 -0.6554 -0.5591  0.3278
  508MPD2    C1 7599   1.396   3.271  16.380  0.3855 -0.5502 -0.0858
  508MPD2    C2 7600   1.459   3.243  16.261 -0.6193  0.3682  0.0840
  508MPD2    C3 7601   1.395   3.196  16.147  0.7747 -0.1486  0.5932
  508MPD2    C4 7602   1.264   3.178  16.145  0.6778  0.1928 -0.0209
  508MPD2    C5 7603   1.196   3.195  16.266  0.3645  0.6506  0.0917
  508MPD2     H 7604   1.566   3.259  16.257 -0.7294  1.0142 -0.3931
  508MPD2    H1 7605   1.207   3.129  16.067  1.4497  1.4807 -1.4042
  508MPD2    H2 7606   1.207   3.239  16.476 -0.1372  1.3652  0.5544
  508MPD2    H3 7607   1.090   3.169  16.268 -0.0163  2.3214  2.2205
  508MPD2     N 7608   1.480   3.182  16.033 -0.6409 -0.4955 -0.3251
  508MPD2    H5 7609   1.579   3.190  16.056 -0.8252  1.7699 -0.2623
  508MPD2    N1 7610   1.449   3.309  16.506  0.5395  0.1827 -0.8206
  508MPD2    H7 7611   1.390   3.302  16.588  0.6714  1.3721 -0.6239
  509TMC3    C1 7612   1.622   3.122  15.582  0.1405 -0.4168 -0.8342
  509TMC3    C2 7613   1.724   3.210  15.593 -0.1031  0.0154 -0.5819
  509TMC3    C3 7614   1.741   3.276  15.714  0.3299  0.2837 -0.7939
  509TMC3    C4 7615   1.541   3.105  15.688  1.0290 -0.8058 -0.1586
  509TMC3    C5 7616   1.562   3.164  15.811  0.2792 -0.0882 -0.3623
  509TMC3    C6 7617   1.664   3.258  15.828  0.3971 -0.4385 -0.3539
  509TMC3     C 7618   1.546   3.131  15.466  0.4066 -0.2958  0.0481
  509TMC3     O 7619   1.537   3.031  15.396  0.2381  0.0471  0.2927
  509TMC3     H 7620   1.771   3.242  15.501 -1.3302  0.8631 -0.9042
  509TMC3    H1 7621   1.459   3.035  15.672  1.4306 -0.5342 -3.2303
  509TMC3    H2 7622   1.676   3.310  15.922  0.2219  0.3433 -0.7632
  509TMC3    C7 7623   1.451   3.153  15.902 -0.7006 -0.7569 -0.1485
  509TMC3    C8 7624   1.864   3.345  15.709 -0.1635  0.1734  0.2987
  509TMC3    O1 7625   1.349   3.105  15.860 -0.7515  0.1741 -0.1713
  509TMC3    O2 7626   1.943   3.292  15.631 -0.0580 -0.4733 -0.1341
  510MPD2     C 7627   3.678   4.569  14.809  0.0919 -0.3863 -0.4775
  510MPD2    C1 7628   3.755   4.462  14.851  0.0557 -0.3604  0.3186
  510MPD2    C2 7629   3.881   4.455  14.800 -0.2681  0.2664  0.1512
  510MPD2    C3 7630   3.929   4.555  14.717 -0.4075  0.0009  0.4144
  510MPD2    C4 7631   3.853   4.647  14.667 -0.2237 -0.6324 -0.9520
  510MPD2    C5 7632   3.720   4.654  14.716  0.2806  0.3305  0.2295
  510MPD2     H 7633   3.945   4.372  14.826 -0.8386 -0.3339 -0.3505
  510MPD2    H1 7634   3.888   4.724  14.599  0.7498  0.1381  0.4375
  510MPD2    H2 7635   3.573   4.573  14.835  0.3680  0.0805  0.5423
  510MPD2    H3 7636   3.658   4.732  14.672  1.1053  1.5106  1.1743
  510MPD2     N 7637   4.063   4.544  14.684 -0.3654  0.2637  0.3574
  510MPD2    H5 7638   4.114   4.476  14.739 -0.5470  0.1625  0.4009
  510MPD2    N1 7639   3.707   4.369  14.952 -0.3830 -0.0184  0.0950
  510MPD2    H7 7640   3.613   4.382  14.987  0.1991  1.8614  1.0142
  511TMC3    C1 7641   3.688   4.178  15.092 -0.1768 -0.4458 -0.7597
  511TMC3    C2 7642   3.618   4.242  15.192  1.0127 -0.8854 -0.4240
  511TMC3    C3 7643   3.569   4.152  15.277  0.1407 -0.2440 -0.2343
  511TMC3    C4 7644   3.692   4.040  15.069 -0.1040  0.4088 -0.0249
  511TMC3    C5 7645   3.621   3.960  15.149 -0.9109  0.8574  0.5922
  511TMC3    C6 7646   3.568   4.015  15.260  0.3906 -0.0369 -0.1394
  511TMC3     C 7647   3.770   4.256  15.004  0.5406 -0.0908  0.4031
  511TMC3     O 7648   3.875   4.203  14.972  0.1703  0.2102  0.6752
  511TMC3     H 7649   3.629   4.348  15.212 -1.1035 -0.2636 -2.6382
  511TMC3    H1 7650   3.757   4.013  14.987 -0.2627 -0.3156  0.0960
  511TMC3    H2 7651   3.518   3.953  15.334 -0.4212  0.2637 -0.4380
  511TMC3    C7 7652   3.615   3.821  15.141  0.0403 -0.0791 -0.5665
  511TMC3    C8 7653   3.526   4.202  15.405  0.4843  0.0021  0.2745
  511TMC3    O1 7654   3.599   3.757  15.243 -0.4352 -0.3279 -0.8567
  511TMC3    O2 7655   3.491   4.322  15.401 -0.5698 -0.3142  0.2666
  512TMC3    C1 7656   2.706   3.760  12.951 -0.2899 -0.3406 -0.8745
  512TMC3    C2 7657   2.826   3.752  13.017 -0.0400 -0.1060  0.1944
  512TMC3    C3 7658   2.882   3.636  13.046 -0.2114 -0.4322 -0.7194
  512TMC3    C4 7659   2.644   3.649  12.909 -0.4176 -1.0661 -0.1576
  512TMC3    C5 7660   2.710   3.531  12.927  0.4741  0.0247  0.1344
  512TMC3    C6 7661   2.831   3.522  12.994  0.2682  0.4114  0.3538
  512TMC3     C 7662   2.625   3.883  12.961 -0.3305 -0.1024  0.0647
  512TMC3     O 7663   2.675   3.971  13.032 -0.3196 -0.0924 -0.3643
  512TMC3     H 7664   2.868   3.848  13.044  2.9157 -0.7452 -2.0911
  512TMC3    H1 7665   2.540   3.646  12.879  0.2646  0.4298 -2.6581
  512TMC3    H2 7666   2.874   3.424  13.006  2.2029  0.9912 -1.9763
  512TMC3    C7 7667   2.666   3.417  12.846  0.1959  0.2327  0.9959
  512TMC3    C8 7668   2.989   3.623  13.141 -0.0753  0.2405 -0.3248
  512TMC3    O1 7669   2.598   3.452  12.753  0.3421 -0.0151  0.3441
  512TMC3    O2 7670   2.989   3.506  13.180 -0.3213 -0.2403 -0.1617
  513MPD2     C 7671   4.715   3.660  13.267  0.2289 -0.2130 -0.9292
  513MPD2    C1 7672   0.110   3.652  13.256  0.0556  0.1581 -0.5380
  513MPD2    C2 7673   0.187   3.737  13.334  0.2540  0.4269  0.2256
  513MPD2    C3 7674   0.129   3.833  13.410 -0.4401 -0.0388  0.2003
  513MPD2    C4 7675   4.737   3.837  13.426 -0.2924  0.1163  0.1468
  513MPD2    C5 7676   4.661   3.754  13.353 -0.2017 -0.0244 -0.9471
  513MPD2     H 7677   0.295   3.728  13.336  0.5424  3.9849  0.0071
  513MPD2    H1 7678   4.687   3.915  13.484 -1.1989 -0.5721  0.2989
  513MPD2    H2 7679   4.648   3.600  13.206 -0.3029 -2.0477  1.4516
  513MPD2    H3 7680   4.552   3.760  13.357 -0.1999 -0.7695  0.0063
  513MPD2     N 7681   0.217   3.920  13.477  0.1505 -0.2634  0.0444
  513MPD2    H5 7682   0.314   3.909  13.450  0.1597  2.5383 -1.0499
  513MPD2    N1 7683   0.176   3.555  13.180  0.3302 -0.0955  0.2198
  513MPD2    H7 7684   0.273   3.546  13.205 -0.2260 -1.0074  2.0341
  514TMC3    C1 7685   0.248   3.400  13.024 -0.1927 -0.4502 -0.0762
  514TMC3    C2 7686   0.277   3.437  12.900  0.1183  0.3996 -0.5190
  514TMC3    C3 7687   0.397   3.490  12.871  0.5679 -0.1664 -1.0886
  514TMC3    C4 7688   0.350   3.392  13.113 -0.2028  0.8442 -0.4679
  514TMC3    C5 7689   0.477   3.442  13.084 -0.0535 -0.2813 -0.4142
  514TMC3    C6 7690   0.501   3.493  12.960  0.1863 -0.6398 -0.5151
  514TMC3     C 7691   0.131   3.472  13.078 -0.0131  1.3547 -0.3939
  514TMC3     O 7692   0.028   3.484  13.011  0.3673  0.4756  0.5139
  514TMC3     H 7693   0.198   3.435  12.825  0.4039 -0.3112 -0.8046
  514TMC3    H1 7694   0.322   3.362  13.213 -0.4553 -0.9268 -1.0824
  514TMC3    H2 7695   0.598   3.542  12.950 -0.6523  1.3318  1.0279
  514TMC3    C7 7696   0.536   3.516  13.195  0.0669 -0.5781 -0.0617
  514TMC3    C8 7697   0.426   3.517  12.736 -0.0706  0.0888 -0.2084
  514TMC3    O1 7698   0.464   3.564  13.283 -0.6264 -0.4707 -0.2478
  514TMC3    O2 7699   0.333   3.519  12.657 -0.4348  0.3443 -0.0254
  515MPD2     C 7700   3.301   1.091  14.660  0.5064 -0.0101 -0.2224
  515MPD2    C1 7701   3.199   1.033  14.740 -0.0281  0.3424 -0.0347
  515MPD2    C2 7702   3.173   1.081  14.867  0.3637  0.0723 -0.4929
  515MPD2    C3 7703   3.259   1.166  14.926  0.2861  0.1688  0.1202
  515MPD2    C4 7704   3.363   1.220  14.851 -0.3841 -1.3142  0.2148
  515MPD2    C5 7705   3.387   1.174  14.721 -0.3700  0.3703 -0.5945
  515MPD2     H 7706   3.093   1.035  14.924 -0.9813 -2.2204 -4.2205
  515MPD2    H1 7707   3.441   1.279  14.899 -0.6865  0.8215 -1.8670
  515MPD2    H2 7708   3.327   1.052  14.563 -0.8290  0.8319 -0.9231
  515MPD2    H3 7709   3.477   1.190  14.662 -0.6440  0.7649 -0.9054
  515MPD2     N 7710   3.240   1.208  15.058 -0.3185 -0.4335 -0.0292
  515MPD2    H5 7711   3.292   1.288  15.095 -1.1246 -0.9252  2.1934
  515MPD2    N1 7712   3.115   0.933  14.683  0.1106  0.7456  0.5869
  515MPD2    H7 7713   3.040   0.903  14.744 -0.8500  0.7363 -0.6148
  516TMC3    C1 7714   2.988   0.819  14.528 -0.1337  0.8859 -0.2133
  516TMC3    C2 7715   2.923   0.840  14.410  0.3548 -0.2521 -0.2364
  516TMC3    C3 7716   2.856   0.732  14.359 -0.6710  0.4642 -0.3483
  516TMC3    C4 7717   2.983   0.705  14.603 -0.2085 -0.0775  0.3278
  516TMC3    C5 7718   2.925   0.602  14.538 -0.5364 -0.4852  0.0310
  516TMC3    C6 7719   2.868   0.612  14.413  0.0500 -0.2861  0.2782
  516TMC3     C 7720   3.108   0.896  14.553  0.5804  0.6416 -0.5603
  516TMC3     O 7721   3.159   0.947  14.454 -0.4466 -0.2119  0.3859
  516TMC3     H 7722   2.925   0.939  14.367 -0.1464 -0.5060 -0.8529
  516TMC3    H1 7723   3.037   0.703  14.697 -0.6175  1.7784  0.6001
  516TMC3    H2 7724   2.817   0.531  14.361  0.1404 -0.7035  0.8411
  516TMC3    C7 7725   2.896   0.480  14.607 -0.7234  0.1375  0.3668
  516TMC3    C8 7726   2.743   0.750  14.275 -0.0172  0.6156 -0.8178
  516TMC3    O1 7727   2.851   0.496  14.720 -0.1628  0.6185  0.1017
  516TMC3    O2 7728   2.648   0.675  14.281 -0.2431 -0.1698 -0.9847
  517MPD2     C 7729   3.074   2.797  17.749 -0.4466 -0.8934  0.0071
  517MPD2    C1 7730   2.988   2.711   0.060  0.2268 -0.5531 -0.1904
  517MPD2    C2 7731   2.913   2.783   0.153 -0.6907  0.4665  0.4281
  517MPD2    C3 7732   2.915   2.924   0.174 -0.3717  0.1243 -0.6728
  517MPD2    C4 7733   3.007   2.996   0.107  0.4422  0.3722  0.5504
  517MPD2    C5 7734   3.087   2.935   0.013  0.1736 -0.4756 -0.3941
  517MPD2     H 7735   2.851   2.725   0.220 -1.0248  1.1084  0.6716
  517MPD2    H1 7736   3.028   3.099   0.133  2.1559 -0.0271  0.6960
  517MPD2    H2 7737   3.145   2.760  17.676 -0.6546  0.4074 -0.8510
  517MPD2    H3 7738   3.170   2.990  17.732  0.5746 -1.1829 -0.5163
  517MPD2     N 7739   2.840   2.992   0.277 -0.3552  1.1641 -0.0123
  517MPD2    H5 7740   2.868   3.086   0.303 -1.7354  0.7407  3.0481
  517MPD2    N1 7741   2.983   2.570   0.054 -0.3918 -0.5383 -0.5724
  517MPD2    H7 7742   2.915   2.517   0.108  0.8645 -1.5009  0.0681
  518TMC3    C1 7743   3.061   2.353  17.728  0.1223  0.1940 -0.1326
  518TMC3    C2 7744   2.987   2.282   0.060 -0.0229 -0.6036 -0.0888
  518TMC3    C3 7745   3.007   2.147   0.064  0.0469  0.6973  0.5616
  518TMC3    C4 7746   3.152   2.292  17.649  0.1265  0.3694 -0.9150
  518TMC3    C5 7747   3.184   2.162  17.671 -0.8773 -0.5342 -0.6589
  518TMC3    C6 7748   3.105   2.084  17.755 -0.1130  0.7124  0.8155
  518TMC3     C 7749   3.064   2.500  17.727 -0.3717 -0.0324 -0.0310
  518TMC3     O 7750   3.111   2.553  17.629 -0.0800 -0.0075 -0.2057
  518TMC3     H 7751   2.913   2.324   0.127  0.0874  0.3863 -0.5819
  518TMC3    H1 7752   3.216   2.345  17.581  1.4366  0.9093  0.7402
  518TMC3    H2 7753   3.136   1.984   0.019  0.6098  0.1425 -2.3732
  518TMC3    C7 7754   3.317   2.120  17.624 -0.7296  0.0309  0.7685
  518TMC3    C8 7755   2.902   2.062   0.109  0.5846 -0.2399  0.0708
  518TMC3    O1 7756   3.400   2.206  17.589  0.4748 -0.9288  0.5854
  518TMC3    O2 7757   2.822   2.121   0.181 -0.6740  0.3963  0.3276
  519MPD2     C 7758   4.311   0.499  14.627  0.0613 -0.3004  0.7100
  519MPD2    C1 7759   4.280   0.531  14.502  0.0153 -0.4190  0.0581
  519MPD2    C2 7760   4.348   0.470  14.400 -0.1864  0.2854 -1.0856
  519MPD2    C3 7761   4.458   0.387  14.423 -0.0491  0.8862  0.2958
  519MPD2    C4 7762   4.499   0.374  14.557  0.8513  0.1211 -0.7550
  519MPD2    C5 7763   4.419   0.421  14.657  0.1722 -0.2563  0.6491
  519MPD2     H 7764   4.320   0.500  14.300 -4.2571 -0.3464 -0.1388
  519MPD2    H1 7765   4.577   0.306  14.590  1.1212  0.4023 -0.8082
  519MPD2    H2 7766   4.246   0.537  14.706 -1.2165 -2.0400  0.5142
  519MPD2    H3 7767   4.431   0.397  14.762  1.5231  0.0122  0.5538
  519MPD2     N 7768   4.533   0.333  14.315  0.2925  0.1264  0.2057
  519MPD2    H5 7769   4.625   0.302  14.343  0.2967 -0.1945 -0.1617
  519MPD2    N1 7770   4.172   0.622  14.475 -0.3870  0.0145 -0.0228
  519MPD2    H7 7771   4.118   0.649  14.557  1.3839 -3.0941  2.1548
  520TMC3    C1 7772   4.604   0.294  14.098  0.0647 -0.0517 -0.2926
  520TMC3    C2 7773   4.566   0.249  13.964 -0.1714  0.3048  0.3475
  520TMC3    C3 7774   4.660   0.252  13.864 -0.7252 -0.4797  0.0525
  520TMC3    C4 7775   4.730   0.336  14.123  0.2067  0.9171 -0.3742
  520TMC3    C5 7776   0.080   0.329  14.023 -0.2597 -0.2359  0.0738
  520TMC3    C6 7777   0.052   0.290  13.893  0.2726 -0.2609  0.5468
  520TMC3     C 7778   4.496   0.323  14.187  0.0953  0.5134  0.1900
  520TMC3     O 7779   4.384   0.332  14.136  0.1161  0.5917 -0.0249
  520TMC3     H 7780   4.466   0.211  13.948 -0.1993  0.2077  0.7656
  520TMC3    H1 7781   0.025   0.376  14.218 -1.6739 -1.9381  1.5212
  520TMC3    H2 7782   0.127   0.323  13.823 -0.8522  1.6564  0.2529
  520TMC3    C7 7783   0.217   0.359  14.056 -0.5346 -0.2906 -0.0976
  520TMC3    C8 7784   4.621   0.249  13.725  0.3908  0.6634  0.5412
  520TMC3    O1 7785   0.280   0.443  13.991 -0.2551 -0.8651  0.3889
  520TMC3    O2 7786   4.711   0.235  13.640  0.0871 -0.0257 -0.2412
  521MPD2     C 7787   0.117   3.084  17.561 -0.8162 -0.6054  0.0825
  521MPD2    C1 7788   0.144   3.221  17.542  0.3397 -0.4389 -0.5826
  521MPD2    C2 7789   0.269   3.264  17.539 -0.2129 -0.6562  0.1273
  521MPD2    C3 7790   0.371   3.175  17.536  0.0374  0.0938 -0.5517
  521MPD2    C4 7791   0.347   3.040  17.555  0.1214  0.9555 -0.0795
  521MPD2    C5 7792   0.218   3.002  17.580 -0.2005 -0.5089 -0.4575
  521MPD2     H 7793   0.301   3.366  17.522 -1.0254 -0.6470 -1.2708
  521MPD2    H1 7794   0.425   2.966  17.564 -0.7929 -0.0324 -0.2161
  521MPD2    H2 7795   0.017   3.042  17.566 -1.5283  0.8506 -1.8307
  521MPD2    H3 7796   0.208   2.895  17.593  0.3171 -0.5045 -0.0097
  521MPD2     N 7797   0.499   3.233  17.501 -0.0855 -0.1817  0.0570
  521MPD2    H5 7798   0.508   3.334  17.489 -2.8485 -0.0797 -1.0376
  521MPD2    N1 7799   0.030   3.300  17.515 -0.4283 -0.0859 -0.0581
  521MPD2    H7 7800   4.682   3.252  17.515 -0.9859  0.9568  1.0543
  522TMC3    C1 7801   0.739   3.242  17.455  0.0155 -0.5021 -0.0101
  522TMC3    C2 7802   0.864   3.202  17.495 -0.0945 -0.3284  0.0833
  522TMC3    C3 7803   0.966   3.273  17.443  0.0866 -0.0806  0.1426
  522TMC3    C4 7804   0.720   3.342  17.364  0.0577  0.2573  0.2554
  522TMC3    C5 7805   0.830   3.412  17.314 -0.1919  0.4621 -0.1371
  522TMC3    C6 7806   0.954   3.375  17.353  0.1695 -0.5304 -0.2026
  522TMC3     C 7807   0.622   3.167  17.508 -0.8584  0.4252  0.5882
  522TMC3     O 7808   0.653   3.065  17.563 -0.0787  0.5449 -0.4374
  522TMC3     H 7809   0.870   3.124  17.570  2.4048 -0.3206 -0.1099
  522TMC3    H1 7810   0.622   3.353  17.318 -0.2447 -3.2382  0.0962
  522TMC3    H2 7811   1.023   3.458  17.341  1.4646 -1.6314 -0.4823
  522TMC3    C7 7812   0.814   3.516  17.225 -0.3358 -0.1431 -0.1898
  522TMC3    C8 7813   1.095   3.212  17.463 -0.8390 -0.0632  0.2187
  522TMC3    O1 7814   0.903   3.598  17.208 -0.1302  0.3427  0.0107
  522TMC3    O2 7815   1.111   3.143  17.561 -0.7541  0.5466 -0.0427
  523MPD2     C 7816   3.407   2.804  10.521  0.1057  0.4507 -0.7807
  523MPD2    C1 7817   3.311   2.719  10.464  0.2979 -0.2021 -0.3086
  523MPD2    C2 7818   3.206   2.770  10.393  0.6796 -0.0642 -0.1932
  523MPD2    C3 7819   3.212   2.906  10.358 -0.0693 -0.4374 -0.2451
  523MPD2    C4 7820   3.303   2.983  10.421 -0.5558  0.5682 -0.1827
  523MPD2    C5 7821   3.407   2.935  10.496  0.0447 -0.7654 -0.2568
  523MPD2     H 7822   3.126   2.716  10.343  0.2070 -1.1082  1.7138
  523MPD2    H1 7823   3.298   3.089  10.399  1.1310  1.1041  2.0393
  523MPD2    H2 7824   3.485   2.753  10.577 -1.0750 -0.1523  0.3283
  523MPD2    H3 7825   3.476   3.009  10.535 -1.7134 -0.9302  3.1405
  523MPD2     N 7826   3.116   2.970  10.276 -0.5830 -0.0133  0.0893
  523MPD2    H5 7827   3.112   3.070  10.289  2.3652  0.4430 -2.5921
  523MPD2    N1 7828   3.321   2.581  10.496 -0.2690  0.0830 -0.2095
  523MPD2    H7 7829   3.393   2.561  10.564 -0.7639 -0.3898  0.1782
  524TMC3    C1 7830   2.930   2.987  10.128 -0.2980  0.4429 -0.1758
  524TMC3    C2 7831   2.895   2.965   9.997  0.6568 -0.3933 -0.2634
  524TMC3    C3 7832   2.808   3.054   9.943 -0.1698  0.4870 -0.1640
  524TMC3    C4 7833   2.885   3.093  10.204  0.5385  0.2137  0.8443
  524TMC3    C5 7834   2.791   3.181  10.144  0.0734  0.2708  0.1937
  524TMC3    C6 7835   2.752   3.160  10.013 -0.0364 -0.4767 -0.6769
  524TMC3     C 7836   3.032   2.904  10.182  0.0005  0.3664  1.2989
  524TMC3     O 7837   3.036   2.788  10.146  0.0011 -0.9469  0.7949
  524TMC3     H 7838   2.959   2.899   9.940  0.3979 -0.9220  0.0667
  524TMC3    H1 7839   2.912   3.094  10.309 -0.9912 -1.7099  1.2652
  524TMC3    H2 7840   2.678   3.223   9.965 -1.0575 -0.4053  0.9985
  524TMC3    C7 7841   2.697   3.253  10.232  0.0305  0.0430  0.5766
  524TMC3    C8 7842   2.791   3.062   9.797  0.0629 -0.2196  0.0350
  524TMC3    O1 7843   2.682   3.216  10.345  0.0143 -0.8136 -0.2596
  524TMC3    O2 7844   2.724   3.151   9.749  0.4156 -0.1145  0.1505
  525MPD2     C 7845   1.101   4.641  14.647  0.4185  0.0593 -0.0670
  525MPD2    C1 7846   1.225   4.649  14.707 -0.4384 -0.4343 -0.4323
  525MPD2    C2 7847   1.330   4.728  14.658  0.2689 -0.2094  0.5609
  525MPD2    C3 7848   1.293   0.068  14.554  0.4334 -0.0334 -0.6484
  525MPD2    C4 7849   1.169   0.053  14.494  0.4316  1.1446  0.2612
  525MPD2    C5 7850   1.078   4.703  14.526  0.4008 -0.3405 -0.6019
  525MPD2     H 7851   1.419   0.003  14.717  0.2257  0.5284  0.4233
  525MPD2    H1 7852   1.140   0.114  14.409  0.3531  0.9530  0.1475
  525MPD2    H2 7853   1.026   4.572  14.686 -0.1756  1.4808  1.2835
  525MPD2    H3 7854   0.986   4.695  14.469 -0.2455 -0.8198  0.5028
  525MPD2     N 7855   1.372   0.175  14.492 -0.4062 -0.0544  0.4129
  525MPD2    H5 7856   1.323   0.230  14.423 -0.8142  1.1370  1.6462
  525MPD2    N1 7857   1.252   4.573  14.825  0.9534 -0.6634 -0.1428
  525MPD2    H7 7858   1.347   4.559  14.855  1.4839  4.2801  0.5586
  526TMC3    C1 7859   1.219   4.481  15.036 -0.6253  0.2467 -0.3365
  526TMC3    C2 7860   1.150   4.498  15.159 -0.1579 -0.4154 -0.3040
  526TMC3    C3 7861   1.190   4.425  15.268 -0.6721  0.2174  0.0357
  526TMC3    C4 7862   1.324   4.399  15.028 -0.1364 -0.9513 -0.0074
  526TMC3    C5 7863   1.372   4.336  15.143  0.6361 -0.1154  1.3055
  526TMC3    C6 7864   1.305   4.357  15.260 -0.4884  0.0661  0.0954
  526TMC3     C 7865   1.157   4.536  14.914  0.1369 -0.5416 -0.3122
  526TMC3     O 7866   1.039   4.580  14.924  0.4989 -0.4612 -0.0252
  526TMC3     H 7867   1.065   4.565  15.165  0.3948  0.3723 -1.4713
  526TMC3    H1 7868   1.360   4.363  14.933  2.9168  1.6021  0.1963
  526TMC3    H2 7869   1.340   4.303  15.348 -1.7505 -1.4069 -0.3031
  526TMC3    C7 7870   1.425   4.199  15.128  0.2370  0.3456 -0.3771
  526TMC3    C8 7871   1.138   4.463  15.402  0.1257 -0.6499 -0.8796
  526TMC3    O1 7872   1.412   4.127  15.223  0.2383  0.1805 -0.3712
  526TMC3    O2 7873   1.209   4.445  15.497  0.1707 -0.1890 -0.3077
  527MPD2     C 7874   0.049   3.206   1.669 -0.3075  0.0621  0.0806
  527MPD2    C1 7875   4.698   3.177   1.570 -0.2477  0.4113  0.6676
  527MPD2    C2 7876   0.000   3.087   1.472  0.3110 -0.0544 -0.6868
  527MPD2    C3 7877   0.136   3.046   1.474  0.3581  0.4487  0.3345
  527MPD2    C4 7878   0.219   3.082   1.575  0.1541 -0.2369  0.4645
  527MPD2    C5 7879   0.174   3.154   1.682 -0.2213 -0.4439  0.4315
  527MPD2     H 7880   4.674   3.070   1.389 -0.9962  2.5891 -0.1889
  527MPD2    H1 7881   0.317   3.039   1.594  0.4576 -0.9296 -2.7608
  527MPD2    H2 7882   0.036   3.285   1.741  2.5733  1.1940 -0.6322
  527MPD2    H3 7883   0.243   3.172   1.763  0.3699  0.3864 -0.2575
  527MPD2     N 7884   0.168   2.952   1.374 -0.4222 -0.0636  0.6321
  527MPD2    H5 7885   0.095   2.936   1.305  0.2418 -0.2169 -0.0228
  527MPD2    N1 7886   4.569   3.228   1.551 -0.6242 -0.7518 -0.0551
  527MPD2    H7 7887   4.518   3.193   1.471 -0.3646 -0.5088 -0.3254
  528TMC3    C1 7888   4.361   3.327   1.623 -0.2022 -0.3233  0.7923
  528TMC3    C2 7889   4.311   3.322   1.500 -0.4935  0.0668  0.0405
  528TMC3    C3 7890   4.187   3.351   1.478 -0.1580  0.1353  0.1634
  528TMC3    C4 7891   4.282   3.371   1.730  0.1866  0.0658  0.4746
  528TMC3    C5 7892   4.149   3.404   1.711 -0.0153  0.7178 -1.1936
  528TMC3    C6 7893   4.097   3.379   1.582 -0.5298 -0.4530 -0.5350
  528TMC3     C 7894   4.505   3.297   1.655 -0.3138 -0.0447  0.2308
  528TMC3     O 7895   4.548   3.333   1.764  0.4412 -0.7686  0.5246
  528TMC3     H 7896   4.377   3.300   1.416 -1.1780 -1.9960  0.0486
  528TMC3    H1 7897   4.328   3.379   1.828 -1.0349  2.0252  0.8873
  528TMC3    H2 7898   3.993   3.400   1.563 -0.1939 -0.8093 -2.7301
  528TMC3    C7 7899   4.056   3.447   1.812  0.2040 -0.7231  0.3991
  528TMC3    C8 7900   4.141   3.361   1.341 -0.2247 -0.0549  0.2479
  528TMC3    O1 7901   3.942   3.426   1.784  0.9038  0.2084  0.2138
  528TMC3    O2 7902   4.218   3.369   1.247  0.2770 -0.3789  0.4049
  529MPD2     C 7903   1.354   1.441   0.975 -0.0801 -1.4690  0.1739
  529MPD2    C1 7904   1.447   1.381   0.895 -0.7120 -0.0486  0.0662
  529MPD2    C2 7905   1.452   1.414   0.756 -0.0433  0.9224  0.2452
  529MPD2    C3 7906   1.353   1.487   0.695  0.6557  0.5334 -0.0109
  529MPD2    C4 7907   1.256   1.533   0.784 -0.4714  0.4739  0.5572
  529MPD2    C5 7908   1.261   1.520   0.919  0.5152  0.0243  0.3996
  529MPD2     H 7909   1.531   1.368   0.698 -1.1897 -1.6557  0.7323
  529MPD2    H1 7910   1.179   1.601   0.746  1.0523  2.1982  0.5357
  529MPD2    H2 7911   1.347   1.421   1.081  1.5468  1.2794  0.7797
  529MPD2    H3 7912   1.181   1.565   0.977 -0.1916 -0.0165 -0.5475
  529MPD2     N 7913   1.357   1.518   0.555 -0.3872 -0.4434  1.0622
  529MPD2    H5 7914   1.422   1.460   0.503 -1.9588 -0.1372 -1.2649
  529MPD2    N1 7915   1.528   1.272   0.941 -0.7653  0.8130  0.5509
  529MPD2    H7 7916   1.582   1.222   0.872 -1.8015 -0.6919  0.8117
  530TMC3    C1 7917   1.646   1.140   1.088  0.3776 -0.0523 -0.2663
  530TMC3    C2 7918   1.703   1.147   1.208  0.5939 -0.2784  0.1268
  530TMC3    C3 7919   1.775   1.042   1.252  0.3816  0.7141  0.9404
  530TMC3    C4 7920   1.634   1.018   1.020 -0.4003  0.2535  0.2817
  530TMC3    C5 7921   1.691   0.913   1.084  0.8983 -0.4080  0.0033
  530TMC3    C6 7922   1.784   0.923   1.189 -0.3730 -0.0081 -0.3472
  530TMC3     C 7923   1.537   1.230   1.071 -0.4720  0.3698 -0.3761
  530TMC3     O 7924   1.488   1.282   1.173 -0.0899  0.0690 -0.2189
  530TMC3     H 7925   1.682   1.236   1.267 -0.5813 -1.4672  1.4993
  530TMC3    H1 7926   1.571   1.013   0.932  0.9016  0.6230 -0.6654
  530TMC3    H2 7927   1.823   0.833   1.237 -0.3171 -0.8123 -1.8851
  530TMC3    C7 7928   1.662   0.783   1.032  0.3590  0.1848 -1.0252
  530TMC3    C8 7929   1.870   1.073   1.357  0.2525  0.1528  0.0061
  530TMC3    O1 7930   1.629   0.780   0.914  0.1570 -1.5021 -0.1258
  530TMC3    O2 7931   1.837   1.151   1.445 -0.0401  0.2576 -0.6921
  531MPD2     C 7932   0.880   3.845  13.398 -0.6326  0.3458  0.6555
  531MPD2    C1 7933   0.746   3.860  13.384  0.6760  0.2438  0.5954
  531MPD2    C2 7934   0.680   3.763  13.309  0.3488 -0.6481 -0.0945
  531MPD2    C3 7935   0.740   3.653  13.253 -0.2939 -0.2766 -0.2864
  531MPD2    C4 7936   0.879   3.642  13.276  0.8284 -0.8619  0.1266
  531MPD2    C5 7937   0.946   3.732  13.353  0.8870  0.1371  0.2153
  531MPD2     H 7938   0.572   3.764  13.299  0.4144 -0.3904 -0.8235
  531MPD2    H1 7939   0.933   3.558  13.233 -0.0419 -2.2313  1.7290
  531MPD2    H2 7940   0.945   3.922  13.441  1.8306 -1.5078  0.2656
  531MPD2    H3 7941   1.053   3.723  13.367  1.1093  0.1602 -1.5623
  531MPD2     N 7942   0.668   3.549  13.181  0.2053 -0.1232 -0.0846
  531MPD2    H5 7943   0.728   3.504  13.113 -0.3193  0.4099 -0.8958
  531MPD2    N1 7944   0.689   3.976  13.441 -0.3924  0.6013  0.5815
  531MPD2    H7 7945   0.745   4.037  13.500 -2.7845  1.6512  1.7919
  532TMC3    C1 7946   0.514   4.096  13.537  0.0072  0.2840  0.2454
  532TMC3    C2 7947   0.380   4.107  13.523 -0.6046  1.0778  0.0967
  532TMC3    C3 7948   0.294   4.076  13.624 -0.8600 -0.2030 -0.7114
  532TMC3    C4 7949   0.568   4.078  13.656  0.5955 -0.5029 -0.1423
  532TMC3    C5 7950   0.482   4.049  13.757  0.5199  0.0851 -0.5044
  532TMC3    C6 7951   0.343   4.040  13.744  0.9688 -0.4077  0.1880
  532TMC3     C 7952   0.565   4.016  13.425 -0.0236  0.0407 -0.1585
  532TMC3     O 7953   0.479   3.974  13.347 -0.5812  0.2188  0.6261
  532TMC3     H 7954   0.347   4.147  13.427 -0.1533 -0.3143 -0.6333
  532TMC3    H1 7955   0.674   4.063  13.671  0.5743  1.3540  1.8412
  532TMC3    H2 7956   0.268   4.013  13.817 -0.8095  4.4093  0.1371
  532TMC3    C7 7957   0.544   3.977  13.865  0.0602  0.2530 -0.1584
  532TMC3    C8 7958   0.182   3.999  13.579  0.2166 -0.0768 -0.1589
  532TMC3    O1 7959   0.576   4.050  13.952 -1.4978 -0.0537  0.5261
  532TMC3    O2 7960   0.090   3.985  13.661 -0.1691  0.2194 -0.1314
  533TMC3    C1 7961   1.500   0.354  14.509 -0.6643 -0.2161  0.2327
  533TMC3    C2 7962   1.631   0.408  14.524  0.8409 -0.1194 -0.2227
  533TMC3    C3 7963   1.652   0.535  14.558 -0.0877 -0.1432  0.0291
  533TMC3    C4 7964   1.395   0.437  14.544  0.2921  0.7918 -0.6623
  533TMC3    C5 7965   1.419   0.561  14.595  0.1752 -0.7895  0.2621
  533TMC3    C6 7966   1.548   0.608  14.593 -0.4003 -0.2541 -1.3659
  533TMC3     C 7967   1.495   0.215  14.532 -0.5359 -0.5717 -0.6623
  533TMC3     O 7968   1.580   0.165  14.603 -0.2903 -0.1171 -0.3128
  533TMC3     H 7969   1.714   0.345  14.498 -0.0485 -1.4941  0.2825
  533TMC3    H1 7970   1.299   0.391  14.562  0.6763  0.1705 -0.1998
  533TMC3    H2 7971   1.557   0.712  14.619  1.8461 -1.0179  0.9092
  533TMC3    C7 7972   1.366   0.544  14.726 -0.2492  0.6173 -0.6857
  533TMC3    C8 7973   1.765   0.610  14.514  0.1317  0.4131 -0.1489
  533TMC3    O1 7974   1.342   0.429  14.765 -0.2340  0.3144  0.4717
  533TMC3    O2 7975   1.730   0.719  14.467  0.2896  0.3675 -0.0197
  534MPD2     C 7976   4.375   0.880   1.059  0.2372  0.2387 -0.7061
  534MPD2    C1 7977   4.327   0.988   1.143  0.1758  0.0732 -0.4058
  534MPD2    C2 7978   4.190   1.011   1.151 -0.0272  0.5273  0.5623
  534MPD2    C3 7979   4.108   0.950   1.061  0.0358  0.6623 -0.2385
  534MPD2    C4 7980   4.158   0.857   0.969 -0.1770 -0.0897  0.0393
  534MPD2    C5 7981   4.289   0.819   0.980 -0.8054 -0.0532 -0.4654
  534MPD2     H 7982   4.148   1.083   1.221 -0.4685 -2.9293  3.8778
  534MPD2    H1 7983   4.095   0.799   0.903  1.1174 -1.5119  0.0660
  534MPD2    H2 7984   4.476   0.843   1.064 -0.3859 -1.6102 -1.5679
  534MPD2    H3 7985   4.317   0.739   0.912  0.2009  1.0425 -1.3304
  534MPD2     N 7986   3.974   0.988   1.044 -1.0725  0.1818  0.7267
  534MPD2    H5 7987   3.926   0.946   0.965  1.0425  0.5828 -0.7825
  534MPD2    N1 7988   4.404   1.055   1.235  0.0116 -0.2110  0.4440
  534MPD2    H7 7989   4.347   1.105   1.302  1.4358  0.2277  1.3316
  535TMC3    C1 7990   3.783   1.091   1.094 -0.1333  0.9818  0.2068
  535TMC3    C2 7991   3.682   1.095   1.185  0.3764 -0.4300 -0.9276
  535TMC3    C3 7992   3.559   1.083   1.130  0.4843  0.5371 -0.2323
  535TMC3    C4 7993   3.773   1.095   0.953 -0.2206  0.3126  0.3098
  535TMC3    C5 7994   3.649   1.098   0.913  0.7275  1.2109  0.0327
  535TMC3    C6 7995   3.544   1.087   0.999  0.2694  0.0513  0.3419
  535TMC3     C 7996   3.906   1.058   1.142  0.1002 -0.6525 -0.1102
  535TMC3     O 7997   3.930   1.056   1.262 -0.3669 -0.7097 -0.4250
  535TMC3     H 7998   3.694   1.090   1.293  2.2439  0.6295 -1.0796
  535TMC3    H1 7999   3.861   1.116   0.894  0.3482  1.0374  1.4176
  535TMC3    H2 8000   3.441   1.090   0.965  1.2967  1.5295 -2.6455
  535TMC3    C7 8001   3.622   1.213   0.831 -0.3023  0.1545 -0.0851
  535TMC3    C8 8002   3.442   1.096   1.208 -0.3015 -0.9673  0.1054
  535TMC3    O1 8003   3.510   1.226   0.785 -0.6102 -0.7078  0.3556
  535TMC3    O2 8004   3.336   1.060   1.155 -0.6401  0.5974 -0.1990
  536MPD2     C 8005   2.684   0.002  16.301  0.0773  0.1060 -0.6127
  536MPD2    C1 8006   2.563   4.685  16.320 -0.1443 -0.3516  0.4513
  536MPD2    C2 8007   2.460   4.715  16.235  0.2642  0.6637  0.1039
  536MPD2    C3 8008   2.484   0.050  16.118 -0.3690 -0.2678 -0.3285
  536MPD2    C4 8009   2.612   0.103  16.100 -0.0230  0.2261  0.3156
  536MPD2    C5 8010   2.715   0.077  16.189  0.1809 -0.0244  0.2024
  536MPD2     H 8011   2.368   4.662  16.257 -0.3070  0.5154 -2.7457
  536MPD2    H1 8012   2.631   0.162  16.011 -1.1722 -2.2215 -1.5456
  536MPD2    H2 8013   2.774   4.726  16.360 -0.8472  0.6385  0.9401
  536MPD2    H3 8014   2.817   0.108  16.168 -0.6620  2.1682 -0.6801
  536MPD2     N 8015   2.389   0.063  16.011  0.4412  0.3244  0.1072
  536MPD2    H5 8016   2.406   0.124  15.932 -2.7330 -0.4110 -1.1286
  536MPD2    N1 8017   2.543   4.612  16.439  0.0519 -0.8415  0.6359
  536MPD2    H7 8018   2.622   4.573  16.489 -0.4111 -0.9127  1.3137
  537TMC3    C1 8019   2.441   4.521  16.635  0.1469 -0.1896 -0.1949
  537TMC3    C2 8020   2.550   4.558  16.710 -0.0981 -0.2875 -0.1649
  537TMC3    C3 8021   2.566   4.497  16.833 -0.1181 -0.1240  0.3931
  537TMC3    C4 8022   2.335   4.459  16.694  0.2203 -0.6160  0.3295
  537TMC3    C5 8023   2.354   4.411  16.822 -0.0085  0.0954  0.1751
  537TMC3    C6 8024   2.464   4.431  16.899  0.3510  0.4124 -0.3000
  537TMC3     C 8025   2.425   4.589  16.506 -0.7423 -0.0244 -0.0561
  537TMC3     O 8026   2.309   4.623  16.467 -0.5661  0.5122 -0.2494
  537TMC3     H 8027   2.624   4.627  16.672 -0.3259  0.2742  0.4214
  537TMC3    H1 8028   2.255   4.420  16.632  0.0517 -1.9163  1.3588
  537TMC3    H2 8029   2.466   4.400  17.002  0.6765  3.3696  0.5725
  537TMC3    C7 8030   2.232   4.351  16.883  0.1757 -0.1734  0.8951
  537TMC3    C8 8031   2.685   4.518  16.917 -0.3655  0.5742  0.3027
  537TMC3    O1 8032   2.129   4.381  16.829  0.1764 -0.1229 -0.4521
  537TMC3    O2 8033   2.674   4.497  17.036  0.3028 -0.5746  0.0857
  538TMC3    C1 8034   3.856   2.265  11.101  0.1448  0.2085 -0.3855
  538TMC3    C2 8035   3.990   2.231  11.102 -0.3700  0.5935 -0.6261
  538TMC3    C3 8036   4.065   2.309  11.011  0.1467  0.0265 -0.3099
  538TMC3    C4 8037   3.798   2.369  11.034  0.2109  0.0467 -0.3745
  538TMC3    C5 8038   3.887   2.452  10.968  0.1759 -0.7565 -0.2079
  538TMC3    C6 8039   4.019   2.428  10.963  0.5048 -0.7129  0.1149
  538TMC3     C 8040   3.772   2.201  11.203 -0.0404 -0.2491 -0.3525
  538TMC3     O 8041   3.651   2.220  11.209  0.2251 -0.0245 -0.6250
  538TMC3     H 8042   4.033   2.135  11.129  2.5334  2.1148  0.2305
  538TMC3    H1 8043   3.699   2.396  11.070  0.4786 -0.8665  1.0355
  538TMC3    H2 8044   4.090   2.500  10.923  2.6841 -1.6191  2.3717
  538TMC3    C7 8045   3.838   2.588  10.951 -0.9508  0.1422 -0.0331
  538TMC3    C8 8046   4.213   2.289  11.028  0.2569 -0.0290 -1.1987
  538TMC3    O1 8047   3.719   2.597  10.970  0.2356 -0.5665 -0.7254
  538TMC3    O2 8048   4.245   2.223  11.127 -0.0136 -0.1698 -0.3634
  539MPD2     C 8049   3.586   1.390  12.224 -0.5798 -0.7281  0.2241
  539MPD2    C1 8050   3.626   1.449  12.099  0.0347  0.3909  0.2237
  539MPD2    C2 8051   3.617   1.583  12.083 -0.6289 -0.2556  0.6786
  539MPD2    C3 8052   3.573   1.662  12.181  0.0136 -0.2915 -0.1121
  539MPD2    C4 8053   3.534   1.606  12.301 -0.9315  0.1357 -0.3624
  539MPD2    C5 8054   3.545   1.470  12.325 -1.1848  0.7593 -0.5849
  539MPD2     H 8055   3.650   1.624  11.989 -1.8698  1.3908  0.9699
  539MPD2    H1 8056   3.500   1.669  12.382 -1.4754 -1.4205  0.6306
  539MPD2    H2 8057   3.608   1.286  12.248 -1.2424 -1.0126 -0.4076
  539MPD2    H3 8058   3.514   1.424  12.418  1.2064 -0.3613 -0.3189
  539MPD2     N 8059   3.569   1.804  12.176 -0.1491  0.1689 -0.0541
  539MPD2    H5 8060   3.530   1.852  12.256  0.1953 -2.0205  1.4031
  539MPD2    N1 8061   3.688   1.377  11.990  0.4453  0.2849  0.2488
  539MPD2    H7 8062   3.751   1.433  11.933 -3.5801  1.4396 -3.0654
  540TMC3    C1 8063   3.588   2.011  12.080  0.3260 -0.2417 -0.2831
  540TMC3    C2 8064   3.553   2.078  11.965 -0.2612  0.0856 -0.1753
  540TMC3    C3 8065   3.463   2.181  11.986 -0.3670  0.0647 -0.2125
  540TMC3    C4 8066   3.559   2.056  12.205 -0.6826  0.5362 -1.2495
  540TMC3    C5 8067   3.483   2.170  12.216 -0.0519 -0.8826  0.2037
  540TMC3    C6 8068   3.426   2.230  12.105 -0.4636 -0.1357 -0.0116
  540TMC3     C 8069   3.613   1.870  12.067 -0.0665  0.2395  0.2472
  540TMC3     O 8070   3.653   1.832  11.960 -0.2972 -1.3697 -0.4106
  540TMC3     H 8071   3.573   2.030  11.870  0.2490  0.4288 -0.2413
  540TMC3    H1 8072   3.608   2.017  12.293 -0.8293  2.5315 -0.2836
  540TMC3    H2 8073   3.359   2.315  12.109 -0.0457  0.1344  1.1524
  540TMC3    C7 8074   3.424   2.192  12.354 -0.3598 -0.3877  0.1665
  540TMC3    C8 8075   3.415   2.251  11.866 -0.0109 -0.2678  0.3301
  540TMC3    O1 8076   3.482   2.133  12.447 -0.2353  0.0133 -0.1886
  540TMC3    O2 8077   3.380   2.369  11.878 -0.0165  0.3324 -0.5146
  541MPD2     C 8078   1.886   3.655  13.402  0.4863  0.6587 -0.1700
  541MPD2    C1 8079   1.755   3.637  13.356  0.2982 -0.0615 -0.6128
  541MPD2    C2 8080   1.711   3.703  13.250  0.5686  0.1964 -0.2315
  541MPD2    C3 8081   1.791   3.766  13.158 -0.4500 -0.4830 -0.2517
  541MPD2    C4 8082   1.927   3.771  13.196 -0.5122  0.6360 -0.1915
  541MPD2    C5 8083   1.973   3.716  13.315 -0.5623  0.0505 -0.9593
  541MPD2     H 8084   1.608   3.686  13.220  0.7617 -0.7219 -0.3937
  541MPD2    H1 8085   1.999   3.825  13.135 -0.7231  2.8438  1.4970
  541MPD2    H2 8086   1.925   3.614  13.494  1.0195  0.3328 -0.5388
  541MPD2    H3 8087   2.079   3.722  13.339 -0.2241 -2.1046 -1.9441
  541MPD2     N 8088   1.751   3.813  13.036  0.8819  0.1198  0.3012
  541MPD2    H5 8089   1.820   3.864  12.983 -1.2205 -0.4085 -2.9528
  541MPD2    N1 8090   1.675   3.567  13.443  0.1764 -0.2497  0.0680
  541MPD2    H7 8091   1.708   3.532  13.532 -0.9632 -1.0251  0.1908
  542TMC3    C1 8092   1.615   3.871  12.851  0.0162 -0.5933 -0.2750
  542TMC3    C2 8093   1.699   3.824  12.754  0.1037 -0.1999  0.3253
  542TMC3    C3 8094   1.666   3.838  12.620 -0.3907 -0.1768 -0.8020
  542TMC3    C4 8095   1.490   3.917  12.814 -0.4118 -0.2313  0.2543
  542TMC3    C5 8096   1.452   3.914  12.681 -0.3173  0.3894  0.2671
  542TMC3    C6 8097   1.537   3.878  12.584  0.0390  0.2226 -0.1614
  542TMC3     C 8098   1.624   3.805  12.979 -0.2082  0.0902 -0.6967
  542TMC3     O 8099   1.517   3.770  13.032  0.3343 -0.0521 -0.9470
  542TMC3     H 8100   1.791   3.772  12.780 -0.0316 -1.4923 -1.7291
  542TMC3    H1 8101   1.428   3.960  12.892 -1.3253 -3.8062  1.4697
  542TMC3    H2 8102   1.511   3.908  12.483  1.3713  0.6048 -0.3901
  542TMC3    C7 8103   1.315   3.962  12.645  0.3972  0.4837  0.7843
  542TMC3    C8 8104   1.750   3.797  12.510 -0.5196 -0.6524  0.4230
  542TMC3    O1 8105   1.261   4.034  12.729  0.4664  0.0171  0.1245
  542TMC3    O2 8106   1.707   3.805  12.397 -0.6948  0.6485 -0.1780
  543TMC3    C1 8107   1.236   0.857  17.397 -0.6927  0.1664 -0.1033
  543TMC3    C2 8108   1.206   0.729  17.431 -0.0939 -0.3530 -0.1261
  543TMC3    C3 8109   1.136   0.703  17.546  0.1943  0.8013 -0.4521
  543TMC3    C4 8110   1.191   0.963  17.471 -0.4709  0.8842 -1.2439
  543TMC3    C5 8111   1.134   0.934  17.597 -0.5863  0.0658 -0.2812
  543TMC3    C6 8112   1.110   0.803  17.636  0.0824 -0.2052  0.2093
  543TMC3     C 8113   1.308   0.872  17.264 -0.5486 -0.2836  0.1360
  543TMC3     O 8114   1.382   0.776  17.233 -0.3908  0.2227 -0.1179
  543TMC3     H 8115   1.215   0.660  17.347 -3.8641  1.2588 -1.8357
  543TMC3    H1 8116   1.235   1.060  17.451 -1.3663  1.9738  1.9188
  543TMC3    H2 8117   1.059   0.792  17.731 -0.1578 -0.3455  0.0632
  543TMC3    C7 8118   1.082   1.035  17.682  0.4518  0.4064  0.6617
  543TMC3    C8 8119   1.069   0.575  17.560  0.0191 -0.5159  0.5543
  543TMC3    O1 8120   1.056   1.005   0.035  0.1954 -0.0305 -0.8070
  543TMC3    O2 8121   1.047   0.520  17.455 -0.2463  0.4843 -0.2327
  544MPD2     C 8122   0.889   0.177   0.080  0.2607 -0.1167  0.7704
  544MPD2    C1 8123   0.879   0.196  17.708  0.7374  0.6420  0.6179
  544MPD2    C2 8124   0.937   0.316  17.654 -0.1753  0.0594 -0.2887
  544MPD2    C3 8125   0.994   0.418  17.736  0.2379  0.5619 -0.2454
  544MPD2    C4 8126   1.001   0.393   0.106 -0.3994 -0.0513  0.1444
  544MPD2    C5 8127   0.947   0.277   0.155  1.0796 -0.2976 -0.7873
  544MPD2     H 8128   0.925   0.324  17.546  3.1820 -1.1481 -0.7366
  544MPD2    H1 8129   1.039   0.458   0.183  0.9370 -0.0472 -0.5172
  544MPD2    H2 8130   0.848   0.090   0.130  1.6770 -0.0243  2.0851
  544MPD2    H3 8131   0.953   0.272   0.263 -0.5117 -1.1084 -0.7442
  544MPD2     N 8132   1.059   0.533  17.688 -0.1920 -0.3464 -0.2584
  544MPD2    H5 8133   1.102   0.589  17.761  2.9039 -2.3060 -0.5978
  544MPD2    N1 8134   0.820   0.097  17.627 -0.0688 -0.3295 -0.2135
  544MPD2    H7 8135   0.788   0.020  17.685  1.4984 -0.2541  0.7403
  545TMC3    C1 8136   0.727   4.707  17.452 -0.4140  0.0098 -0.3824
  545TMC3    C2 8137   0.643   4.716  17.343 -0.2248  0.5389 -1.1555
  545TMC3    C3 8138   0.584   4.599  17.300  0.0208  0.4683  0.1382
  545TMC3    C4 8139   0.743   4.586  17.518  0.0097 -0.4411  0.4976
  545TMC3    C5 8140   0.666   4.480  17.473 -0.4603  0.4349  0.4651
  545TMC3    C6 8141   0.588   4.481  17.362  0.4439  0.1534 -0.2472
  545TMC3     C 8142   0.791   0.089  17.494 -0.7329 -0.1723  0.2166
  545TMC3     O 8143   0.828   0.167  17.405  0.0676 -0.9635 -0.0279
  545TMC3     H 8144   0.619   0.072  17.301 -1.8760  0.9759  0.7995
  545TMC3    H1 8145   0.804   4.580  17.607  2.0095  1.7615 -0.6913
  545TMC3    H2 8146   0.529   4.393  17.341  0.3716 -0.1762  1.3576
  545TMC3    C7 8147   0.675   4.354  17.546  0.7738  0.8492  0.1662
  545TMC3    C8 8148   0.486   4.606  17.195 -0.3769  0.5477 -0.1917
  545TMC3    O1 8149   0.573   4.283  17.553  0.4486  0.1068  0.0571
  545TMC3    O2 8150   0.396   4.523  17.188 -0.6223  0.0380  0.7236
  546MPD2     C 8151   2.311   0.570  17.735 -0.0565  0.3748 -1.0071
  546MPD2    C1 8152   2.340   0.586  17.606 -0.0404  0.2129  0.3614
  546MPD2    C2 8153   2.391   0.711  17.569  0.4444 -0.8371  0.1242
  546MPD2    C3 8154   2.429   0.806  17.672 -0.4653  0.0462  0.4367
  546MPD2    C4 8155   2.410   0.771   0.042 -0.1191 -0.1461 -0.3261
  546MPD2    C5 8156   2.346   0.658   0.070 -0.2521  0.6163  0.2382
  546MPD2     H 8157   2.415   0.736  17.467 -0.2549 -2.1634 -0.3610
  546MPD2    H1 8158   2.438   0.835   0.124  1.5989  0.0498 -1.0691
  546MPD2    H2 8159   2.264   0.478   0.007 -2.0602  1.7285 -0.0980
  546MPD2    H3 8160   2.334   0.638   0.176  1.6257  3.5830  1.0084
  546MPD2     N 8161   2.503   0.921  17.643 -0.2437 -0.3695 -0.1716
  546MPD2    H5 8162   2.544   0.964  17.725  2.5825 -1.7518 -0.8595
  546MPD2    N1 8163   2.318   0.477  17.523  0.5849 -0.4010  0.1091
  546MPD2    H7 8164   2.267   0.403  17.571 -0.6131  1.5656  1.8916
  547TMC3    C1 8165   2.291   0.335  17.332  0.7720  1.0956 -0.1471
  547TMC3    C2 8166   2.253   0.317  17.202  0.1682  1.1626  0.4477
  547TMC3    C3 8167   2.171   0.213  17.173  0.4190  0.8727  0.4623
  547TMC3    C4 8168   2.278   0.233  17.419  0.4162 -0.4684  0.2823
  547TMC3    C5 8169   2.211   0.118  17.377 -0.5401  0.7403  0.0145
  547TMC3    C6 8170   2.143   0.113  17.254 -0.0650  0.2422  0.3578
  547TMC3     C 8171   2.321   0.471  17.385  0.3984 -0.4130  0.6942
  547TMC3     O 8172   2.354   0.555  17.309  0.2709 -0.2946 -0.0364
  547TMC3     H 8173   2.268   0.391  17.124 -0.9572 -1.0406 -1.8677
  547TMC3    H1 8174   2.339   0.226  17.509  0.2850  1.1346  0.5001
  547TMC3    H2 8175   2.082   0.027  17.230 -0.0846  0.2383  0.4225
  547TMC3    C7 8176   2.220   4.733  17.464  0.0524 -0.0464 -0.1818
  547TMC3    C8 8177   2.091   0.226  17.049 -0.4833  0.3240  0.0140
  547TMC3    O1 8178   2.230   0.004  17.584 -0.1818  0.0391  1.1400
  547TMC3    O2 8179   2.057   0.342  17.013 -0.0197 -0.1064  0.7948
  548MPD2     C 8180   2.290   0.555  12.933 -0.8669 -0.2040  0.1909
  548MPD2    C1 8181   2.235   0.434  12.901  0.0082  0.6176 -0.0379
  548MPD2    C2 8182   2.293   0.349  12.812  0.2572  0.1847  0.3219
  548MPD2    C3 8183   2.409   0.389  12.747  0.0763  0.1670  0.0271
  548MPD2    C4 8184   2.479   0.507  12.787 -0.1096  0.5572 -0.9494
  548MPD2    C5 8185   2.407   0.588  12.873  0.0565  0.0438 -0.6930
  548MPD2     H 8186   2.243   0.261  12.774 -2.2243  2.4011 -1.5168
  548MPD2    H1 8187   2.568   0.541  12.735  1.6504 -0.7378  1.1916
  548MPD2    H2 8188   2.240   0.626  12.999 -0.4109  1.2351 -0.9975
  548MPD2    H3 8189   2.452   0.684  12.896 -0.2541  0.3792 -1.4659
  548MPD2     N 8190   2.460   0.293  12.660 -0.3099  0.2218  0.2478
  548MPD2    H5 8191   2.420   0.200  12.668 -2.7960  1.3545  0.8869
  548MPD2    N1 8192   2.109   0.402  12.946  0.1777 -0.3587  0.7886
  548MPD2    H7 8193   2.059   0.468  13.006  1.1899  1.7055 -0.6523
  549TMC3    C1 8194   1.897   0.298  12.955  0.1135 -0.9723 -0.6741
  549TMC3    C2 8195   1.835   0.394  12.880  0.2783  0.5646  0.1913
  549TMC3    C3 8196   1.703   0.375  12.858 -0.4694  0.5850  0.7481
  549TMC3    C4 8197   1.832   0.186  12.996  0.0651  0.7538 -0.2196
  549TMC3    C5 8198   1.693   0.178  12.975  0.5936  0.7203  0.9320
  549TMC3    C6 8199   1.627   0.273  12.907  0.4184  0.5174 -0.5556
  549TMC3     C 8200   2.041   0.280  12.937 -0.0194  0.4790 -1.0803
  549TMC3     O 8201   2.090   0.172  12.915  0.2014  0.1598 -0.2937
  549TMC3     H 8202   1.892   0.461  12.817  0.4217  0.3365  0.0789
  549TMC3    H1 8203   1.894   0.104  13.033  0.0823  1.1619  0.6654
  549TMC3    H2 8204   1.520   0.270  12.893  0.7816 -0.2443 -3.1915
  549TMC3    C7 8205   1.611   0.077  13.031 -0.5093 -0.0562 -0.3958
  549TMC3    C8 8206   1.639   0.455  12.754  0.1294  0.1598 -1.0933
  549TMC3    O1 8207   1.490   0.094  13.036 -0.4793  0.5207 -0.1267
  549TMC3    O2 8208   1.528   0.415  12.730 -0.0143  0.1435 -0.3937
  550TMC3    C1 8209   1.522   3.420  12.022  0.8085  0.2660  0.2578
  550TMC3    C2 8210   1.555   3.494  12.133 -0.0326 -0.1088 -0.0189
  550TMC3    C3 8211   1.465   3.590  12.165  0.5953 -0.4660  0.1160
  550TMC3    C4 8212   1.408   3.437  11.952 -0.3630  0.2359  0.2034
  550TMC3    C5 8213   1.329   3.542  11.980 -0.2017  0.2425 -0.4951
  550TMC3    C6 8214   1.354   3.625  12.091 -0.8868 -0.1876 -0.1163
  550TMC3     C 8215   1.605   3.300  11.993 -0.1595  0.3881 -0.3852
  550TMC3     O 8216   1.692   3.265  12.072  0.3597  0.0888 -0.1079
  550TMC3     H 8217   1.656   3.490  12.171  0.6744 -2.3673 -2.1663
  550TMC3    H1 8218   1.372   3.375  11.871 -0.1647  0.2147  0.1314
  550TMC3    H2 8219   1.291   3.707  12.122  1.3940  1.7016 -0.4393
  550TMC3    C7 8220   1.197   3.557  11.918 -0.4720  0.2255  0.2720
  550TMC3    C8 8221   1.441   3.611  12.307 -0.4805 -0.3519 -0.4718
  550TMC3    O1 8222   1.111   3.628  11.968  0.4780  0.3543  0.1819
  550TMC3    O2 8223   1.344   3.680  12.341  0.2881  0.3480 -0.1124
  551TMC3    C1 8224   3.796   1.619  13.637  0.8005 -0.1733 -0.3377
  551TMC3    C2 8225   3.932   1.617  13.603 -0.2274 -0.1091  0.2005
  551TMC3    C3 8226   4.002   1.726  13.630  0.6705 -1.0587  0.3901
  551TMC3    C4 8227   3.733   1.719  13.701 -0.3137 -0.2512 -0.3041
  551TMC3    C5 8228   3.813   1.825  13.740 -0.1206  0.4835  0.8320
  551TMC3    C6 8229   3.950   1.838  13.700 -0.2990 -0.2035  0.5294
  551TMC3     C 8230   3.718   1.527  13.567  0.1033  0.2262 -0.8057
  551TMC3     O 8231   3.762   1.416  13.542  0.3204  0.3145  0.5014
  551TMC3     H 8232   3.968   1.531  13.547 -1.4558 -1.4843  1.5313
  551TMC3    H1 8233   3.630   1.702  13.728 -0.3429 -0.0038 -0.2575
  551TMC3    H2 8234   4.014   1.909  13.752 -1.6410  1.8862 -0.6743
  551TMC3    C7 8235   3.763   1.915  13.843  0.1350 -0.2109  0.2140
  551TMC3    C8 8236   4.107   1.745  13.535  0.2044  0.3833 -0.1588
  551TMC3    O1 8237   3.651   1.963  13.824 -0.2986 -0.4452  0.0919
  551TMC3    O2 8238   4.172   1.647  13.500 -0.1502  0.4039  0.0795
  552MPD2     C 8239   0.546   3.802  14.218 -0.0066 -0.6707 -0.0001
  552MPD2    C1 8240   0.520   3.669  14.196 -0.7069 -0.0503  0.2118
  552MPD2    C2 8241   0.610   3.569  14.237 -0.3975  0.2349  0.0204
  552MPD2    C3 8242   0.728   3.607  14.291  0.4490  0.1479  0.0185
  552MPD2    C4 8243   0.758   3.741  14.307 -0.4808 -1.8299 -0.1692
  552MPD2    C5 8244   0.667   3.833  14.271  0.0241  0.4640 -0.6421
  552MPD2     H 8245   0.589   3.463  14.226  0.8634 -0.1269  1.1483
  552MPD2    H1 8246   0.854   3.778  14.341 -1.6312 -0.1725  1.2656
  552MPD2    H2 8247   0.492   3.887  14.177 -0.7075 -0.9244  0.3894
  552MPD2    H3 8248   0.689   3.936  14.297  3.1983 -0.4882  0.2899
  552MPD2     N 8249   0.830   3.521  14.333 -0.6336 -0.4163  0.8051
  552MPD2    H5 8250   0.912   3.562  14.377  0.7060 -1.7143 -0.4908
  552MPD2    N1 8251   0.411   3.629  14.121 -0.5384 -0.3798  0.0337
  552MPD2    H7 8252   0.391   3.530  14.116 -1.3394 -0.2889  1.4117
  553TMC3    C1 8253   0.214   3.637  13.991  0.0347  0.6296  0.0773
  553TMC3    C2 8254   0.169   3.682  13.868 -0.3044  0.3352 -0.6957
  553TMC3    C3 8255   0.091   3.610  13.788  0.1048  0.1966 -0.2156
  553TMC3    C4 8256   0.181   3.505  14.032  0.2569 -0.2825 -1.0441
  553TMC3    C5 8257   0.091   3.433  13.951  0.2694  0.9494 -0.2969
  553TMC3    C6 8258   0.046   3.486  13.834  0.1036 -0.3199 -0.5686
  553TMC3     C 8259   0.325   3.711  14.051 -0.3270 -0.2234 -0.3170
  553TMC3     O 8260   0.326   3.835  14.031  0.1063 -0.8670  0.1724
  553TMC3     H 8261   0.208   3.775  13.828 -0.1247  1.4123  1.9661
  553TMC3    H1 8262   0.222   3.456  14.119  0.7965 -1.5257 -1.9954
  553TMC3    H2 8263   4.710   3.431  13.780  0.2492  0.1140 -1.2129
  553TMC3    C7 8264   0.080   3.289  13.962 -0.1149  0.4425  0.4247
  553TMC3    C8 8265   0.167   3.595  13.670 -0.5897 -0.0500  0.5512
  553TMC3    O1 8266   4.704   3.251  13.951  0.1110 -0.4086 -1.1807
  553TMC3    O2 8267   0.288   3.619  13.677  0.3278 -0.3316 -0.4113
  554TMC3    C1 8268   3.050   2.147  11.639  0.0844  0.5259 -0.7583
  554TMC3    C2 8269   2.976   2.089  11.542  0.2270 -0.1219  0.2942
  554TMC3    C3 8270   2.902   2.168  11.464  0.5995 -0.2202 -0.0006
  554TMC3    C4 8271   3.044   2.286  11.666  0.0820  0.6072  0.8391
  554TMC3    C5 8272   2.952   2.356  11.590 -0.0433 -0.6673  0.3378
  554TMC3    C6 8273   2.885   2.304  11.485 -0.2288 -0.4457  0.0054
  554TMC3     C 8274   3.108   2.060  11.743  0.3090 -0.1472  0.0177
  554TMC3     O 8275   3.150   1.949  11.705 -0.1057  0.4890  0.5260
  554TMC3     H 8276   2.989   1.982  11.532  1.3481  0.0409 -0.0588
  554TMC3    H1 8277   3.097   2.322  11.754  1.6315  0.6910 -0.1201
  554TMC3    H2 8278   2.815   2.365  11.430 -0.4531 -0.7575 -0.0597
  554TMC3    C7 8279   2.970   2.502  11.579  0.1763  0.3849  0.7328
  554TMC3    C8 8280   2.892   2.144  11.318 -0.6461 -0.3081 -0.1200
  554TMC3    O1 8281   2.907   2.552  11.493  0.2377  0.4016 -0.2069
  554TMC3    O2 8282   2.899   2.238  11.238 -0.7647  0.5592  0.2252
  555TMC3    C1 8283   1.389   2.243  15.529  0.0576 -0.2303  0.1931
  555TMC3    C2 8284   1.433   2.321  15.627 -0.9303  0.0010  0.4509
  555TMC3    C3 8285   1.467   2.265  15.749 -0.2934 -0.1421  0.3984
  555TMC3    C4 8286   1.381   2.105  15.540 -0.2000 -0.3489  0.2610
  555TMC3    C5 8287   1.410   2.055  15.666  0.2849 -0.0782 -0.4520
  555TMC3    C6 8288   1.451   2.131  15.774  0.0184  0.1974  0.1863
  555TMC3     C 8289   1.306   2.301  15.426  0.0309  0.3343 -0.4789
  555TMC3     O 8290   1.206   2.238  15.393 -0.7555  0.3757  0.3005
  555TMC3     H 8291   1.422   2.429  15.620 -0.1442 -0.0301 -1.4104
  555TMC3    H1 8292   1.343   2.049  15.456 -1.7358  0.4007  0.4565
  555TMC3    H2 8293   1.480   2.082  15.866 -1.0204  0.0046  0.4031
  555TMC3    C7 8294   1.423   1.917  15.670  0.2056  0.1199 -0.0642
  555TMC3    C8 8295   1.520   2.353  15.849  0.3872  0.6520  0.4788
  555TMC3    O1 8296   1.388   1.854  15.769 -0.1255  0.2840  0.4173
  555TMC3    O2 8297   1.483   2.472  15.847  0.0869 -0.4061  0.6841
  556MPD2     C 8298   0.043   3.412  11.317  0.1051  0.0296  0.0352
  556MPD2    C1 8299   4.665   3.344  11.315 -0.8512  0.3851  0.0393
  556MPD2    C2 8300   4.633   3.268  11.205  0.2713 -0.4082 -0.0265
  556MPD2    C3 8301   4.711   3.273  11.089  0.1797 -0.3335 -0.1093
  556MPD2    C4 8302   0.074   3.363  11.085  0.1124  0.5075 -0.0251
  556MPD2    C5 8303   0.113   3.427  11.199 -0.5264  0.5279  0.0453
  556MPD2     H 8304   4.552   3.197  11.215 -0.3099  0.1328 -0.8698
  556MPD2    H1 8305   0.138   3.379  10.999 -0.8233 -0.3588 -0.8716
  556MPD2    H2 8306   0.095   3.448  11.405  0.3878 -1.7646  0.6025
  556MPD2    H3 8307   0.206   3.481  11.203 -0.7543  0.8012  1.6201
  556MPD2     N 8308   4.666   3.206  10.976 -0.4778  0.1002 -0.3520
  556MPD2    H5 8309   4.589   3.141  10.983  2.8430 -3.6649  1.2522
  556MPD2    N1 8310   4.577   3.334  11.430  0.0581  0.3170 -0.5597
  556MPD2    H7 8311   4.499   3.271  11.419 -0.5568  1.1716 -1.0294
  557TMC3    C1 8312   4.676   3.112  10.751 -0.3951  0.5355 -0.3481
  557TMC3    C2 8313   4.685   3.141  10.618 -0.2697 -0.2473 -0.4043
  557TMC3    C3 8314   4.650   3.040  10.532  0.1282  0.2914  0.1808
  557TMC3    C4 8315   4.648   2.984  10.800 -0.2212  0.2796 -0.7545
  557TMC3    C5 8316   4.621   2.889  10.707  0.2676 -0.0803 -0.4164
  557TMC3    C6 8317   4.620   2.913  10.572 -0.7051 -0.6162 -0.0590
  557TMC3     C 8318   4.720   3.217  10.847 -0.0351  0.1645 -0.3725
  557TMC3     O 8319   0.040   3.312  10.804 -0.2412  0.0025  0.2507
  557TMC3     H 8320   4.694   3.243  10.584 -0.2011  0.6502  2.2473
  557TMC3    H1 8321   4.653   2.954  10.904 -0.5678  0.7701 -0.5935
  557TMC3    H2 8322   4.592   2.835  10.502  0.5564 -1.0237 -0.1139
  557TMC3    C7 8323   4.567   2.764  10.738  0.2622  0.6495  0.0162
  557TMC3    C8 8324   4.576   3.084  10.414  0.2895 -0.6778 -0.2429
  557TMC3    O1 8325   4.472   2.716  10.672 -0.0934 -0.0727 -0.0688
  557TMC3    O2 8326   4.611   3.186  10.361 -0.3962 -0.1922  0.3334
  558TMC3    C1 8327   2.285   1.299  10.315 -0.8379  0.6309 -0.8888
  558TMC3    C2 8328   2.166   1.255  10.360 -0.1046 -0.2745 -0.5418
  558TMC3    C3 8329   2.058   1.334  10.324 -0.4253  0.4971  0.5489
  558TMC3    C4 8330   2.294   1.408  10.230 -0.1559  0.3874 -0.5904
  558TMC3    C5 8331   2.185   1.488  10.206 -0.1560 -0.2312 -0.2450
  558TMC3    C6 8332   2.063   1.450  10.253 -0.5023  0.0553 -0.3235
  558TMC3     C 8333   2.409   1.232  10.335  0.0001  0.2100  0.2230
  558TMC3     O 8334   2.513   1.295  10.317 -0.1082 -0.6277 -0.7008
  558TMC3     H 8335   2.170   1.170  10.428 -2.3531  1.2601  1.4973
  558TMC3    H1 8336   2.394   1.431  10.194  0.3585 -0.9333  0.0049
  558TMC3    H2 8337   1.981   1.521  10.257 -0.7085 -0.1424 -1.0808
  558TMC3    C7 8338   2.201   1.609  10.126 -0.7975 -0.1020 -0.0570
  558TMC3    C8 8339   1.926   1.308  10.389  0.0569 -0.3627  0.8613
  558TMC3    O1 8340   2.315   1.650  10.115  0.4444  0.1765  0.5382
  558TMC3    O2 8341   1.835   1.371  10.335  0.2975 -0.0047 -0.4249
  559MPD2     C 8342   2.211   1.823  11.625 -0.0257  0.2984  0.9665
  559MPD2    C1 8343   2.156   1.703  11.586 -0.8490 -0.1861  0.3975
  559MPD2    C2 8344   2.240   1.593  11.585  0.1658 -0.0301 -0.9183
  559MPD2    C3 8345   2.375   1.601  11.618 -0.1111  0.4140  0.3158
  559MPD2    C4 8346   2.428   1.724  11.673  0.6361 -0.0983 -1.1739
  559MPD2    C5 8347   2.341   1.830  11.673 -0.2911 -0.1576  0.6221
  559MPD2     H 8348   2.206   1.496  11.549 -2.1303  0.0691  1.0050
  559MPD2    H1 8349   2.523   1.738  11.723  0.4151  2.6038 -1.5150
  559MPD2    H2 8350   2.152   1.913  11.624  1.3737  1.2559  3.3030
  559MPD2    H3 8351   2.368   1.922  11.723  0.6503 -0.0348 -0.1128
  559MPD2     N 8352   2.455   1.485  11.615  0.3104 -0.2399 -0.0324
  559MPD2    H5 8353   2.420   1.391  11.600 -1.5763  0.5855 -0.8152
  559MPD2    N1 8354   2.020   1.700  11.536  0.3358  0.6290  0.6751
  559MPD2    H7 8355   1.976   1.791  11.527  3.0796  1.6765 -2.0034
  560TMC3    C1 8356   2.643   1.355  11.590 -0.7186  0.5303 -0.2569
  560TMC3    C2 8357   2.568   1.258  11.525  0.3345  0.5176 -0.9526
  560TMC3    C3 8358   2.633   1.135  11.511  0.2526 -0.1318 -0.5781
  560TMC3    C4 8359   2.773   1.343  11.614 -0.0441 -0.1438 -0.6199
  560TMC3    C5 8360   2.837   1.231  11.578  0.5358 -0.4582  0.3775
  560TMC3    C6 8361   2.757   1.114  11.555 -0.1606  0.0220  0.1343
  560TMC3     C 8362   2.592   1.487  11.623 -0.0308 -0.4597  0.3339
  560TMC3     O 8363   2.666   1.584  11.624 -0.6502 -0.4588  0.1410
  560TMC3     H 8364   2.465   1.271  11.492  0.2839  0.5082 -0.7951
  560TMC3    H1 8365   2.827   1.426  11.658  0.5812 -0.8199 -0.1147
  560TMC3    H2 8366   2.807   1.019  11.572 -0.4223 -0.0516  0.4978
  560TMC3    C7 8367   2.961   1.215  11.637  0.3142 -0.0605 -0.6340
  560TMC3    C8 8368   2.554   1.032  11.443 -0.3388  0.8032 -0.1222
  560TMC3    O1 8369   2.958   1.156  11.743  0.3897  0.3085  0.5515
  560TMC3    O2 8370   2.436   1.055  11.436 -0.4726 -0.2854  0.1817
  561TMC3    C1 8371   0.112   0.768  11.963  0.7719  0.1945 -0.3209
  561TMC3    C2 8372   0.064   0.765  12.092 -0.0239 -0.1337 -0.4525
  561TMC3    C3 8373   0.140   0.828  12.189  0.7958 -0.0687 -0.1853
  561TMC3    C4 8374   0.248   0.800  11.945 -0.1743  0.9002 -0.4959
  561TMC3    C5 8375   0.325   0.854  12.049 -0.1019  0.0933  0.1574
  561TMC3    C6 8376   0.269   0.870  12.168 -0.2154  0.6128  0.2823
  561TMC3     C 8377   0.026   0.709  11.864  0.0640  0.7480  0.7789
  561TMC3     O 8378   4.648   0.695  11.896 -0.6160 -0.0139 -0.3748
  561TMC3     H 8379   4.700   0.740  12.105  0.1719 -1.5253 -1.4550
  561TMC3    H1 8380   0.288   0.789  11.845 -0.4258 -1.3687 -0.3497
  561TMC3    H2 8381   0.321   0.905  12.256  1.1437 -0.7627  0.0078
  561TMC3    C7 8382   0.463   0.889  12.024  0.1834 -0.4737 -0.1889
  561TMC3    C8 8383   0.107   0.800  12.330  0.0024 -0.6902  0.2839
  561TMC3    O1 8384   0.544   0.883  12.119  0.3340 -0.3270  0.0776
  561TMC3    O2 8385   0.205   0.760  12.397  0.1071 -0.1573 -0.7967
  562TMC3    C1 8386   1.446   2.672  16.284  0.4327 -0.6418  0.4233
  562TMC3    C2 8387   1.344   2.768  16.271 -0.1913  0.4864 -0.0263
  562TMC3    C3 8388   1.230   2.731  16.209  0.1276  0.3587  0.6520
  562TMC3    C4 8389   1.416   2.542  16.256  0.0733  0.3354 -0.2645
  562TMC3    C5 8390   1.307   2.515  16.172 -0.2633  0.5775 -0.5049
  562TMC3    C6 8391   1.210   2.613  16.149  0.5146  0.0934  0.4080
  562TMC3     C 8392   1.555   2.702  16.371 -0.4447 -0.1125 -0.1797
  562TMC3     O 8393   1.565   2.625  16.465  0.9287  0.4817  0.0385
  562TMC3     H 8394   1.354   2.871  16.300 -0.4271  1.0648 -2.0201
  562TMC3    H1 8395   1.503   2.482  16.279  0.4736  0.3041 -1.8403
  562TMC3    H2 8396   1.120   2.602  16.089  0.7735  0.4175 -0.0431
  562TMC3    C7 8397   1.276   2.378  16.134  0.4799 -0.4530 -0.5794
  562TMC3    C8 8398   1.128   2.837  16.205 -0.7913  0.6400 -0.3370
  562TMC3    O1 8399   1.195   2.365  16.042 -0.0426  0.2933  0.0226
  562TMC3    O2 8400   1.120   2.886  16.318 -0.4904 -0.0140 -0.3308
  563MPD2     C 8401   3.633   3.652  15.567  0.3791 -0.2071 -0.6682
  563MPD2    C1 8402   3.661   3.538  15.635  0.5436  1.0041 -1.1671
  563MPD2    C2 8403   3.790   3.505  15.666  0.3172  0.6332  0.2689
  563MPD2    C3 8404   3.892   3.593  15.637 -0.0186  0.0127  0.1334
  563MPD2    C4 8405   3.863   3.702  15.565  0.0031 -0.2955 -0.5164
  563MPD2    C5 8406   3.737   3.730  15.534  0.0727  0.4167 -0.6089
  563MPD2     H 8407   3.813   3.420  15.730  0.1183  1.5270  1.5294
  563MPD2    H1 8408   3.937   3.781  15.567 -0.2458 -0.1491  2.6468
  563MPD2    H2 8409   3.529   3.683  15.563  0.6526  1.0032  1.2648
  563MPD2    H3 8410   3.719   3.820  15.475  0.0679  2.0285  1.8650
  563MPD2     N 8411   4.020   3.569  15.691 -0.5930 -0.1314  0.1352
  563MPD2    H5 8412   4.050   3.478  15.726 -2.9361 -0.1521  2.0877
  563MPD2    N1 8413   3.568   3.451  15.704  0.0010  0.4206 -0.7537
  563MPD2    H7 8414   3.612   3.375  15.756  2.2081 -0.2697 -3.5722
  564TMC3    C1 8415   3.372   3.407  15.816  0.4141  0.2370 -0.2648
  564TMC3    C2 8416   3.238   3.379  15.799  0.1541 -0.3677  0.5394
  564TMC3    C3 8417   3.172   3.328  15.906  0.1385 -0.1899 -0.4786
  564TMC3    C4 8418   3.439   3.395  15.930  0.0017  0.4659 -0.0437
  564TMC3    C5 8419   3.375   3.331  16.033 -0.0992  0.3896  0.4453
  564TMC3    C6 8420   3.245   3.309  16.022  0.1596  0.7140 -0.4557
  564TMC3     C 8421   3.435   3.469  15.703 -0.3679  0.1451  0.3153
  564TMC3     O 8422   3.369   3.544  15.628 -0.3042 -0.7681  0.2655
  564TMC3     H 8423   3.197   3.395  15.699  0.6767 -0.2754  0.3427
  564TMC3    H1 8424   3.545   3.418  15.940  0.2452 -0.5238 -0.4253
  564TMC3    H2 8425   3.193   3.270  16.108  0.4764  1.5320  0.1107
  564TMC3    C7 8426   3.465   3.255  16.125 -0.3860  0.5047 -0.1350
  564TMC3    C8 8427   3.067   3.236  15.900  0.7307  0.0149  0.9491
  564TMC3    O1 8428   3.581   3.274  16.108 -0.1596  0.1068 -0.1485
  564TMC3    O2 8429   3.008   3.206  16.003  0.7285  0.5275 -0.6798
  565TMC3    C1 8430   4.286   4.643  10.019  0.1317 -0.2444 -0.0574
  565TMC3    C2 8431   4.299   4.619  10.155  0.6624 -0.4292  1.0171
  565TMC3    C3 8432   4.255   4.498  10.211  0.0661 -0.4503 -0.0709
  565TMC3    C4 8433   4.228   4.561   9.935  0.3329  0.4266  0.2712
  565TMC3    C5 8434   4.169   4.450   9.994  0.6955  0.4021  0.2960
  565TMC3    C6 8435   4.186   4.414  10.127  0.5096 -0.6652  0.3265
  565TMC3     C 8436   4.318   0.038   9.974  0.5830  0.5380 -0.0793
  565TMC3     O 8437   4.269   0.077   9.865 -0.8238 -0.2102 -0.1642
  565TMC3     H 8438   4.336   4.696  10.222  0.4685 -0.2600  0.9320
  565TMC3    H1 8439   4.213   4.575   9.829 -2.2485 -0.9595  0.4786
  565TMC3    H2 8440   4.124   4.342  10.178  1.4999 -0.0645  2.3848
  565TMC3    C7 8441   4.078   4.377   9.905  0.4180 -0.0846 -0.2082
  565TMC3    C8 8442   4.250   4.487  10.356 -0.1539  0.2599  0.4876
  565TMC3    O1 8443   4.037   4.429   9.798  0.1548 -0.5330  0.2123
  565TMC3    O2 8444   4.254   4.595  10.419  0.0906  0.0630  0.3632
  566MPD2     C 8445   1.331   1.218  14.828 -0.7994  0.8302 -0.3020
  566MPD2    C1 8446   1.364   1.285  14.711 -0.3400 -0.1966  0.0787
  566MPD2    C2 8447   1.279   1.289  14.602 -0.1458  0.5953 -0.3742
  566MPD2    C3 8448   1.154   1.232  14.623  0.5512  0.3110  0.1681
  566MPD2    C4 8449   1.135   1.144  14.731  0.9210  0.0924 -0.8143
  566MPD2    C5 8450   1.224   1.139  14.836 -0.4168 -0.3988 -0.6271
  566MPD2     H 8451   1.293   1.351  14.514 -2.7711  0.4343 -0.9170
  566MPD2    H1 8452   1.047   1.081  14.739 -1.2231  3.3565  0.9154
  566MPD2    H2 8453   1.392   1.216  14.917 -0.2213  0.8525 -0.6936
  566MPD2    H3 8454   1.186   1.072  14.912 -2.3486 -0.1327 -1.3466
  566MPD2     N 8455   1.064   1.244  14.517 -0.3276  0.0970  0.1940
  566MPD2    H5 8456   1.091   1.316  14.451  2.8979 -0.8750  0.4526
  566MPD2    N1 8457   1.484   1.356  14.716 -0.0755 -0.2755 -0.1868
  566MPD2    H7 8458   1.529   1.368  14.807 -0.5501 -2.8196  0.3842
  567TMC3    C1 8459   1.660   1.502  14.654 -0.1343  0.1475 -0.2171
  567TMC3    C2 8460   1.750   1.534  14.556 -0.3288 -0.1449 -0.1685
  567TMC3    C3 8461   1.817   1.656  14.561  0.0636 -0.3162  0.1556
  567TMC3    C4 8462   1.630   1.595  14.750  0.0444  0.7308 -0.1202
  567TMC3    C5 8463   1.711   1.707  14.760 -0.3284  0.7537  0.2312
  567TMC3    C6 8464   1.805   1.738  14.669 -0.1410  0.5522  0.3133
  567TMC3     C 8465   1.548   1.419  14.609 -0.3203 -0.4256 -0.6929
  567TMC3     O 8466   1.531   1.403  14.488  0.1575 -0.6206  0.3546
  567TMC3     H 8467   1.759   1.482  14.461  1.1347 -0.9134  0.3935
  567TMC3    H1 8468   1.558   1.568  14.827  0.0982  0.3455 -0.2056
  567TMC3    H2 8469   1.850   1.837  14.669 -0.2530  0.6025  1.3827
  567TMC3    C7 8470   1.660   1.826  14.839 -0.3843 -0.0185  0.4939
  567TMC3    C8 8471   1.810   1.727  14.437  0.5698 -0.1736 -1.0085
  567TMC3    O1 8472   1.715   1.935  14.826  0.2454  0.3901  0.7555
  567TMC3    O2 8473   1.792   1.844  14.449 -0.3207  0.1442  0.6986
  568MPD2     C 8474   3.030   1.944  16.538 -0.3897  0.2314 -0.3500
  568MPD2    C1 8475   3.013   2.052  16.622  0.4413 -0.1188 -0.3179
  568MPD2    C2 8476   2.948   2.162  16.577 -0.0852  0.5652  0.2295
  568MPD2    C3 8477   2.902   2.175  16.447 -0.4710  0.0632  0.3377
  568MPD2    C4 8478   2.936   2.070  16.360 -0.7290  0.1228 -0.3951
  568MPD2    C5 8479   3.002   1.962  16.405 -0.4176 -0.4750 -0.6658
  568MPD2     H 8480   2.926   2.227  16.661  0.2142  5.0765 -3.1951
  568MPD2    H1 8481   2.917   2.077  16.254  0.0114 -1.8578 -0.6623
  568MPD2    H2 8482   3.074   1.850  16.572 -1.4716  0.3928  1.5375
  568MPD2    H3 8483   3.036   1.895  16.327  0.3570 -0.3712 -0.4194
  568MPD2     N 8484   2.841   2.297  16.406 -0.2296  0.5993  0.2042
  568MPD2    H5 8485   2.828   2.362  16.483 -0.8638  1.8329 -0.9603
  568MPD2    N1 8486   3.060   2.061  16.758  0.0499 -0.0301 -0.3353
  568MPD2    H7 8487   3.026   2.130  16.824 -2.9435 -1.3698 -0.4337
  569TMC3    C1 8488   2.746   2.459  16.252  0.0314  0.2397  0.0994
  569TMC3    C2 8489   2.770   2.547  16.351  0.1218  0.0154 -1.1921
  569TMC3    C3 8490   2.802   2.677  16.322  0.5062 -0.2455 -0.4665
  569TMC3    C4 8491   2.747   2.498  16.121 -0.1642  0.1075 -0.0058
  569TMC3    C5 8492   2.772   2.629  16.098 -0.0629 -0.4825 -0.3691
  569TMC3    C6 8493   2.806   2.722  16.196  1.0579  0.3618  0.0669
  569TMC3     C 8494   2.784   2.319  16.282 -0.1973 -0.3020  0.7660
  569TMC3     O 8495   2.768   2.242  16.189 -0.2893 -0.2264  0.2144
  569TMC3     H 8496   2.743   2.520  16.452  0.2380 -0.1499 -1.2058
  569TMC3    H1 8497   2.740   2.422  16.045  0.5187  1.5824 -1.5387
  569TMC3    H2 8498   2.831   2.826  16.178  0.2901  0.8657  1.8933
  569TMC3    C7 8499   2.794   2.659  15.958 -0.4863 -0.1585  0.4580
  569TMC3    C8 8500   2.828   2.760  16.435 -0.3246 -0.1757 -0.3518
  569TMC3    O1 8501   2.821   2.569  15.877  0.5310 -0.3729  0.2259
  569TMC3    O2 8502   2.763   2.724  16.533 -0.0353  0.4448 -0.5831
  570TMC3    C1 8503   2.414   1.407  16.382 -0.0847 -0.2057  0.5115
  570TMC3    C2 8504   2.500   1.431  16.283  0.4257  0.1881  0.6432
  570TMC3    C3 8505   2.589   1.535  16.286 -0.0531  0.1326  1.0607
  570TMC3    C4 8506   2.399   1.494  16.482  0.0171  0.1356  0.0001
  570TMC3    C5 8507   2.492   1.596  16.489  0.7185 -0.0309  0.0871
  570TMC3    C6 8508   2.586   1.626  16.388  0.9791 -0.2053  0.1755
  570TMC3     C 8509   2.337   1.284  16.380  0.1580  0.3319  0.0999
  570TMC3     O 8510   2.329   1.227  16.272  0.6288 -0.3959  0.1442
  570TMC3     H 8511   2.494   1.365  16.197 -0.8129  1.1489  0.0021
  570TMC3    H1 8512   2.324   1.476  16.557  0.3227 -1.1114  0.0027
  570TMC3    H2 8513   2.667   1.698  16.394 -0.2717  1.1242  1.0750
  570TMC3    C7 8514   2.494   1.674  16.613  0.3091  0.0841 -0.0931
  570TMC3    C8 8515   2.676   1.583  16.181  0.6737  0.5415 -0.3059
  570TMC3    O1 8516   2.459   1.617  16.715  0.6787  0.6605  0.1106
  570TMC3    O2 8517   2.708   1.700  16.172 -0.7453  0.0502  0.1456
  571MPD2     C 8518   0.786   3.056   0.201  0.3122  0.0691 -1.1122
  571MPD2    C1 8519   0.765   3.130   0.313 -0.6719  0.7188  0.4902
  571MPD2    C2 8520   0.864   3.219   0.359 -0.5069  0.4736  0.6996
  571MPD2    C3 8521   0.990   3.212   0.304 -0.3500  0.1335  0.4950
  571MPD2    C4 8522   1.011   3.139   0.190 -0.3046 -0.1353 -0.7591
  571MPD2    C5 8523   0.913   3.058   0.144  0.1544  0.1710  0.0751
  571MPD2     H 8524   0.842   3.270   0.452  0.4319  0.7530  0.7684
  571MPD2    H1 8525   1.100   3.133   0.130  0.1325 -1.4541  0.0238
  571MPD2    H2 8526   0.717   2.980   0.167  0.3951 -0.9590  1.0138
  571MPD2    H3 8527   0.935   2.985   0.067  0.4583 -0.7988  1.0738
  571MPD2     N 8528   1.094   3.290   0.360  0.5896 -0.1121 -0.2154
  571MPD2    H5 8529   1.187   3.272   0.323  0.0070  2.1649 -2.7838
  571MPD2    N1 8530   0.658   3.099   0.404 -0.0522 -0.2418 -0.5768
  571MPD2    H7 8531   0.607   3.015   0.383  1.4370 -1.7862  1.9667
  572TMC3    C1 8532   1.210   3.444   0.498  0.1766 -0.2393  0.3677
  572TMC3    C2 8533   1.235   3.465   0.633 -0.3137  0.5268  0.1021
  572TMC3    C3 8534   1.257   3.593   0.672 -0.3945  0.6182 -0.5220
  572TMC3    C4 8535   1.234   3.531   0.396  0.2431  0.1441 -0.0659
  572TMC3    C5 8536   1.280   3.660   0.434  0.1853  0.1002  0.0191
  572TMC3    C6 8537   1.283   3.689   0.570  0.1696  0.2458  0.0873
  572TMC3     C 8538   1.091   3.367   0.481  0.0452 -0.1435 -0.5909
  572TMC3     O 8539   1.001   3.384   0.560 -0.0480 -0.7256  0.1576
  572TMC3     H 8540   1.188   3.394   0.700  1.1830 -0.0317  0.5588
  572TMC3    H1 8541   1.202   3.510   0.295 -0.2049  2.7686 -0.4676
  572TMC3    H2 8542   1.277   3.792   0.604 -1.0470  0.3398 -0.4232
  572TMC3    C7 8543   1.219   3.760   0.350 -0.1956 -0.1708 -0.0564
  572TMC3    C8 8544   1.188   3.645   0.794  0.1217  0.2465  0.5211
  572TMC3    O1 8545   1.100   3.752   0.338  0.0804 -0.3902 -0.1938
  572TMC3    O2 8546   1.164   3.769   0.792  0.2453 -0.0307  0.3284
  573MPD2     C 8547   1.641   3.464   0.471  0.5536 -0.1214 -0.2734
  573MPD2    C1 8548   1.658   3.599   0.480 -0.1536  0.7765  1.1022
  573MPD2    C2 8549   1.627   3.683   0.372 -0.1679 -0.1868 -0.2283
  573MPD2    C3 8550   1.591   3.624   0.252 -0.0101 -0.1628  0.2392
  573MPD2    C4 8551   1.564   3.496   0.248 -0.2492 -0.7036 -0.0881
  573MPD2    C5 8552   1.573   3.416   0.360  1.5060 -0.0923 -0.1246
  573MPD2     H 8553   1.635   3.791   0.378 -0.7334 -0.1017 -0.9932
  573MPD2    H1 8554   1.530   3.448   0.157 -1.1243 -1.1066  0.4496
  573MPD2    H2 8555   1.649   3.392   0.552  1.2828 -1.5679 -1.6241
  573MPD2    H3 8556   1.533   3.316   0.352 -0.0785  0.5441 -0.2040
  573MPD2     N 8557   1.574   3.703   0.136 -0.3348  0.2310 -0.3413
  573MPD2    H5 8558   1.532   3.653   0.058 -0.4487 -0.3573  0.0934
  573MPD2    N1 8559   1.703   3.640   0.610 -0.0803  0.7199  0.1996
  573MPD2    H7 8560   1.715   3.567   0.680  1.6275 -0.0646 -0.9012
  574TMC3    C1 8561   1.581   3.888  17.755 -0.0145  0.6287  0.4519
  574TMC3    C2 8562   1.458   3.858  17.715  0.0289  0.2404 -0.0428
  574TMC3    C3 8563   1.398   3.948  17.629 -0.0465 -0.7087 -0.1157
  574TMC3    C4 8564   1.652   3.995  17.718  0.0313 -0.7286 -0.3283
  574TMC3    C5 8565   1.598   4.080  17.629  0.1775  0.2960  0.1552
  574TMC3    C6 8566   1.464   4.062  17.594 -0.3138  0.5494  0.4456
  574TMC3     C 8567   1.634   3.819   0.110  0.1952 -0.5502 -0.1229
  574TMC3     O 8568   1.709   3.882   0.183 -0.2200 -0.1547  0.0728
  574TMC3     H 8569   1.408   3.769  17.750 -0.9224  0.3241 -1.2055
  574TMC3    H1 8570   1.755   4.014  17.749  0.5003 -1.1932 -1.5863
  574TMC3    H2 8571   1.420   4.123  17.516  0.0201 -1.9573 -1.6785
  574TMC3    C7 8572   1.684   4.184  17.563 -0.9509 -0.3366  0.1274
  574TMC3    C8 8573   1.258   3.929  17.635  0.0416  0.4229  0.0699
  574TMC3    O1 8574   1.803   4.157  17.577 -0.5305 -0.1520  0.0206
  574TMC3    O2 8575   1.221   3.817  17.651  0.0871 -0.2059  0.3475
  575TMC3    C1 8576   4.303   0.075  11.146 -0.3566  0.2427  0.3298
  575TMC3    C2 8577   4.247   0.001  11.243 -0.6888  0.4922  0.6066
  575TMC3    C3 8578   4.255   4.609  11.238 -0.0753 -0.9665 -0.6718
  575TMC3    C4 8579   4.363   0.020  11.027 -0.6848  0.2649 -0.1158
  575TMC3    C5 8580   4.353   4.621  11.022  0.3445 -0.2950  0.2240
  575TMC3    C6 8581   4.304   4.547  11.127 -0.3148  0.2326  0.2071
  575TMC3     C 8582   4.320   0.219  11.168 -0.8614 -0.3451 -0.0062
  575TMC3     O 8583   4.376   0.271  11.073 -0.1775  0.2522  0.5482
  575TMC3     H 8584   4.210   0.046  11.335  1.0783  1.2435  0.9431
  575TMC3    H1 8585   4.404   0.077  10.944 -0.4986 -0.7238 -0.6937
  575TMC3    H2 8586   4.281   4.442  11.110  0.6060  0.2981 -1.3802
  575TMC3    C7 8587   4.357   4.568  10.888 -0.0407  0.6218 -1.2754
  575TMC3    C8 8588   4.232   4.539  11.357  0.1653  0.1181 -0.3589
  575TMC3    O1 8589   4.346   4.656  10.810 -0.1050 -0.4988  0.1828
  575TMC3    O2 8590   4.159   4.574  11.444 -0.6924  0.3488 -0.1854
  576MPD2     C 8591   3.821   1.371  13.035 -0.3300  0.0401 -0.5666
  576MPD2    C1 8592   3.945   1.428  13.005 -0.4686 -0.0758 -0.2731
  576MPD2    C2 8593   3.973   1.556  13.047 -0.0680  0.1342  0.8496
  576MPD2    C3 8594   3.878   1.618  13.128  0.0548 -0.1747  0.6242
  576MPD2    C4 8595   3.756   1.559  13.158  0.6304  1.1601  0.3139
  576MPD2    C5 8596   3.727   1.435  13.110 -0.1779  0.7059  0.2119
  576MPD2     H 8597   4.069   1.603  13.032 -1.2274  2.2934  0.2640
  576MPD2    H1 8598   3.682   1.604  13.224 -0.5139  1.4754 -1.2034
  576MPD2    H2 8599   3.798   1.265  13.038 -0.1213  0.0476  1.0398
  576MPD2    H3 8600   3.628   1.394  13.130  0.8796 -1.8787  0.1213
  576MPD2     N 8601   3.906   1.749  13.171  0.4598  0.2260 -0.0995
  576MPD2    H5 8602   3.980   1.802  13.126  0.7207  0.0231  0.0987
  576MPD2    N1 8603   4.045   1.360  12.930  0.2167 -0.0737  0.1489
  576MPD2    H7 8604   4.108   1.418  12.876 -0.5850  1.7374  1.1738
  577TMC3    C1 8605   4.141   1.175  12.841 -0.0540 -0.5743 -0.2750
  577TMC3    C2 8606   4.141   1.040  12.822 -0.2303  0.6202 -0.3473
  577TMC3    C3 8607   4.193   0.992  12.707  0.7778 -0.3428 -0.0957
  577TMC3    C4 8608   4.219   1.266  12.770  0.0544 -0.1293  0.8374
  577TMC3    C5 8609   4.261   1.218  12.652  0.3687 -1.2323 -0.5650
  577TMC3    C6 8610   4.254   1.084  12.616  0.0577 -0.1427  0.2129
  577TMC3     C 8611   4.064   1.221  12.946  0.3828 -0.0249  0.7773
  577TMC3     O 8612   3.998   1.143  13.014 -0.3850  0.5722  0.0955
  577TMC3     H 8613   4.100   0.969  12.893  0.6722 -0.3316 -0.7729
  577TMC3    H1 8614   4.241   1.364  12.812  0.9046  0.5038 -1.0907
  577TMC3    H2 8615   4.298   1.047  12.524  1.3994  2.2899 -0.1473
  577TMC3    C7 8616   4.271   1.318  12.549  0.1773 -0.0419  0.1938
  577TMC3    C8 8617   4.259   0.870  12.723  0.1526 -0.0145  0.8878
  577TMC3    O1 8618   4.280   1.438  12.583  0.0433 -0.3520  0.1826
  577TMC3    O2 8619   4.279   0.823  12.828 -0.3278 -0.1549  0.0608
  578MPD2     C 8620   1.942   1.541   1.401  0.2169 -0.0135  0.5448
  578MPD2    C1 8621   1.976   1.457   1.296  0.7962  0.2229  0.5071
  578MPD2    C2 8622   2.095   1.384   1.309  0.5576  0.5215 -0.6463
  578MPD2    C3 8623   2.174   1.399   1.423 -0.2235 -0.2171  0.5210
  578MPD2    C4 8624   2.140   1.490   1.522  0.3104 -0.4959 -0.0365
  578MPD2    C5 8625   2.018   1.551   1.514  0.0749 -0.2622 -0.7079
  578MPD2     H 8626   2.131   1.316   1.233 -1.6232  0.1782 -1.3720
  578MPD2    H1 8627   2.205   1.496   1.609  2.0602 -1.3446 -1.2937
  578MPD2    H2 8628   1.857   1.607   1.392  0.3839  0.0326 -0.7550
  578MPD2    H3 8629   1.992   1.615   1.598  1.4648  0.0697 -0.5333
  578MPD2     N 8630   2.299   1.331   1.419  0.4337 -0.4316 -0.1312
  578MPD2    H5 8631   2.310   1.275   1.335  0.0376 -0.7821  0.0513
  578MPD2    N1 8632   1.883   1.455   1.189 -0.3432 -0.0127 -0.0171
  578MPD2    H7 8633   1.795   1.502   1.206 -0.9081 -1.0125 -0.2659
  579TMC3    C1 8634   2.525   1.253   1.469 -0.0991 -0.2901  0.4965
  579TMC3    C2 8635   2.643   1.300   1.515 -0.0989 -0.6683  0.7015
  579TMC3    C3 8636   2.757   1.233   1.471 -0.3694 -0.3835  1.0713
  579TMC3    C4 8637   2.511   1.147   1.388  0.9148  0.2342  0.3592
  579TMC3    C5 8638   2.623   1.075   1.358  0.0367  0.1952 -0.1542
  579TMC3    C6 8639   2.750   1.114   1.403 -0.4527 -0.8000 -0.4568
  579TMC3     C 8640   2.408   1.347   1.502  0.4135  0.0183  0.0968
  579TMC3     O 8641   2.415   1.418   1.601  0.0130 -0.4075  0.8230
  579TMC3     H 8642   2.660   1.385   1.581 -1.3984  1.3880 -1.6223
  579TMC3    H1 8643   2.411   1.107   1.377  1.6607 -1.5483 -0.0344
  579TMC3    H2 8644   2.831   1.041   1.393  0.6176  0.3989 -0.5303
  579TMC3    C7 8645   2.607   0.950   1.279  0.2218 -0.3753  0.4452
  579TMC3    C8 8646   2.887   1.279   1.518 -0.7435  0.1150 -0.0874
  579TMC3    O1 8647   2.700   0.869   1.285  0.1170  0.7609  0.5907
  579TMC3    O2 8648   2.891   1.367   1.602  0.2196  0.0877 -0.1846
  580TMC3    C1 8649   1.688   0.174  12.546 -0.2789  0.0284 -0.1760
  580TMC3    C2 8650   1.785   0.264  12.540  0.5967 -0.7258 -0.1552
  580TMC3    C3 8651   1.906   0.229  12.589  0.7082 -0.7313 -0.0584
  580TMC3    C4 8652   1.709   0.057  12.611  0.2770  0.1646  1.0298
  580TMC3    C5 8653   1.828   0.033  12.662  0.1237 -0.6830 -0.0000
  580TMC3    C6 8654   1.932   0.111  12.650  0.0658 -0.0869 -0.0769
  580TMC3     C 8655   1.573   0.176  12.458 -0.7172 -0.4516 -0.4837
  580TMC3     O 8656   1.495   0.081  12.468 -0.0323 -0.1901 -0.6877
  580TMC3     H 8657   1.766   0.359  12.491 -0.0546 -0.5584  0.4183
  580TMC3    H1 8658   1.627   4.726  12.611 -0.1614  0.6685  3.3935
  580TMC3    H2 8659   2.030   0.076  12.680  0.1029  1.7383  1.9694
  580TMC3    C7 8660   1.847   4.640  12.708  0.2580 -0.5401  0.5221
  580TMC3    C8 8661   2.020   0.303  12.536  0.0959 -0.3904 -0.5289
  580TMC3    O1 8662   1.877   4.635  12.826  0.0230 -0.6049  0.3040
  580TMC3    O2 8663   2.030   0.422  12.560  0.2591 -0.3879 -0.1922
  581MPD2     C 8664   4.035   0.054  14.922  0.1639  0.6018  0.3769
  581MPD2    C1 8665   3.900   0.052  14.963  0.8408 -0.5726  0.0422
  581MPD2    C2 8666   3.817   0.154  14.911  0.9223 -0.1395 -0.3718
  581MPD2    C3 8667   3.866   0.250  14.824  0.0994 -1.0740 -0.1720
  581MPD2    C4 8668   4.002   0.245  14.778  0.6230  0.8400  0.9672
  581MPD2    C5 8669   4.081   0.145  14.834 -0.1357 -0.2175 -0.2831
  581MPD2     H 8670   3.711   0.152  14.931  1.3343  0.1126  1.7454
  581MPD2    H1 8671   4.038   0.323  14.711 -2.1161  0.9711 -0.3403
  581MPD2    H2 8672   4.103   4.724  14.968 -1.2308 -0.8598  0.1781
  581MPD2    H3 8673   4.189   0.144  14.820 -0.0125 -0.7369  0.7471
  581MPD2     N 8674   3.772   0.345  14.778 -0.6432  0.7294  0.4807
  581MPD2    H5 8675   3.673   0.331  14.798 -0.1846 -3.3620 -0.1528
  581MPD2    N1 8676   3.862   4.698  15.061 -0.1595 -0.3510 -0.0456
  581MPD2    H7 8677   3.932   4.630  15.088 -1.0449 -1.7565 -1.2719
  582TMC3    C1 8678   3.722   4.636  15.243  0.1334 -0.2637  0.4591
  582TMC3    C2 8679   3.844   4.625  15.308 -0.0755 -0.2707 -0.4372
  582TMC3    C3 8680   3.850   4.684  15.435 -0.0580  0.3859  0.3345
  582TMC3    C4 8681   3.607   4.672  15.313  0.5156  0.1890  0.1777
  582TMC3    C5 8682   3.615   4.707  15.443 -0.7608  0.3061  0.1294
  582TMC3    C6 8683   3.735   4.718  15.508  0.8441 -0.0922  0.3566
  582TMC3     C 8684   3.734   4.697  15.112  0.0351  0.5049  0.1716
  582TMC3     O 8685   3.638   0.024  15.086 -0.8557  0.7183 -0.2425
  582TMC3     H 8686   3.941   4.598  15.267  0.0176  2.4821 -2.0675
  582TMC3    H1 8687   3.514   4.703  15.268 -0.5903 -3.1653  0.1448
  582TMC3    H2 8688   3.740   0.024  15.606  1.1116  0.9720 -0.1570
  582TMC3    C7 8689   3.523   0.073  15.472 -0.0309  0.3017  0.4974
  582TMC3    C8 8690   3.962   4.636  15.521  0.3904  0.7366  0.3254
  582TMC3    O1 8691   3.405   0.049  15.475 -0.2760  0.2264  0.4802
  582TMC3    O2 8692   4.031   4.548  15.481 -0.1707  0.1522  0.0078
  583MPD2     C 8693   4.516   1.924  16.741  0.3792 -0.1538  1.0115
  583MPD2    C1 8694   4.558   2.054  16.716 -0.0037 -0.0876  0.1686
  583MPD2    C2 8695   4.528   2.147  16.814 -0.9665  0.1177  0.0377
  583MPD2    C3 8696   4.464   2.107  16.934  0.4130  0.7211 -0.1128
  583MPD2    C4 8697   4.419   1.978  16.949 -0.0918  0.0407 -0.8511
  583MPD2    C5 8698   4.453   1.885  16.852 -0.3615 -0.1300  0.8745
  583MPD2     H 8699   4.552   2.253  16.811  1.5930 -0.4445  0.6874
  583MPD2    H1 8700   4.384   1.936  17.043  0.5340 -0.7756 -0.9825
  583MPD2    H2 8701   4.533   1.846  16.668  2.3246  0.2215  1.0652
  583MPD2    H3 8702   4.420   1.782  16.856 -2.0753  0.4082  0.5454
  583MPD2     N 8703   4.440   2.207  17.025  0.0696  0.0034 -0.4626
  583MPD2    H5 8704   4.466   2.303  17.006  1.6185 -0.2240  0.4697
  583MPD2    N1 8705   4.611   2.101  16.595  0.0092 -0.5724  0.1777
  583MPD2    H7 8706   4.624   2.201  16.580  0.3966 -0.4386  1.4506
  584TMC3    C1 8707   4.390   2.302  17.226 -0.4649  0.2841 -0.4451
  584TMC3    C2 8708   4.338   2.408  17.166  0.3068 -0.6144  0.1623
  584TMC3    C3 8709   4.321   2.524  17.236  0.1745  0.1742  0.2505
  584TMC3    C4 8710   4.418   2.296  17.359 -0.3897 -0.8169  0.3414
  584TMC3    C5 8711   4.401   2.410  17.428 -0.0370 -1.0394  0.5068
  584TMC3    C6 8712   4.357   2.527  17.373  0.4190 -0.4139  0.2299
  584TMC3     C 8713   4.401   2.180  17.156 -0.1809 -0.3003 -0.7812
  584TMC3     O 8714   4.357   2.080  17.213  0.3535  0.0080 -0.1534
  584TMC3     H 8715   4.308   2.403  17.062  0.1832  2.1005  0.0753
  584TMC3    H1 8716   4.448   2.204  17.408 -2.6247 -1.3421  0.7110
  584TMC3    H2 8717   4.350   2.618  17.430 -1.2465  0.3244 -1.1446
  584TMC3    C7 8718   4.403   2.391  17.574  0.3645  0.6549  0.3665
  584TMC3    C8 8719   4.263   2.639  17.171 -0.0747  0.2491 -0.0824
  584TMC3    O1 8720   4.430   2.280  17.617  0.3776  0.4430  0.2594
  584TMC3    O2 8721   4.189   2.617  17.074 -0.5071 -0.1255  0.3031
  585MPD2     C 8722   3.195   1.152   0.291 -0.4825 -0.6899 -0.3240
  585MPD2    C1 8723   3.296   1.220   0.227 -0.8929  0.3220 -0.4731
  585MPD2    C2 8724   3.373   1.151   0.136 -0.5076 -0.0363 -0.3441
  585MPD2    C3 8725   3.350   1.015   0.107 -0.1798  0.7124  0.7221
  585MPD2    C4 8726   3.247   0.954   0.167 -0.4628  0.2722  0.3648
  585MPD2    C5 8727   3.171   1.018   0.259  0.0999 -0.8269  0.0470
  585MPD2     H 8728   3.456   1.203   0.090 -1.3154  0.9803 -0.6449
  585MPD2    H1 8729   3.216   0.853   0.143  1.0516  0.1159 -0.9344
  585MPD2    H2 8730   3.129   1.212   0.352 -1.4430  0.3845 -2.4427
  585MPD2    H3 8731   3.078   0.973   0.294 -0.2226  0.3022  0.6317
  585MPD2     N 8732   3.411   0.945   0.008 -0.2228 -0.5918 -0.1671
  585MPD2    H5 8733   3.371   0.855  17.743  0.9145 -1.1236 -0.1065
  585MPD2    N1 8734   3.304   1.359   0.259  0.5999  0.8466  0.3355
  585MPD2    H7 8735   3.228   1.396   0.315  1.3069  0.8581  1.2729
  586TMC3    C1 8736   3.552   0.918  17.577  0.7743 -0.7959  0.5498
  586TMC3    C2 8737   3.660   0.971  17.509  0.6921 -0.1630  0.1131
  586TMC3    C3 8738   3.685   0.922  17.383 -0.4332 -0.0377 -0.4917
  586TMC3    C4 8739   3.476   0.823  17.517 -0.1056  0.4158 -0.3775
  586TMC3    C5 8740   3.514   0.770  17.397  0.2838  0.6680  0.4868
  586TMC3    C6 8741   3.619   0.817  17.327  0.8334 -0.3228 -0.0853
  586TMC3     C 8742   3.526   0.979  17.708  0.4650 -0.5166  0.0759
  586TMC3     O 8743   3.606   1.065  17.736  0.0426 -0.0965  0.4228
  586TMC3     H 8744   3.716   1.054  17.551  0.7931 -0.2282  0.1068
  586TMC3    H1 8745   3.393   0.773  17.566  0.6288 -1.4766 -1.0574
  586TMC3    H2 8746   3.653   0.792  17.227 -0.5216  0.1514 -0.6711
  586TMC3    C7 8747   3.505   0.624  17.388 -0.7191 -0.2271  0.1353
  586TMC3    C8 8748   3.824   0.918  17.344 -0.0676 -0.0324 -0.7150
  586TMC3    O1 8749   3.404   0.576  17.440 -0.1459  0.2679  0.2900
  586TMC3    O2 8750   3.852   0.960  17.232  0.1924  0.2161 -0.4667
  587TMC3    C1 8751   0.674   4.603  16.130 -0.9989 -1.0447  0.9677
  587TMC3    C2 8752   0.749   4.653  16.239 -0.1458 -0.4836  0.1378
  587TMC3    C3 8753   0.854   4.577  16.287  0.3068 -0.1355 -0.4734
  587TMC3    C4 8754   0.709   4.483  16.079  0.0386 -0.4273 -0.4288
  587TMC3    C5 8755   0.822   4.416  16.118  0.1044 -0.1529  0.4898
  587TMC3    C6 8756   0.895   4.462  16.226  0.3355  0.4518 -0.3550
  587TMC3     C 8757   0.544   4.658  16.129 -0.7392 -0.4171 -0.1889
  587TMC3     O 8758   0.538   0.036  16.159  0.6354  0.0064  0.3150
  587TMC3     H 8759   0.718   0.007  16.284 -0.6674 -0.4973 -0.1898
  587TMC3    H1 8760   0.663   4.442  15.989 -0.6539  0.3407 -0.4245
  587TMC3    H2 8761   0.975   4.411  16.278  0.6113  1.2022 -0.0421
  587TMC3    C7 8762   0.865   4.293  16.051  0.5915  0.0169 -0.6519
  587TMC3    C8 8763   0.933   4.625  16.389  0.1626 -0.5878 -0.0637
  587TMC3    O1 8764   0.799   4.245  15.958 -0.8729 -0.4790 -0.2673
  587TMC3    O2 8765   1.055   4.611  16.380  0.3468 -0.0109 -0.0547
  588TMC3    C1 8766   3.669   1.765  10.174  0.2096  0.4514 -0.0433
  588TMC3    C2 8767   3.633   1.639  10.127 -0.3242 -0.2028  0.2123
  588TMC3    C3 8768   3.728   1.543  10.154  0.0933  0.2298 -0.1756
  588TMC3    C4 8769   3.788   1.794  10.242  0.4077 -0.2836  0.2011
  588TMC3    C5 8770   3.874   1.687  10.263 -0.0761  0.3183  0.2826
  588TMC3    C6 8771   3.845   1.565  10.218  0.5096  0.0030  0.3978
  588TMC3     C 8772   3.564   1.869  10.145 -0.6510  0.4023  0.2251
  588TMC3     O 8773   3.482   1.854  10.052  0.7382  0.8196 -0.5461
  588TMC3     H 8774   3.533   1.608  10.100 -0.1097 -2.7381  2.2961
  588TMC3    H1 8775   3.818   1.898  10.249  2.0337 -0.6665 -1.1164
  588TMC3    H2 8776   3.912   1.482  10.240 -2.6253 -2.1078  2.0408
  588TMC3    C7 8777   3.987   1.715  10.353  0.2358  0.2987  0.4816
  588TMC3    C8 8778   3.694   1.418  10.091  0.5965 -0.1450 -0.6444
  588TMC3    O1 8779   4.069   1.630  10.381 -0.8578  1.0280 -0.0823
  588TMC3    O2 8780   3.610   1.429  10.000 -0.0206  0.2632  0.6991
  589TMC3    C1 8781   3.003   4.235   1.558  0.0033  0.3650 -0.4323
  589TMC3    C2 8782   3.072   4.133   1.617  0.4792  0.5169  0.0188
  589TMC3    C3 8783   3.109   4.034   1.534 -0.0304  0.1950 -0.8387
  589TMC3    C4 8784   2.955   4.231   1.434 -0.0770 -0.0709  0.2191
  589TMC3    C5 8785   2.976   4.113   1.363 -0.2205  0.0937 -0.0738
  589TMC3    C6 8786   3.066   4.023   1.407 -0.5181  0.5883 -0.7530
  589TMC3     C 8787   3.005   4.360   1.629  0.1588 -0.3985 -0.1467
  589TMC3     O 8788   3.023   4.360   1.748  0.0098  0.5006  0.1598
  589TMC3     H 8789   3.104   4.140   1.721 -0.3874 -1.2082  0.3816
  589TMC3    H1 8790   2.883   4.308   1.407  0.8964  0.2473 -1.4507
  589TMC3    H2 8791   3.084   3.935   1.347 -0.8664  0.2335 -0.3353
  589TMC3    C7 8792   2.909   4.088   1.235  0.3178  1.0227 -0.5635
  589TMC3    C8 8793   3.192   3.926   1.585  0.1112 -0.3102 -0.5797
  589TMC3    O1 8794   2.902   3.977   1.185  0.6662  0.2387  0.9590
  589TMC3    O2 8795   3.180   3.900   1.703 -0.6929  0.1440  0.0779
  590MPD2     C 8796   2.093   3.004  16.919  0.1799  0.0794 -0.5328
  590MPD2    C1 8797   2.083   3.119  16.847  0.1214  0.6869 -0.0653
  590MPD2    C2 8798   2.177   3.154  16.752 -0.6655  0.0236 -0.1517
  590MPD2    C3 8799   2.290   3.076  16.733  0.2199 -0.2080  0.5976
  590MPD2    C4 8800   2.306   2.965  16.804 -0.1189  0.9142 -0.0767
  590MPD2    C5 8801   2.204   2.930  16.888 -0.3295 -0.2841  0.5099
  590MPD2     H 8802   2.178   3.250  16.702  2.6624  0.0052 -0.1385
  590MPD2    H1 8803   2.397   2.907  16.799 -1.5962 -1.3541 -0.3668
  590MPD2    H2 8804   2.017   2.976  16.991  0.5108  2.2844  0.6496
  590MPD2    H3 8805   2.221   2.842  16.949  1.7294 -0.0843  0.2444
  590MPD2     N 8806   2.383   3.112  16.632 -0.5675  0.2430 -0.7075
  590MPD2    H5 8807   2.384   3.205  16.593  1.1505  0.7629  0.5807
  590MPD2    N1 8808   1.966   3.197  16.861  0.3632  0.3910  0.5823
  590MPD2    H7 8809   1.892   3.169  16.925 -1.2846  0.2520 -1.3912
  591TMC3    C1 8810   2.562   3.115  16.494  0.1342  0.2128  0.0517
  591TMC3    C2 8811   2.593   3.062  16.370 -0.8357  1.1042  0.3398
  591TMC3    C3 8812   2.595   3.148  16.262 -0.0297  0.7537 -0.0150
  591TMC3    C4 8813   2.544   3.243  16.512  0.4190 -0.7620 -0.1377
  591TMC3    C5 8814   2.540   3.326  16.405  0.0992  0.2738  0.2086
  591TMC3    C6 8815   2.569   3.281  16.281  0.6577  0.0551 -0.4236
  591TMC3     C 8816   2.482   3.032  16.582 -0.2946  0.3847  0.1382
  591TMC3     O 8817   2.504   2.911  16.594 -0.1250  0.1070 -0.2364
  591TMC3     H 8818   2.587   2.956  16.347 -1.1403  1.0730  0.5730
  591TMC3    H1 8819   2.529   3.290  16.609  0.7743 -0.9889  0.0250
  591TMC3    H2 8820   2.579   3.347  16.195 -1.6199 -0.1705 -0.8511
  591TMC3    C7 8821   2.451   3.434  16.420 -0.0588  0.3932 -0.7710
  591TMC3    C8 8822   2.571   3.088  16.136  0.0915 -0.1630  0.0940
  591TMC3    O1 8823   2.365   3.424  16.510 -0.1230  0.6923  1.0644
  591TMC3    O2 8824   2.608   2.972  16.132  0.1266 -0.0111  0.5816
  592MPD2     C 8825   2.484   4.382  11.383  0.0247 -0.4088 -1.2526
  592MPD2    C1 8826   2.484   4.446  11.508 -0.1491  0.0662 -0.3588
  592MPD2    C2 8827   2.407   4.381  11.607  0.0097  0.1030 -0.0746
  592MPD2    C3 8828   2.343   4.255  11.581 -0.0321 -0.1209 -0.6197
  592MPD2    C4 8829   2.357   4.197  11.457  0.5077  0.0542  0.3886
  592MPD2    C5 8830   2.424   4.264  11.358  0.6860 -0.1248 -0.2076
  592MPD2     H 8831   2.407   4.415  11.710  1.0264 -0.4062  0.0976
  592MPD2    H1 8832   2.301   4.112  11.419  0.5798  0.8210 -1.3984
  592MPD2    H2 8833   2.553   4.410  11.305 -0.4960  3.1250 -0.4615
  592MPD2    H3 8834   2.445   4.216  11.263  0.7047  0.7730 -0.6535
  592MPD2     N 8835   2.270   4.196  11.689  0.0297 -0.3743 -0.4079
  592MPD2    H5 8836   2.268   4.235  11.782 -1.9347  0.5576 -0.8447
  592MPD2    N1 8837   2.562   4.560  11.539 -0.5606 -0.6944  0.3169
  592MPD2    H7 8838   2.609   4.597  11.456  1.3800 -2.6140  0.5611
  593TMC3    C1 8839   2.676   4.738  11.647  0.3355 -0.2891  0.6138
  593TMC3    C2 8840   2.680   0.086  11.750 -0.3161  0.5347  0.3222
  593TMC3    C3 8841   2.791   0.164  11.783 -0.1093  0.4291  0.2298
  593TMC3    C4 8842   2.790   4.712  11.574 -0.1447  0.6007 -0.4004
  593TMC3    C5 8843   2.901   0.045  11.607 -0.3125 -0.5230  0.6068
  593TMC3    C6 8844   2.906   0.135  11.712 -1.1779 -0.2721  0.4094
  593TMC3     C 8845   2.571   4.635  11.651  0.3135 -0.1730  0.0316
  593TMC3     O 8846   2.523   4.614  11.759 -0.1764 -0.3078 -0.6784
  593TMC3     H 8847   2.586   0.115  11.796  0.9679  1.4112  2.3805
  593TMC3    H1 8848   2.798   4.631  11.503  1.3813  0.7400 -0.3813
  593TMC3    H2 8849   2.996   0.191  11.734 -0.9536  0.2907 -1.9418
  593TMC3    C7 8850   3.012   0.061  11.521  0.2412 -0.0454  0.0865
  593TMC3    C8 8851   2.772   0.302  11.783 -0.2175 -0.1221 -0.2480
  593TMC3    O1 8852   3.116   0.116  11.565 -0.2141  0.5980 -0.1320
  593TMC3    O2 8853   2.671   0.343  11.726  0.4150 -0.1233  0.0856
  594MPD2     C 8854   1.448   3.433  14.076  0.2940 -0.6124  0.1853
  594MPD2    C1 8855   1.432   3.441  14.211  1.1694 -0.7875 -0.3644
  594MPD2    C2 8856   1.524   3.501  14.294  1.0194 -0.4543  0.2668
  594MPD2    C3 8857   1.645   3.528  14.239 -0.4185 -0.6886  0.2754
  594MPD2    C4 8858   1.667   3.518  14.101 -0.0935  0.0467  0.6560
  594MPD2    C5 8859   1.570   3.461  14.023  0.4983  0.8202  0.2171
  594MPD2     H 8860   1.509   3.522  14.399 -0.9894  1.8792 -0.4860
  594MPD2    H1 8861   1.757   3.553  14.052 -0.7077 -0.8083 -1.0734
  594MPD2    H2 8862   1.372   3.379  14.019 -0.9838  2.3646 -0.9031
  594MPD2    H3 8863   1.584   3.434  13.919 -0.2837 -0.3581  0.4180
  594MPD2     N 8864   1.748   3.584  14.320  0.3210  0.0206  0.2817
  594MPD2    H5 8865   1.735   3.581  14.421 -2.3227  0.3987 -0.0302
  594MPD2    N1 8866   1.308   3.397  14.262 -0.3010  0.7578  0.2991
  594MPD2    H7 8867   1.243   3.358  14.194 -0.5331 -0.3529  1.1540
  595TMC3    C1 8868   2.084   3.897  14.425 -0.1444  0.3518 -0.2966
  595TMC3    C2 8869   2.038   3.795  14.343 -0.0210 -0.2698 -0.4009
  595TMC3    C3 8870   1.913   3.748  14.371  0.7086  1.0995 -0.3466
  595TMC3    C4 8871   1.998   3.961  14.514  0.3734 -0.1771 -0.8881
  595TMC3    C5 8872   1.872   3.919  14.521  0.5807 -0.3426 -0.3760
  595TMC3    C6 8873   1.826   3.805  14.456 -0.0894 -0.9904 -0.3838
  595TMC3     C 8874   2.221   3.923  14.446 -0.8357  0.1164 -0.2549
  595TMC3     O 8875   2.255   3.999  14.532 -0.1475 -0.1161  0.2935
  595TMC3     H 8876   2.093   3.761  14.256  0.1130 -0.9364 -0.0565
  595TMC3    H1 8877   2.033   4.045  14.573 -1.0686 -0.3520  0.2441
  595TMC3    H2 8878   1.719   3.788  14.455  0.2873 -3.1518 -3.0080
  595TMC3    C7 8879   1.788   3.979  14.616 -0.0671  0.2070  0.1327
  595TMC3    C8 8880   1.857   3.664  14.271 -0.3866  0.2089  0.0957
  595TMC3    O1 8881   1.813   4.098  14.647  0.1454 -0.3228  0.6879
  595TMC3    O2 8882   1.901   3.667  14.153  0.9804 -0.3796  0.2065
  596MPD2     C 8883   0.588   1.693  16.728  0.5408  0.4159 -0.3976
  596MPD2    C1 8884   0.597   1.821  16.676  0.8770  0.1486 -0.4714
  596MPD2    C2 8885   0.587   1.839  16.538 -0.7060  0.6603  0.2289
  596MPD2    C3 8886   0.559   1.737  16.450  0.3807  0.0079  0.5073
  596MPD2    C4 8887   0.560   1.610  16.505  0.0790 -0.0785  0.7493
  596MPD2    C5 8888   0.576   1.594  16.641  0.0781  0.1438 -0.6631
  596MPD2     H 8889   0.601   1.941  16.504 -1.5749  1.3843  2.0235
  596MPD2    H1 8890   0.539   1.523  16.444  1.9797 -0.4169  0.5691
  596MPD2    H2 8891   0.587   1.667  16.833  1.0611  1.0943 -0.2213
  596MPD2    H3 8892   0.567   1.490  16.671 -0.5652 -0.4207 -2.8099
  596MPD2     N 8893   0.546   1.761  16.314  0.2178  0.0868  0.4286
  596MPD2    H5 8894   0.556   1.685  16.248 -1.4234 -1.2263  1.6880
  596MPD2    N1 8895   0.598   1.948  16.752  0.9920  0.4216  0.0178
  596MPD2    H7 8896   0.604   2.036  16.700  0.1327 -0.6480 -1.8871
  597TMC3    C1 8897   0.616   2.085  16.942  0.1787 -0.4442 -0.0998
  597TMC3    C2 8898   0.718   2.170  16.890  0.2990  0.1615  0.0870
  597TMC3    C3 8899   0.742   2.290  16.951 -0.2255  0.4255  0.9646
  597TMC3    C4 8900   0.539   2.130  17.046  0.2076  0.6670 -0.9254
  597TMC3    C5 8901   0.564   2.255  17.095 -0.0322  0.6665 -0.0489
  597TMC3    C6 8902   0.656   2.338  17.051  0.1749 -0.3340 -0.2343
  597TMC3     C 8903   0.586   1.958  16.889  0.0931 -0.4750  1.5179
  597TMC3     O 8904   0.542   1.874  16.965 -0.1767  0.1076  0.5179
  597TMC3     H 8905   0.777   2.128  16.809 -0.8789  0.2613 -0.8261
  597TMC3    H1 8906   0.449   2.072  17.066  1.6147 -0.7532  1.2982
  597TMC3    H2 8907   0.679   2.439  17.082  0.2352 -0.8728  1.5135
  597TMC3    C7 8908   0.455   2.309  17.178  0.0553  0.7761  0.7878
  597TMC3    C8 8909   0.835   2.385  16.893  0.1732 -1.0510 -0.6902
  597TMC3    O1 8910   0.373   2.224  17.215 -0.2224 -0.1396 -0.2792
  597TMC3    O2 8911   0.886   2.463  16.972 -0.0931  0.1602  0.2975
  598TMC3    C1 8912   3.354   3.055  15.365 -0.3888 -0.5145  0.2036
  598TMC3    C2 8913   3.264   2.962  15.326  0.3690 -0.1482 -0.4262
  598TMC3    C3 8914   3.262   2.928  15.191  0.0625 -0.3906  1.0650
  598TMC3    C4 8915   3.437   3.122  15.275 -0.5718 -0.1258  0.3214
  598TMC3    C5 8916   3.430   3.094  15.144 -0.9044 -0.1989 -0.6643
  598TMC3    C6 8917   3.350   2.988  15.100  0.1051 -0.6595  0.6114
  598TMC3     C 8918   3.368   3.085  15.515  0.3746  0.5980  0.0033
  598TMC3     O 8919   3.434   3.183  15.540 -0.3074 -0.3740 -0.2343
  598TMC3     H 8920   3.194   2.921  15.398  1.2069  0.7602  0.9079
  598TMC3    H1 8921   3.511   3.191  15.312 -1.6169 -0.1874  2.4951
  598TMC3    H2 8922   3.339   2.971  14.994 -1.2264  2.7053  0.2081
  598TMC3    C7 8923   3.499   3.173  15.039 -0.1739  0.3071  0.3311
  598TMC3    C8 8924   3.176   2.816  15.143 -0.0088 -0.5816 -1.2134
  598TMC3    O1 8925   3.518   3.109  14.937  0.5298 -0.4671 -0.2124
  598TMC3    O2 8926   3.087   2.784  15.222 -0.1552 -0.3721 -0.2157
  599MPD2     C 8927   2.962   0.445  16.003  0.4830 -0.4044 -0.1653
  599MPD2    C1 8928   3.076   0.518  16.028 -0.5655 -0.2267  0.9159
  599MPD2    C2 8929   3.073   0.609  16.131  0.2470 -0.1102  0.2084
  599MPD2    C3 8930   2.950   0.640  16.196 -0.0890  0.5247  0.6754
  599MPD2    C4 8931   2.836   0.561  16.172  0.1081 -0.0268  0.1214
  599MPD2    C5 8932   2.847   0.469  16.068  0.5667 -0.3406 -0.2530
  599MPD2     H 8933   3.160   0.664  16.165 -0.8301  1.3015  0.6960
  599MPD2    H1 8934   2.747   0.563  16.234  0.5291 -1.1459  0.7580
  599MPD2    H2 8935   2.963   0.362  15.934 -0.6030  0.5609 -1.3529
  599MPD2    H3 8936   2.766   0.399  16.049 -0.4948  1.1204 -1.0394
  599MPD2     N 8937   2.934   0.725  16.307 -0.7326 -0.1958  0.0562
  599MPD2    H5 8938   2.854   0.724  16.369 -1.1192 -2.6763 -0.4801
  599MPD2    N1 8939   3.198   0.471  15.968  0.2802  0.5406  0.0093
  599MPD2    H7 8940   3.189   0.391  15.907  2.6378  0.6385 -0.4524
  600TMC3    C1 8941   2.984   0.887  16.471  0.2569  0.2004  0.8794
  600TMC3    C2 8942   2.956   0.807  16.582 -0.8964  0.1962  0.3809
  600TMC3    C3 8943   2.958   0.849  16.715 -0.0305 -0.4902 -0.2151
  600TMC3    C4 8944   3.041   1.007  16.505 -0.6873  0.0716  0.7605
  600TMC3    C5 8945   3.055   1.051  16.639 -0.0124 -0.1221 -0.2025
  600TMC3    C6 8946   3.007   0.979  16.744 -0.0026 -0.0226 -0.4359
  600TMC3     C 8947   3.031   0.810  16.359  0.1090  0.5806  0.5005
  600TMC3     O 8948   3.141   0.837  16.309 -0.1473 -0.2954 -0.7085
  600TMC3     H 8949   2.953   0.704  16.547 -0.6429  0.1926  0.3674
  600TMC3    H1 8950   3.086   1.071  16.430 -0.2855  0.6862  1.5265
  600TMC3    H2 8951   3.012   0.998  16.851  1.9817  0.3057 -0.5894
  600TMC3    C7 8952   3.098   1.193  16.655  0.3417  1.0573  0.3072
  600TMC3    C8 8953   2.886   0.773  16.820  0.0761 -0.1241  0.0691
  600TMC3    O1 8954   3.175   1.242  16.576 -0.1911 -0.2415 -0.3791
  600TMC3    O2 8955   2.913   0.796  16.936  0.1406 -0.3100  0.2027
  601MPD2     C 8956   1.214   4.245   0.207 -0.3003 -0.1366 -0.1207
  601MPD2    C1 8957   1.114   4.159   0.225 -0.2342  0.6831 -0.1055
  601MPD2    C2 8958   1.144   4.028   0.268  0.7168 -0.2951 -0.2461
  601MPD2    C3 8959   1.271   3.986   0.274 -0.0139  0.0711  0.1895
  601MPD2    C4 8960   1.372   4.068   0.227 -0.2215  0.0560 -0.6745
  601MPD2    C5 8961   1.343   4.198   0.203 -0.1302  0.4541  0.4881
  601MPD2     H 8962   1.054   3.974   0.295 -0.2182  1.1372 -0.5013
  601MPD2    H1 8963   1.474   4.030   0.223 -0.0747  0.3561  0.2013
  601MPD2    H2 8964   1.194   4.351   0.192  3.0320  0.3269 -1.1058
  601MPD2    H3 8965   1.419   4.274   0.187 -1.3545  1.2989 -1.3709
  601MPD2     N 8966   1.302   3.862   0.320 -0.5086  0.9476 -0.0930
  601MPD2    H5 8967   1.397   3.840   0.349 -0.2801  1.4802 -0.4415
  601MPD2    N1 8968   0.974   4.191   0.224 -0.2398  0.8044 -0.4636
  601MPD2    H7 8969   0.913   4.113   0.245 -0.8929  1.1538 -1.0785
  602TMC3    C1 8970   0.775   4.312   0.191 -0.4409  0.8427 -0.0394
  602TMC3    C2 8971   0.722   4.435   0.151  0.1886 -0.1004 -0.8721
  602TMC3    C3 8972   0.592   4.430   0.106  0.4383  0.2832  0.1479
  602TMC3    C4 8973   0.703   4.192   0.177 -0.1887  0.3508 -0.3441
  602TMC3    C5 8974   0.573   4.197   0.140  0.6787  0.2036  0.7477
  602TMC3    C6 8975   0.523   4.313   0.099 -0.6132 -0.6364 -0.2329
  602TMC3     C 8976   0.919   4.312   0.198  0.0867 -0.7064 -0.2419
  602TMC3     O 8977   0.976   4.422   0.215  0.4339  0.4219 -0.0318
  602TMC3     H 8978   0.776   4.527   0.165 -2.2260  1.1629  0.0702
  602TMC3    H1 8979   0.747   4.093   0.176 -0.2747  0.3127 -0.1817
  602TMC3    H2 8980   0.417   4.320   0.075 -0.7096 -1.6849 -0.1460
  602TMC3    C7 8981   0.524   4.073   0.080 -0.1869 -0.2809 -0.0493
  602TMC3    C8 8982   0.551   4.554   0.036  0.2044  0.4343  0.0686
  602TMC3    O1 8983   0.551   3.962   0.125  0.2021 -0.1011  0.3643
  602TMC3    O2 8984   0.624   4.650   0.039 -0.1677  0.1671 -0.4747
  603TMC3    C1 8985   4.190   3.998  11.361  0.4964  0.0940  0.3300
  603TMC3    C2 8986   4.149   3.975  11.491  0.0149  0.7653 -0.2960
  603TMC3    C3 8987   4.062   4.069  11.539  0.0797  0.1848 -0.2166
  603TMC3    C4 8988   4.136   4.085  11.279  0.2831 -0.3687  0.2241
  603TMC3    C5 8989   4.032   4.162  11.325  0.0583  0.2795  0.0472
  603TMC3    C6 8990   4.000   4.166  11.463 -0.8938  0.1034 -0.0763
  603TMC3     C 8991   4.257   3.884  11.297  0.6870 -0.0261 -0.1977
  603TMC3     O 8992   4.307   3.907  11.187 -0.1547  0.5106  0.6592
  603TMC3     H 8993   4.189   3.893  11.551  0.3107  1.1910  0.0900
  603TMC3    H1 8994   4.168   4.087  11.175  0.3491  0.4119  0.2626
  603TMC3    H2 8995   3.917   4.229  11.492 -1.6843  0.2932 -2.7237
  603TMC3    C7 8996   3.993   4.270  11.237 -0.3015  0.9217 -0.3601
  603TMC3    C8 8997   4.039   4.069  11.681 -0.1202  0.2266  0.0453
  603TMC3    O1 8998   3.940   4.373  11.275 -0.2823 -0.0005  0.4144
  603TMC3    O2 8999   4.063   3.962  11.735 -0.1234 -0.0685  0.1110
  604MPD2     C 9000   4.640   3.103  16.355  0.7621  0.1151 -0.0259
  604MPD2    C1 9001   4.540   3.063  16.266  0.3885  0.2607  0.0865
  604MPD2    C2 9002   4.565   3.078  16.135 -0.2604 -0.4354  0.4449
  604MPD2    C3 9003   4.682   3.143  16.088 -0.1491 -0.1320 -0.2932
  604MPD2    C4 9004   0.027   3.196  16.183  0.2636  1.1030  0.1472
  604MPD2    C5 9005   0.011   3.171  16.312  0.5255  0.5588 -0.9640
  604MPD2     H 9006   4.495   3.042  16.061 -0.0470 -1.0914  0.5645
  604MPD2    H1 9007   0.118   3.250  16.160  0.2264  1.4415  0.7931
  604MPD2    H2 9008   4.635   3.070  16.458 -1.2683 -0.2153 -0.2319
  604MPD2    H3 9009   0.092   3.190  16.382  1.4381  2.5550 -2.5575
  604MPD2     N 9010   4.691   3.162  15.951  0.0622  0.1190  0.4284
  604MPD2    H5 9011   4.617   3.129  15.889 -0.4987 -1.1417  1.7609
  604MPD2    N1 9012   4.432   2.990  16.316  0.9212 -0.5437 -0.5965
  604MPD2    H7 9013   4.420   2.980  16.417 -0.0956  0.1299 -0.6479
  605TMC3    C1 9014   4.224   2.887  16.327  0.0370  0.8583  0.3987
  605TMC3    C2 9015   4.252   2.864  16.456 -0.1489  0.2580  0.6134
  605TMC3    C3 9016   4.159   2.905  16.549 -0.1914  0.0324 -0.1247
  605TMC3    C4 9017   4.100   2.937  16.284  0.1108  0.0798 -0.1036
  605TMC3    C5 9018   4.011   2.950  16.374 -0.0230 -0.5003 -0.0204
  605TMC3    C6 9019   4.035   2.951  16.504 -0.3345 -0.7207 -0.5750
  605TMC3     C 9020   4.331   2.937  16.242  0.5586 -0.2579  0.6566
  605TMC3     O 9021   4.309   2.941  16.120 -0.3822 -0.1691  0.9417
  605TMC3     H 9022   4.347   2.818  16.481 -1.4134 -2.0212  1.2609
  605TMC3    H1 9023   4.080   2.975  16.184  1.6703  0.4285 -0.2919
  605TMC3    H2 9024   3.952   2.967  16.573 -2.3172 -1.3618 -2.7971
  605TMC3    C7 9025   3.884   3.010  16.329 -0.7937 -0.3544  0.7569
  605TMC3    C8 9026   4.225   3.002  16.642 -0.1158 -0.3835 -0.3763
  605TMC3    O1 9027   3.891   3.090  16.241 -0.0028  0.0521 -0.1479
  605TMC3    O2 9028   4.345   3.005  16.609 -0.2205 -0.0900  0.2123
  606TMC3    C1 9029   0.891   1.880  17.041  0.0803 -0.3479 -0.5106
  606TMC3    C2 9030   0.909   1.946  17.158 -0.1825 -0.0687  0.1848
  606TMC3    C3 9031   0.826   1.909  17.257 -0.1394  0.1272  0.1889
  606TMC3    C4 9032   0.821   1.766  17.026  0.0551  0.1251 -0.0464
  606TMC3    C5 9033   0.736   1.737  17.131 -0.5247  0.4730  0.1355
  606TMC3    C6 9034   0.730   1.811  17.245 -0.1742 -0.4014  0.0742
  606TMC3     C 9035   0.972   1.935  16.935 -0.6265  0.8826  0.4810
  606TMC3     O 9036   1.041   2.028  16.966 -0.9384  0.6087  0.1136
  606TMC3     H 9037   0.976   2.030  17.165  0.7813 -0.6469 -2.1157
  606TMC3    H1 9038   0.829   1.695  16.944  0.5243 -1.2736  1.2059
  606TMC3    H2 9039   0.693   1.762  17.334  3.2678 -0.9994  1.1954
  606TMC3    C7 9040   0.722   1.598  17.152  0.6289 -0.0501  0.1095
  606TMC3    C8 9041   0.879   1.933  17.388 -0.3757  0.8123 -0.1265
  606TMC3    O1 9042   0.794   1.516  17.094  0.5279 -0.2731  0.0593
  606TMC3    O2 9043   0.998   1.936  17.412  0.2908 -0.4536  0.4843
  607MPD2     C 9044   2.596   4.031  11.762 -0.6881  0.5481 -0.0700
  607MPD2    C1 9045   2.612   4.154  11.834 -0.2114 -0.4660  0.6023
  607MPD2    C2 9046   2.554   4.164  11.958 -0.0510  0.0096 -0.2863
  607MPD2    C3 9047   2.503   4.057  12.025 -0.3031 -0.2123  0.2299
  607MPD2    C4 9048   2.481   3.940  11.952 -0.5169 -0.4851  0.2963
  607MPD2    C5 9049   2.541   3.926  11.829  0.8022 -0.5292  0.3920
  607MPD2     H 9050   2.586   4.247  12.019  2.1431 -0.3304 -0.9841
  607MPD2    H1 9051   2.419   3.862  11.995  1.1943 -2.0124 -0.0517
  607MPD2    H2 9052   2.650   4.003  11.672 -0.7430 -2.0697  0.7058
  607MPD2    H3 9053   2.527   3.829  11.783  0.4726 -0.2835 -0.0275
  607MPD2     N 9054   2.478   4.073  12.161  0.0302  0.4252 -0.6058
  607MPD2    H5 9055   2.498   4.168  12.189 -0.3535  0.6342 -1.0356
  607MPD2    N1 9056   2.692   4.263  11.789 -0.0893 -0.1133 -0.1955
  607MPD2    H7 9057   2.697   4.334  11.860  0.9978 -0.1297 -0.2582
  608TMC3    C1 9058   2.862   4.395  11.684  0.2663  0.3131  0.6215
  608TMC3    C2 9059   2.873   4.469  11.801  0.3188  0.3873 -0.5429
  608TMC3    C3 9060   2.988   4.549  11.817  0.8732 -0.2721  0.3567
  608TMC3    C4 9061   2.964   4.394  11.592 -0.1397 -0.2895 -0.3966
  608TMC3    C5 9062   3.083   4.468  11.612 -0.4211  0.2840  0.0932
  608TMC3    C6 9063   3.088   4.545  11.726  0.2188  0.0170  0.0565
  608TMC3     C 9064   2.786   4.269  11.683 -1.2632  1.1163  0.3829
  608TMC3     O 9065   2.793   4.179  11.601  0.6174  0.1921 -0.5600
  608TMC3     H 9066   2.785   4.486  11.863  0.4119  0.3242 -0.3928
  608TMC3    H1 9067   2.952   4.340  11.499  0.3652 -1.8367  0.4472
  608TMC3    H2 9068   3.171   4.611  11.750  1.3523 -1.1814 -0.5404
  608TMC3    C7 9069   3.189   4.451  11.520 -0.7734  0.6167 -0.3452
  608TMC3    C8 9070   3.013   4.611  11.948 -0.2775  0.1710  0.3638
  608TMC3    O1 9071   3.175   4.392  11.412  0.7582 -0.1426  0.3031
  608TMC3    O2 9072   3.064   4.721  11.956 -0.9626 -0.7624  0.4759
  609TMC3    C1 9073   1.634   2.903   9.031  0.4921  0.4764 -0.1265
  609TMC3    C2 9074   1.583   2.835   8.924 -0.7621 -0.2141  0.7690
  609TMC3    C3 9075   1.667   2.758   8.852 -0.2880  0.3823 -0.0884
  609TMC3    C4 9076   1.765   2.897   9.068  0.3137 -0.1909 -0.3354
  609TMC3    C5 9077   1.849   2.820   8.984  0.0987 -0.8509 -0.4989
  609TMC3    C6 9078   1.799   2.746   8.881  0.7045  0.0643 -0.5145
  609TMC3     C 9079   1.547   2.976   9.125  0.0965  0.3404 -0.0743
  609TMC3     O 9080   1.444   3.026   9.082 -0.0438 -0.1416 -0.3654
  609TMC3     H 9081   1.475   2.834   8.919 -0.8164  3.9229  1.2346
  609TMC3    H1 9082   1.801   2.971   9.139  0.3119 -0.5813  0.0690
  609TMC3    H2 9083   1.859   2.677   8.823  0.2847  0.2485 -1.1799
  609TMC3    C7 9084   1.987   2.811   9.041  0.2627  0.1439  0.2411
  609TMC3    C8 9085   1.608   2.650   8.774  0.4574  0.5074 -0.2272
  609TMC3    O1 9086   2.006   2.848   9.156  0.4321  0.0573 -0.4336
  609TMC3    O2 9087   1.681   2.566   8.728 -0.1415 -0.8267 -0.2914
  610TMC3    C1 9088   3.236   4.499  12.692  0.4464  0.3293 -0.2893
  610TMC3    C2 9089   3.297   4.544  12.568 -0.1820  0.1775 -0.1581
  610TMC3    C3 9090   3.432   4.515  12.552 -0.4759  0.0473  0.1604
  610TMC3    C4 9091   3.302   4.422  12.780 -0.2056  0.3816  0.0036
  610TMC3    C5 9092   3.431   4.384  12.754 -0.2361  0.2297 -0.1433
  610TMC3    C6 9093   3.498   4.443  12.653 -0.0113  0.3633 -0.1417
  610TMC3     C 9094   3.117   4.569  12.738  0.3363  0.1220 -0.3738
  610TMC3     O 9095   3.035   4.511  12.811 -0.6507 -0.0625 -0.4578
  610TMC3     H 9096   3.243   4.606  12.498 -0.1165 -1.4019 -1.5878
  610TMC3    H1 9097   3.254   4.399  12.875  1.0830  0.0027  0.5729
  610TMC3    H2 9098   3.601   4.408  12.647 -0.4340 -0.8785 -0.1638
  610TMC3    C7 9099   3.499   4.295  12.853  0.5281  0.2140  0.0070
  610TMC3    C8 9100   3.512   4.585  12.456 -0.1846  0.2399 -0.5776
  610TMC3    O1 9101   3.618   4.308  12.857  0.2366  0.5393 -0.2485
  610TMC3    O2 9102   3.632   4.571  12.479  0.1271  0.6222  0.2241
  611MPD2     C 9103   3.040   4.166  10.109  0.2439  0.7330  0.3518
  611MPD2    C1 9104   3.079   4.055  10.163 -0.5738  0.0518 -0.9070
  611MPD2    C2 9105   3.211   4.047  10.215  0.2495  0.6095 -0.3104
  611MPD2    C3 9106   3.292   4.156  10.211  0.2154  0.0094 -0.2854
  611MPD2    C4 9107   3.252   4.270  10.156 -0.3249  0.0498 -0.1137
  611MPD2    C5 9108   3.127   4.274  10.105  0.5734  0.2824  0.3012
  611MPD2     H 9109   3.239   3.950  10.254 -1.3513  0.2521 -0.0513
  611MPD2    H1 9110   3.304   4.365  10.153  2.0692 -1.2475  0.6916
  611MPD2    H2 9111   2.942   4.181  10.067 -0.0208  1.0327  1.0753
  611MPD2    H3 9112   3.096   4.365  10.055  0.9340  2.3966  3.9741
  611MPD2     N 9113   3.425   4.146  10.257  0.0946  0.3272 -0.3044
  611MPD2    H5 9114   3.476   4.234  10.255 -1.5329  1.2550 -0.9800
  611MPD2    N1 9115   2.981   3.952  10.179  0.0192  0.2399  0.0887
  611MPD2    H7 9116   2.886   3.968  10.144  1.0462  0.8047 -2.4746
  612TMC3    C1 9117   3.641   4.053  10.333  0.7244  0.2956 -0.2253
  612TMC3    C2 9118   3.671   4.167  10.397 -0.3672  0.0767 -0.3192
  612TMC3    C3 9119   3.803   4.176  10.432  0.2277  0.1569 -0.2924
  612TMC3    C4 9120   3.737   3.954  10.312  0.6338  0.2567  0.8497
  612TMC3    C5 9121   3.863   3.961  10.367 -0.1922 -0.7281  0.6868
  612TMC3    C6 9122   3.902   4.080  10.423 -0.4226  0.1829 -0.4186
  612TMC3     C 9123   3.498   4.036  10.291  0.4169 -0.5568 -0.0957
  612TMC3     O 9124   3.479   3.920  10.259 -0.1219  0.5775  0.0235
  612TMC3     H 9125   3.595   4.236  10.430 -0.1263 -0.6310  1.6734
  612TMC3    H1 9126   3.699   3.866  10.261  1.3298 -0.9522  2.4058
  612TMC3    H2 9127   4.004   4.103  10.453 -0.3757  0.9099 -1.1136
  612TMC3    C7 9128   3.973   3.871  10.318  0.3697 -0.4083 -0.1515
  612TMC3    C8 9129   3.847   4.287  10.522 -0.8863 -0.9712  0.6020
  612TMC3    O1 9130   4.069   3.937  10.284  0.2154 -0.2075 -0.0995
  612TMC3    O2 9131   3.788   4.392  10.519 -0.0971 -0.6103  0.3098
  613MPD2     C 9132   2.189   1.977  17.055 -0.7688  0.6944 -0.7863
  613MPD2    C1 9133   2.174   2.018  16.922  0.0286  0.2476 -0.2810
  613MPD2    C2 9134   2.069   1.965  16.850 -0.1994 -0.1080  0.1942
  613MPD2    C3 9135   1.985   1.866  16.900 -0.3952 -0.7214  1.0106
  613MPD2    C4 9136   2.001   1.828  17.034  0.3586  0.2432  0.3842
  613MPD2    C5 9137   2.105   1.884  17.107  0.6325  0.0656 -0.7785
  613MPD2     H 9138   2.047   2.004  16.751 -0.6399 -0.9582 -0.0448
  613MPD2    H1 9139   1.937   1.754  17.080 -0.1721 -0.4547 -1.4799
  613MPD2    H2 9140   2.266   2.025  17.114 -1.4863  1.6168 -0.5941
  613MPD2    H3 9141   2.120   1.855  17.210  1.6941  2.3425 -0.2842
  613MPD2     N 9142   1.885   1.809  16.824 -0.0473  0.2177 -0.8098
  613MPD2    H5 9143   1.835   1.727  16.857  0.7451  0.8204  1.8972
  613MPD2    N1 9144   2.263   2.117  16.880  0.4686  0.1017  0.6145
  613MPD2    H7 9145   2.330   2.145  16.951 -0.1255  1.3758  0.6744
  614TMC3    C1 9146   2.218   2.121  16.636 -0.7269  0.1596  0.3072
  614TMC3    C2 9147   2.237   1.995  16.595  0.1554  0.6258 -0.0229
  614TMC3    C3 9148   2.187   1.965  16.466  0.8377  0.5993  0.5427
  614TMC3    C4 9149   2.153   2.211  16.564 -0.4801  0.4275  0.6780
  614TMC3    C5 9150   2.098   2.183  16.448  0.0854  0.3228  0.1152
  614TMC3    C6 9151   2.115   2.059  16.394  0.1475 -0.1381 -0.6831
  614TMC3     C 9152   2.284   2.173  16.757 -0.7369  1.1146 -0.6419
  614TMC3     O 9153   2.364   2.260  16.736  0.0781  0.3348 -0.2751
  614TMC3     H 9154   2.289   1.926  16.660 -1.8723 -0.2132  0.7309
  614TMC3    H1 9155   2.140   2.311  16.605 -2.5862  1.0724 -1.5910
  614TMC3    H2 9156   2.072   2.038  16.297 -0.9131  1.5126 -0.5783
  614TMC3    C7 9157   2.018   2.285  16.387  0.2619  0.8776  0.4529
  614TMC3    C8 9158   2.161   1.815  16.462 -0.1072  0.5669  0.1490
  614TMC3    O1 9159   2.016   2.397  16.433 -0.0825 -0.2103 -0.2953
  614TMC3    O2 9160   2.153   1.751  16.569 -0.6837  0.0452  0.1224
  615MPD2     C 9161   1.350   3.654  16.258  0.6232 -0.0168 -0.6188
  615MPD2    C1 9162   1.219   3.680  16.284  0.5249 -0.7885  0.4198
  615MPD2    C2 9163   1.117   3.613  16.215  0.4026 -0.2251 -0.0505
  615MPD2    C3 9164   1.142   3.527  16.108  0.3517  0.1635  0.1866
  615MPD2    C4 9165   1.274   3.502  16.077  0.2087 -0.1998 -0.4251
  615MPD2    C5 9166   1.367   3.563  16.153  0.0429  0.6413 -0.3206
  615MPD2     H 9167   1.015   3.646  16.230  0.4918  0.9159 -1.9360
  615MPD2    H1 9168   1.303   3.442  15.991  0.5989 -0.0680 -0.3859
  615MPD2    H2 9169   1.441   3.683  16.308 -0.1116 -1.6298  1.6275
  615MPD2    H3 9170   1.466   3.522  16.135 -0.0881  0.0276  0.3367
  615MPD2     N 9171   1.041   3.481  16.022  0.1423  0.1186 -0.2486
  615MPD2    H5 9172   1.070   3.430  15.939  1.1283  0.5907 -0.1939
  615MPD2    N1 9173   1.173   3.775  16.375 -0.2830 -0.0477  0.2206
  615MPD2    H7 9174   1.073   3.787  16.389  0.0743  2.3776  0.5953
  616TMC3    C1 9175   1.187   3.974  16.503 -0.7089 -0.0250 -0.3010
  616TMC3    C2 9176   1.252   4.020  16.614  0.7623  0.1520 -0.0775
  616TMC3    C3 9177   1.217   4.137  16.668 -0.4827 -0.6515 -0.2617
  616TMC3    C4 9178   1.079   4.038  16.442 -0.3556  0.5736 -0.2671
  616TMC3    C5 9179   1.042   4.155  16.505  0.5697 -0.3615  0.5085
  616TMC3    C6 9180   1.112   4.206  16.615  0.1620 -0.1281 -0.0716
  616TMC3     C 9181   1.253   3.864  16.440 -0.0371 -0.5313 -0.7651
  616TMC3     O 9182   1.374   3.865  16.439  0.0219  0.1928  0.1297
  616TMC3     H 9183   1.338   3.968  16.656 -0.0698 -0.5038  0.8252
  616TMC3    H1 9184   1.025   3.987  16.362 -1.6230  0.7537  0.4715
  616TMC3    H2 9185   1.098   4.305  16.656  0.1597  0.1374 -0.7247
  616TMC3    C7 9186   0.914   4.224  16.472  0.1085  0.0027  0.6496
  616TMC3    C8 9187   1.312   4.214  16.752 -0.2456  0.4877 -0.1717
  616TMC3    O1 9188   0.863   4.185  16.368 -0.3809 -0.8904  0.1413
  616TMC3    O2 9189   1.285   4.328  16.785  0.1573  0.3528 -0.5827
  617MPD2     C 9190   4.587   1.409  13.702 -0.2573 -0.0927 -0.7476
  617MPD2    C1 9191   4.545   1.450  13.827  0.7549  0.4441  0.4316
  617MPD2    C2 9192   4.414   1.437  13.859 -0.4055 -0.5380  0.3652
  617MPD2    C3 9193   4.322   1.381  13.773 -0.2438 -0.3042  0.2238
  617MPD2    C4 9194   4.369   1.332  13.652 -0.0754 -0.3290  0.0998
  617MPD2    C5 9195   4.502   1.339  13.616  0.3471 -0.0413 -0.0072
  617MPD2     H 9196   4.379   1.481  13.951  0.4804  1.1518 -0.0987
  617MPD2    H1 9197   4.303   1.286  13.580  0.5871 -0.3846 -0.4641
  617MPD2    H2 9198   4.690   1.421  13.674  0.1305 -2.8953 -0.5492
  617MPD2    H3 9199   4.531   1.302  13.518  1.2446  1.1787 -0.1993
  617MPD2     N 9200   4.186   1.350  13.797  0.5463  0.2841  0.3439
  617MPD2    H5 9201   4.135   1.290  13.732 -1.5913  1.5218  0.9101
  617MPD2    N1 9202   4.648   1.484  13.929 -0.1333 -0.0048  0.7209
  617MPD2    H7 9203   0.005   1.485  13.901 -0.7136 -2.3732 -1.2950
  618TMC3    C1 9204   0.022   1.534  14.114 -0.1235 -0.7513 -0.3861
  618TMC3    C2 9205   0.048   1.430  14.196 -0.5650  0.0394  0.6864
  618TMC3    C3 9206   0.176   1.399  14.221  0.6303 -0.0126 -0.2609
  618TMC3    C4 9207   0.118   1.599  14.038  0.9170  0.1053  0.3401
  618TMC3    C5 9208   0.246   1.564  14.066 -0.0108 -0.4825  0.4016
  618TMC3    C6 9209   0.286   1.462  14.161 -0.0455  0.1106 -0.1419
  618TMC3     C 9210   4.631   1.518  14.058  0.1732 -1.2661 -1.2006
  618TMC3     O 9211   4.529   1.510  14.124  0.8570  0.4571  0.2286
  618TMC3     H 9212   4.705   1.368  14.226 -0.3923 -0.1289  0.8234
  618TMC3    H1 9213   0.092   1.683  13.974 -1.7530 -1.5341 -0.7513
  618TMC3    H2 9214   0.390   1.434  14.174 -0.2842 -0.4167  0.6097
  618TMC3    C7 9215   0.343   1.659  14.029  0.1111  0.5570 -0.6942
  618TMC3    C8 9216   0.197   1.263  14.258  0.2668 -0.5641 -0.8518
  618TMC3    O1 9217   0.323   1.773  14.067  0.2993  0.2844 -0.3318
  618TMC3    O2 9218   0.117   1.221  14.345  0.1298  0.0455 -0.2359
  619MPD2     C 9219   0.639   2.729  13.950 -0.1488 -0.6649 -0.0932
  619MPD2    C1 9220   0.566   2.819  13.880  0.8527  0.3170  1.2202
  619MPD2    C2 9221   0.435   2.829  13.899  0.0210 -0.3224  0.5201
  619MPD2    C3 9222   0.372   2.754  13.991  0.2335  0.5473  0.9598
  619MPD2    C4 9223   0.444   2.671  14.071  0.7308 -0.6652 -0.3268
  619MPD2    C5 9224   0.576   2.660  14.053 -0.1761  0.3019  0.4153
  619MPD2     H 9225   0.374   2.902  13.847 -0.2365 -0.2795  0.8776
  619MPD2    H1 9226   0.400   2.605  14.145  0.0104 -2.2295 -2.1514
  619MPD2    H2 9227   0.737   2.694  13.920  0.8364 -0.0413  2.3784
  619MPD2    H3 9228   0.635   2.591  14.112  0.3962 -0.1585 -0.6873
  619MPD2     N 9229   0.228   2.761  14.024  0.0239  0.0990 -0.2624
  619MPD2    H5 9230   0.197   2.695  14.094  2.0330 -1.2104 -0.6183
  619MPD2    N1 9231   0.622   2.901  13.779 -0.3430 -0.4576  0.5460
  619MPD2    H7 9232   0.552   2.935  13.715 -0.1975 -2.7530 -0.8366
  620TMC3    C1 9233   0.780   3.062  13.691 -0.4174  0.9023 -0.2402
  620TMC3    C2 9234   0.691   3.086  13.585 -0.5100  0.6567  0.0423
  620TMC3    C3 9235   0.707   3.208  13.514 -0.2384  0.2574 -0.1240
  620TMC3    C4 9236   0.882   3.141  13.726  0.0829  0.4119  0.4718
  620TMC3    C5 9237   0.888   3.263  13.660  0.5650 -0.1390  0.4242
  620TMC3    C6 9238   0.801   3.297  13.553  0.1186  0.5259 -0.8573
  620TMC3     C 9239   0.751   2.949  13.784 -0.4659 -0.0696 -0.1717
  620TMC3     O 9240   0.846   2.926  13.858 -0.0666 -0.1366 -0.2133
  620TMC3     H 9241   0.609   3.016  13.573 -0.7038  0.8594  0.1746
  620TMC3    H1 9242   0.957   3.125  13.802 -1.9988 -0.6918  2.2943
  620TMC3    H2 9243   0.813   3.392  13.502  1.2195  0.8560 -0.0097
  620TMC3    C7 9244   0.920   3.371  13.746  0.5857  0.2216 -0.2499
  620TMC3    C8 9245   0.595   3.281  13.489 -0.2040  0.4776  0.7088
  620TMC3    O1 9246   1.003   3.356  13.835 -0.3036 -0.3736  0.0976
  620TMC3    O2 9247   0.608   3.395  13.527  0.3163  0.2227  0.0599
  621MPD2     C 9248   1.498   2.441   9.583  0.5073  0.6322  0.3363
  621MPD2    C1 9249   1.443   2.533   9.664  0.4043  1.0707 -0.1235
  621MPD2    C2 9250   1.527   2.623   9.730 -0.5302  0.1427  0.5686
  621MPD2    C3 9251   1.659   2.617   9.723 -0.5146  0.8653  0.1372
  621MPD2    C4 9252   1.708   2.526   9.633 -0.1693 -0.1603  0.6149
  621MPD2    C5 9253   1.633   2.432   9.568 -0.8490  0.5744 -0.1754
  621MPD2     H 9254   1.491   2.698   9.799 -2.6326 -0.8158  0.5094
  621MPD2    H1 9255   1.815   2.514   9.621 -0.1057  1.5866 -0.5156
  621MPD2    H2 9256   1.439   2.369   9.527  0.7249  2.3945 -2.1247
  621MPD2    H3 9257   1.680   2.366   9.496 -2.6033 -0.9435  0.1036
  621MPD2     N 9258   1.743   2.701   9.798  0.0694  0.2894 -0.3185
  621MPD2    H5 9259   1.693   2.770   9.855  1.6556  2.5731 -1.6689
  621MPD2    N1 9260   1.303   2.561   9.677  1.1179  0.2002 -0.7076
  621MPD2    H7 9261   1.269   2.625   9.747  0.1847  0.2253 -1.1744
  622TMC3    C1 9262   1.076   2.531   9.637 -1.1331  0.8335 -0.1898
  622TMC3    C2 9263   1.045   2.555   9.764  0.7154 -0.6833  0.5079
  622TMC3    C3 9264   0.930   2.619   9.788 -0.3805  0.3077 -0.0681
  622TMC3    C4 9265   0.984   2.550   9.538  0.1595 -0.8997  0.4044
  622TMC3    C5 9266   0.873   2.618   9.567  0.5402  0.5341 -0.3714
  622TMC3    C6 9267   0.847   2.658   9.693 -0.8186  0.1261  0.0856
  622TMC3     C 9268   1.209   2.493   9.605 -0.2415 -0.9170 -0.1718
  622TMC3     O 9269   1.227   2.441   9.492  0.6435  0.0276  0.0783
  622TMC3     H 9270   1.124   2.541   9.837  0.7696  0.5522  0.6815
  622TMC3    H1 9271   1.010   2.534   9.434  0.4836  1.3481  0.1553
  622TMC3    H2 9272   0.754   2.709   9.716 -2.0222  0.0033 -4.4298
  622TMC3    C7 9273   0.800   2.650   9.450 -0.4756  0.1723 -0.3922
  622TMC3    C8 9274   0.895   2.654   9.928  0.0409 -0.1752  0.4676
  622TMC3    O1 9275   0.795   2.570   9.359 -0.2061  0.6753 -0.1376
  622TMC3    O2 9276   0.806   2.741   9.940  0.4741  0.2598 -0.4345
  623MPD2     C 9277   4.622   3.905  15.980  0.7055  0.0689  0.0320
  623MPD2    C1 9278   4.606   3.766  15.993  0.0399 -0.0941  0.3596
  623MPD2    C2 9279   4.655   3.700  16.104 -0.5757  0.2084  0.1258
  623MPD2    C3 9280   4.709   3.772  16.207 -0.2487 -0.4983  0.2745
  623MPD2    C4 9281   4.721   3.907  16.196  0.3481  0.8360 -0.6768
  623MPD2    C5 9282   4.689   3.970  16.079 -0.0741  0.2101 -0.3086
  623MPD2     H 9283   4.643   3.594  16.119 -0.6935  0.3674  1.1251
  623MPD2    H1 9284   0.026   3.958  16.279 -1.1225  1.2849 -0.1596
  623MPD2    H2 9285   4.583   3.949  15.889 -0.6449 -3.3072 -0.9908
  623MPD2    H3 9286   4.713   4.076  16.076 -0.4756  0.2411 -3.0036
  623MPD2     N 9287   0.005   3.694  16.316  0.3055  0.0405 -0.1125
  623MPD2    H5 9288   4.704   3.601  16.320 -0.4207  0.3565 -0.4356
  623MPD2    N1 9289   4.550   3.701  15.880 -0.3878  0.3779  0.7462
  623MPD2    H7 9290   4.471   3.749  15.836  0.4372 -0.8243 -2.0734
  624TMC3    C1 9291   0.185   3.547  16.713 -0.4546  1.0138 -0.2975
  624TMC3    C2 9292   0.081   3.458  16.742  0.2509 -0.4456  0.4829
  624TMC3    C3 9293   4.714   3.468  16.663  0.6187  0.2660  0.8080
  624TMC3    C4 9294   0.186   3.631  16.606 -0.3369  0.7148 -0.2795
  624TMC3    C5 9295   0.072   3.633  16.530 -0.0187  0.7271  0.0198
  624TMC3    C6 9296   4.701   3.555  16.560  0.3511  0.1262  0.1780
  624TMC3     C 9297   0.298   3.545  16.809 -0.1352 -0.4566 -0.7575
  624TMC3     O 9298   0.311   3.450  16.884  0.3791 -0.7831 -0.0235
  624TMC3     H 9299   0.094   3.387  16.823 -0.8708  0.2912  1.2957
  624TMC3    H1 9300   0.271   3.689  16.571 -1.6757  1.0609 -2.9533
  624TMC3    H2 9301   4.609   3.562  16.503 -0.0528 -0.1000  0.8075
  624TMC3    C7 9302   0.067   3.733  16.427  0.0482  0.8462 -0.1057
  624TMC3    C8 9303   4.601   3.381  16.704 -0.1358  0.7128  0.5216
  624TMC3    O1 9304   0.124   3.840  16.457 -0.1256  0.1111  0.3548
  624TMC3    O2 9305   4.621   3.264  16.719 -0.6363  0.7116 -0.2795
  625MPD2     C 9306   0.473   0.106   1.302 -0.0020 -1.1787  0.4550
  625MPD2    C1 9307   0.489   0.192   1.200 -0.3021 -1.2663 -0.0917
  625MPD2    C2 9308   0.617   0.241   1.175  0.8381  0.2824  0.6192
  625MPD2    C3 9309   0.729   0.182   1.235  0.4575 -0.3142  0.4308
  625MPD2    C4 9310   0.707   0.101   1.349 -0.7839 -0.5897  0.4515
  625MPD2    C5 9311   0.582   0.061   1.381  0.2916  0.2885  0.3651
  625MPD2     H 9312   0.630   0.308   1.091  3.9612  1.3905  2.0049
  625MPD2    H1 9313   0.791   0.068   1.410 -3.4332 -2.8183  2.8708
  625MPD2    H2 9314   0.376   0.064   1.327 -0.0217 -0.5843  1.3575
  625MPD2    H3 9315   0.565   4.733   1.463  1.3506  1.1577  1.3013
  625MPD2     N 9316   0.861   0.214   1.184 -0.2835  0.3484 -0.2284
  625MPD2    H5 9317   0.867   0.275   1.102  0.7321  0.7349  0.1237
  625MPD2    N1 9318   0.383   0.245   1.125 -0.2159  0.0869 -0.2798
  625MPD2    H7 9319   0.399   0.333   1.077 -0.0595 -0.3765 -1.0705
  626TMC3    C1 9320   0.173   0.277   1.040 -0.2760 -0.6057 -0.3112
  626TMC3    C2 9321   0.129   0.234   0.922  0.1058  0.7664 -0.4086
  626TMC3    C3 9322   0.028   0.316   0.875 -0.0381 -0.3901 -0.2795
  626TMC3    C4 9323   0.112   0.378   1.119 -0.4950 -0.1321  0.2119
  626TMC3    C5 9324   0.012   0.448   1.062 -0.2498 -0.0386  0.1962
  626TMC3    C6 9325   4.717   0.425   0.934  0.3428 -0.0988  0.2055
  626TMC3     C 9326   0.259   0.190   1.106 -0.0707 -0.1377 -0.1055
  626TMC3     O 9327   0.219   0.076   1.116 -0.0012  0.3197  0.2455
  626TMC3     H 9328   0.178   0.150   0.874  1.0218  0.6888  0.6642
  626TMC3    H1 9329   0.126   0.369   1.226  1.5826  1.9175  0.1162
  626TMC3    H2 9330   4.648   0.490   0.882  1.8547  0.7365 -0.7438
  626TMC3    C7 9331   4.641   0.494   1.141 -0.0876 -0.0345 -0.0956
  626TMC3    C8 9332   4.729   0.281   0.738 -0.9297  0.1907 -0.4794
  626TMC3    O1 9333   4.664   0.543   1.252  0.2141  0.1765 -0.3692
  626TMC3    O2 9334   4.689   0.377   0.672 -0.3763 -0.7485 -0.2177
  627MPD2     C 9335   3.204   0.444  14.362  1.0215 -0.2286 -1.0215
  627MPD2    C1 9336   3.273   0.378  14.462  0.2116 -0.1297  0.1377
  627MPD2    C2 9337   3.255   0.245  14.476 -0.0127 -0.4105  0.1290
  627MPD2    C3 9338   3.171   0.178  14.393 -0.4325  0.4805 -0.2653
  627MPD2    C4 9339   3.101   0.246  14.294  0.1235  0.3117 -0.1774
  627MPD2    C5 9340   3.120   0.380  14.275 -0.6069  0.0969  0.1998
  627MPD2     H 9341   3.304   0.187  14.553  1.3731  1.1623  0.4105
  627MPD2    H1 9342   3.043   0.186  14.224 -0.7208 -0.7231  1.3893
  627MPD2    H2 9343   3.226   0.550  14.353  1.4910 -0.3330 -1.0719
  627MPD2    H3 9344   3.082   0.428  14.185 -1.4461 -2.5647 -0.8590
  627MPD2     N 9345   3.159   0.041  14.423 -0.1081  0.1004  0.3746
  627MPD2    H5 9346   3.212   0.008  14.503  1.0524  2.1407  0.4202
  627MPD2    N1 9347   3.362   0.440  14.547 -0.0884 -0.0796 -0.8447
  627MPD2    H7 9348   3.410   0.375  14.608 -3.5678 -2.1238 -0.2631
  628TMC3    C1 9349   3.500   0.612  14.621  0.1887  0.5531 -0.5584
  628TMC3    C2 9350   3.602   0.524  14.636 -0.5107 -0.0018  1.0230
  628TMC3    C3 9351   3.710   0.560  14.711 -0.0811  0.6045  0.3166
  628TMC3    C4 9352   3.508   0.738  14.678  0.1006 -0.3148  0.2241
  628TMC3    C5 9353   3.625   0.771  14.746  0.2155 -0.6338 -0.1669
  628TMC3    C6 9354   3.735   0.688  14.742 -0.3071 -0.1496  0.2143
  628TMC3     C 9355   3.388   0.576  14.547 -0.4184 -0.3458 -0.1269
  628TMC3     O 9356   3.330   0.663  14.489 -0.1479 -0.3903 -0.0975
  628TMC3     H 9357   3.606   0.425  14.592 -3.6341  0.6442 -0.7379
  628TMC3    H1 9358   3.421   0.801  14.661 -0.1304 -1.3826 -2.5170
  628TMC3    H2 9359   3.819   0.720  14.802 -0.2642 -1.5241  0.8753
  628TMC3    C7 9360   3.665   0.909  14.760 -0.0730 -0.2103  0.9747
  628TMC3    C8 9361   3.820   0.463  14.729 -0.6067 -0.3443 -0.1326
  628TMC3    O1 9362   3.741   0.921  14.856  0.2777  0.8129 -0.2935
  628TMC3    O2 9363   3.931   0.509  14.745  0.2341  0.0422  0.1258
  629MPD2     C 9364   1.801   4.368  16.813  0.2219 -0.2117  0.4137
  629MPD2    C1 9365   1.804   4.229  16.780 -0.7058 -0.2121  0.4998
  629MPD2    C2 9366   1.683   4.168  16.760 -0.6718 -0.6611 -0.7207
  629MPD2    C3 9367   1.561   4.236  16.751  0.2981 -0.3095  0.5437
  629MPD2    C4 9368   1.570   4.372  16.757 -0.9269  0.0293  0.2704
  629MPD2    C5 9369   1.687   4.442  16.798 -0.7425 -0.3820 -0.0173
  629MPD2     H 9370   1.679   4.061  16.747 -4.7950 -0.6806  0.7468
  629MPD2    H1 9371   1.481   4.424  16.724 -2.0678 -0.5921  2.3733
  629MPD2    H2 9372   1.894   4.412  16.845 -0.3133  1.5043 -0.4229
  629MPD2    H3 9373   1.680   4.548  16.818  1.8630 -0.1801 -0.1959
  629MPD2     N 9374   1.436   4.168  16.731 -0.3900 -0.2194  0.2708
  629MPD2    H5 9375   1.448   4.069  16.716 -1.7751 -0.6204  1.8438
  629MPD2    N1 9376   1.928   4.160  16.776 -0.1443  0.1998 -0.6463
  629MPD2    H7 9377   2.010   4.213  16.807  1.6719 -2.0275 -1.6815
  630TMC3    C1 9378   2.093   3.999  16.758 -0.6176 -0.2892  0.1313
  630TMC3    C2 9379   2.186   4.076  16.684  1.0375  0.5296  0.4782
  630TMC3    C3 9380   2.318   4.043  16.688 -0.3065 -0.0996 -0.1640
  630TMC3    C4 9381   2.130   3.886  16.822  0.4707 -0.8415 -0.7967
  630TMC3    C5 9382   2.266   3.862  16.823  0.2187 -0.1609 -0.8119
  630TMC3    C6 9383   2.361   3.934  16.757  0.1215  0.1617  0.5333
  630TMC3     C 9384   1.955   4.029  16.738  0.2255  1.2076  0.5174
  630TMC3     O 9385   1.881   3.934  16.735 -0.2575  0.5310  0.5354
  630TMC3     H 9386   2.140   4.154  16.625  1.3458  0.4121  0.0744
  630TMC3    H1 9387   2.055   3.832  16.878  0.6208  2.7696  2.9381
  630TMC3    H2 9388   2.469   3.931  16.767 -0.0628 -0.6724  2.3280
  630TMC3    C7 9389   2.319   3.779  16.931  0.0045  0.3338 -0.0634
  630TMC3    C8 9390   2.414   4.102  16.592 -0.0559  0.1011  0.1120
  630TMC3    O1 9391   2.249   3.694  16.985  0.3286 -0.0727  0.1939
  630TMC3    O2 9392   2.533   4.092  16.619 -0.1531  0.1186 -0.3103
  631MPD2     C 9393   0.070   3.739  15.661  0.4044 -0.2093  0.6265
  631MPD2    C1 9394   0.155   3.797  15.758  0.5163  0.6767 -0.2344
  631MPD2    C2 9395   0.254   3.723  15.810  0.1638  0.4932 -0.3943
  631MPD2    C3 9396   0.274   3.594  15.767 -0.9948 -0.9101 -0.7180
  631MPD2    C4 9397   0.194   3.533  15.669 -0.1433  0.0772 -0.0495
  631MPD2    C5 9398   0.096   3.614  15.616  0.4569 -0.4383 -0.2338
  631MPD2     H 9399   0.333   3.760  15.874  1.5530  0.4606 -2.0767
  631MPD2    H1 9400   0.214   3.431  15.638  1.5926  0.1539  0.8482
  631MPD2    H2 9401   4.722   3.793  15.630  0.7153  0.1478  0.3436
  631MPD2    H3 9402   0.042   3.576  15.530  0.4436 -0.3255 -0.2750
  631MPD2     N 9403   0.381   3.511  15.802 -0.4068 -0.4649  0.5789
  631MPD2    H5 9404   0.400   3.437  15.736  1.8486  0.6209 -0.0197
  631MPD2    N1 9405   0.147   3.938  15.770  0.4508 -0.5470 -0.0037
  631MPD2    H7 9406   0.071   3.982  15.719  1.4469  1.1701 -0.0125
  632TMC3    C1 9407   0.209   4.152  15.857 -0.1966  0.0226  0.0380
  632TMC3    C2 9408   0.094   4.195  15.809  0.1151 -0.2170 -0.0485
  632TMC3    C3 9409   0.098   4.305  15.736 -0.2819  0.5568  0.5454
  632TMC3    C4 9410   0.324   4.222  15.853 -0.4152  0.3141  0.1981
  632TMC3    C5 9411   0.327   4.325  15.758  0.2080 -0.0955 -0.1206
  632TMC3    C6 9412   0.211   4.366  15.707  0.4268 -1.3437 -0.5823
  632TMC3     C 9413   0.236   4.010  15.848  0.1185  0.3558 -0.4586
  632TMC3     O 9414   0.337   3.972  15.906 -0.7773 -0.1176 -0.5072
  632TMC3     H 9415   4.740   4.143  15.821  0.3199  0.0051  2.4617
  632TMC3    H1 9416   0.413   4.186  15.903 -0.8179 -1.5884 -0.4722
  632TMC3    H2 9417   0.195   4.447  15.637 -0.6559 -0.8000  0.3012
  632TMC3    C7 9418   0.412   4.295  15.647 -0.1292  0.1381 -0.4715
  632TMC3    C8 9419   4.735   4.308  15.630 -0.5517 -0.4733  0.7209
  632TMC3    O1 9420   0.356   4.308  15.536  0.6830 -0.1033  0.2575
  632TMC3    O2 9421   4.614   4.295  15.656  0.2290 -0.3460  0.2461
  633MPD2     C 9422   0.091   2.040  17.527 -0.8133 -0.4489  0.2153
  633MPD2    C1 9423   0.048   1.949  17.429  0.1977  0.3299  0.0135
  633MPD2    C2 9424   0.008   1.824  17.474 -0.4649 -0.3627 -0.4198
  633MPD2    C3 9425   0.018   1.793  17.609  0.2118  0.1447  0.0407
  633MPD2    C4 9426   0.086   1.873  17.695  0.2633 -0.6083 -0.3632
  633MPD2    C5 9427   0.114   1.999  17.655 -0.2656  0.0299  0.4752
  633MPD2     H 9428   4.717   1.742  17.411 -1.2921 -2.1849  2.3324
  633MPD2    H1 9429   0.091   1.854   0.041  1.2018  1.3135 -0.0723
  633MPD2    H2 9430   0.119   2.138  17.490 -0.1737 -0.6418  0.1890
  633MPD2    H3 9431   0.158   2.060  17.733  0.1052  1.4946 -0.8731
  633MPD2     N 9432   4.731   1.660  17.653  0.6300  0.3003  0.1397
  633MPD2    H5 9433   0.034   1.624  17.737 -2.8182 -2.4134  0.7573
  633MPD2    N1 9434   0.033   1.983  17.297  0.5605 -0.4796  0.1494
  633MPD2    H7 9435   4.734   1.916  17.232  1.8368 -0.0405 -1.0810
  634TMC3    C1 9436   0.037   2.087  17.087 -0.1842  0.0238 -1.1422
  634TMC3    C2 9437   0.076   1.968  17.031 -0.2384 -0.4823 -0.6457
  634TMC3    C3 9438   0.138   1.975  16.907  1.1124  0.1564  0.1394
  634TMC3    C4 9439   0.050   2.207  17.024 -0.4681  0.6388 -0.1731
  634TMC3    C5 9440   0.106   2.207  16.898 -0.5603  0.6824 -0.2259
  634TMC3    C6 9441   0.145   2.093  16.838 -0.0213 -0.0562 -0.3158
  634TMC3     C 9442   0.039   2.104  17.233  0.2109 -0.1944 -0.6369
  634TMC3     O 9443   0.028   2.216  17.283 -0.3508  0.2412 -0.1031
  634TMC3     H 9444   0.049   1.872  17.074 -0.8087  0.1099  0.3124
  634TMC3    H1 9445   0.023   2.298  17.076 -0.4703  0.8751 -0.5986
  634TMC3    H2 9446   0.180   2.094  16.735  0.1903 -2.1143 -0.2690
  634TMC3    C7 9447   0.103   2.331  16.820 -0.9781  0.0607 -0.2237
  634TMC3    C8 9448   0.150   1.844  16.844 -0.2455 -0.1014 -0.7006
  634TMC3    O1 9449   0.120   2.332  16.699 -0.0001  1.0713  0.6014
  634TMC3    O2 9450   0.148   1.748  16.918  0.2652 -0.8762 -0.3021
  635TMC3    C1 9451   0.576   3.070   0.625 -0.6845 -0.0946  0.2543
  635TMC3    C2 9452   0.571   2.935   0.596  0.2795 -0.6200  0.2792
  635TMC3    C3 9453   0.559   2.848   0.701 -1.1823 -0.2463 -0.2464
  635TMC3    C4 9454   0.567   3.122   0.753  0.2286  0.8731 -0.3797
  635TMC3    C5 9455   0.549   3.031   0.853  0.3587 -0.6496 -0.3299
  635TMC3    C6 9456   0.553   2.894   0.825  0.0309  0.4332 -0.1610
  635TMC3     C 9457   0.625   3.161   0.517  0.3122 -0.1618  0.2796
  635TMC3     O 9458   0.636   3.281   0.545 -0.1961  0.0099  0.8735
  635TMC3     H 9459   0.592   2.902   0.495 -0.2019  2.0801 -0.6973
  635TMC3    H1 9460   0.595   3.226   0.766  1.1401  1.1295 -4.4235
  635TMC3    H2 9461   0.539   2.823   0.905 -0.0337 -0.7141 -1.1827
  635TMC3    C7 9462   0.537   3.069   0.995 -0.3186 -0.1346 -0.4123
  635TMC3    C8 9463   0.537   2.710   0.674  0.3314 -0.3484 -0.5963
  635TMC3    O1 9464   0.552   2.975   1.077 -0.6517  0.4868  0.1973
  635TMC3    O2 9465   0.569   2.632   0.762  0.1605  0.0830 -0.1811
  636MPD2     C 9466   1.271   2.070  16.085  0.5192 -0.4272 -0.3513
  636MPD2    C1 9467   1.349   2.136  16.187  0.5814 -0.0641  0.6154
  636MPD2    C2 9468   1.442   2.061  16.257 -0.6299  0.0545  0.0654
  636MPD2    C3 9469   1.457   1.925  16.236  1.0331  0.1093  0.7307
  636MPD2    C4 9470   1.380   1.863  16.135  0.1687  0.1785  0.0272
  636MPD2    C5 9471   1.287   1.936  16.066  1.1403 -0.1301  0.4071
  636MPD2     H 9472   1.498   2.115  16.332 -0.6874 -1.7078  1.3789
  636MPD2    H1 9473   1.392   1.759  16.107  0.2219 -0.4950  2.5964
  636MPD2    H2 9474   1.190   2.122  16.035 -0.7042 -0.7185  1.3012
  636MPD2    H3 9475   1.227   1.886  15.991  3.1117 -0.6451 -0.8003
  636MPD2     N 9476   1.549   1.848  16.321 -0.4396  0.0563 -0.1536
  636MPD2    H5 9477   1.595   1.905  16.391 -0.1534  0.3500 -0.5823
  636MPD2    N1 9478   1.348   2.278  16.203 -0.3599 -0.0641  0.2351
  636MPD2    H7 9479   1.418   2.304  16.271  0.4032  0.0472 -0.5992
  637TMC3    C1 9480   1.665   1.673  16.426 -0.0973 -1.0830 -0.3532
  637TMC3    C2 9481   1.716   1.769  16.513 -0.4097  0.1864  0.0475
  637TMC3    C3 9482   1.779   1.737  16.627 -0.5673 -0.0360 -0.6374
  637TMC3    C4 9483   1.686   1.540  16.460 -0.3646  0.1800 -0.2714
  637TMC3    C5 9484   1.767   1.515  16.566  0.1334 -0.1071 -0.4715
  637TMC3    C6 9485   1.812   1.610  16.662 -0.5522  0.1378  0.3340
  637TMC3     C 9486   1.581   1.713  16.316  0.4250  0.2587  0.0087
  637TMC3     O 9487   1.525   1.619  16.259 -0.0804  0.2949 -0.9699
  637TMC3     H 9488   1.715   1.874  16.484  1.0133  0.1982  0.0185
  637TMC3    H1 9489   1.651   1.463  16.393 -2.3325  1.2863 -0.5236
  637TMC3    H2 9490   1.870   1.581  16.749 -1.1879  1.1294  1.0799
  637TMC3    C7 9491   1.842   1.388  16.559 -0.8360 -0.4577 -0.4062
  637TMC3    C8 9492   1.851   1.846  16.695  0.0031 -0.7657  0.3398
  637TMC3    O1 9493   1.803   1.313  16.645  0.3342 -0.2709  0.1400
  637TMC3    O2 9494   1.858   1.944  16.632  0.1504  0.2424 -0.0091
  638MPD2     C 9495   1.311   0.817  14.979 -0.3278  0.2330  0.0735
  638MPD2    C1 9496   1.320   0.687  14.928  0.6288 -0.2599 -0.7401
  638MPD2    C2 9497   1.298   0.582  15.016  0.3651 -0.0362 -0.4543
  638MPD2    C3 9498   1.250   0.603  15.147  0.9654 -0.3111  0.0217
  638MPD2    C4 9499   1.228   0.734  15.186 -0.1616  0.7770  0.2403
  638MPD2    C5 9500   1.267   0.840  15.102 -0.8740 -0.0584 -0.1192
  638MPD2     H 9501   1.302   0.481  14.978  1.8734 -0.7791  1.6659
  638MPD2    H1 9502   1.224   0.755  15.292 -3.3545  0.6005  0.1521
  638MPD2    H2 9503   1.337   0.905  14.921  1.1605  0.3625  0.9566
  638MPD2    H3 9504   1.261   0.938  15.149  0.3718  0.1304 -0.3545
  638MPD2     N 9505   1.241   0.487  15.231 -0.4285 -0.1109 -0.1154
  638MPD2    H5 9506   1.286   0.400  15.203  0.8314  0.7436 -0.7452
  638MPD2    N1 9507   1.356   0.667  14.792  0.0670  0.3475  0.3405
  638MPD2    H7 9508   1.378   0.745  14.731 -2.3214  1.9747  1.5956
  639TMC3    C1 9509   1.188   0.373  15.427 -0.5508  0.6066  0.2587
  639TMC3    C2 9510   1.066   0.319  15.474 -0.3266 -0.3590 -0.4048
  639TMC3    C3 9511   1.054   0.194  15.522 -0.8723 -0.1612  0.1650
  639TMC3    C4 9512   1.299   0.293  15.413 -0.6059  0.0188  0.0692
  639TMC3    C5 9513   1.281   0.163  15.453 -0.4650 -0.4125 -0.0853
  639TMC3    C6 9514   1.166   0.121  15.500  0.0607  0.2625 -0.0178
  639TMC3     C 9515   1.167   0.492  15.349 -0.4135 -0.0310  0.0022
  639TMC3     O 9516   1.092   0.576  15.399 -0.4811  0.4038  0.3375
  639TMC3     H 9517   0.979   0.383  15.473  0.1385  0.2838  0.4341
  639TMC3    H1 9518   1.398   0.334  15.400 -0.5307 -0.5887 -1.3093
  639TMC3    H2 9519   1.155   0.015  15.522 -0.5028  0.6443  1.5441
  639TMC3    C7 9520   1.390   0.067  15.438  0.2900 -0.0543  0.4433
  639TMC3    C8 9521   0.958   0.121  15.444  0.2023  0.0218 -0.6108
  639TMC3    O1 9522   1.397   4.711  15.514 -0.1820 -0.2987  0.0704
  639TMC3    O2 9523   1.003   0.074  15.345  0.5189  0.0652 -0.3694
  640MPD2     C 9524   1.752   3.727  10.008 -0.6558  0.1424  0.2297
  640MPD2    C1 9525   1.721   3.739   9.873  0.4950 -0.3139  0.0121
  640MPD2    C2 9526   1.633   3.843   9.837 -0.1806 -0.4280  0.2251
  640MPD2    C3 9527   1.573   3.930   9.935 -0.6050 -0.0322 -0.0679
  640MPD2    C4 9528   1.615   3.914  10.065  0.0322 -0.2637  0.0026
  640MPD2    C5 9529   1.693   3.811  10.098  0.6012 -0.3639 -0.0295
  640MPD2     H 9530   1.608   3.854   9.732 -0.2005 -1.3626  0.1324
  640MPD2    H1 9531   1.568   3.960  10.151 -1.5986 -0.7748 -0.6131
  640MPD2    H2 9532   1.818   3.644  10.034 -0.3069  0.9936  2.0573
  640MPD2    H3 9533   1.717   3.790  10.201  1.4178 -3.6251 -0.8581
  640MPD2     N 9534   1.489   4.038   9.900 -0.1774 -0.1714  0.6403
  640MPD2    H5 9535   1.482   4.108   9.973 -1.9495 -0.2231  0.5268
  640MPD2    N1 9536   1.773   3.640   9.778  0.0276  0.0469 -0.1931
  640MPD2    H7 9537   1.828   3.564   9.817  0.2987 -0.2090 -1.0585
  641TMC3    C1 9538   1.854   3.555   9.567 -0.1942  0.0439  1.0820
  641TMC3    C2 9539   1.957   3.495   9.634 -0.1428 -0.0137  0.2947
  641TMC3    C3 9540   2.034   3.407   9.556 -0.5631 -0.2750 -0.0923
  641TMC3    C4 9541   1.839   3.550   9.430 -0.1366 -0.2342 -0.2331
  641TMC3    C5 9542   1.926   3.466   9.353  0.2177 -0.2341 -0.2672
  641TMC3    C6 9543   2.016   3.393   9.415 -0.0171 -0.1346  0.3989
  641TMC3     C 9544   1.762   3.643   9.640  0.0691 -0.4865 -0.2093
  641TMC3     O 9545   1.708   3.735   9.577 -0.4320 -0.1888 -0.1786
  641TMC3     H 9546   1.953   3.496   9.743 -0.5158  1.0031  0.2654
  641TMC3    H1 9547   1.758   3.609   9.387 -0.0465  0.4875  0.5967
  641TMC3    H2 9548   2.079   3.331   9.353 -0.3480  0.7914 -0.8679
  641TMC3    C7 9549   1.864   3.430   9.228  0.0879  0.0979  0.5285
  641TMC3    C8 9550   2.152   3.348   9.606 -0.3398 -0.4479 -0.1564
  641TMC3    O1 9551   1.749   3.473   9.207  0.1816 -0.0741  0.0005
  641TMC3    O2 9552   2.226   3.288   9.526  0.1183  0.5906 -0.4871
  642TMC3    C1 9553   2.604   0.192  12.503  0.5665  0.0065 -0.0263
  642TMC3    C2 9554   2.727   0.216  12.453 -0.5269 -0.1599 -0.0926
  642TMC3    C3 9555   2.741   0.180  12.319  0.6325 -0.0096  0.0180
  642TMC3    C4 9556   2.504   0.136  12.440  0.6855 -0.5211  0.5694
  642TMC3    C5 9557   2.542   0.072  12.322 -0.2135 -0.2211 -0.3580
  642TMC3    C6 9558   2.657   0.096  12.258 -0.3493 -0.5087  0.2500
  642TMC3     C 9559   2.571   0.307  12.588  0.1947  0.5207 -0.2566
  642TMC3     O 9560   2.640   0.408  12.575 -0.1269  0.0017  0.0162
  642TMC3     H 9561   2.791   0.280  12.512 -1.2604  0.8531 -0.3917
  642TMC3    H1 9562   2.401   0.132  12.475  0.1656  0.2444 -0.8761
  642TMC3    H2 9563   2.683   0.052  12.163  1.1160  0.7022  0.0759
  642TMC3    C7 9564   2.464   4.691  12.288 -0.1303  1.0139 -0.3093
  642TMC3    C8 9565   2.745   0.299  12.239  0.0190 -0.8117 -0.2045
  642TMC3    O1 9566   2.460   4.667  12.171  0.4452 -0.0733  0.4555
  642TMC3    O2 9567   2.763   0.279  12.116 -0.1284  0.0990 -0.5695
  643TMC3    C1 9568   1.859   4.401   0.342 -0.0920 -0.4113  0.1152
  643TMC3    C2 9569   1.733   4.399   0.299 -0.4699  0.0932  0.0991
  643TMC3    C3 9570   1.704   4.333   0.182  0.3885  0.3583  0.1330
  643TMC3    C4 9571   1.959   4.350   0.276  0.3591 -0.4281 -0.3682
  643TMC3    C5 9572   1.940   4.301   0.155 -0.2708 -0.6066 -0.2298
  643TMC3    C6 9573   1.812   4.282   0.108  0.8258 -0.0471  0.1863
  643TMC3     C 9574   1.892   4.500   0.440 -0.3275  0.1232  0.0716
  643TMC3     O 9575   1.839   4.615   0.431 -0.2642  0.2049  0.7429
  643TMC3     H 9576   1.655   4.451   0.355 -1.1647 -1.5068  0.6410
  643TMC3    H1 9577   2.057   4.381   0.309 -0.0315 -0.3644  0.7363
  643TMC3    H2 9578   1.795   4.282   0.001 -0.4173 -2.3470  0.3946
  643TMC3    C7 9579   2.021   4.364   0.055  0.1027  0.2814 -0.6762
  643TMC3    C8 9580   1.616   4.413   0.105  0.0381  0.5804  0.3758
  643TMC3    O1 9581   2.032   4.483   0.087 -0.7791  0.5182  0.0782
  643TMC3    O2 9582   1.559   4.355   0.012  0.6265 -1.2636  0.0230
  644MPD2     C 9583   1.697   4.302   9.650  0.1445 -1.1760  0.3710
  644MPD2    C1 9584   1.784   4.272   9.754 -0.2305  0.0519 -0.0004
  644MPD2    C2 9585   1.830   4.378   9.834  0.4347  0.2482 -0.0379
  644MPD2    C3 9586   1.780   4.509   9.816  0.3493 -0.1086  0.2949
  644MPD2    C4 9587   1.687   4.533   9.713  0.6665  0.5363  0.0885
  644MPD2    C5 9588   1.644   4.428   9.637 -0.2428  0.0042 -0.2546
  644MPD2     H 9589   1.902   4.358   9.914  2.6369  0.6666 -1.9206
  644MPD2    H1 9590   1.638   4.629   9.704  0.0355 -0.0539 -2.9268
  644MPD2    H2 9591   1.652   4.225   9.589  0.0638  0.0557 -1.1162
  644MPD2    H3 9592   1.567   4.446   9.563  0.3252  0.4465 -0.7425
  644MPD2     N 9593   1.828   4.618   9.895  0.1431 -0.1221  0.1885
  644MPD2    H5 9594   1.896   4.590   9.965 -1.5691 -0.2245  1.8264
  644MPD2    N1 9595   1.821   4.140   9.772 -1.0813  0.2911  0.0615
  644MPD2    H7 9596   1.798   4.077   9.696 -0.5610  0.9206 -0.6114
  645TMC3    C1 9597   1.870   0.082   9.984  0.4679 -0.6261 -0.3668
  645TMC3    C2 9598   1.966   0.026  10.068  0.0622  0.3436  0.3885
  645TMC3    C3 9599   2.026   0.112  10.156  0.0918  0.2175  0.3524
  645TMC3    C4 9600   1.836   0.215  10.000 -0.4029  0.3016  0.2060
  645TMC3    C5 9601   1.884   0.290  10.102  0.1209 -0.7153  1.0098
  645TMC3    C6 9602   1.987   0.240  10.174 -0.6530 -0.5487  0.2503
  645TMC3     C 9603   1.799   0.010   9.882  0.3632  0.0491 -0.1936
  645TMC3     O 9604   1.713   0.067   9.814 -0.3821 -0.3348  0.5538
  645TMC3     H 9605   1.993   4.662  10.062 -2.1908 -0.3204  1.6312
  645TMC3    H1 9606   1.758   0.253   9.935  0.5730  1.9148 -0.0310
  645TMC3    H2 9607   2.049   0.305  10.234  2.0548 -0.4390 -2.6608
  645TMC3    C7 9608   1.841   0.433  10.110  0.3868 -0.5141 -0.1509
  645TMC3    C8 9609   2.130   0.054  10.240  0.9592  0.2507 -0.5986
  645TMC3    O1 9610   1.803   0.488  10.006  0.2188 -0.3548 -0.0456
  645TMC3    O2 9611   2.181   4.690  10.202 -0.7947 -0.3559  0.2574
  646MPD2     C 9612   1.137   4.027  14.891 -0.1730 -0.6195  0.0432
  646MPD2    C1 9613   1.068   4.074  14.998 -0.1071 -0.4697  0.3270
  646MPD2    C2 9614   0.975   4.174  14.979 -0.6281 -0.7187 -0.1689
  646MPD2    C3 9615   0.933   4.217  14.853 -0.4038 -0.1407  0.5875
  646MPD2    C4 9616   0.999   4.153  14.746 -0.9812 -0.6699 -0.3687
  646MPD2    C5 9617   1.105   4.069  14.762  0.1150  0.5640  0.6044
  646MPD2     H 9618   0.920   4.216  15.063  1.4298 -0.9534  1.2953
  646MPD2    H1 9619   0.971   4.176  14.644  1.0505 -0.5909 -0.9108
  646MPD2    H2 9620   1.208   3.946  14.903  1.2634  0.4023 -1.5311
  646MPD2    H3 9621   1.161   4.040  14.674 -1.5141 -0.8068  0.0229
  646MPD2     N 9622   0.835   4.315  14.842  0.2263 -0.2241  0.5580
  646MPD2    H5 9623   0.812   4.358  14.931  0.4069 -2.3156  1.6052
  646MPD2    N1 9624   1.099   4.023  15.130  1.0640  0.5155  0.0790
  646MPD2    H7 9625   1.167   3.948  15.123  0.0973 -0.3956  0.4530
  647TMC3    C1 9626   1.099   4.010  15.369 -0.2008  0.1626 -0.2599
  647TMC3    C2 9627   1.109   3.871  15.376 -0.5293  0.1007 -0.4560
  647TMC3    C3 9628   1.153   3.820  15.494  0.0581  0.0973 -0.1426
  647TMC3    C4 9629   1.145   4.091  15.470  0.0706  0.2416  0.8906
  647TMC3    C5 9630   1.192   4.032  15.583 -0.2365  0.5282  0.0596
  647TMC3    C6 9631   1.175   3.899  15.602 -0.0095 -0.1470  0.1537
  647TMC3     C 9632   1.054   4.080  15.249 -0.0857 -0.2432 -0.6279
  647TMC3     O 9633   1.003   4.189  15.262  0.0363 -0.3490 -0.1192
  647TMC3     H 9634   1.091   3.807  15.290 -0.7631  0.3719 -0.6074
  647TMC3    H1 9635   1.154   4.196  15.445 -3.1870 -0.0229 -1.4113
  647TMC3    H2 9636   1.210   3.854  15.694  0.0983  0.4769  0.4196
  647TMC3    C7 9637   1.330   4.081  15.622  0.8817  0.1016  0.2580
  647TMC3    C8 9638   1.205   3.681  15.502  0.0082 -0.5233  0.0575
  647TMC3    O1 9639   1.383   3.997  15.691 -0.2659 -0.2644 -0.4393
  647TMC3    O2 9640   1.272   3.654  15.601  0.3189 -0.0577  0.3105
  648TMC3    C1 9641   0.481   1.891  16.118 -0.6100 -0.3207  1.3785
  648TMC3    C2 9642   0.497   1.780  16.039 -0.1294 -0.1989 -0.5081
  648TMC3    C3 9643   0.519   1.796  15.904 -0.5572  0.0025  0.7464
  648TMC3    C4 9644   0.499   2.016  16.066  0.3228  0.0967 -0.4886
  648TMC3    C5 9645   0.536   2.028  15.938  0.5154  0.6139 -0.0969
  648TMC3    C6 9646   0.542   1.919  15.855  0.4395 -0.8648  1.0575
  648TMC3     C 9647   0.494   1.882  16.264 -0.3999 -0.5023  0.1154
  648TMC3     O 9648   0.443   1.978  16.324  1.0776  0.8344 -0.4703
  648TMC3     H 9649   0.482   1.682  16.085  0.9140  0.5186  1.3844
  648TMC3    H1 9650   0.493   2.107  16.125  1.7916 -0.8800  1.1629
  648TMC3    H2 9651   0.560   1.934  15.749 -0.3735  0.3233  1.0933
  648TMC3    C7 9652   0.505   2.157  15.866 -0.0850 -0.1931  0.6683
  648TMC3    C8 9653   0.532   1.675  15.821  0.4097  0.1307  0.5543
  648TMC3    O1 9654   0.550   2.176  15.752 -0.4556  0.9500 -0.4173
  648TMC3    O2 9655   0.588   1.700  15.712 -0.2235  0.1932 -0.2052
  649TMC3    C1 9656   4.308   3.075  12.938  0.2450  0.0872 -0.5400
  649TMC3    C2 9657   4.447   3.071  12.936 -0.5727  0.8693  0.0970
  649TMC3    C3 9658   4.513   3.084  13.052  0.1538 -1.0114 -0.1031
  649TMC3    C4 9659   4.236   3.073  13.059 -0.3659  0.0764 -0.3377
  649TMC3    C5 9660   4.313   3.077  13.172  0.5241  0.0757 -0.0388
  649TMC3    C6 9661   4.450   3.085  13.170 -0.2444 -0.8441  0.6983
  649TMC3     C 9662   4.224   3.084  12.818  0.3614  0.3556  0.4395
  649TMC3     O 9663   4.104   3.072  12.842 -0.0148  0.1393 -0.0033
  649TMC3     H 9664   4.498   3.046  12.843 -0.9413  0.7725 -0.0783
  649TMC3    H1 9665   4.128   3.076  13.062 -0.3054  0.6171  1.7479
  649TMC3    H2 9666   4.503   3.105  13.262  0.5866  2.8172 -0.5697
  649TMC3    C7 9667   4.247   3.022  13.288 -0.2089  0.6671  0.2026
  649TMC3    C8 9668   4.647   3.048  13.072 -0.5948  0.2711  0.0466
  649TMC3    O1 9669   4.130   3.026  13.306 -0.2859 -0.2273 -0.2767
  649TMC3    O2 9670   4.671   2.983  13.175 -0.0776 -0.0244  0.5604
  650TMC3    C1 9671   2.196   4.068  13.178 -0.2651 -0.0068 -0.3208
  650TMC3    C2 9672   2.116   4.137  13.261  0.2779 -0.0850  0.3097
  650TMC3    C3 9673   1.989   4.169  13.219  0.0254  0.2619 -0.2431
  650TMC3    C4 9674   2.162   4.018  13.057  0.0560  0.0498 -0.7972
  650TMC3    C5 9675   2.036   4.048  13.021  0.1685  0.2017  0.1558
  650TMC3    C6 9676   1.946   4.126  13.095 -0.3618 -0.3518 -0.1801
  650TMC3     C 9677   2.315   4.018  13.236  0.0278  0.6528 -0.0015
  650TMC3     O 9678   2.364   4.083  13.331  0.1379  0.4999 -1.3589
  650TMC3     H 9679   2.138   4.178  13.359 -2.2810  0.1863  0.7706
  650TMC3    H1 9680   2.229   3.969  12.988  1.1559  1.7270 -0.9405
  650TMC3    H2 9681   1.856   4.172  13.055 -0.6166  0.6179  1.4932
  650TMC3    C7 9682   2.008   4.035  12.882 -0.1549  0.1583 -0.5703
  650TMC3    C8 9683   1.922   4.287  13.269  0.2896 -0.2563 -0.3334
  650TMC3    O1 9684   1.962   3.929  12.840  0.3371  0.1284  0.2183
  650TMC3    O2 9685   1.983   4.392  13.282  0.6616 -0.5225  0.0736
  651MPD2     C 9686   1.224   1.082  11.111  0.1464 -0.5268  0.6213
  651MPD2    C1 9687   1.172   1.205  11.141 -0.0219 -0.2162  0.6004
  651MPD2    C2 9688   1.262   1.296  11.191  0.0911 -0.1902 -0.6093
  651MPD2    C3 9689   1.399   1.270  11.194 -0.4044  0.2499  0.4880
  651MPD2    C4 9690   1.446   1.151  11.152  0.4300  0.6958 -0.7295
  651MPD2    C5 9691   1.356   1.050  11.116 -0.1493  0.1157  0.6764
  651MPD2     H 9692   1.218   1.391  11.221  1.5237  0.5042 -0.7067
  651MPD2    H1 9693   1.550   1.121  11.160 -0.3510 -1.5139  1.2120
  651MPD2    H2 9694   1.164   0.995  11.087 -0.3702  0.3838 -1.3980
  651MPD2    H3 9695   1.389   0.951  11.086  0.7110 -0.1463  2.4664
  651MPD2     N 9696   1.481   1.375  11.243  0.0804  0.5427  0.2421
  651MPD2    H5 9697   1.430   1.462  11.255  0.2688  0.6166  0.5012
  651MPD2    N1 9698   1.028   1.228  11.136 -0.3701 -0.6748  0.2872
  651MPD2    H7 9699   0.995   1.319  11.169 -0.9471 -1.1207  0.9325
  652TMC3    C1 9700   1.824   1.621  11.435 -0.1723  0.1571  0.3478
  652TMC3    C2 9701   1.754   1.504  11.411  0.3658  0.0884  0.0678
  652TMC3    C3 9702   1.659   1.503  11.315 -0.2233  0.5477  0.5159
  652TMC3    C4 9703   1.822   1.722  11.350 -0.2763  0.8545 -0.7363
  652TMC3    C5 9704   1.730   1.717  11.253 -0.1209  0.1783 -0.6118
  652TMC3    C6 9705   1.644   1.612  11.237 -0.2300 -0.3457 -0.3113
  652TMC3     C 9706   1.950   1.589  11.492 -0.0815 -0.3055  0.1608
  652TMC3     O 9707   1.983   1.471  11.485  0.4595  0.2385 -0.1541
  652TMC3     H 9708   1.784   1.408  11.452 -2.2718  0.1899  2.2369
  652TMC3    H1 9709   1.880   1.812  11.369  1.7439 -0.7758  0.8694
  652TMC3    H2 9710   1.582   1.597  11.149  2.6264 -0.1741 -2.3444
  652TMC3    C7 9711   1.727   1.818  11.148  0.2130 -0.1433  0.4546
  652TMC3    C8 9712   1.619   1.374  11.260 -0.0144 -0.0990 -1.4268
  652TMC3    O1 9713   1.612   1.842  11.110  0.2613 -0.5550 -0.1701
  652TMC3    O2 9714   1.698   1.285  11.250  0.1140 -0.5665 -0.4598
  653MPD2     C 9715   4.530   1.910   0.218 -0.4874 -0.1003  0.5026
  653MPD2    C1 9716   4.516   1.971   0.097 -0.9294 -1.1113 -0.4019
  653MPD2    C2 9717   4.456   1.895  17.758  0.0743  0.0234  0.5212
  653MPD2    C3 9718   4.422   1.759   0.011  0.3890  0.3484  0.0329
  653MPD2    C4 9719   4.436   1.710   0.136  0.1839 -0.0711  0.2445
  653MPD2    C5 9720   4.488   1.784   0.239  0.3688 -0.9081  0.7482
  653MPD2     H 9721   4.444   1.941  17.661  0.3154  1.0042  0.9566
  653MPD2    H1 9722   4.396   1.613   0.165 -0.3251  0.6861  2.1066
  653MPD2    H2 9723   4.567   1.955   0.310  1.9787  0.6818 -0.8962
  653MPD2    H3 9724   4.503   1.746   0.339  0.3801  1.4079  1.6397
  653MPD2     N 9725   4.358   1.686  17.670  0.1286  0.1051 -0.1748
  653MPD2    H5 9726   4.333   1.735  17.584  2.5363 -1.7735 -1.9362
  653MPD2    N1 9727   4.557   2.105   0.074  0.6589 -0.1944 -0.7829
  653MPD2    H7 9728   4.534   2.154  17.750 -1.4318 -1.1666 -0.7678
  654TMC3    C1 9729   4.225   1.512  17.575  0.1770 -0.2798 -0.4898
  654TMC3    C2 9730   4.132   1.598  17.512 -0.3024  0.1529  0.1884
  654TMC3    C3 9731   4.026   1.543  17.440  0.0296  0.4730  0.2398
  654TMC3    C4 9732   4.217   1.381  17.559  0.0754 -0.3285  0.0942
  654TMC3    C5 9733   4.127   1.333  17.469 -0.5072  0.2446 -0.1397
  654TMC3    C6 9734   4.030   1.411  17.420  0.0247 -0.2442  0.2019
  654TMC3     C 9735   4.313   1.552  17.682 -0.0325  0.7096  0.3576
  654TMC3     O 9736   4.341   1.465   0.003  0.0312  0.1200 -0.0222
  654TMC3     H 9737   4.144   1.700  17.548  1.6644 -0.6549  1.7889
  654TMC3    H1 9738   4.298   1.319  17.596  0.0884  0.4376  1.3635
  654TMC3    H2 9739   3.957   1.372  17.349  0.4963  3.4682 -2.3302
  654TMC3    C7 9740   4.070   1.207  17.521 -0.5981  0.1588 -0.5730
  654TMC3    C8 9741   3.933   1.627  17.359 -0.2793  0.1168  0.0955
  654TMC3    O1 9742   3.949   1.198  17.524  0.0255  0.9029 -0.9176
  654TMC3    O2 9743   3.824   1.580  17.326 -0.1375 -0.1787  0.3502
  655MPD2     C 9744   0.864   2.002  16.086 -1.0228 -0.2781 -1.3858
  655MPD2    C1 9745   0.916   2.086  15.984  0.2060 -0.1878 -0.1599
  655MPD2    C2 9746   0.961   2.036  15.859 -0.6232  0.8119 -0.1602
  655MPD2    C3 9747   0.946   1.903  15.836 -0.1595 -0.0039 -0.0383
  655MPD2    C4 9748   0.893   1.821  15.937  0.2102  0.1055  1.0994
  655MPD2    C5 9749   0.859   1.874  16.061 -0.1367  0.2132  0.8734
  655MPD2     H 9750   1.011   2.108  15.795  0.5165 -1.0735 -1.3872
  655MPD2    H1 9751   0.872   1.716  15.919 -1.9970  0.8456 -0.5694
  655MPD2    H2 9752   0.832   2.036  16.184  0.3620 -2.0682 -0.3204
  655MPD2    H3 9753   0.816   1.795  16.122 -1.4097  1.7806  2.0091
  655MPD2     N 9754   0.970   1.854  15.704  0.3781  0.2602 -0.1833
  655MPD2    H5 9755   0.994   1.925  15.636 -0.0922  2.3145  1.8089
  655MPD2    N1 9756   0.933   2.224  15.996 -0.2480  0.1346  0.7398
  655MPD2    H7 9757   0.977   2.274  15.920 -2.4736  4.8218  2.4674
  656TMC3    C1 9758   0.878   2.440  16.077 -0.3654 -0.2254  0.2156
  656TMC3    C2 9759   0.846   2.516  16.187  0.8806  0.5986 -0.4117
  656TMC3    C3 9760   0.777   2.632  16.162 -0.5311  0.6316 -0.1243
  656TMC3    C4 9761   0.848   2.473  15.950  0.1965 -0.0200  0.2536
  656TMC3    C5 9762   0.780   2.588  15.929  0.0792 -0.1021 -0.2808
  656TMC3    C6 9763   0.751   2.674  16.035  0.5909  0.7687  0.3497
  656TMC3     C 9764   0.905   2.300  16.113 -0.9936 -0.7933  0.8722
  656TMC3     O 9765   0.874   2.273  16.231  0.2658  0.3241 -0.0003
  656TMC3     H 9766   0.881   2.493  16.287 -0.8043  1.4892  0.3723
  656TMC3    H1 9767   0.879   2.405  15.871  1.1767  1.5194 -0.6796
  656TMC3    H2 9768   0.698   2.766  16.013  2.5580  1.7261 -0.4087
  656TMC3    C7 9769   0.744   2.616  15.793 -0.6812 -0.0377  0.3384
  656TMC3    C8 9770   0.658   2.640  16.244  0.3556  0.7609  0.1599
  656TMC3    O1 9771   0.812   2.558  15.704 -0.2761 -0.4087 -0.1490
  656TMC3    O2 9772   0.558   2.646  16.182  0.1974 -0.4301  0.0323
  657TMC3    C1 9773   4.171   0.817  15.147 -0.4030  0.1906 -0.1125
  657TMC3    C2 9774   4.231   0.836  15.265  0.8734 -0.2178 -0.7479
  657TMC3    C3 9775   4.217   0.954  15.329  0.0242 -0.6131  0.9625
  657TMC3    C4 9776   4.102   0.920  15.085 -0.5730  0.1464  0.1045
  657TMC3    C5 9777   4.102   1.042  15.148 -0.4577 -0.1763 -0.8233
  657TMC3    C6 9778   4.161   1.060  15.269 -0.0043  0.4500 -0.7234
  657TMC3     C 9779   4.177   0.688  15.094 -0.7533  0.6147 -0.4201
  657TMC3     O 9780   4.152   0.677  14.973  0.0445 -0.5145 -0.1117
  657TMC3     H 9781   4.284   0.757  15.317 -2.0430 -1.8244 -0.2185
  657TMC3    H1 9782   4.036   0.891  15.004  0.9138 -0.5949 -0.8379
  657TMC3    H2 9783   4.161   1.151  15.328  0.0915 -0.7185  1.0753
  657TMC3    C7 9784   4.037   1.155  15.074  0.5423 -0.4228  0.5298
  657TMC3    C8 9785   4.309   0.988  15.440 -0.0215  0.5005  0.1145
  657TMC3    O1 9786   3.999   1.129  14.959 -0.3266 -0.0212  0.1153
  657TMC3    O2 9787   4.352   1.105  15.445  0.0732  0.3191  0.1968
  658MPD2     C 9788   1.310   2.042  15.139  0.8001 -0.8326 -0.2272
  658MPD2    C1 9789   1.304   1.905  15.155 -0.1896 -0.0343  0.4847
  658MPD2    C2 9790   1.400   1.827  15.083 -0.1669 -0.1644  0.3929
  658MPD2    C3 9791   1.497   1.896  15.010  0.7285  0.7401 -0.3274
  658MPD2    C4 9792   1.502   2.033  14.991 -0.1531  0.2895  0.6189
  658MPD2    C5 9793   1.404   2.111  15.056  0.2023 -0.6336  0.5800
  658MPD2     H 9794   1.406   1.720  15.099  0.0157 -0.4929 -1.9192
  658MPD2    H1 9795   1.567   2.086  14.923  1.8089 -2.5517  0.2819
  658MPD2    H2 9796   1.237   2.109  15.184 -0.3299 -1.3464 -1.3015
  658MPD2    H3 9797   1.401   2.219  15.047  2.3868 -0.6428 -0.4337
  658MPD2     N 9798   1.568   1.801  14.931 -0.1815 -0.2409  0.3004
  658MPD2    H5 9799   1.524   1.710  14.933  2.3609 -1.4505  1.3920
  658MPD2    N1 9800   1.213   1.843  15.237 -0.1216 -0.2243  1.1556
  658MPD2    H7 9801   1.138   1.890  15.287 -0.7848 -1.3615  1.2385
  659TMC3    C1 9802   1.075   1.679  15.319  0.9849  0.6189 -0.0201
  659TMC3    C2 9803   1.071   1.730  15.447 -0.0336  0.7456  0.2443
  659TMC3    C3 9804   0.959   1.698  15.522  0.2066  0.0739  0.3967
  659TMC3    C4 9805   0.983   1.583  15.283 -0.5064 -0.2808  0.0214
  659TMC3    C5 9806   0.888   1.539  15.372  0.2549 -0.2819  0.0654
  659TMC3    C6 9807   0.872   1.601  15.485 -0.0165  0.6313 -0.5671
  659TMC3     C 9808   1.185   1.709  15.238  0.1057  0.2867 -0.4143
  659TMC3     O 9809   1.210   1.618  15.157 -0.2713  0.3854  0.3289
  659TMC3     H 9810   1.156   1.787  15.484 -0.2502  0.1154  1.7085
  659TMC3    H1 9811   0.986   1.545  15.181 -1.1218  0.3234 -0.2226
  659TMC3    H2 9812   0.795   1.587  15.559  1.7198  2.0071  1.5071
  659TMC3    C7 9813   0.808   1.425  15.358  0.2045  0.3605 -0.1388
  659TMC3    C8 9814   0.974   1.721  15.662  0.1021 -0.6213  0.0802
  659TMC3    O1 9815   0.724   1.409  15.442 -0.2695  0.4134  0.0901
  659TMC3    O2 9816   0.946   1.623  15.726  0.1842 -0.3471 -0.0479
  660MPD2     C 9817   3.803   0.738  12.528  0.0529 -0.2978 -0.2647
  660MPD2    C1 9818   3.674   0.713  12.488 -0.2677  0.1487  1.0417
  660MPD2    C2 9819   3.592   0.631  12.567 -0.0947  0.2385  0.1510
  660MPD2    C3 9820   3.644   0.585  12.689  0.1216  0.1458  0.3123
  660MPD2    C4 9821   3.775   0.615  12.718  0.1397  0.6180  0.0258
  660MPD2    C5 9822   3.852   0.699  12.646  0.0057  0.4393  0.2861
  660MPD2     H 9823   3.507   0.582  12.523  0.4576  0.2355 -0.9183
  660MPD2    H1 9824   3.815   0.586  12.815 -0.4978 -1.5309 -0.3697
  660MPD2    H2 9825   3.872   0.796  12.467  1.3612 -0.2304  1.2877
  660MPD2    H3 9826   3.943   0.739  12.688 -0.0846  1.3049 -0.3509
  660MPD2     N 9827   3.576   0.514  12.795 -0.6838 -0.3518  0.2332
  660MPD2    H5 9828   3.621   0.505  12.886 -0.6907 -0.3051  0.2411
  660MPD2    N1 9829   3.628   0.752  12.359 -0.4172 -0.2852 -0.2809
  660MPD2    H7 9830   3.692   0.794  12.292  0.4529 -1.4055 -0.1379
  661TMC3    C1 9831   3.492   0.802  12.170  0.5219  0.2780  0.0799
  661TMC3    C2 9832   3.608   0.807  12.091  0.5064 -0.4521 -0.2961
  661TMC3    C3 9833   3.592   0.854  11.966 -0.4682  0.5505  0.2160
  661TMC3    C4 9834   3.363   0.818  12.114 -0.5606  0.0642  0.0945
  661TMC3    C5 9835   3.356   0.855  11.981  0.1097 -0.0632  0.4289
  661TMC3    C6 9836   3.475   0.876  11.916 -0.2242 -0.1706 -0.6119
  661TMC3     C 9837   3.498   0.768  12.316  0.4940  0.7048  0.0161
  661TMC3     O 9838   3.394   0.752  12.378  0.5722  0.2170  0.0257
  661TMC3     H 9839   3.705   0.773  12.126  1.1119 -0.5204 -2.0646
  661TMC3    H1 9840   3.275   0.817  12.177  0.6769 -1.2835  1.8269
  661TMC3    H2 9841   3.466   0.920  11.817  2.3499 -0.1875 -0.8562
  661TMC3    C7 9842   3.249   0.840  11.895  0.1321 -0.5909 -0.0544
  661TMC3    C8 9843   3.710   0.863  11.884 -0.1569  0.1798 -0.2818
  661TMC3    O1 9844   3.241   0.908  11.794  0.0844  0.5346 -0.0997
  661TMC3    O2 9845   3.814   0.834  11.941  0.1341  0.0962  0.0650
  662MPD2     C 9846   4.202   0.578  17.278 -0.6695 -0.4983  0.9112
  662MPD2    C1 9847   4.135   0.548  17.393  0.2201 -0.2642  0.4455
  662MPD2    C2 9848   4.041   0.633  17.439 -0.3287 -0.4411 -0.7421
  662MPD2    C3 9849   3.999   0.748  17.369  0.5319  1.2734 -0.0713
  662MPD2    C4 9850   4.074   0.783  17.259  0.1064  0.1331 -0.3679
  662MPD2    C5 9851   4.169   0.702  17.217  0.3202  0.2517 -0.2539
  662MPD2     H 9852   3.990   0.608  17.531  1.4399 -2.6753 -0.3897
  662MPD2    H1 9853   4.067   0.881  17.213 -1.2934  0.4102  0.4428
  662MPD2    H2 9854   4.285   0.520  17.240 -0.4963 -0.1852  0.8103
  662MPD2    H3 9855   4.228   0.732  17.130 -1.6328  2.7344 -0.7467
  662MPD2     N 9856   3.883   0.816  17.414  0.6641  0.0359  0.3211
  662MPD2    H5 9857   3.836   0.771  17.492 -0.0186 -0.2877 -0.2760
  662MPD2    N1 9858   4.152   0.429  17.470 -0.3747  0.5528 -0.0191
  662MPD2    H7 9859   4.080   0.404  17.537 -0.2330  1.8029  0.6019
  663TMC3    C1 9860   4.207   0.205  17.496  0.2278  0.2883 -0.1317
  663TMC3    C2 9861   4.104   0.199  17.593  0.8825  0.9290  0.3133
  663TMC3    C3 9862   4.062   0.072  17.631 -0.1702 -1.0111 -0.2951
  663TMC3    C4 9863   4.230   0.091  17.418 -0.3768  0.0546  0.4565
  663TMC3    C5 9864   4.153   4.717  17.438 -0.6905  0.0549 -0.2306
  663TMC3    C6 9865   4.067   4.710  17.545 -0.3332 -0.4869 -0.4278
  663TMC3     C 9866   4.249   0.335  17.438 -0.4659 -0.0816 -0.2004
  663TMC3     O 9867   4.341   0.343  17.359  0.0732  0.7389  0.1335
  663TMC3     H 9868   4.071   0.288  17.647  0.7844  1.4365 -0.5951
  663TMC3    H1 9869   4.298   0.098  17.334  0.3284  0.9907  1.0951
  663TMC3    H2 9870   4.048   4.611  17.584 -1.2741 -0.9869 -2.1306
  663TMC3    C7 9871   4.208   4.593  17.375 -0.3552 -0.1448 -0.3008
  663TMC3    C8 9872   3.939   0.087  17.705  0.2892 -0.2200  0.1531
  663TMC3    O1 9873   4.321   4.605  17.324 -0.3617 -0.0899 -0.2817
  663TMC3    O2 9874   3.887   0.197  17.725  0.1147  0.5898 -0.8338
  664MPD2     C 9875   1.742   3.285  17.545 -0.3342  0.1966  0.1744
  664MPD2    C1 9876   1.879   3.273  17.571  0.0419 -0.5824 -0.0424
  664MPD2    C2 9877   1.912   3.192  17.681  0.4060  0.0988  0.1757
  664MPD2    C3 9878   1.816   3.151   0.016  0.6745 -0.7347  0.8858
  664MPD2    C4 9879   1.685   3.166  17.748  0.1043 -0.5350 -0.5126
  664MPD2    C5 9880   1.649   3.230  17.628 -0.0154 -0.0993 -0.4937
  664MPD2     H 9881   2.017   3.187  17.710  0.2898 -0.7496  0.4598
  664MPD2    H1 9882   1.612   3.127   0.057  2.0183 -2.6318  0.3323
  664MPD2    H2 9883   1.707   3.338  17.457 -0.7322 -1.4925 -0.6816
  664MPD2    H3 9884   1.543   3.237  17.605  0.0941  1.7409 -0.4141
  664MPD2     N 9885   1.861   3.111   0.148 -0.1399  0.2071  0.0358
  664MPD2    H5 9886   1.961   3.123   0.159 -0.2546  0.0880  1.1653
  664MPD2    N1 9887   1.983   3.341  17.497  0.4861  0.3060 -0.4906
  664MPD2    H7 9888   2.078   3.315  17.524  0.8723  3.1687  0.8390
  665TMC3    C1 9889   1.834   3.065   0.371  0.2085 -0.5674  1.0929
  665TMC3    C2 9890   1.769   2.990   0.466 -1.2619 -0.3052  0.1329
  665TMC3    C3 9891   1.765   3.038   0.592 -0.2945  0.0332 -0.5680
  665TMC3    C4 9892   1.892   3.184   0.400 -0.5964 -0.5977 -0.6802
  665TMC3    C5 9893   1.901   3.217   0.534 -0.1585 -0.1783 -0.6202
  665TMC3    C6 9894   1.827   3.153   0.629 -0.2375  0.7245 -0.2626
  665TMC3     C 9895   1.777   3.052   0.239 -0.5424 -0.7246  0.1385
  665TMC3     O 9896   1.660   3.021   0.237 -0.2275  0.4516 -0.6316
  665TMC3     H 9897   1.723   2.897   0.433 -1.1523  0.0700 -1.0828
  665TMC3    H1 9898   1.934   3.252   0.327  0.9395  0.8717  1.5698
  665TMC3    H2 9899   1.820   3.181   0.733 -1.8153 -1.8215  0.3081
  665TMC3    C7 9900   1.977   3.335   0.564  0.5692 -0.7097  0.1319
  665TMC3    C8 9901   1.647   3.009   0.669  0.0948 -0.8753 -0.2095
  665TMC3    O1 9902   2.029   3.407   0.481 -0.3353 -0.1932  0.1646
  665TMC3    O2 9903   1.615   3.101   0.738 -0.0348  0.4137  0.5306
  666TMC3    C1 9904   1.951   2.788   9.897  0.1748 -0.1108 -0.4057
  666TMC3    C2 9905   2.050   2.747   9.985 -0.0759 -0.1061 -0.0278
  666TMC3    C3 9906   2.108   2.846  10.065  0.5163  0.4023 -0.9179
  666TMC3    C4 9907   1.916   2.923   9.876  0.2528  0.0363  0.2987
  666TMC3    C5 9908   1.980   3.013   9.956 -0.6805 -0.0078 -0.4308
  666TMC3    C6 9909   2.085   2.978  10.045  1.0687  0.0475 -0.2691
  666TMC3     C 9910   1.887   2.696   9.806  0.3014  0.8037 -0.2975
  666TMC3     O 9911   1.963   2.613   9.764 -0.1177 -0.2540 -0.2784
  666TMC3     H 9912   2.064   2.640  10.001  2.5077  0.2004 -0.3302
  666TMC3    H1 9913   1.835   2.961   9.816  0.9040 -3.4531 -2.8327
  666TMC3    H2 9914   2.122   3.058  10.109  0.2603 -1.3713  1.9551
  666TMC3    C7 9915   1.941   3.154   9.955 -0.0570 -0.7021 -0.3351
  666TMC3    C8 9916   2.207   2.801  10.163  0.5161 -0.2117  0.1953
  666TMC3    O1 9917   1.957   3.228  10.050 -0.7062  0.7079  0.2081
  666TMC3    O2 9918   2.221   2.683  10.187 -0.2925  0.1697  0.3393
  667MPD2     C 9919   3.186   3.155  14.824 -0.5513  0.8336  0.0663
  667MPD2    C1 9920   3.101   3.167  14.928  0.7380 -0.1411  0.1439
  667MPD2    C2 9921   3.009   3.062  14.940 -0.3308  0.3145 -0.9027
  667MPD2    C3 9922   2.979   2.971  14.838  0.7021 -0.1003 -0.5106
  667MPD2    C4 9923   3.058   2.980  14.732  0.8021  0.1498 -0.2069
  667MPD2    C5 9924   3.163   3.061  14.725 -0.7255 -0.0001  0.1217
  667MPD2     H 9925   2.940   3.072  15.023  2.6897 -2.6154  1.9428
  667MPD2    H1 9926   3.048   2.916  14.646 -1.2464  2.5256 -1.7121
  667MPD2    H2 9927   3.268   3.225  14.814  0.4734  0.0077  2.6489
  667MPD2    H3 9928   3.224   3.056  14.635 -1.8539 -0.3809 -0.6242
  667MPD2     N 9929   2.871   2.877  14.835  0.2945  0.4727 -0.7603
  667MPD2    H5 9930   2.870   2.823  14.749  2.2313  1.6791 -1.5327
  667MPD2    N1 9931   3.125   3.256  15.034  0.3834  0.1879  0.5249
  667MPD2    H7 9932   3.070   3.242  15.118  1.2441 -0.4286  0.9963
  668TMC3    C1 9933   3.187   3.461  15.147 -0.3429 -0.0771 -0.3873
  668TMC3    C2 9934   3.221   3.593  15.125  0.2787 -0.2044 -0.4128
  668TMC3    C3 9935   3.210   3.669  15.239 -0.7369  0.4658  0.5294
  668TMC3    C4 9936   3.156   3.405  15.268  0.2242  0.6670 -0.4773
  668TMC3    C5 9937   3.140   3.489  15.372 -0.2484  0.3093 -0.6078
  668TMC3    C6 9938   3.163   3.627  15.361  0.6608  0.0094 -0.1016
  668TMC3     C 9939   3.202   3.377  15.031  0.5654 -0.0613  0.2683
  668TMC3     O 9940   3.254   3.427  14.933  0.2518 -0.0318  0.0463
  668TMC3     H 9941   3.252   3.629  15.027  1.6272 -2.2737 -0.7479
  668TMC3    H1 9942   3.138   3.298  15.278  1.6561  0.4566 -0.1791
  668TMC3    H2 9943   3.157   3.685  15.453  0.1932  0.9986 -0.7544
  668TMC3    C7 9944   3.053   3.443  15.479 -0.3119 -0.1941  0.7195
  668TMC3    C8 9945   3.224   3.813  15.226 -0.0770 -0.0560 -0.3219
  668TMC3    O1 9946   3.026   3.323  15.478  0.3092 -0.0962 -0.7895
  668TMC3    O2 9947   3.177   3.875  15.320  0.3079  0.2413  0.1059
  669TMC3    C1 9948   1.018   3.178  14.546 -0.0346 -0.3098 -0.8638
  669TMC3    C2 9949   0.909   3.223  14.479  0.0176 -0.3261 -0.1538
  669TMC3    C3 9950   0.930   3.320  14.382 -0.3361  0.1980 -0.3236
  669TMC3    C4 9951   1.140   3.236  14.523  0.1215  0.0135  0.3290
  669TMC3    C5 9952   1.144   3.333  14.426  0.3451  0.2622  0.1377
  669TMC3    C6 9953   1.045   3.381  14.350 -0.0325  0.1338 -0.7981
  669TMC3     C 9954   0.984   3.115  14.674 -0.3750  0.1317 -0.2043
  669TMC3     O 9955   0.873   3.134  14.722 -0.7104 -0.8741  0.2492
  669TMC3     H 9956   0.812   3.188  14.513  0.0132  0.3021  0.4771
  669TMC3    H1 9957   1.231   3.205  14.573 -0.2025 -0.5487  0.5792
  669TMC3    H2 9958   1.050   3.463  14.279 -2.0568  0.4640 -0.5827
  669TMC3    C7 9959   1.282   3.371  14.396 -0.1432 -0.1700 -1.0802
  669TMC3    C8 9960   0.811   3.385  14.341 -0.3701  0.0785 -0.4700
  669TMC3    O1 9961   1.361   3.364  14.489  0.3410  0.0315 -0.7029
  669TMC3    O2 9962   0.707   3.318  14.344  0.6598 -0.0574 -0.2655
  670MPD2     C 9963   4.263   0.970  13.640 -0.0792  1.0835 -0.4537
  670MPD2    C1 9964   4.335   1.004  13.747  0.4271 -0.4959  0.1064
  670MPD2    C2 9965   4.283   0.997  13.873  1.0283 -0.0352  0.2252
  670MPD2    C3 9966   4.149   0.970  13.893 -0.6316  0.7028 -0.4822
  670MPD2    C4 9967   4.069   0.943  13.783  0.0606 -0.3799  0.5228
  670MPD2    C5 9968   4.130   0.937  13.655  0.4455 -0.0751 -1.6071
  670MPD2     H 9969   4.346   1.017  13.959 -1.8967  0.5886  2.2233
  670MPD2    H1 9970   3.969   0.903  13.795 -0.1792 -0.0625 -0.4409
  670MPD2    H2 9971   4.302   0.962  13.539 -0.5444  1.1936 -0.6436
  670MPD2    H3 9972   4.070   0.908  13.570  2.3355 -0.4175 -2.7974
  670MPD2     N 9973   4.107   0.973  14.032  0.5301  0.5895  0.5028
  670MPD2    H5 9974   4.173   1.006  14.102 -1.0495  2.2418  1.2367
  670MPD2    N1 9975   4.469   1.024  13.724  0.2362 -0.3496 -0.2853
  670MPD2    H7 9976   4.531   1.042  13.802  0.6501 -3.7267  0.1937
  671TMC3    C1 9977   3.961   0.941  14.218 -0.5473  0.0423  0.4717
  671TMC3    C2 9978   4.066   0.898  14.293 -0.3247 -0.0176  0.2922
  671TMC3    C3 9979   4.046   0.780  14.363  1.0822 -0.4091  0.8042
  671TMC3    C4 9980   3.836   0.880  14.238  0.0535  0.3001 -0.1086
  671TMC3    C5 9981   3.824   0.767  14.316  1.2800  0.0152  0.5687
  671TMC3    C6 9982   3.928   0.720  14.379  0.2918  0.2923 -0.4780
  671TMC3     C 9983   3.981   0.953  14.075  0.1187  0.1540 -0.6134
  671TMC3     O 9984   3.886   0.922  14.003 -0.7098  0.3376  0.2845
  671TMC3     H 9985   4.164   0.924  14.254 -1.1747  2.1842 -0.3716
  671TMC3    H1 9986   3.750   0.912  14.180 -0.3505 -2.1763 -0.8573
  671TMC3    H2 9987   3.921   0.622  14.426 -0.5078 -0.0947 -1.4164
  671TMC3    C7 9988   3.758   0.666  14.245 -0.1455 -0.0353  0.7458
  671TMC3    C8 9989   4.161   0.699  14.361  1.3036 -0.2600 -0.1706
  671TMC3    O1 9990   3.813   0.559  14.229  0.0881  0.0846 -0.1462
  671TMC3    O2 9991   4.240   0.706  14.270 -0.1050 -0.5786  0.3247
  672MPD2     C 9992   4.641   1.541   1.183  0.3501  0.9836  0.4252
  672MPD2    C1 9993   4.720   1.485   1.089 -0.4938 -0.3199 -0.8268
  672MPD2    C2 9994   0.116   1.523   1.093 -0.3946  0.7119  0.0004
  672MPD2    C3 9995   0.166   1.621   1.177 -0.6310 -0.9249  0.6702
  672MPD2    C4 9996   0.087   1.674   1.267 -0.4695  0.1015 -0.3230
  672MPD2    C5 9997   4.698   1.630   1.269 -0.1547 -0.0599  0.0939
  672MPD2     H 9998   0.189   1.481   1.025  0.1032 -1.9813  2.1914
  672MPD2    H1 9999   0.110   1.761   1.328  0.1239 -0.8703  0.8482
  672MPD2    H210000   4.539   1.518   1.210  0.2845  2.5419  1.4962
  672MPD2    H310001   4.628   1.685   1.331 -0.4588 -0.3220 -0.0152
  672MPD2     N10002   0.299   1.665   1.171 -0.2023  0.1268 -0.0667
  672MPD2    H510003   0.331   1.727   1.245 -0.1021 -0.2684  0.2201
  672MPD2    N110004   4.676   1.392   0.994  0.3359  0.1370  0.8476
  672MPD2    H710005   4.739   1.355   0.924 -0.7816 -0.6198  0.2267
  673TMC3    C110006   4.522   1.257   0.881 -1.1837  0.0308 -0.0883
  673TMC3    C210007   4.593   1.140   0.879  0.2193  0.1526 -0.5028
  673TMC3    C310008   4.535   1.032   0.809  0.5581 -0.3452  0.4481
  673TMC3    C410009   4.399   1.264   0.825 -0.5256  0.4542 -0.7619
  673TMC3    C510010   4.345   1.159   0.754  0.5642 -0.4909  1.3474
  673TMC3    C610011   4.414   1.041   0.741  0.6249  0.4436 -0.6070
  673TMC3     C10012   4.543   1.358   0.983 -0.6306 -0.1112  0.2769
  673TMC3     O10013   4.446   1.397   1.047 -0.2730  0.3865  0.6372
  673TMC3     H10014   4.689   1.125   0.928  0.0767 -0.4390 -0.3989
  673TMC3    H110015   4.340   1.351   0.849 -0.6348  0.3814 -0.7698
  673TMC3    H210016   4.386   0.957   0.679 -1.1175  0.8302 -0.3549
  673TMC3    C710017   4.220   1.169   0.687 -0.4293  0.6161  1.3673
  673TMC3    C810018   4.611   0.904   0.789 -0.1524 -0.3326  0.6268
  673TMC3    O110019   4.165   1.067   0.650  0.2243 -0.2551 -0.4585
  673TMC3    O210020   4.561   0.820   0.710  0.3353 -0.3015  0.0961
  674MPD2     C10021   4.050   1.728   0.091 -0.0884  0.0875 -0.2626
  674MPD2    C110022   3.984   1.608   0.132  0.5537 -0.1796 -0.7539
  674MPD2    C210023   3.838   1.627   0.136 -0.1486  0.1548  0.0876
  674MPD2    C310024   3.772   1.747   0.120 -0.3311 -0.3254  0.5000
  674MPD2    C410025   3.843   1.858   0.089 -0.5719  0.3089 -0.0419
  674MPD2    C510026   3.981   1.852   0.080 -0.2712  0.5733 -0.6701
  674MPD2     H10027   3.767   1.546   0.149 -1.5711  1.4164  0.1524
  674MPD2    H110028   3.795   1.954   0.081 -1.4173  0.1499  3.3472
  674MPD2    H210029   4.158   1.728   0.095 -0.0954  0.5830 -0.0407
  674MPD2    H310030   4.041   1.941   0.064 -0.2931  0.1188 -3.3248
  674MPD2     N10031   3.633   1.742   0.132  0.2062 -0.2049 -0.1667
  674MPD2    H510032   3.594   1.651   0.152 -0.2257  0.1305  0.4864
  674MPD2    N110033   4.059   1.488   0.147 -0.0988  0.3523 -0.2134
  674MPD2    H710034   4.158   1.503   0.161 -0.1429  0.3919  0.0695
  675TMC3    C110035   4.078   1.249   0.197 -0.0200  0.0128  0.1676
  675TMC3    C210036   4.009   1.131   0.213  0.8267 -0.0058  0.1774
  675TMC3    C310037   4.081   1.027   0.252 -0.8805  0.0488  0.6217
  675TMC3    C410038   4.206   1.263   0.224 -0.5479 -0.2460 -0.6657
  675TMC3    C510039   4.269   1.156   0.278 -0.0663  0.3046 -0.2621
  675TMC3    C610040   4.210   1.036   0.297 -1.0430  0.4619 -0.4750
  675TMC3     C10041   4.002   1.365   0.168 -0.2437  0.0672  1.9278
  675TMC3     O10042   3.882   1.343   0.139  0.4576  0.1017  0.0378
  675TMC3     H10043   3.903   1.125   0.191  1.3428 -0.8613 -2.0630
  675TMC3    H110044   4.263   1.351   0.197 -0.0958 -0.6665 -1.0792
  675TMC3    H210045   4.257   0.956   0.353 -1.7252  1.8194  2.0472
  675TMC3    C710046   4.421   1.147   0.273 -0.0960 -0.5264 -0.5854
  675TMC3    C810047   4.005   0.905   0.294 -0.9007  0.1800 -0.3687
  675TMC3    O110048   4.475   1.040   0.293 -0.4719  0.2915  0.0884
  675TMC3    O210049   4.073   0.801   0.309  0.7293  0.5634  0.2823
  676MPD2     C10050   2.067   4.007  11.275  0.3226 -0.3199  0.4048
  676MPD2    C110051   1.981   3.906  11.320 -0.5003  0.1089 -0.0969
  676MPD2    C210052   2.019   3.771  11.295  0.0273  0.2970  0.3238
  676MPD2    C310053   2.138   3.737  11.240 -0.0592  0.2982 -0.3361
  676MPD2    C410054   2.215   3.844  11.201  0.0047  0.6620 -0.0609
  676MPD2    C510055   2.185   3.975  11.211 -0.4453  0.1612 -0.0883
  676MPD2     H10056   1.957   3.689  11.330  1.2802 -0.7346  0.1195
  676MPD2    H110057   2.311   3.819  11.156 -0.1902 -3.2905  1.6743
  676MPD2    H210058   2.040   4.112  11.284  0.7117 -0.0609 -1.4738
  676MPD2    H310059   2.246   4.059  11.180  0.2094 -0.4055 -0.3201
  676MPD2     N10060   2.185   3.605  11.242  0.0985  0.7715  0.7625
  676MPD2    H510061   2.255   3.590  11.170 -0.2852  1.2061  0.2924
  676MPD2    N110062   1.867   3.936  11.388 -0.1602 -0.3490  0.0478
  676MPD2    H710063   1.834   4.028  11.415 -1.2185 -0.6722 -0.1387
  677TMC3    C110064   1.652   3.924  11.463 -0.0482  0.4848  0.1828
  677TMC3    C210065   1.539   3.848  11.495  0.0963  0.2273  0.9576
  677TMC3    C310066   1.442   3.901  11.569  0.8257  0.8872  0.1680
  677TMC3    C410067   1.672   4.052  11.508  0.1306  0.1581 -0.6192
  677TMC3    C510068   1.572   4.100  11.587  0.7881  0.3428  0.1223
  677TMC3    C610069   1.461   4.024  11.618  0.2200  0.2133  0.9101
  677TMC3     C10070   1.768   3.849  11.417 -0.4827  0.0605  0.4010
  677TMC3     O10071   1.747   3.735  11.375 -0.0172  0.5576 -0.3059
  677TMC3     H10072   1.527   3.749  11.452  0.4105  0.4317  0.4002
  677TMC3    H110073   1.758   4.114  11.482  0.3469  0.5906  1.1290
  677TMC3    H210074   1.388   4.061  11.690  0.8573  2.2364  0.5168
  677TMC3    C710075   1.566   4.242  11.637  0.1566  0.0185 -0.3025
  677TMC3    C810076   1.346   3.809  11.626  0.7261  0.3812  0.7060
  677TMC3    O110077   1.454   4.277  11.673 -0.6259 -0.0861 -0.4421
  677TMC3    O210078   1.284   3.756  11.540 -0.6318 -0.1595  0.3319
  678MPD2     C10079   3.618   3.641   1.614  0.5257 -0.0274 -0.0503
  678MPD2    C110080   3.628   3.723   1.505  0.1927 -0.1929  0.0755
  678MPD2    C210081   3.519   3.796   1.454  0.8050 -0.2737 -0.2362
  678MPD2    C310082   3.396   3.795   1.523  0.2099 -0.2405 -0.1387
  678MPD2    C410083   3.392   3.712   1.635 -0.5023 -0.0592 -0.0891
  678MPD2    C510084   3.499   3.638   1.670 -0.3969  0.1189 -0.0357
  678MPD2     H10085   3.539   3.879   1.387  0.8691 -1.3852 -1.5878
  678MPD2    H110086   3.314   3.712   1.710  0.0879 -2.0893  0.5055
  678MPD2    H210087   3.704   3.594   1.660  1.8534  1.8478 -0.6103
  678MPD2    H310088   3.491   3.572   1.755 -2.0317  1.3515  0.7703
  678MPD2     N10089   3.295   3.885   1.498  0.2164  0.4307  0.2200
  678MPD2    H510090   3.308   3.943   1.415  2.5717 -0.1015  0.1929
  678MPD2    N110091   3.749   3.741   1.432 -0.2202  0.3253  0.0032
  678MPD2    H710092   3.746   3.791   1.343  1.8805  0.4323  0.0037
  679TMC3    C110093   4.203   3.735   1.304 -0.1282  0.1101 -0.9407
  679TMC3    C210094   4.112   3.713   1.405  0.3321 -0.4299  0.3950
  679TMC3    C310095   3.979   3.708   1.365 -0.1413  0.0641 -0.5211
  679TMC3    C410096   4.171   3.775   1.175  0.1349  0.1236 -0.1318
  679TMC3    C510097   4.041   3.756   1.138  0.2622 -0.3959  0.0501
  679TMC3    C610098   3.939   3.726   1.233  0.2534 -0.4800  0.6877
  679TMC3     C10099   4.350   3.724   1.319  0.5734  0.2877 -0.0566
  679TMC3     O10100   4.415   3.725   1.215  0.5279  0.1803 -0.3709
  679TMC3     H10101   4.146   3.697   1.507  1.1429  0.3589  0.2463
  679TMC3    H110102   4.242   3.825   1.111  1.2851  1.4011  2.1481
  679TMC3    H210103   3.839   3.697   1.201  1.0209 -1.4556 -0.8289
  679TMC3    C710104   3.995   3.793   1.011  0.1830 -0.2332  0.0661
  679TMC3    C810105   3.876   3.699   1.467  1.5229 -0.2238  0.4875
  679TMC3    O110106   3.879   3.833   1.005  0.0961 -0.5744  0.7315
  679TMC3    O210107   3.913   3.674   1.578 -0.2765  0.0006 -0.0706
  680MPD2     C10108   3.455   2.991  13.572 -1.0097  0.5884 -0.2102
  680MPD2    C110109   3.524   2.936  13.679  0.4390 -0.2953  0.1604
  680MPD2    C210110   3.611   3.019  13.753 -0.0499 -0.8508 -0.4009
  680MPD2    C310111   3.614   3.156  13.733 -0.0141  0.1776  1.0852
  680MPD2    C410112   3.541   3.205  13.628  0.0373 -0.1538  0.6477
  680MPD2    C510113   3.456   3.127  13.551 -0.0885  0.5614  0.3067
  680MPD2     H10114   3.665   2.979  13.838  0.7272 -0.2497 -0.6190
  680MPD2    H110115   3.546   3.311  13.605 -2.7047 -0.7962 -2.9044
  680MPD2    H210116   3.391   2.935  13.505 -2.2717  1.4451  0.2768
  680MPD2    H310117   3.396   3.169  13.471 -2.0843 -2.5638  0.1812
  680MPD2     N10118   3.702   3.248  13.803 -0.0643  0.1611 -0.0465
  680MPD2    H510119   3.691   3.345  13.777 -1.2004  0.1213  0.2947
  680MPD2    N110120   3.554   2.797  13.695 -1.1299  0.6421  0.5605
  680MPD2    H710121   3.632   2.782  13.759 -1.3466 -2.0241  0.2005
  681TMC3    C110122   3.586   2.585  13.657 -0.3225  0.8760  0.1511
  681TMC3    C210123   3.540   2.497  13.752 -0.3982 -1.0204  0.6427
  681TMC3    C310124   3.634   2.427  13.826 -0.0070 -0.3069 -0.9305
  681TMC3    C410125   3.721   2.598  13.632  0.2727 -0.0337  0.1218
  681TMC3    C510126   3.810   2.527  13.699 -0.5421 -0.2430  0.2124
  681TMC3    C610127   3.770   2.437  13.795 -0.6512 -0.6295  0.1169
  681TMC3     C10128   3.503   2.699  13.638  0.1667  0.8910  0.3355
  681TMC3     O10129   3.386   2.686  13.592  0.3427 -0.3775 -0.5966
  681TMC3     H10130   3.432   2.496  13.766 -0.5746 -1.2934 -0.6939
  681TMC3    H110131   3.747   2.667  13.553 -2.8907 -0.2234 -1.0811
  681TMC3    H210132   3.836   2.364  13.840  2.3684  1.4320 -0.9423
  681TMC3    C710133   3.951   2.534  13.667  1.0784 -0.5253 -0.5645
  681TMC3    C810134   3.599   2.438  13.966 -0.0064 -0.2289 -0.4225
  681TMC3    O110135   4.023   2.454  13.727  0.2142  0.5649  0.3641
  681TMC3    O210136   3.481   2.462  13.979 -0.2401 -0.5554  0.4793
  682MPD2     C10137   0.774   3.755  10.369 -0.1647  0.2474  0.0731
  682MPD2    C110138   0.885   3.764  10.440 -0.4320 -0.1397 -0.8047
  682MPD2    C210139   0.874   3.800  10.572  0.5194 -0.4102 -0.0433
  682MPD2    C310140   0.753   3.840  10.621  0.1850  0.1335  0.3524
  682MPD2    C410141   0.639   3.847  10.541 -0.5720 -0.1414 -0.0682
  682MPD2    C510142   0.652   3.803  10.408 -0.7018  0.0754 -0.3339
  682MPD2     H10143   0.963   3.797  10.634 -1.1512  1.0741  2.4085
  682MPD2    H110144   0.546   3.894  10.570 -0.0293  0.5949  0.5095
  682MPD2    H210145   0.772   3.718  10.268 -0.1602 -0.9207  0.4995
  682MPD2    H310146   0.564   3.815  10.345 -0.4503 -1.4561 -0.9741
  682MPD2     N10147   0.742   3.864  10.759 -1.0474 -0.6438  0.0686
  682MPD2    H510148   0.651   3.864  10.804 -1.0684 -2.6568 -0.0044
  682MPD2    N110149   1.015   3.719  10.395 -0.2990 -0.1615 -0.5648
  682MPD2    H710150   1.088   3.721  10.466 -0.9139 -1.1308  0.0815
  683TMC3    C110151   0.885   3.826  11.201  0.0904 -0.1974  0.0002
  683TMC3    C210152   0.815   3.711  11.219 -0.0401 -0.1650  0.5178
  683TMC3    C310153   0.729   3.672  11.111 -0.5379 -0.2023 -0.4650
  683TMC3    C410154   0.876   3.903  11.086 -0.3603  0.0794 -0.3767
  683TMC3    C510155   0.797   3.853  10.989 -0.1618  0.0532 -0.3640
  683TMC3    C610156   0.723   3.741  10.997  0.4952 -0.1735 -0.2730
  683TMC3     C10157   0.941   3.901  11.307 -0.1976  0.3964  0.3707
  683TMC3     O10158   1.016   3.993  11.277  0.1081  0.0533 -0.1114
  683TMC3     H10159   0.821   3.645  11.305 -2.4023 -1.4301 -0.2752
  683TMC3    H110160   0.947   3.984  11.069  0.5309 -0.7052 -0.4310
  683TMC3    H210161   0.672   3.694  10.914 -3.0933  2.0697  0.6645
  683TMC3    C710162   0.840   3.887  10.851  0.0601  0.1657 -0.3492
  683TMC3    C810163   0.702   3.532  11.103  0.3735  0.2228  0.0893
  683TMC3    O110164   0.955   3.916  10.827  0.1053  0.1909 -0.1624
  683TMC3    O210165   0.604   3.498  11.043  0.0862 -0.3083 -0.2439
  684MPD2     C10166   4.104   3.479  16.361 -0.3614 -0.3849 -0.0577
  684MPD2    C110167   4.099   3.570  16.262  0.1548  0.0986  0.2954
  684MPD2    C210168   4.035   3.691  16.292 -1.0817  0.0956  0.3765
  684MPD2    C310169   3.981   3.712  16.422  0.5178 -0.0469  0.4090
  684MPD2    C410170   3.997   3.619  16.524 -0.0617  0.3179  0.4232
  684MPD2    C510171   4.053   3.501  16.484  0.7305 -0.4617  0.3484
  684MPD2     H10172   4.031   3.774  16.222  1.7221  0.2522  0.3967
  684MPD2    H110173   3.962   3.629  16.626 -1.3248 -0.3217  0.0577
  684MPD2    H210174   4.139   3.377  16.351 -1.5589 -0.8108  0.0362
  684MPD2    H310175   4.057   3.425  16.561  1.4390 -0.2011  0.5651
  684MPD2     N10176   3.920   3.831  16.457  0.2217  0.4344  0.2197
  684MPD2    H510177   3.901   3.860  16.552 -1.3578 -0.5018  0.1943
  684MPD2    N110178   4.157   3.548  16.138 -0.1785  0.8767 -0.0230
  684MPD2    H710179   4.142   3.625  16.074 -0.9390  0.1089 -0.7777
  685TMC3    C110180   4.257   3.432  15.963  0.0625 -0.9043  0.4260
  685TMC3    C210181   4.173   3.504  15.883  0.2974  0.3613  0.3783
  685TMC3    C310182   4.228   3.575  15.776  0.1056 -0.0104 -0.1996
  685TMC3    C410183   4.392   3.435  15.935 -0.6470  1.1108 -0.3141
  685TMC3    C510184   4.446   3.499  15.826 -0.3922 -0.3306 -0.1296
  685TMC3    C610185   4.360   3.572  15.747  0.2221  0.0643  0.3487
  685TMC3     C10186   4.232   3.437  16.103  0.8374  0.7305 -0.4852
  685TMC3     O10187   4.292   3.351  16.172  0.3653 -0.2647 -0.0355
  685TMC3     H10188   4.068   3.504  15.913  0.3919  1.3066  0.7046
  685TMC3    H110189   4.451   3.375  16.003 -1.5137  1.2894  0.5850
  685TMC3    H210190   4.394   3.617  15.654  1.0680 -2.5271 -0.6085
  685TMC3    C710191   4.570   3.566  15.855  0.0443 -0.4655 -0.3687
  685TMC3    C810192   4.133   3.642  15.686 -0.0863  0.0546  0.1050
  685TMC3    O110193   4.648   3.494  15.915  0.0415  0.3182 -0.1121
  685TMC3    O210194   4.166   3.744  15.625 -0.5161 -0.2575 -0.2842
  686MPD2     C10195   0.499   3.850  15.619  0.2755 -0.6723 -0.0142
  686MPD2    C110196   0.605   3.812  15.705 -0.6525  0.7221  0.4014
  686MPD2    C210197   0.688   3.713  15.660 -0.5028 -0.1613  0.3979
  686MPD2    C310198   0.673   3.653  15.537  0.6903  0.0206  0.4084
  686MPD2    C410199   0.579   3.699  15.455  0.5799  0.7164 -0.3919
  686MPD2    C510200   0.490   3.794  15.492 -0.6001  0.8312  0.0660
  686MPD2     H10201   0.786   3.696  15.703 -0.3571 -2.6983 -0.9387
  686MPD2    H110202   0.577   3.669  15.350  0.9774  1.0585 -0.4970
  686MPD2    H210203   0.426   3.926  15.645 -0.7774 -0.7175 -2.8405
  686MPD2    H310204   0.406   3.815  15.428  1.1243  0.2110 -2.3765
  686MPD2     N10205   0.743   3.536  15.499 -0.1214 -0.3838 -0.8158
  686MPD2    H510206   0.755   3.520  15.400  0.0109  0.1949 -0.8942
  686MPD2    N110207   0.616   3.866  15.833  0.3902  0.8997  0.3796
  686MPD2    H710208   0.533   3.918  15.862  0.3583  1.4236 -0.6530
  687TMC3    C110209   0.765   3.433  15.720  0.2665  0.1655  0.2563
  687TMC3    C210210   0.632   3.433  15.753  0.2775  0.2894  0.3292
  687TMC3    C310211   0.598   3.452  15.889  0.0016 -0.9240 -0.2509
  687TMC3    C410212   0.859   3.436  15.816  0.6571 -0.1578 -0.4443
  687TMC3    C510213   0.819   3.449  15.946 -0.1996 -0.5276 -0.0311
  687TMC3    C610214   0.687   3.455  15.989  0.7114 -0.4747 -0.4530
  687TMC3     C10215   0.821   3.462  15.591  0.4263 -0.5291 -0.4578
  687TMC3     O10216   0.906   3.381  15.563  0.2482 -0.1666  1.0397
  687TMC3     H10217   0.564   3.447  15.670 -0.0829 -0.8417  0.4328
  687TMC3    H110218   0.965   3.440  15.792  1.0357 -1.6191  0.9100
  687TMC3    H210219   0.662   3.484  16.090  0.4730 -1.3162 -0.2749
  687TMC3    C710220   0.907   3.485  16.055 -1.2167 -0.6691 -0.4140
  687TMC3    C810221   0.475   3.537  15.901  0.8862  0.5771 -0.4593
  687TMC3    O110222   0.861   3.494  16.171  0.5445  0.2160  0.6217
  687TMC3    O210223   0.465   3.606  16.002 -0.4453 -0.0973  0.3101
  688MPD2     C10224   0.215   2.682  17.418  0.1267  0.2608 -0.1885
  688MPD2    C110225   0.209   2.543  17.434  0.6923  0.5146  0.1273
  688MPD2    C210226   0.292   2.464  17.355 -0.0265 -0.8377  1.0302
  688MPD2    C310227   0.371   2.520  17.262  0.2086 -0.4939 -0.2895
  688MPD2    C410228   0.382   2.661  17.251 -0.2635  0.1607 -0.2997
  688MPD2    C510229   0.304   2.740  17.332  0.0360 -0.0876  0.1279
  688MPD2     H10230   0.290   2.357  17.370  0.9001 -1.0333 -0.2807
  688MPD2    H110231   0.460   2.702  17.187  0.2659 -1.0518 -0.4440
  688MPD2    H210232   0.145   2.744  17.473  0.3337  0.4014 -0.0866
  688MPD2    H310233   0.310   2.848  17.332  4.0156 -0.3030  1.5515
  688MPD2     N10234   0.461   2.444  17.183 -0.7014  0.0153 -0.3939
  688MPD2    H510235   0.523   2.482  17.112 -0.1977  1.1806  0.6645
  688MPD2    N110236   0.138   2.477  17.538  0.1957 -0.5530 -0.4644
  688MPD2    H710237   0.152   2.379  17.558 -0.4124 -0.0794  2.3798
  689TMC3    C110238   0.005   2.484  17.741  0.9385  0.3673 -1.1305
  689TMC3    C210239   4.731   2.577   0.075 -0.0387  0.6517  0.4945
  689TMC3    C310240   4.679   2.545   0.193 -0.0739 -0.2015 -0.0035
  689TMC3    C410241   4.720   2.349  17.754 -0.5499  1.1596 -0.2517
  689TMC3    C510242   4.658   2.320   0.116 -1.0359 -0.5347  0.1419
  689TMC3    C610243   4.637   2.416   0.214  0.3148  0.4245 -0.1576
  689TMC3     C10244   0.043   2.546  17.610  0.1338  0.4730 -0.4565
  689TMC3     O10245   4.730   2.656  17.585 -0.6448 -0.1540 -0.2266
  689TMC3     H10246   0.018   2.679   0.053 -2.2293  1.1776  0.2057
  689TMC3    H110247   4.733   2.271  17.680 -1.5514  2.1766 -1.5027
  689TMC3    H210248   4.592   2.384   0.307  0.8934 -0.1054 -0.0555
  689TMC3    C710249   4.625   2.185   0.163 -0.4611 -0.1792  0.6059
  689TMC3    C810250   4.723   2.605   0.318  0.3052  0.0343 -0.1036
  689TMC3    O110251   4.663   2.159   0.278  0.2982  0.5864  0.0789
  689TMC3    O210252   4.698   2.537   0.414  0.1294 -0.0267  0.2168
  690MPD2     C10253   1.995   4.606  15.633  0.1185  0.6975  0.6442
  690MPD2    C110254   2.110   4.546  15.677  0.4241  0.7463  0.2587
  690MPD2    C210255   2.226   4.558  15.602 -0.2596 -0.0098  0.7001
  690MPD2    C310256   2.223   4.618  15.479 -0.3567  0.2577  0.7045
  690MPD2    C410257   2.107   4.680  15.443 -0.7453  0.6090 -0.1831
  690MPD2    C510258   1.994   4.674  15.514  0.7548  0.7047 -0.2397
  690MPD2     H10259   2.316   4.516  15.645  0.8190  0.4093 -1.1526
  690MPD2    H110260   2.090   4.741  15.355  1.0374  0.8290 -0.3755
  690MPD2    H210261   1.906   4.609  15.696  0.7412  3.2768  1.3763
  690MPD2    H310262   1.908   4.730  15.480 -0.4331 -0.9976 -0.0717
  690MPD2     N10263   2.341   4.628  15.396 -0.0241  0.1550  0.3831
  690MPD2    H510264   2.422   4.601  15.451 -0.4467 -2.2205 -0.1803
  690MPD2    N110265   2.114   4.467  15.790  0.4131  0.0572  0.6217
  690MPD2    H710266   2.190   4.400  15.796  1.0392  0.7101 -0.0807
  691TMC3    C110267   2.030   4.352  15.980 -0.3976 -0.0218 -0.3985
  691TMC3    C210268   1.935   4.357  16.081  0.7519 -0.1366  0.1175
  691TMC3    C310269   1.880   4.234  16.115  0.3923  0.0719 -0.2758
  691TMC3    C410270   2.083   4.233  15.925 -0.1320 -0.6956 -0.1569
  691TMC3    C510271   2.036   4.117  15.989 -0.1017  0.5201 -0.1118
  691TMC3    C610272   1.931   4.114  16.079  0.1064  0.2720  0.6282
  691TMC3     C10273   2.025   4.467  15.894  0.3838 -0.0578  0.7228
  691TMC3     O10274   1.934   4.543  15.913 -0.6152  0.4430  0.8945
  691TMC3     H10275   1.905   4.450  16.127 -2.6265 -0.9808 -0.3787
  691TMC3    H110276   2.169   4.221  15.860  1.0037 -2.1248  1.6296
  691TMC3    H210277   1.894   4.016  16.108  1.3873 -0.1624  0.7645
  691TMC3    C710278   2.107   3.999  15.946 -0.7628  0.7643 -0.3113
  691TMC3    C810279   1.763   4.240  16.199  0.7586  0.7178 -0.0598
  691TMC3    O110280   2.228   4.013  15.938  0.7975  0.1194 -0.4308
  691TMC3    O210281   1.743   4.145  16.273  0.2603 -0.0486 -0.5467
  692TMC3    C110282   3.440   0.454  15.941  0.2966  0.0644  0.1756
  692TMC3    C210283   3.555   0.514  15.979  0.7657 -0.7029  0.1096
  692TMC3    C310284   3.675   0.446  15.991 -0.7397  0.1512  0.2010
  692TMC3    C410285   3.430   0.321  15.898  0.7176 -0.4584 -0.0642
  692TMC3    C510286   3.549   0.253  15.921  0.0528  0.4939  0.3492
  692TMC3    C610287   3.655   0.312  15.981 -0.1115 -0.2071 -0.2015
  692TMC3     C10288   3.323   0.529  15.982  0.4183 -0.0448 -0.6200
  692TMC3     O10289   3.341   0.631  16.045 -0.2547  0.2933 -0.1084
  692TMC3     H10290   3.559   0.622  15.969  0.1502 -0.7978 -1.1724
  692TMC3    H110291   3.347   0.282  15.839 -0.6266  2.5168 -0.1471
  692TMC3    H210292   3.742   0.250  15.963 -0.4525 -0.3490 -1.3851
  692TMC3    C710293   3.558   0.113  15.893  0.3806 -0.4971 -0.0668
  692TMC3    C810294   3.722   0.471  16.129  0.7416 -0.3846  1.0476
  692TMC3    O110295   3.474   0.066  15.816  0.7304 -0.3304  0.2342
  692TMC3    O210296   3.730   0.377  16.211 -0.1483  0.2467  0.1013
  693MPD2     C10297   3.862   3.087  10.996 -0.6936  0.5912 -0.1326
  693MPD2    C110298   3.765   3.011  10.933 -0.6530  1.0413 -0.3234
  693MPD2    C210299   3.791   2.875  10.925  0.1041  0.4159  0.2188
  693MPD2    C310300   3.912   2.819  10.964  0.4130 -0.0266  0.7797
  693MPD2    C410301   4.006   2.906  11.028  0.3231  0.4310 -0.1756
  693MPD2    C510302   3.980   3.035  11.048  0.2060 -0.0301 -0.7366
  693MPD2     H10303   3.709   2.807  10.901 -0.2537  1.4446 -1.4534
  693MPD2    H110304   4.095   2.864  11.072  0.2519  0.0694 -0.3774
  693MPD2    H210305   3.828   3.187  11.019 -4.3657 -0.3934 -1.2502
  693MPD2    H310306   4.051   3.090  11.108 -0.5196 -0.5843  0.6392
  693MPD2     N10307   3.939   2.677  10.963  0.1727 -0.2070  0.1121
  693MPD2    H510308   4.029   2.649  11.001  0.5970 -0.5588 -1.1822
  693MPD2    N110309   3.644   3.072  10.920  0.4087 -0.4173 -0.1143
  693MPD2    H710310   3.637   3.168  10.952 -0.0633  0.0061 -1.4772
  694TMC3    C110311   3.408   3.046  10.928  0.2544  0.3922 -0.7720
  694TMC3    C210312   3.301   2.989  10.858  0.3077 -0.3056  0.4302
  694TMC3    C310313   3.197   2.941  10.931  0.1608  0.3781  0.2507
  694TMC3    C410314   3.403   3.054  11.065  0.7020 -0.1735 -0.0986
  694TMC3    C510315   3.304   2.988  11.128  0.0299 -0.0992  0.1196
  694TMC3    C610316   3.193   2.941  11.065  0.0582 -0.3812  0.1382
  694TMC3     C10317   3.535   3.007  10.869  0.1255  0.0057  0.5813
  694TMC3     O10318   3.529   2.903  10.808 -0.4858 -0.3366 -0.1028
  694TMC3     H10319   3.301   2.990  10.750  0.4417 -1.8649  0.4080
  694TMC3    H110320   3.477   3.120  11.109 -1.4519  1.5928  0.9097
  694TMC3    H210321   3.113   2.894  11.120 -0.6157 -0.6256 -1.0705
  694TMC3    C710322   3.319   2.976  11.275 -0.0441  0.6869  0.2947
  694TMC3    C810323   3.102   2.858  10.863 -0.4239  0.4309  0.3111
  694TMC3    O110324   3.400   3.054  11.331 -0.3301 -0.0719  0.1575
  694TMC3    O210325   3.070   2.755  10.924  0.3482 -0.2943 -0.3793
  695MPD2     C10326   4.475   0.262  13.466  0.0067  0.2092  0.2177
  695MPD2    C110327   4.412   0.248  13.591  0.0466  0.5000 -0.0143
  695MPD2    C210328   4.280   0.235  13.609 -0.2547  0.3284  0.1482
  695MPD2    C310329   4.195   0.246  13.501  0.1942  0.4360  0.0625
  695MPD2    C410330   4.249   0.251  13.376  0.3175  0.8362  0.6937
  695MPD2    C510331   4.384   0.261  13.362  0.1895  0.0514  0.3837
  695MPD2     H10332   4.243   0.222  13.711  2.0385  0.6611  1.0145
  695MPD2    H110333   4.190   0.243  13.285 -0.0571 -0.5734  1.0652
  695MPD2    H210334   4.581   0.277  13.445  0.8496  0.0799  4.3971
  695MPD2    H310335   4.430   0.258  13.263  0.9824 -0.0170  0.7524
  695MPD2     N10336   4.055   0.239  13.528 -0.4644 -0.5161 -0.4627
  695MPD2    H510337   4.028   0.215  13.622 -0.4861 -0.6900 -0.5119
  695MPD2    N110338   4.488   0.254  13.708 -0.5634 -0.2182 -0.4411
  695MPD2    H710339   4.441   0.238  13.796 -0.8094  1.7646 -0.2259
  696TMC3    C110340   3.833   0.316  13.481  0.0578  0.4874  0.2889
  696TMC3    C210341   3.798   0.303  13.609 -0.1183 -0.8057  0.3822
  696TMC3    C310342   3.688   0.375  13.646  0.4291  0.5811  0.0592
  696TMC3    C410343   3.770   0.397  13.391 -0.0511  0.2896  0.0188
  696TMC3    C510344   3.672   0.476  13.441 -0.3097 -0.1851 -0.5053
  696TMC3    C610345   3.625   0.464  13.566  0.5851  0.0030 -0.3835
  696TMC3     C10346   3.966   0.282  13.435 -0.5865 -0.0584  0.4509
  696TMC3     O10347   3.992   0.314  13.319 -0.2046 -0.4228 -0.2468
  696TMC3     H10348   3.859   0.251  13.682  1.2268 -0.5703 -0.5785
  696TMC3    H110349   3.805   0.413  13.290 -1.4788  1.1046 -0.3510
  696TMC3    H210350   3.553   0.540  13.596  1.0042  0.4237 -0.4321
  696TMC3    C710351   3.669   0.599  13.371  0.4461 -0.6469  0.5831
  696TMC3    C810352   3.667   0.387  13.791 -0.0750 -0.0589  0.7098
  696TMC3    O110353   3.690   0.600  13.248 -0.1481  0.2252 -0.0130
  696TMC3    O210354   3.770   0.375  13.858  0.2714 -0.4696 -0.2236
  697MPD2     C10355   3.456   2.468  15.872  0.7411  0.1829  0.5130
  697MPD2    C110356   3.430   2.428  15.739  0.7146 -0.3584  0.3385
  697MPD2    C210357   3.471   2.510  15.633  0.3168  0.1378 -0.0566
  697MPD2    C310358   3.532   2.631  15.647  0.2361  0.2345 -0.1518
  697MPD2    C410359   3.566   2.663  15.780 -0.3786  0.3815 -0.3071
  697MPD2    C510360   3.529   2.586  15.889 -0.3925 -0.3446  0.3308
  697MPD2     H10361   3.458   2.471  15.532 -1.0503 -0.2456  0.2610
  697MPD2    H110362   3.615   2.758  15.801 -0.5272  0.5252 -0.6124
  697MPD2    H210363   3.442   2.407  15.960 -0.8748  0.5194  0.5015
  697MPD2    H310364   3.559   2.617  15.988  0.0217  1.1586 -0.2682
  697MPD2     N10365   3.579   2.707  15.537 -0.0734 -0.6117 -0.1384
  697MPD2    H510366   3.553   2.672  15.446 -1.3701  1.5536 -0.5874
  697MPD2    N110367   3.353   2.317  15.699 -0.5680 -0.2680  0.0630
  697MPD2    H710368   3.328   2.313  15.601 -0.0193 -2.9250  0.0134
  698TMC3    C110369   3.689   2.844  15.402  0.4912 -0.0195  0.5292
  698TMC3    C210370   3.752   2.965  15.386 -0.2042  0.6333 -0.1889
  698TMC3    C310371   3.780   2.999  15.258 -0.4109 -0.1145  0.1361
  698TMC3    C410372   3.659   2.757  15.294 -0.2958 -0.7175  0.1562
  698TMC3    C510373   3.684   2.805  15.170 -0.1754  0.5743 -0.0406
  698TMC3    C610374   3.739   2.928  15.152  1.0290  0.3109  0.4718
  698TMC3     C10375   3.662   2.810  15.537 -0.0177 -0.0928  0.3020
  698TMC3     O10376   3.718   2.880  15.623 -0.2869  0.2879 -0.2239
  698TMC3     H10377   3.801   3.021  15.466  0.8510  0.9768 -1.0843
  698TMC3    H110378   3.623   2.655  15.301 -0.5850 -0.4367  2.7372
  698TMC3    H210379   3.764   2.946  15.048 -1.3498 -0.1409 -0.1751
  698TMC3    C710380   3.694   2.715  15.053  0.4064  0.3822  0.4697
  698TMC3    C810381   3.842   3.123  15.236  0.4942  0.2461 -1.1194
  698TMC3    O110382   3.654   2.764  14.948 -0.1166  0.0893  0.0135
  698TMC3    O210383   3.809   3.213  15.315  0.1693 -0.2879 -0.5113
  699TMC3    C110384   3.400   0.403  12.906 -0.0490 -0.0591  0.0391
  699TMC3    C210385   3.485   0.350  12.998  0.5822  0.1166 -0.2280
  699TMC3    C310386   3.434   0.307  13.120  0.2765 -0.4417 -0.1140
  699TMC3    C410387   3.267   0.399  12.923  0.4519  0.8796  0.3517
  699TMC3    C510388   3.217   0.347  13.042 -0.0732 -0.4785  0.7026
  699TMC3    C610389   3.298   0.308  13.149 -0.4179 -0.2041 -0.3673
  699TMC3     C10390   3.449   0.469  12.784 -0.1087 -0.4068 -0.4250
  699TMC3     O10391   3.370   0.486  12.692  0.2064 -0.7403 -0.2234
  699TMC3     H10392   3.589   0.338  12.970  1.0849  0.4913  1.4617
  699TMC3    H110393   3.201   0.437  12.846  0.2310 -1.7272 -0.7480
  699TMC3    H210394   3.254   0.269  13.240 -0.7594  1.7494  0.3072
  699TMC3    C710395   3.089   0.387  13.101  0.0855 -0.2940 -0.1999
  699TMC3    C810396   3.514   0.246  13.224 -0.0903 -0.4630 -0.1481
  699TMC3    O110397   3.052   0.330  13.204 -0.4581 -0.5169 -0.0875
  699TMC3    O210398   3.466   0.235  13.338  0.1807 -0.2860 -0.0201
  700TMC3    C110399   2.510   2.927  17.380  0.0578  0.3855 -0.0254
  700TMC3    C210400   2.596   2.840  17.326  0.5048 -0.3283  0.2959
  700TMC3    C310401   2.688   2.788  17.410  0.1931 -0.0570  0.1620
  700TMC3    C410402   2.524   2.975  17.512  0.4826  0.4791  0.1567
  700TMC3    C510403   2.626   2.929  17.592 -0.7173 -0.1040 -0.2451
  700TMC3    C610404   2.705   2.830  17.542  0.3254 -0.2152  0.1566
  700TMC3     C10405   2.442   3.010  17.292 -0.3912 -0.0498 -0.0227
  700TMC3     O10406   2.320   3.023  17.305  0.4089 -0.2084  0.2054
  700TMC3     H10407   2.583   2.793  17.230  1.4235 -1.6330  0.8109
  700TMC3    H110408   2.476   3.066  17.544  2.2980  1.9857 -1.4126
  700TMC3    H210409   2.783   2.782  17.601 -1.0511 -0.1036  2.0733
  700TMC3    C710410   2.707   3.025  17.660  0.7378 -0.4112 -0.7100
  700TMC3    C810411   2.762   2.671  17.363  0.0361  0.2889 -0.5108
  700TMC3    O110412   2.824   3.045  17.626 -1.0893 -0.7817  0.2784
  700TMC3    O210413   2.819   2.680  17.259  0.1704  0.1173  0.5930
  701TMC3    C110414   2.638   1.455  15.591 -0.2707  0.0618  0.1369
  701TMC3    C210415   2.675   1.415  15.473  0.0278 -0.2443  0.1732
  701TMC3    C310416   2.753   1.499  15.395 -0.4205 -0.2505  0.4116
  701TMC3    C410417   2.679   1.579  15.633  0.1243  0.0519  0.4581
  701TMC3    C510418   2.762   1.659  15.562  0.3003 -0.5851 -0.4263
  701TMC3    C610419   2.802   1.622  15.439 -0.0178 -0.3275  0.3779
  701TMC3     C10420   2.497   1.426  15.614 -0.0258  0.6880 -0.8734
  701TMC3     O10421   2.436   1.514  15.671 -0.1220 -1.1974  0.5753
  701TMC3     H10422   2.660   1.310  15.451 -0.2939 -0.1701  0.0325
  701TMC3    H110423   2.641   1.599  15.732  0.1879  0.2834  0.4360
  701TMC3    H210424   2.870   1.683  15.380 -0.2617  1.6842  2.1661
  701TMC3    C710425   2.757   1.798  15.575 -1.0385 -0.0418  0.2905
  701TMC3    C810426   2.801   1.447  15.268 -0.2805  0.3296 -0.0712
  701TMC3    O110427   2.800   1.871  15.487  0.1694  0.3546  0.2248
  701TMC3    O210428   2.921   1.454  15.245 -0.1785 -0.1857  0.6670
  702MPD2     C10429   2.650   3.170  10.881  0.2606  0.3002  0.2567
  702MPD2    C110430   2.588   3.293  10.908  0.1071  0.7796 -0.0074
  702MPD2    C210431   2.606   3.390  10.816  0.2130  0.1693  0.1625
  702MPD2    C310432   2.683   3.371  10.699  0.3719 -0.3063 -0.4160
  702MPD2    C410433   2.744   3.251  10.679 -0.2249 -0.6333  0.0277
  702MPD2    C510434   2.721   3.152  10.769  0.3877  0.0223 -0.1407
  702MPD2     H10435   2.550   3.483  10.827 -1.2981 -0.9579  1.8703
  702MPD2    H110436   2.800   3.234  10.587 -0.4770 -0.6294 -0.1259
  702MPD2    H210437   2.625   3.087  10.945  0.9734 -1.9708 -2.4319
  702MPD2    H310438   2.760   3.052  10.750 -0.4391 -0.3841  0.2689
  702MPD2     N10439   2.703   3.485  10.610  0.0887 -0.8123 -0.4659
  702MPD2    H510440   2.648   3.569  10.627  0.4189 -0.9198  1.1311
  702MPD2    N110441   2.496   3.311  11.008 -0.3463 -0.3938  0.6476
  702MPD2    H710442   2.447   3.400  11.016  0.9377  0.4785 -1.0590
  703TMC3    C110443   2.784   3.613  10.421  0.2491  0.1345  0.2076
  703TMC3    C210444   2.663   3.679  10.412 -0.8581 -0.4477  0.5140
  703TMC3    C310445   2.659   3.790  10.331 -0.4563  0.4699 -0.1106
  703TMC3    C410446   2.894   3.655  10.352 -0.7791  0.4433 -0.3178
  703TMC3    C510447   2.880   3.759  10.265 -0.1749 -0.4732  0.2966
  703TMC3    C610448   2.762   3.822  10.248 -0.5004  0.2914 -0.0922
  703TMC3     C10449   2.789   3.490  10.500 -0.3018 -0.0678  0.6368
  703TMC3     O10450   2.891   3.422  10.486  0.0349 -0.1529 -0.0071
  703TMC3     H10451   2.573   3.648  10.464 -1.1982 -1.7062 -0.8378
  703TMC3    H110452   2.992   3.612  10.372 -1.6435 -1.0233  0.6623
  703TMC3    H210453   2.757   3.905  10.179  0.7694  0.9257  0.5862
  703TMC3    C710454   3.000   3.827  10.222  0.1292  0.1409 -0.3152
  703TMC3    C810455   2.547   3.882  10.324 -0.2630  0.3250 -0.4101
  703TMC3    O110456   3.102   3.763  10.244  0.3211 -0.0212  0.0727
  703TMC3    O210457   2.558   3.960  10.228 -0.3144  0.4094  0.0225
  704TMC3    C110458   0.632   1.781  13.212 -1.1077 -0.6739 -0.3799
  704TMC3    C210459   0.718   1.760  13.115 -0.5596  0.5343  0.1231
  704TMC3    C310460   0.686   1.691  13.004 -0.3196 -0.4119  0.0228
  704TMC3    C410461   0.523   1.709  13.210  0.0054  0.4503 -0.7767
  704TMC3    C510462   0.488   1.629  13.100  0.2360  0.1143 -0.4270
  704TMC3    C610463   0.570   1.621  12.993 -0.1316  0.1360 -0.0961
  704TMC3     C10464   0.596   1.919  13.222  0.0747  0.2410 -0.1851
  704TMC3     O10465   0.501   1.959  13.283  0.5671 -1.0526  0.1315
  704TMC3     H10466   0.816   1.804  13.132 -0.1319  0.3533 -1.9234
  704TMC3    H110467   0.443   1.708  13.284 -0.5718  0.5406 -1.3978
  704TMC3    H210468   0.543   1.569  12.903 -2.3103 -2.5959  2.1279
  704TMC3    C710469   0.373   1.542  13.094 -0.5300 -0.0015 -0.2613
  704TMC3    C810470   0.774   1.710  12.890  0.4799 -0.4492 -0.4584
  704TMC3    O110471   0.348   1.492  12.986 -0.0493  0.3197  0.0092
  704TMC3    O210472   0.868   1.790  12.912 -0.1482 -0.4789 -0.0625
  705MPD2     C10473   3.873   0.018  16.982  0.0227 -0.0330 -0.3589
  705MPD2    C110474   3.852   0.109  16.880  0.0516  0.0745  0.0611
  705MPD2    C210475   3.753   0.200  16.901  0.4157 -0.0984 -0.2161
  705MPD2    C310476   3.662   0.186  17.009 -0.4488 -0.0768  0.1725
  705MPD2    C410477   3.667   0.077  17.088 -0.2525  0.2159  0.5596
  705MPD2    C510478   3.782   0.007  17.085  0.2539 -0.0913  0.5193
  705MPD2     H10479   3.739   0.275  16.824 -0.0118  0.4445  0.3968
  705MPD2    H110480   3.595   0.067  17.168 -0.3059  0.9167  0.5925
  705MPD2    H210481   3.953   4.686  16.975 -1.2488 -1.7193  2.5547
  705MPD2    H310482   3.796   4.670  17.160  0.7157  0.5620  1.1188
  705MPD2     N10483   3.561   0.276  17.038  0.4241  0.1228 -0.0167
  705MPD2    H510484   3.497   0.251  17.113 -0.7429 -2.3300 -1.8551
  705MPD2    N110485   3.934   0.129  16.758  0.2049 -0.0304  0.0668
  705MPD2    H710486   3.915   0.200  16.688 -0.8235  0.8764  1.2682
  706TMC3    C110487   4.067   0.023  16.356  0.1997 -0.1024 -0.2300
  706TMC3    C210488   4.090   0.152  16.328 -0.0371  0.0789  0.5347
  706TMC3    C310489   4.107   0.237  16.427  0.1271  0.4536 -0.4669
  706TMC3    C410490   4.073   4.715  16.483  0.6974 -0.5492  0.2496
  706TMC3    C510491   4.080   0.064  16.585  0.1066  0.0815  0.2249
  706TMC3    C610492   4.093   0.203  16.560 -0.1879 -0.2957  0.0980
  706TMC3     C10493   4.093   4.660  16.258 -0.4996 -0.3445 -1.1317
  706TMC3     O10494   4.158   4.566  16.299 -0.0561 -0.3704 -0.6211
  706TMC3     H10495   4.080   0.194  16.229  0.9208  0.6351  0.6718
  706TMC3    H110496   4.038   4.614  16.504  2.0455 -0.6907  1.8274
  706TMC3    H210497   4.096   0.270  16.644  1.4196 -0.9937  0.5872
  706TMC3    C710498   4.014   0.025  16.705  0.0439  0.6727 -0.2531
  706TMC3    C810499   4.106   0.380  16.401  0.5132 -0.1877 -0.1296
  706TMC3    O110500   4.025   4.651  16.744  0.1577 -0.3812 -0.0173
  706TMC3    O210501   4.069   0.428  16.294 -0.4100  0.0893  0.4912
  707TMC3    C110502   1.242   4.095   1.040 -0.0716 -0.5512 -0.0824
  707TMC3    C210503   1.214   4.045   1.160  0.4607 -0.2651 -0.2994
  707TMC3    C310504   1.086   4.040   1.201 -0.3722 -0.3455  0.2008
  707TMC3    C410505   1.144   4.130   0.954  0.5054  0.1075 -0.0332
  707TMC3    C510506   1.015   4.120   0.997  0.1612  0.2329  0.2516
  707TMC3    C610507   0.981   4.078   1.124 -0.2839 -0.1862 -0.0760
  707TMC3     C10508   1.374   4.142   1.029  0.1645  0.0606 -0.2958
  707TMC3     O10509   1.460   4.101   1.108 -0.3531  0.0965 -0.4878
  707TMC3     H10510   1.283   4.022   1.240 -0.6384  1.7201  1.2358
  707TMC3    H110511   1.174   4.151   0.852  0.7798 -1.7330 -0.3291
  707TMC3    H210512   0.879   4.057   1.152 -0.4871  0.8353 -0.0517
  707TMC3    C710513   0.912   4.167   0.904 -0.2433 -0.4577  0.0101
  707TMC3    C810514   1.051   3.953   1.313 -0.2433  0.7982  0.4067
  707TMC3    O110515   0.946   4.159   0.789 -0.3477  0.2917 -0.2843
  707TMC3    O210516   0.940   3.966   1.366 -0.0240  0.2974 -0.2141
  708MPD2     C10517   2.600   3.478  13.912 -0.6192 -0.4581 -0.2523
  708MPD2    C110518   2.508   3.424  14.001 -0.1422 -0.1453  0.2220
  708MPD2    C210519   2.553   3.368  14.115 -0.0038  0.6805 -0.4315
  708MPD2    C310520   2.688   3.356  14.151  0.0699 -0.6619  0.2390
  708MPD2    C410521   2.777   3.418  14.065  0.3366  0.0469  0.2982
  708MPD2    C510522   2.728   3.476  13.952  0.0184 -0.1867 -0.0177
  708MPD2     H10523   2.481   3.313  14.174  0.2286  1.5424  0.6444
  708MPD2    H110524   2.884   3.420  14.084  0.2405 -2.2718  1.1551
  708MPD2    H210525   2.577   3.544  13.829 -0.1330  0.9378  0.7344
  708MPD2    H310526   2.803   3.519  13.888  1.0300 -1.2183  0.4824
  708MPD2     N10527   2.743   3.284  14.267  0.2436  0.1884  0.5315
  708MPD2    H510528   2.843   3.298  14.280  0.0943  0.6420  1.1703
  708MPD2    N110529   2.368   3.411  13.957  0.3111  0.4072  0.1800
  708MPD2    H710530   2.345   3.427  13.859 -2.1971 -0.8308  0.5560
  709TMC3    C110531   2.135   3.368  14.002  0.1694 -0.2361  0.1747
  709TMC3    C210532   2.118   3.269  13.911 -0.0062  0.2443  0.2138
  709TMC3    C310533   1.994   3.204  13.909 -0.6773 -0.4046 -0.2776
  709TMC3    C410534   2.041   3.390  14.100 -0.6645 -0.1879 -0.0910
  709TMC3    C510535   1.934   3.305  14.113  0.0652 -0.6840 -0.7401
  709TMC3    C610536   1.894   3.228  14.004 -0.2578 -0.4453  0.1490
  709TMC3     C10537   2.270   3.384  14.048 -0.4475  0.4473  0.0029
  709TMC3     O10538   2.279   3.403  14.172 -0.0703 -0.0387  0.2704
  709TMC3     H10539   2.200   3.261  13.840 -1.2972  1.0177 -1.3610
  709TMC3    H110540   2.064   3.467  14.173 -0.8413  0.3754 -0.6375
  709TMC3    H210541   1.798   3.178  14.011 -1.2347  1.6164  1.4828
  709TMC3    C710542   1.926   3.221  14.233  0.1138  0.1508  0.3100
  709TMC3    C810543   1.967   3.105  13.806  0.2900 -0.2686 -0.6761
  709TMC3    O110544   1.853   3.124  14.233  0.3173  0.2374 -0.1718
  709TMC3    O210545   1.861   3.043  13.822  0.1057  0.2304 -0.6826
  710TMC3    C110546   3.419   4.090   0.436 -0.5605 -0.0853 -0.5472
  710TMC3    C210547   3.461   4.182   0.343 -0.2748 -0.1047  0.2333
  710TMC3    C310548   3.594   4.209   0.348  0.1311 -0.4291 -0.7095
  710TMC3    C410549   3.504   4.011   0.502  0.5459 -0.5122 -0.0136
  710TMC3    C510550   3.636   4.015   0.484 -0.9638  0.2049  0.3532
  710TMC3    C610551   3.685   4.129   0.422  0.1275 -0.3716 -0.0836
  710TMC3     C10552   3.280   4.094   0.493 -0.3539  0.8803 -0.6622
  710TMC3     O10553   3.238   3.987   0.537  0.0716 -0.0492 -0.2585
  710TMC3     H10554   3.401   4.253   0.289  1.0876  2.0316  1.5412
  710TMC3    H110555   3.456   3.940   0.568  0.7678 -0.0763  0.6218
  710TMC3    H210556   3.792   4.132   0.405  0.2364  2.2573  1.0711
  710TMC3    C710557   3.726   3.949   0.582 -0.3184 -0.7024 -0.1547
  710TMC3    C810558   3.657   4.312   0.266 -0.1214  0.2138  0.8687
  710TMC3    O110559   3.675   3.920   0.690  0.0552  0.2418 -0.0789
  710TMC3    O210560   3.779   4.299   0.245  0.0690 -0.2458 -0.1004
  711TMC3    C110561   3.147   1.229  15.275  0.1760 -0.2493 -0.0696
  711TMC3    C210562   3.108   1.159  15.382 -0.6468  0.1351 -0.0985
  711TMC3    C310563   3.140   1.199  15.512  0.4292  0.2616 -0.4631
  711TMC3    C410564   3.192   1.355  15.288  0.1281  0.4400 -0.1726
  711TMC3    C510565   3.208   1.403  15.416 -0.9354 -0.8625 -0.1936
  711TMC3    C610566   3.195   1.321  15.530  0.0025 -0.5010 -0.0815
  711TMC3     C10567   3.150   1.155  15.150 -0.0320 -0.3485  0.6224
  711TMC3     O10568   3.087   1.049  15.143 -0.7811  0.3534  0.2645
  711TMC3     H10569   3.048   1.069  15.380  0.8920 -0.8549 -1.2116
  711TMC3    H110570   3.199   1.423  15.204  2.2315  0.1637 -0.2285
  711TMC3    H210571   3.209   1.367  15.628  1.4869 -0.7055 -0.1980
  711TMC3    C710572   3.240   1.542  15.447 -0.4109 -0.3154 -0.2136
  711TMC3    C810573   3.189   1.094  15.598  0.2699 -0.0958  0.2141
  711TMC3    O110574   3.175   1.591  15.540  0.8694 -0.3634 -0.0252
  711TMC3    O210575   3.126   0.992  15.601 -0.4688  0.2149  0.2935
  712MPD2     C10576   0.027   1.974  13.900  0.2627 -0.0428  0.3624
  712MPD2    C110577   4.736   2.050  13.790  0.3139 -0.3731  0.7372
  712MPD2    C210578   4.709   2.183  13.809 -0.4283 -0.0456 -0.4781
  712MPD2    C310579   4.704   2.235  13.936  0.5908 -0.3886 -0.3742
  712MPD2    C410580   4.731   2.159  14.041 -1.0088 -0.4714 -0.0834
  712MPD2    C510581   0.035   2.028  14.024 -0.2076  0.6247 -0.1569
  712MPD2     H10582   4.691   2.244  13.721  1.9564 -0.9918 -1.6027
  712MPD2    H110583   4.728   2.195  14.143 -1.6037 -1.9223  0.4139
  712MPD2    H210584   0.061   1.872  13.882 -0.6681 -0.1124 -1.0258
  712MPD2    H310585   0.083   1.977  14.107  1.1335 -1.1096 -2.0207
  712MPD2     N10586   4.673   2.370  13.964  0.2131 -0.9790 -0.0307
  712MPD2    H510587   4.689   2.404  14.058  1.0408 -0.6059 -0.3013
  712MPD2    N110588   4.730   1.988  13.663 -0.4666 -0.4230 -0.1560
  712MPD2    H710589   4.722   1.887  13.664  0.7085 -0.5134  0.4118
  713TMC3    C110590   4.612   2.598  13.912  0.2230  0.0891 -0.6243
  713TMC3    C210591   4.724   2.649  13.960 -0.7092 -0.4001 -0.4662
  713TMC3    C310592   4.740   2.788  13.972  0.1782  0.3052  0.4550
  713TMC3    C410593   4.518   2.678  13.849 -0.0854  0.0503  0.0955
  713TMC3    C510594   4.537   2.810  13.862 -0.0906  0.3819 -0.9568
  713TMC3    C610595   4.640   2.869  13.930 -0.6632  0.1916  0.2954
  713TMC3     C10596   4.610   2.457  13.872 -0.5499 -0.2053 -0.1951
  713TMC3     O10597   4.549   2.432  13.763  0.3202  1.1210  0.1956
  713TMC3     H10598   0.068   2.586  13.981 -0.9878 -1.2841 -1.9287
  713TMC3    H110599   4.431   2.638  13.798  0.4003 -0.6995 -0.1399
  713TMC3    H210600   4.652   2.976  13.937  1.1860  0.0469 -0.6290
  713TMC3    C710601   4.433   2.894  13.795  0.3395  0.2349  0.3034
  713TMC3    C810602   0.136   2.842  13.965 -0.2697 -1.0505 -0.1798
  713TMC3    O110603   4.317   2.846  13.804  0.2635  0.7399 -0.0189
  713TMC3    O210604   0.145   2.930  13.882 -0.9885 -0.3835 -0.1904
  714MPD2     C10605   2.289   0.956   1.625 -0.3948 -0.0387 -0.2206
  714MPD2    C110606   2.283   0.879   1.509 -0.1623 -0.6746 -0.0733
  714MPD2    C210607   2.187   0.896   1.416  0.2258  0.3782 -0.2894
  714MPD2    C310608   2.082   0.983   1.442  0.0113 -0.0169 -0.0614
  714MPD2    C410609   2.078   1.056   1.563  0.3269 -0.6197 -0.1477
  714MPD2    C510610   2.180   1.041   1.653  0.7119 -0.0451 -0.2323
  714MPD2     H10611   2.201   0.854   1.317  1.8298  1.1947 -0.4016
  714MPD2    H110612   1.994   1.120   1.589  0.4543 -1.2005  1.6743
  714MPD2    H210613   2.363   0.959   1.703 -1.8602  0.9153  1.1350
  714MPD2    H310614   2.166   1.089   1.749  0.6647  2.1686 -1.3379
  714MPD2     N10615   1.984   0.991   1.345 -0.5862 -0.4840 -0.1747
  714MPD2    H510616   1.988   0.935   1.261  0.5221 -1.0785  0.2838
  714MPD2    N110617   2.388   0.785   1.493  0.0359  0.0667 -0.6823
  714MPD2    H710618   2.469   0.790   1.553  0.7404 -1.7077 -1.4653
  715TMC3    C110619   2.499   0.585   1.416 -0.3064 -0.1409  0.1465
  715TMC3    C210620   2.466   0.459   1.385 -0.2957  0.2148 -0.2360
  715TMC3    C310621   2.564   0.360   1.413 -0.2925 -0.2044 -0.1284
  715TMC3    C410622   2.619   0.626   1.467  0.0413  0.1418 -0.3172
  715TMC3    C510623   2.708   0.532   1.506  0.1946  0.3044 -0.1980
  715TMC3    C610624   2.679   0.402   1.480  0.0704  0.3032 -0.5407
  715TMC3     C10625   2.385   0.675   1.408  1.1792 -0.1293  0.0470
  715TMC3     O10626   2.286   0.637   1.344 -0.0575 -0.4598 -0.8549
  715TMC3     H10627   2.369   0.428   1.346 -0.2196  1.4031 -1.3542
  715TMC3    H110628   2.631   0.732   1.489 -0.9450  0.2537 -0.3246
  715TMC3    H210629   2.754   0.332   1.514  1.6103  1.7470 -0.9973
  715TMC3    C710630   2.848   0.562   1.526 -0.8532 -0.3147  0.0978
  715TMC3    C810631   2.523   0.219   1.417 -0.1541  0.7663 -0.2212
  715TMC3    O110632   2.927   0.470   1.512 -0.2790 -0.0741 -0.3934
  715TMC3    O210633   2.443   0.182   1.334 -0.0567 -0.1932 -0.2280
  716MPD2     C10634   2.271   3.278   9.952 -0.6106  0.1995 -0.2489
  716MPD2    C110635   2.237   3.248   9.821  0.3137  0.3876 -0.3187
  716MPD2    C210636   2.282   3.128   9.762  0.6057 -0.6634 -0.2124
  716MPD2    C310637   2.357   3.035   9.830  0.6660  0.0224 -0.2721
  716MPD2    C410638   2.391   3.063   9.963  0.2131 -0.2475  0.6342
  716MPD2    C510639   2.351   3.185  10.016  0.0013  0.4384 -0.5736
  716MPD2     H10640   2.261   3.113   9.657 -2.2712 -1.0681  0.4210
  716MPD2    H110641   2.451   2.989  10.015 -0.7048 -1.8238 -0.5314
  716MPD2    H210642   2.240   3.372   9.997 -0.1141  0.3587 -0.2360
  716MPD2    H310643   2.378   3.206  10.119 -1.5105  1.9683 -0.4781
  716MPD2     N10644   2.412   2.924   9.758  0.1549 -0.2346  0.7085
  716MPD2    H510645   2.397   2.920   9.658  2.0851  2.4405  0.3214
  716MPD2    N110646   2.158   3.341   9.743  0.2294  0.0212  0.2856
  716MPD2    H710647   2.112   3.413   9.798 -0.9529  0.0923 -0.7922
  717TMC3    C110648   2.529   2.739   9.689 -0.1027 -0.0274 -0.2737
  717TMC3    C210649   2.450   2.747   9.576  0.4738 -0.3698  0.4678
  717TMC3    C310650   2.489   2.681   9.463  0.3276  0.0422 -0.6209
  717TMC3    C410651   2.643   2.670   9.695 -0.3938  0.3600  0.4236
  717TMC3    C510652   2.675   2.596   9.583  0.0321  0.1258 -0.4186
  717TMC3    C610653   2.607   2.607   9.464  0.4427 -0.0620  0.0356
  717TMC3     C10654   2.499   2.824   9.800 -0.4220 -0.1168  0.1784
  717TMC3     O10655   2.553   2.807   9.911  0.1725  0.0278  0.5157
  717TMC3     H10656   2.367   2.816   9.569  0.2899 -0.8902 -2.2908
  717TMC3    H110657   2.693   2.677   9.791  0.7657  0.2790 -0.1685
  717TMC3    H210658   2.627   2.539   9.382 -1.1990  0.0745 -0.4849
  717TMC3    C710659   2.813   2.547   9.579 -1.0370 -0.7520 -0.1976
  717TMC3    C810660   2.402   2.684   9.348  0.0888  0.2586 -0.4820
  717TMC3    O110661   2.859   2.505   9.474  0.0948 -0.1992 -0.4038
  717TMC3    O210662   2.292   2.724   9.370 -0.0180  0.0772 -0.3939
  718MPD2     C10663   1.740   1.481  13.321  0.4463  0.0755  0.3413
  718MPD2    C110664   1.664   1.511  13.213  0.2058  0.1748 -0.7363
  718MPD2    C210665   1.532   1.520  13.241  0.1352 -0.7419 -0.0699
  718MPD2    C310666   1.473   1.498  13.360  0.1832 -1.0059  0.3159
  718MPD2    C410667   1.551   1.466  13.471 -0.8597 -0.1035 -0.0567
  718MPD2    C510668   1.686   1.456  13.453 -0.7327 -1.0911 -0.8151
  718MPD2     H10669   1.466   1.535  13.156  0.4540 -0.0303 -0.1903
  718MPD2    H110670   1.504   1.441  13.565 -1.6292  0.6241 -0.2417
  718MPD2    H210671   1.846   1.460  13.312  0.0549 -2.2278  1.1070
  718MPD2    H310672   1.750   1.430  13.537  0.3017 -1.2775 -1.6658
  718MPD2     N10673   1.334   1.484  13.358 -0.0537  0.0516  0.0204
  718MPD2    H510674   1.288   1.510  13.271  1.2382  1.4243 -0.2572
  718MPD2    N110675   1.724   1.524  13.083 -0.0207 -0.6561 -0.1600
  718MPD2    H710676   1.819   1.494  13.067  0.4381  1.3312 -1.0815
  719TMC3    C110677   1.724   1.528  12.855  0.2242  0.2671  0.1693
  719TMC3    C210678   1.648   1.469  12.755  0.3097  0.3618  0.2922
  719TMC3    C310679   1.628   1.528  12.630  0.0448  0.4860  0.0808
  719TMC3    C410680   1.809   1.635  12.819  0.1416  0.2252  0.0273
  719TMC3    C510681   1.782   1.698  12.696  0.3500  0.7847  0.4381
  719TMC3    C610682   1.700   1.639  12.599  0.7462 -0.3678  0.2394
  719TMC3     C10683   1.648   1.552  12.971 -0.7547 -0.2367  0.2679
  719TMC3     O10684   1.532   1.593  12.949  0.3667  0.7978 -0.1162
  719TMC3     H10685   1.603   1.374  12.781 -1.6585  1.2954  0.2600
  719TMC3    H110686   1.868   1.687  12.893  0.8288  0.7104 -0.8652
  719TMC3    H210687   1.686   1.687  12.503  1.7210 -0.2526  0.1475
  719TMC3    C710688   1.856   1.813  12.652 -0.3265  0.2769  0.5926
  719TMC3    C810689   1.489   1.546  12.596 -0.1201  0.5714  0.3847
  719TMC3    O110690   1.973   1.819  12.686 -0.1487  0.0040 -0.2481
  719TMC3    O210691   1.458   1.548  12.473  0.1117  0.2998 -0.0539
  720MPD2     C10692   4.662   4.328  14.651  0.3077  0.2650 -0.1724
  720MPD2    C110693   0.004   4.275  14.556 -0.0066 -0.8423 -0.6073
  720MPD2    C210694   0.122   4.216  14.587  0.1557 -0.7708  0.6070
  720MPD2    C310695   0.173   4.222  14.717 -0.3773 -0.4302 -0.3761
  720MPD2    C410696   0.093   4.291  14.811 -0.1615  0.1889 -0.6261
  720MPD2    C510697   4.713   4.344  14.780 -0.4177 -0.7204  0.1713
  720MPD2     H10698   0.162   4.152  14.509 -1.5346  0.7178 -1.5231
  720MPD2    H110699   0.125   4.313  14.912  1.0427 -2.0610 -0.5280
  720MPD2    H210700   4.568   4.372  14.619  0.1097  0.9637  1.3686
  720MPD2    H310701   4.646   4.382  14.857 -0.7047 -0.8491 -0.0115
  720MPD2     N10702   0.293   4.156  14.742  0.5297  0.1379  0.4136
  720MPD2    H510703   0.332   4.102  14.665  0.0804 -0.0372  0.3067
  720MPD2    N110704   4.713   4.288  14.415  0.7741  0.2432 -0.3197
  720MPD2    H710705   0.026   4.242  14.343  0.4009 -0.9210  0.1456
  721TMC3    C110706   0.489   4.088  14.867  0.3382 -0.0442 -0.5513
  721TMC3    C210707   0.528   4.066  14.992 -0.9643 -0.2494  0.3941
  721TMC3    C310708   0.650   3.999  15.009  0.4410  0.1384 -0.2119
  721TMC3    C410709   0.556   4.049  14.751  0.5124  0.0471  0.8959
  721TMC3    C510710   0.669   3.968  14.775 -0.4741 -0.7332  0.6389
  721TMC3    C610711   0.714   3.936  14.903 -0.0754 -0.2099 -0.1451
  721TMC3     C10712   0.363   4.163  14.856  0.0948 -0.4302 -0.0900
  721TMC3     O10713   0.343   4.243  14.948  0.1744 -0.1430  0.2120
  721TMC3     H10714   0.468   4.104  15.074 -0.3768  1.4199  0.0524
  721TMC3    H110715   0.524   4.079  14.652  3.7659  1.0328  0.1695
  721TMC3    H210716   0.818   3.909  14.919  0.4249  0.4930 -2.1516
  721TMC3    C710717   0.766   3.963  14.665  0.5439  0.1764 -0.9042
  721TMC3    C810718   0.712   3.983  15.138 -0.8434  0.4234 -0.3576
  721TMC3    O110719   0.754   4.032  14.565  0.6932 -0.1923  0.1057
  721TMC3    O210720   0.800   3.899  15.151 -0.4101 -0.2992  0.0934
  722MPD2     C10721   3.595   2.631  13.305  0.3168 -0.0961 -0.2926
  722MPD2    C110722   3.546   2.748  13.246 -0.5546  0.3680  0.1385
  722MPD2    C210723   3.422   2.750  13.189 -0.3373 -0.0435  0.2881
  722MPD2    C310724   3.352   2.632  13.166 -0.1199 -0.6554 -0.3485
  722MPD2    C410725   3.404   2.519  13.218 -0.4187  0.3706  0.4997
  722MPD2    C510726   3.524   2.514  13.291  0.1506  0.0926 -0.7431
  722MPD2     H10727   3.380   2.841  13.148 -2.0727 -0.4691  1.1290
  722MPD2    H110728   3.351   2.424  13.213  1.6079 -0.6263 -2.2612
  722MPD2    H210729   3.695   2.632  13.348 -0.2804 -2.4411  1.1654
  722MPD2    H310730   3.550   2.421  13.340 -2.8141 -0.3680 -0.0313
  722MPD2     N10731   3.229   2.642  13.103  0.4945  0.6463  0.6756
  722MPD2    H510732   3.198   2.738  13.096  1.5182  0.9609  0.5676
  722MPD2    N110733   3.606   2.877  13.259  0.1708  0.2570 -0.5385
  722MPD2    H710734   3.561   2.955  13.212  0.7635  0.7725 -0.2437
  723TMC3    C110735   3.030   2.552  13.002  0.2600 -0.2139  0.5631
  723TMC3    C210736   2.962   2.444  12.955 -0.0470 -0.2373 -0.5611
  723TMC3    C310737   2.830   2.440  12.948  0.5661  0.2787 -0.2579
  723TMC3    C410738   2.964   2.663  13.038 -0.2474 -0.4559  0.7650
  723TMC3    C510739   2.833   2.661  13.024  0.4823 -0.4597  0.0330
  723TMC3    C610740   2.762   2.559  12.973  0.4517 -0.0851 -0.0692
  723TMC3     C10741   3.162   2.534  13.055 -0.6590 -0.7586  0.2182
  723TMC3     O10742   3.191   2.417  13.063 -0.0382  0.5735 -1.1193
  723TMC3     H10743   3.026   2.367  12.912  1.1117  0.0606  0.6382
  723TMC3    H110744   3.012   2.756  13.064 -2.0897  0.4280  1.0299
  723TMC3    H210745   2.654   2.563  12.974  0.5444  1.7826  2.2081
  723TMC3    C710746   2.781   2.795  13.002 -0.9429 -0.6602 -0.9568
  723TMC3    C810747   2.756   2.322  12.917  0.3659  0.1456 -0.3696
  723TMC3    O110748   2.821   2.884  13.072 -0.0017 -0.1905  0.2989
  723TMC3    O210749   2.637   2.336  12.892  0.5781  0.0511 -0.0985
  724TMC3    C110750   4.139   0.339  10.172  0.2117  0.7374 -0.0459
  724TMC3    C210751   4.089   0.422  10.075  0.0576  0.0259 -0.0264
  724TMC3    C310752   4.140   0.542  10.053 -0.7452 -0.3145 -0.1649
  724TMC3    C410753   4.255   0.376  10.239 -0.2460 -0.2676  0.1541
  724TMC3    C510754   4.310   0.500  10.201  0.2232 -0.6992 -0.1590
  724TMC3    C610755   4.257   0.583  10.108  0.4245  0.2594 -0.6321
  724TMC3     C10756   4.097   0.202  10.181  0.2721 -0.5823  0.1180
  724TMC3     O10757   4.130   0.152  10.292 -0.0745  0.8701 -0.1534
  724TMC3     H10758   3.991   0.407  10.033 -0.3780 -0.8718  1.2790
  724TMC3    H110759   4.280   0.317  10.326  1.5473 -0.0289 -0.1868
  724TMC3    H210760   4.310   0.674  10.083  1.2303  0.8141  3.0824
  724TMC3    C710761   4.392   0.578  10.288 -0.1525  0.2585  0.6253
  724TMC3    C810762   4.069   0.633   9.961  0.1989 -0.1259 -0.0977
  724TMC3    O110763   4.375   0.697  10.289  0.6867 -0.1410  0.2866
  724TMC3    O210764   4.008   0.584   9.870  0.0660  0.4589  0.2390
  725TMC3    C110765   1.057   3.873  13.052 -0.3190  0.4220  0.2443
  725TMC3    C210766   0.926   3.881  13.018 -0.0253 -0.2633 -0.0585
  725TMC3    C310767   0.884   3.820  12.906  0.0865  0.0679  0.6252
  725TMC3    C410768   1.150   3.796  12.989 -0.2772  0.3277  0.2634
  725TMC3    C510769   1.103   3.730  12.879  0.3544  0.1079  0.3239
  725TMC3    C610770   0.975   3.757  12.830  0.0879  1.1280 -0.1251
  725TMC3     C10771   1.108   3.982  13.134  0.1553 -0.0551  0.3239
  725TMC3     O10772   1.050   4.090  13.138 -0.1833  0.3514  0.0001
  725TMC3     H10773   0.856   3.949  13.066 -0.8869  0.1797 -1.9453
  725TMC3    H110774   1.256   3.809  13.010 -0.2146  0.0855  0.0991
  725TMC3    H210775   0.944   3.742  12.727  1.8108 -1.4845 -0.2588
  725TMC3    C710776   1.188   3.661  12.790  0.5489 -0.1210 -0.5013
  725TMC3    C810777   0.752   3.847  12.854 -0.0369  0.2615  0.3554
  725TMC3    O110778   1.137   3.611  12.692  0.5972  0.3011 -0.1236
  725TMC3    O210779   0.746   3.850  12.730  0.3431 -0.1486  0.5364
  726MPD2     C10780   3.406   0.377  10.382  0.0174 -0.3349  0.2208
  726MPD2    C110781   3.293   0.464  10.381  0.5729 -0.4325  0.6313
  726MPD2    C210782   3.177   0.423  10.443 -0.0250 -0.1473  0.6154
  726MPD2    C310783   3.167   0.301  10.502  0.4213  0.5004 -0.4472
  726MPD2    C410784   3.276   0.217  10.503  0.0679  0.3784  0.4027
  726MPD2    C510785   3.391   0.253  10.438  0.4460  0.2505  0.0844
  726MPD2     H10786   3.088   0.482  10.423 -0.5666 -1.2735 -0.3603
  726MPD2    H110787   3.275   0.117  10.544 -0.0994  0.2429  0.0675
  726MPD2    H210788   3.498   0.398  10.330 -0.3766 -1.6989 -1.0327
  726MPD2    H310789   3.478   0.189  10.450  1.4965  1.7520  0.5071
  726MPD2     N10790   3.052   0.249  10.564  0.2788 -0.1704 -0.1144
  726MPD2    H510791   3.070   0.160  10.609  0.3809 -0.5884 -0.9853
  726MPD2    N110792   3.303   0.587  10.316 -0.1823  0.6301  0.3938
  726MPD2    H710793   3.215   0.637  10.315  1.0683  2.8153 -0.3192
  727TMC3    C110794   3.378   0.784  10.224  0.1141  0.4635 -0.4132
  727TMC3    C210795   3.452   0.887  10.273 -0.0194  0.0067  0.3551
  727TMC3    C310796   3.400   1.013  10.253  0.6189  0.2946 -0.2478
  727TMC3    C410797   3.268   0.800  10.146 -1.1293  0.0152 -0.3351
  727TMC3    C510798   3.224   0.928  10.123 -0.3057  0.4761  0.3937
  727TMC3    C610799   3.286   1.032  10.179  0.3870  0.4406  0.7254
  727TMC3     C10800   3.416   0.652  10.267 -0.0111  0.2630  0.3854
  727TMC3     O10801   3.533   0.630  10.284  1.3491  0.1761 -0.5073
  727TMC3     H10802   3.543   0.870  10.329  0.6595 -1.0942 -1.0750
  727TMC3    H110803   3.229   0.715  10.091  2.0674 -0.6102 -1.6265
  727TMC3    H210804   3.247   1.133  10.173  0.9246  0.6629  0.9685
  727TMC3    C710805   3.140   0.956  10.009  0.5931  0.2137 -0.3670
  727TMC3    C810806   3.459   1.124  10.331  0.3723 -1.0250 -0.4774
  727TMC3    O110807   3.137   1.067   9.961  0.8276  0.8091 -0.5057
  727TMC3    O210808   3.531   1.086  10.423  0.1038 -0.3666 -0.0889
  728TMC3    C110809   2.464   4.605  15.199  0.2264  0.3196  0.0691
  728TMC3    C210810   2.568   4.585  15.275 -0.1343 -0.4072 -0.0938
  728TMC3    C310811   2.690   4.614  15.216  0.5041  0.5122 -0.4084
  728TMC3    C410812   2.467   4.639  15.069  0.0907 -0.8253 -0.1748
  728TMC3    C510813   2.584   4.672  15.013 -0.4724  0.1163 -0.8671
  728TMC3    C610814   2.693   4.655  15.088  0.5861 -0.1317 -1.0690
  728TMC3     C10815   2.336   4.631  15.260 -0.5464 -0.4511  0.3663
  728TMC3     O10816   2.238   4.642  15.187 -0.5028  0.0565 -0.4771
  728TMC3     H10817   2.561   4.538  15.372 -1.0326  0.8652  0.4554
  728TMC3    H110818   2.377   4.645  15.010 -0.7485 -1.3019  1.0734
  728TMC3    H210819   2.787   4.665  15.034  0.0908  2.4567 -1.4277
  728TMC3    C710820   2.598   4.708  14.874 -1.2181  1.2339  0.9682
  728TMC3    C810821   2.807   4.556  15.278 -0.0256  0.1349  0.1768
  728TMC3    O110822   2.513   4.665  14.797 -0.5617 -0.4585  0.4495
  728TMC3    O210823   2.912   4.559  15.219 -0.6572  0.1079 -0.2599
  729MPD2     C10824   4.515   0.747  17.175  0.3357 -0.1209  0.6776
  729MPD2    C110825   4.512   0.884  17.159 -0.1458 -0.1639 -0.1746
  729MPD2    C210826   4.521   0.973  17.264  0.4878  0.1175 -0.0196
  729MPD2    C310827   4.558   0.918  17.388 -0.4011 -0.0122 -0.4624
  729MPD2    C410828   4.583   0.786  17.400  0.7414 -0.1586 -0.5489
  729MPD2    C510829   4.549   0.701  17.303  0.0195 -0.3948  0.3515
  729MPD2     H10830   4.519   1.081  17.260 -0.7718  0.1326  0.9960
  729MPD2    H110831   4.612   0.739  17.493  0.1243  0.7754  0.1202
  729MPD2    H210832   4.495   0.680  17.093  3.4149  0.0479 -0.2352
  729MPD2    H310833   4.548   0.593  17.312 -1.5318 -0.4372 -0.2325
  729MPD2     N10834   4.600   0.999  17.496 -0.3920 -0.4047  0.0917
  729MPD2    H510835   4.665   0.958  17.563 -1.4605 -0.5162  1.0512
  729MPD2    N110836   4.505   0.933  17.022  0.3936  0.0807  0.0093
  729MPD2    H710837   4.516   0.858  16.955  2.1556 -0.9522  1.4582
  730TMC3    C110838   4.644   1.204  17.599  0.5896 -0.1838  0.4770
  730TMC3    C210839   0.037   1.178  17.593 -1.0440  0.2143 -0.0219
  730TMC3    C310840   0.121   1.276  17.617 -0.4232  0.6320 -0.0101
  730TMC3    C410841   4.600   1.333  17.605 -0.2075  0.3110  0.1066
  730TMC3    C510842   4.688   1.428  17.639  0.0254  0.5211 -0.7936
  730TMC3    C610843   0.078   1.398  17.647  0.0733 -0.2521  0.3618
  730TMC3     C10844   4.558   1.126  17.518  0.3503  0.0640 -0.2424
  730TMC3     O10845   4.463   1.178  17.456 -0.2487  0.4214  0.3294
  730TMC3     H10846   0.076   1.077  17.581 -0.4169  0.3384  1.0037
  730TMC3    H110847   4.495   1.355  17.585 -0.7022  0.0819  2.5003
  730TMC3    H210848   0.154   1.471  17.672  0.4123 -0.4607 -0.0717
  730TMC3    C710849   4.658   1.563  17.581  0.5664  0.7843  0.9364
  730TMC3    C810850   0.253   1.251  17.595 -0.2474 -0.4773 -0.6686
  730TMC3    O110851   4.595   1.568  17.479 -0.0880  0.4009  0.2577
  730TMC3    O210852   0.313   1.159  17.652  0.3399  0.0463  0.2958
  731MPD2     C10853   0.777   3.590  12.358  0.5569 -0.5968 -0.2835
  731MPD2    C110854   0.644   3.554  12.346 -0.5132  0.8041 -0.9630
  731MPD2    C210855   0.578   3.539  12.462 -0.0575  0.1135 -0.4801
  731MPD2    C310856   0.631   3.550  12.594  0.4650  0.4003 -0.0114
  731MPD2    C410857   0.761   3.597  12.601 -0.4366 -0.7138 -0.3255
  731MPD2    C510858   0.837   3.605  12.482  0.4409 -0.4841  0.3469
  731MPD2     H10859   0.475   3.504  12.459 -0.6080  1.5221  1.7824
  731MPD2    H110860   0.800   3.616  12.700  0.2585  0.9131 -0.9111
  731MPD2    H210861   0.846   3.613  12.278 -0.1626 -0.9472 -0.9899
  731MPD2    H310862   0.936   3.648  12.490 -0.0458  0.8133 -0.6738
  731MPD2     N10863   0.564   3.536  12.720 -0.5080  0.2475  0.1428
  731MPD2    H510864   0.624   3.543  12.802  1.3075 -0.0229 -1.1541
  731MPD2    N110865   0.593   3.540  12.217 -0.0079 -0.4801  0.0351
  731MPD2    H710866   0.658   3.550  12.140  0.1036 -0.5534  0.1183
  732TMC3    C110867   0.424   3.469  12.058 -0.5261 -0.1817  0.6013
  732TMC3    C210868   0.313   3.391  12.040  0.0975  0.0950  0.3011
  732TMC3    C310869   0.292   3.332  11.919 -0.2628 -0.8454  0.6469
  732TMC3    C410870   0.518   3.485  11.961 -0.2461  0.7853 -0.0988
  732TMC3    C510871   0.501   3.407  11.847  0.0601  0.2881 -0.2477
  732TMC3    C610872   0.393   3.329  11.826  0.3002  0.5507 -0.3557
  732TMC3     C10873   0.457   3.506  12.196 -0.1498 -0.3984  0.0400
  732TMC3     O10874   0.364   3.525  12.269 -0.1253  0.1576 -0.3296
  732TMC3     H10875   0.247   3.378  12.124  1.2097 -0.3068  1.1083
  732TMC3    H110876   0.615   3.531  11.979  0.6822 -0.4010 -2.0452
  732TMC3    H210877   0.382   3.274  11.733 -0.0183 -0.2355  0.1412
  732TMC3    C710878   0.609   3.407  11.749  0.3706 -0.0747 -0.2969
  732TMC3    C810879   0.159   3.284  11.897 -0.1521 -0.3055 -0.2137
  732TMC3    O110880   0.570   3.385  11.634  0.6262 -0.6462 -0.1416
  732TMC3    O210881   0.144   3.199  11.809  0.3923  0.4905 -0.4263
  733TMC3    C110882   0.883   1.489  13.426 -0.5045  0.4641 -0.4947
  733TMC3    C210883   1.002   1.462  13.492  0.0032 -0.3950  0.2183
  733TMC3    C310884   1.108   1.424  13.408 -0.4706 -1.0333 -0.4115
  733TMC3    C410885   0.865   1.472  13.290  0.5380  0.1264  1.0243
  733TMC3    C510886   0.968   1.429  13.218  0.3267  0.1567 -0.0069
  733TMC3    C610887   1.092   1.414  13.272 -0.1649  0.0844  0.1404
  733TMC3     C10888   0.812   1.587  13.493  0.3633  0.0194  0.0781
  733TMC3     O10889   0.869   1.666  13.565  0.2118 -0.3355  0.1261
  733TMC3     H10890   1.015   1.467  13.600  3.1367 -0.7053 -0.1451
  733TMC3    H110891   0.770   1.480  13.239  1.0777 -0.4424 -0.0555
  733TMC3    H210892   1.168   1.377  13.205 -2.3175 -1.6841 -1.3031
  733TMC3    C710893   0.946   1.435  13.077 -0.2343  0.2737 -0.7069
  733TMC3    C810894   1.245   1.451  13.458  0.3884 -0.0594 -0.4210
  733TMC3    O110895   0.829   1.413  13.037  0.2061  0.1742 -0.5477
  733TMC3    O210896   1.256   1.452  13.582  0.2038 -0.3322  0.3512
  734MPD2     C10897   2.890   4.588  12.439 -0.0254 -0.1406 -0.1946
  734MPD2    C110898   2.816   4.494  12.369  0.2054 -0.6307 -0.6024
  734MPD2    C210899   2.840   4.475  12.237 -0.4387  0.0665 -0.5829
  734MPD2    C310900   2.929   4.556  12.171  0.5866  0.1388  0.2549
  734MPD2    C410901   3.007   4.648  12.243  0.3441 -0.2465  0.8424
  734MPD2    C510902   2.985   4.666  12.374  0.1526 -0.1525  0.1642
  734MPD2     H10903   2.796   4.396  12.177  2.5191 -1.9661 -0.0530
  734MPD2    H110904   3.082   4.706  12.190 -0.8718 -1.0935 -1.7971
  734MPD2    H210905   2.876   4.606  12.545 -2.5679 -3.4782  0.0298
  734MPD2    H310906   3.035   0.003  12.431 -0.0641  1.0173 -1.2331
  734MPD2     N10907   2.942   4.534  12.036 -0.2363  0.0298  0.1892
  734MPD2    H510908   2.904   4.444  12.011 -0.6260  0.8364 -2.0534
  734MPD2    N110909   2.735   4.410  12.433  1.0002 -0.2227  0.1870
  734MPD2    H710910   2.742   4.408  12.535  3.9186 -1.7861 -0.0649
  735TMC3    C110911   2.575   4.233  12.471 -0.1168 -0.1427  0.0297
  735TMC3    C210912   2.473   4.173  12.405  0.0141 -0.3766  1.3790
  735TMC3    C310913   2.475   4.036  12.386  0.1925 -0.3418 -0.7623
  735TMC3    C410914   2.662   4.157  12.537 -0.8078 -0.0777  0.5768
  735TMC3    C510915   2.663   4.020  12.519  0.2167  0.1696  0.3599
  735TMC3    C610916   2.564   3.955  12.451  0.4809  0.3953  0.5812
  735TMC3     C10917   2.642   4.318  12.379  0.6129  0.1125 -0.4948
  735TMC3     O10918   2.604   4.323  12.263 -0.1456  0.4255 -0.2217
  735TMC3     H10919   2.416   4.236  12.338  2.6598  1.1437  0.5379
  735TMC3    H110920   2.746   4.205  12.586  0.2584  0.7152 -2.0290
  735TMC3    H210921   2.581   3.853  12.417 -2.2854  0.3728 -0.6735
  735TMC3    C710922   2.793   3.963  12.527  0.3604 -0.3783  0.5106
  735TMC3    C810923   2.443   3.984  12.254  0.4223 -0.4269  0.0469
  735TMC3    O110924   2.886   4.042  12.513 -0.7695  0.5468 -0.3511
  735TMC3    O210925   2.443   3.861  12.234 -0.5018  0.0939 -0.3672
  736MPD2     C10926   2.904   3.628  12.645 -0.3901  0.0795  0.1622
  736MPD2    C110927   2.913   3.748  12.572 -0.8724  0.1474  0.0858
  736MPD2    C210928   3.023   3.778  12.501 -0.2973  0.4585  0.3389
  736MPD2    C310929   3.129   3.686  12.492  0.6639 -0.6397 -0.0600
  736MPD2    C410930   3.118   3.566  12.561 -0.2561 -0.4193 -0.1889
  736MPD2    C510931   3.007   3.541  12.638  0.0239  0.7581  0.2122
  736MPD2     H10932   3.022   3.870  12.445 -1.1685  1.5249  2.1067
  736MPD2    H110933   3.194   3.489  12.562 -0.0840 -0.2654 -1.3117
  736MPD2    H210934   2.816   3.603  12.704  1.5287 -1.3321  2.4206
  736MPD2    H310935   3.000   3.448  12.693  1.6843 -0.1044 -1.0497
  736MPD2     N10936   3.244   3.710  12.417  0.2867 -0.0362 -0.1181
  736MPD2    H510937   3.295   3.623  12.403  3.2848  1.6045  0.5338
  736MPD2    N110938   2.796   3.836  12.573 -0.0501 -0.0096  0.2446
  736MPD2    H710939   2.711   3.788  12.601 -1.0123  0.4355 -1.8736
  737TMC3    C110940   3.409   3.821  12.299 -0.3340  0.6846 -0.4756
  737TMC3    C210941   3.497   3.919  12.308 -0.0503  0.3002 -0.2515
  737TMC3    C310942   3.616   3.901  12.243 -0.2471  0.6600 -0.4276
  737TMC3    C410943   3.430   3.700  12.241 -0.1225  0.2616  0.3360
  737TMC3    C510944   3.552   3.690  12.187  0.2703  0.2259 -0.3434
  737TMC3    C610945   3.648   3.788  12.178 -0.1449 -0.7556  0.1257
  737TMC3     C10946   3.286   3.832  12.374 -0.8419 -0.4836 -0.3775
  737TMC3     O10947   3.252   3.946  12.406  0.2391 -0.4555  0.2561
  737TMC3     H10948   3.469   3.998  12.377 -0.6622  1.1060 -1.4109
  737TMC3    H110949   3.346   3.635  12.220  1.0051 -1.4150  1.0503
  737TMC3    H210950   3.726   3.775  12.104 -0.9922  0.6439 -1.0298
  737TMC3    C710951   3.566   3.576  12.105  0.1087 -0.6447 -0.2171
  737TMC3    C810952   3.698   4.022  12.236 -0.6907 -0.2876  0.0107
  737TMC3    O110953   3.466   3.515  12.069  0.3568  0.1839 -0.1836
  737TMC3    O210954   3.653   4.117  12.291  0.7088  0.1038 -0.1064
  738MPD2     C10955   3.961   3.357  15.108  0.5596  0.6134  0.0277
  738MPD2    C110956   4.008   3.228  15.095  0.5880  0.6280  0.2003
  738MPD2    C210957   4.116   3.202  15.016 -0.6155  0.6281 -0.2166
  738MPD2    C310958   4.182   3.307  14.953 -0.3217 -0.0716  0.3197
  738MPD2    C410959   4.141   3.439  14.971 -0.7956  0.7660 -0.2231
  738MPD2    C510960   4.036   3.459  15.051  0.4690  0.2168 -0.1461
  738MPD2     H10961   4.151   3.101  15.001 -1.0478  0.6735 -1.4790
  738MPD2    H110962   4.195   3.525  14.932 -1.0242  2.0542  2.3089
  738MPD2    H210963   3.865   3.378  15.152  0.0582 -0.7037 -0.4464
  738MPD2    H310964   4.011   3.565  15.058 -0.5948  0.0579 -1.4265
  738MPD2     N10965   4.291   3.289  14.872 -0.8502 -0.2579 -0.1283
  738MPD2    H510966   4.340   3.365  14.826  0.9281 -0.0156  2.2255
  738MPD2    N110967   3.941   3.115  15.136  0.3390 -0.0969  1.1073
  738MPD2    H710968   3.976   3.026  15.102 -0.7777  0.4252 -1.4065
  739TMC3    C110969   4.441   3.167  14.743 -0.0840 -0.0196 -0.5287
  739TMC3    C210970   4.414   3.261  14.645 -0.2317 -0.3901 -0.5575
  739TMC3    C310971   4.511   3.322  14.575  0.0810  0.3756 -0.5480
  739TMC3    C410972   4.574   3.143  14.767 -0.3810 -0.1942 -0.2912
  739TMC3    C510973   4.669   3.218  14.703  0.4214 -0.0248 -0.2037
  739TMC3    C610974   4.643   3.301  14.601 -0.5040 -0.2517 -0.1405
  739TMC3     C10975   4.358   3.171  14.866  0.0988  0.6880  0.2472
  739TMC3     O10976   4.368   3.072  14.936  0.3423  0.1837 -0.3887
  739TMC3     H10977   4.311   3.284  14.620 -0.6919 -1.4247  0.3717
  739TMC3    H110978   4.599   3.083  14.854  1.4882 -0.0986 -0.7771
  739TMC3    H210979   4.716   3.372  14.565 -0.8533 -1.2100 -2.7808
  739TMC3    C710980   0.070   3.201  14.712  0.0968 -0.4173  0.2531
  739TMC3    C810981   4.482   3.360  14.436 -0.0941 -0.8655  0.2490
  739TMC3    O110982   0.143   3.299  14.700  0.6050  0.0157 -0.4184
  739TMC3    O210983   4.376   3.319  14.396  0.5888 -0.3219 -0.0731
  740TMC3    C110984   4.278   4.628  14.606 -0.4819  0.5905 -0.3770
  740TMC3    C210985   4.316   4.627  14.737 -0.1394  0.0663  0.6903
  740TMC3    C310986   4.443   4.671  14.770  0.5092  0.0566 -0.1618
  740TMC3    C410987   4.358   4.684  14.502  0.0821  0.4216 -0.0768
  740TMC3    C510988   4.486   4.723  14.545 -0.0230 -0.5733  0.3736
  740TMC3    C610989   4.527   4.723  14.677  0.3539 -0.3592 -0.7451
  740TMC3     C10990   4.130   4.624  14.587 -0.1421 -0.9425  0.0430
  740TMC3     O10991   4.090   4.703  14.505 -0.0912 -0.0524  0.2243
  740TMC3     H10992   4.270   4.566  14.814  1.3894 -1.8152  0.1121
  740TMC3    H110993   4.325   4.684  14.398 -1.7749 -0.4952  0.5077
  740TMC3    H210994   4.634   4.720  14.691  0.3070  1.9280  0.0561
  740TMC3    C710995   4.595   0.026  14.450  0.1232 -0.2137  0.3333
  740TMC3    C810996   4.490   4.615  14.892  0.2936 -0.3086 -1.0119
  740TMC3    O110997   4.686   0.076  14.504 -0.5148 -0.2055 -0.6433
  740TMC3    O210998   4.438   4.510  14.936 -0.0609  0.0547  0.1946
  741TMC3    C110999   3.956   4.097  14.211 -0.4841  0.6143 -0.1105
  741TMC3    C211000   3.875   4.001  14.260 -0.1417  0.1177  0.3716
  741TMC3    C311001   3.944   3.899  14.327  0.4360  0.6451 -0.4275
  741TMC3    C411002   4.093   4.091  14.202 -0.1178  0.1635 -0.2220
  741TMC3    C511003   4.150   3.997  14.281 -0.6468 -0.3558 -0.0046
  741TMC3    C611004   4.079   3.902  14.345 -0.2885 -0.0741  0.7354
  741TMC3     C11005   3.883   4.221  14.169  0.2668  0.2280 -0.1146
  741TMC3     O11006   3.763   4.226  14.184 -0.3177 -0.1413 -0.2066
  741TMC3     H11007   3.768   4.006  14.247 -0.3043 -1.0984  1.2156
  741TMC3    H111008   4.145   4.179  14.166  0.5429  0.5823  1.7448
  741TMC3    H211009   4.126   3.832  14.413  0.2796 -0.3825  0.0201
  741TMC3    C711010   4.292   3.993  14.292  0.3149 -0.2097  0.5128
  741TMC3    C811011   3.875   3.772  14.326  0.5668  1.2214 -0.1136
  741TMC3    O111012   4.335   3.931  14.387  0.4182  0.3614  0.0320
  741TMC3    O211013   3.754   3.787  14.317 -0.0650  0.2566  0.0890
  742TMC3    C111014   4.493   1.832  15.821  0.1309 -0.6760  0.0203
  742TMC3    C211015   4.428   1.862  15.705  0.8501  0.6295  0.2661
  742TMC3    C311016   4.434   1.762  15.605 -0.0787 -0.8315  0.6502
  742TMC3    C411017   4.568   1.716  15.841 -0.0124 -0.0146 -0.4469
  742TMC3    C511018   4.566   1.618  15.740  0.8966  0.4398 -0.5559
  742TMC3    C611019   4.505   1.645  15.617 -0.0762  0.5207 -0.1709
  742TMC3     C11020   4.468   1.922  15.927 -0.0963  0.2942  1.0702
  742TMC3     O11021   4.461   2.044  15.897  0.1049 -0.5162  0.2306
  742TMC3     H11022   4.403   1.966  15.688 -0.8271  0.2739  0.5791
  742TMC3    H111023   4.629   1.714  15.930  0.3537 -0.5372 -0.7115
  742TMC3    H211024   4.508   1.576  15.533 -0.0552  0.5223 -0.1715
  742TMC3    C711025   4.624   1.491  15.765  0.1983  0.2520  0.5099
  742TMC3    C811026   4.374   1.788  15.478 -0.2178  0.0910  0.8508
  742TMC3    O111027   4.638   1.421  15.668 -0.0485 -0.7186  0.0651
  742TMC3    O211028   4.416   1.729  15.381 -0.4787 -0.2827 -0.3924
  743MPD2     C11029   1.774   2.632   1.433 -0.5583 -0.4647 -0.1130
  743MPD2    C111030   1.757   2.765   1.429 -0.5990 -0.5380  0.2879
  743MPD2    C211031   1.868   2.845   1.414  0.1214  0.2346 -0.5248
  743MPD2    C311032   1.998   2.793   1.421  0.4979 -0.0187 -0.3082
  743MPD2    C411033   2.003   2.653   1.438 -0.3580  0.0006  0.0813
  743MPD2    C511034   1.896   2.574   1.443 -0.0786 -0.4155 -0.1571
  743MPD2     H11035   1.847   2.951   1.400  1.4332  0.8503  2.0491
  743MPD2    H111036   2.098   2.603   1.450 -1.6242 -2.2625  0.6276
  743MPD2    H211037   1.682   2.579   1.452 -1.3014  1.3564  1.3287
  743MPD2    H311038   1.916   2.469   1.462 -0.1979 -0.2214  1.0831
  743MPD2     N11039   2.110   2.881   1.427  0.2455 -0.3711 -0.4421
  743MPD2    H511040   2.102   2.981   1.411  0.0528 -0.8539 -3.3278
  743MPD2    N111041   1.622   2.806   1.418 -0.8754 -0.9287 -0.0947
  743MPD2    H711042   1.558   2.733   1.389 -0.2663 -1.2597 -0.6094
  744TMC3    C111043   1.447   2.965   1.435  0.5981  0.1434 -0.1183
  744TMC3    C211044   1.410   3.086   1.487  0.2117  0.4985  0.1407
  744TMC3    C311045   1.339   3.174   1.410  0.3824  0.5749  0.3494
  744TMC3    C411046   1.412   2.932   1.308  0.6815 -0.4637  0.7251
  744TMC3    C511047   1.334   3.021   1.238  0.3194 -0.8560  0.1735
  744TMC3    C611048   1.299   3.147   1.282 -0.0291  0.3023  0.1964
  744TMC3     C11049   1.586   2.929   1.460  0.0644  0.5175  0.2189
  744TMC3     O11050   1.655   3.012   1.522 -0.0225  0.1257  0.4285
  744TMC3     H11051   1.442   3.117   1.586  0.2178 -1.8261  0.8670
  744TMC3    H111052   1.458   2.844   1.265  0.7697  0.1581 -0.4457
  744TMC3    H211053   1.247   3.215   1.217  1.6113 -1.3099 -2.8330
  744TMC3    C711054   1.338   3.010   1.098 -0.0823 -0.4265 -0.1629
  744TMC3    C811055   1.272   3.273   1.489  0.1679  0.0561  0.0431
  744TMC3    O111056   1.374   3.111   1.036 -0.1461 -0.4800 -0.2354
  744TMC3    O211057   1.256   3.249   1.608  0.3073 -0.1158 -0.1830
  745TMC3    C111058   4.631   2.044  13.463  0.0829 -0.0685 -0.0168
  745TMC3    C211059   4.514   2.028  13.542 -0.1561  0.0940 -0.4404
  745TMC3    C311060   4.426   2.133  13.551 -0.0770  0.4199 -0.1330
  745TMC3    C411061   4.626   2.158  13.381  0.6329 -0.0055 -0.3397
  745TMC3    C511062   4.530   2.258  13.394 -0.6047 -0.3687  0.0258
  745TMC3    C611063   4.430   2.247  13.481  0.2757 -0.5808  0.3839
  745TMC3     C11064   0.002   2.055  13.550 -0.2935  0.0793 -1.0749
  745TMC3     O11065   0.051   2.160  13.530  0.1091 -0.0386 -0.2966
  745TMC3     H11066   4.497   1.932  13.589  2.9303  0.1599  0.7992
  745TMC3    H111067   4.713   2.172  13.320  0.6799  1.1301 -0.0034
  745TMC3    H211068   4.363   2.331  13.498  1.4285  0.3956  0.0844
  745TMC3    C711069   4.582   2.392  13.392 -0.6290 -0.8516 -0.5632
  745TMC3    C811070   4.341   2.137  13.667 -0.0635 -0.5246  0.2991
  745TMC3    O111071   4.516   2.475  13.329 -0.1370  0.4090  0.6671
  745TMC3    O211072   4.257   2.228  13.677  0.3829  0.0872 -0.1850
  746TMC3    C111073   2.200   3.372  11.307 -0.2287 -0.2949 -0.2487
  746TMC3    C211074   2.313   3.373  11.226 -0.4236  0.5219  0.5111
  746TMC3    C311075   2.334   3.255  11.165 -0.5302 -0.3551  0.1120
  746TMC3    C411076   2.106   3.269  11.323  0.0144  0.5202 -0.2812
  746TMC3    C511077   2.133   3.156  11.260 -0.0672  0.0337  0.7162
  746TMC3    C611078   2.240   3.151  11.174  0.3661 -0.2002 -0.5231
  746TMC3     C11079   2.139   3.501  11.330  0.0592 -0.3153 -0.1695
  746TMC3     O11080   2.052   3.498  11.416  0.0009 -0.1128 -0.4921
  746TMC3     H11081   2.391   3.447  11.237  1.1432 -0.8798 -1.4352
  746TMC3    H111082   2.022   3.278  11.391 -1.5421  1.5154 -2.3060
  746TMC3    H211083   2.258   3.060  11.118  1.8975 -0.7340  0.8177
  746TMC3    C711084   2.025   3.074  11.208 -0.2164 -0.1812 -0.1621
  746TMC3    C811085   2.457   3.210  11.095  0.2940 -0.0208  0.7098
  746TMC3    O111086   2.018   3.056  11.089  0.0689 -0.6173 -0.3177
  746TMC3    O211087   2.482   3.094  11.115 -0.7755  0.3187  0.1701
  747TMC3    C111088   4.494   3.391  11.655  0.7750 -0.3960  0.0915
  747TMC3    C211089   4.360   3.368  11.634 -0.5243 -0.1107  0.2680
  747TMC3    C311090   4.268   3.415  11.727  0.1310 -0.0135  0.4297
  747TMC3    C411091   4.525   3.478  11.761 -0.4867  0.3969  0.2229
  747TMC3    C511092   4.426   3.546  11.828  0.4371 -0.4850 -0.0086
  747TMC3    C611093   4.300   3.510  11.820  0.1332  0.0479  0.6441
  747TMC3     C11094   4.586   3.418  11.542  0.0840  0.4909  0.1198
  747TMC3     O11095   4.647   3.525  11.563 -0.3549  0.3228  0.4497
  747TMC3     H11096   4.314   3.314  11.552 -0.6447 -0.2124  0.4030
  747TMC3    H111097   4.629   3.489  11.786 -0.6246 -1.6026  1.6624
  747TMC3    H211098   4.230   3.573  11.873  0.6827  0.2771  1.0999
  747TMC3    C711099   4.451   3.687  11.857  0.5907 -0.4382 -0.6885
  747TMC3    C811100   4.121   3.396  11.699 -0.2312 -0.2540 -0.0816
  747TMC3    O111101   4.379   3.753  11.935 -0.2673  0.2701  0.3180
  747TMC3    O211102   4.092   3.334  11.595 -0.5475 -0.0323 -0.6103
  748MPD2     C11103   1.063   4.385   1.290  0.1219  0.9097  0.6266
  748MPD2    C111104   1.065   4.477   1.185 -0.8341 -0.7857  0.1827
  748MPD2    C211105   1.187   4.514   1.140 -0.3577 -0.1469  0.2608
  748MPD2    C311106   1.301   4.479   1.196  0.3564  0.4088  0.6755
  748MPD2    C411107   1.294   4.394   1.309  0.4886  0.5028  1.0097
  748MPD2    C511108   1.173   4.356   1.354 -0.0058 -0.1283 -0.1660
  748MPD2     H11109   1.195   4.576   1.051  0.3728  0.4266  0.7253
  748MPD2    H111110   1.383   4.369   1.366  0.8073  1.1667  0.8049
  748MPD2    H211111   0.965   4.350   1.318  0.6613 -1.5092 -0.5572
  748MPD2    H311112   1.177   4.280   1.431 -1.1200  0.9482  0.9596
  748MPD2     N11113   1.423   4.527   1.136 -0.5976  0.5382  0.4082
  748MPD2    H511114   1.411   4.589   1.057  1.4408 -0.6312 -0.8103
  748MPD2    N111115   0.942   4.504   1.125 -0.5413 -0.5150 -0.3153
  748MPD2    H711116   0.867   4.451   1.168 -2.1806  1.1947 -1.0937
  749TMC3    C111117   1.660   4.493   1.079 -0.3572 -0.0343 -0.1008
  749TMC3    C211118   1.771   4.427   1.125  0.3960  0.5625 -0.2459
  749TMC3    C311119   1.893   4.481   1.096  0.0841 -0.3437 -0.0889
  749TMC3    C411120   1.666   4.594   0.987 -0.2357  0.1636  0.3787
  749TMC3    C511121   1.795   4.639   0.953  0.0634 -1.2162 -0.2885
  749TMC3    C611122   1.905   4.599   1.019 -0.1014  0.5591  0.5493
  749TMC3     C11123   1.549   4.485   1.174 -0.1052 -0.2534 -0.9363
  749TMC3     O11124   1.586   4.441   1.282 -0.5561  0.5157 -0.2421
  749TMC3     H11125   1.764   4.341   1.191  4.6960  0.0990 -0.4437
  749TMC3    H111126   1.578   4.648   0.956  0.7130  0.9325 -0.9853
  749TMC3    H211127   2.001   4.650   1.018  0.3558 -0.3025  0.3893
  749TMC3    C711128   1.804   0.029   0.886 -0.1405 -0.3287  0.0651
  749TMC3    C811129   2.005   4.442   1.177  0.5649  0.4044 -0.0347
  749TMC3    O111130   1.880   0.108   0.939 -0.6190 -0.2762  0.0900
  749TMC3    O211131   2.096   4.522   1.193  0.6381  0.0344  0.1372
  750MPD2     C11132   2.052   0.646  11.508 -0.5495  0.3288  0.5575
  750MPD2    C111133   1.940   0.574  11.496  0.2018  0.1725  0.4719
  750MPD2    C211134   1.948   0.444  11.450 -0.1750  0.1016 -0.6240
  750MPD2    C311135   2.068   0.391  11.409  0.1212  0.3131  0.6948
  750MPD2    C411136   2.179   0.472  11.404  0.4629 -0.3453 -0.1735
  750MPD2    C511137   2.169   0.594  11.461 -0.0214 -0.3005 -0.0987
  750MPD2     H11138   1.863   0.377  11.440  1.6350 -2.0966 -1.0895
  750MPD2    H111139   2.267   0.432  11.356  0.7505 -0.7086  0.6550
  750MPD2    H211140   2.057   0.746  11.549 -1.2419  0.4037  0.4630
  750MPD2    H311141   2.257   0.656  11.460 -0.7522  0.7344 -1.2871
  750MPD2     N11142   2.080   0.259  11.360 -0.3290 -0.3306  0.5284
  750MPD2    H511143   2.162   0.226  11.310 -0.4679 -0.7154  0.5552
  750MPD2    N111144   1.816   0.634  11.522 -0.7117  0.5032  0.3038
  750MPD2    H711145   1.821   0.733  11.544  1.1584  0.0035  2.0345
  751TMC3    C111146   2.010   0.037  11.316  0.4766  0.6025  0.4428
  751TMC3    C211147   1.927   4.670  11.357  0.7532 -0.7271  0.3885
  751TMC3    C311148   1.978   4.541  11.353 -0.5385 -0.1270 -0.2225
  751TMC3    C411149   2.125   0.010  11.249  0.1585 -0.0515  0.2410
  751TMC3    C511150   2.168   4.620  11.254  0.9485 -1.2474  0.2318
  751TMC3    C611151   2.103   4.522  11.317 -0.4140 -0.1674 -1.0718
  751TMC3     C11152   1.983   0.162  11.379 -0.5791  0.3212  0.3278
  751TMC3     O11153   1.886   0.170  11.447 -0.3004  0.1571 -0.0389
  751TMC3     H11154   1.828   4.683  11.398 -0.6553 -2.1294 -2.5591
  751TMC3    H111155   2.179   0.079  11.185 -1.0392 -0.4042 -1.1255
  751TMC3    H211156   2.163   4.439  11.351  0.1346  0.0959 -1.3950
  751TMC3    C711157   2.232   4.574  11.132  0.0984 -0.1681  0.3935
  751TMC3    C811158   1.900   4.427  11.312  0.2902  0.0111 -0.6158
  751TMC3    O111159   2.291   4.654  11.060  0.2455  0.6476 -0.1223
  751TMC3    O211160   1.974   4.346  11.263 -0.3398  0.3660 -0.4700
  752TMC3    C111161   0.419   0.795  17.576 -0.5201  0.5593  0.0005
  752TMC3    C211162   0.510   0.766  17.669  0.4920  0.0612 -0.2084
  752TMC3    C311163   0.466   0.730   0.036  0.7017 -0.1830 -0.0021
  752TMC3    C411164   0.287   0.795  17.603  0.0689 -0.3567  0.1826
  752TMC3    C511165   0.248   0.745  17.728 -0.3448  0.2029  0.1424
  752TMC3    C611166   0.333   0.712   0.067  0.1220  0.5860 -0.2856
  752TMC3     C11167   0.473   0.854  17.448  0.0494  0.4254  0.2385
  752TMC3     O11168   0.595   0.871  17.447 -0.1060  0.2453  0.2278
  752TMC3     H11169   0.615   0.748  17.649  0.4681  0.8728 -1.0646
  752TMC3    H111170   0.214   0.830  17.531  0.9051  0.9830 -0.0178
  752TMC3    H211171   0.306   0.689   0.169  1.2419  0.1284 -0.0944
  752TMC3    C711172   0.106   0.755  17.760 -0.3488  0.2263  0.7092
  752TMC3    C811173   0.567   0.669   0.126  0.1601  0.7910 -0.8871
  752TMC3    O111174   0.043   0.822  17.679 -0.0953  0.5121  0.0227
  752TMC3    O211175   0.534   0.560   0.177  0.3388  0.1055  0.1185
  753TMC3    C111176   3.149   1.745  13.479 -0.4849 -0.5510 -0.1387
  753TMC3    C211177   3.225   1.734  13.589  0.0702  0.1213 -0.2123
  753TMC3    C311178   3.243   1.606  13.641 -0.1447 -0.2021 -0.1253
  753TMC3    C411179   3.091   1.637  13.418  0.2961  0.0223 -0.2155
  753TMC3    C511180   3.114   1.515  13.476 -0.5920  0.5636 -0.7973
  753TMC3    C611181   3.198   1.495  13.577  0.1435 -0.1992  0.2588
  753TMC3     C11182   3.155   1.873  13.414 -0.0730 -0.5153 -0.4306
  753TMC3     O11183   3.267   1.918  13.409 -0.1612  0.3875  0.6124
  753TMC3     H11184   3.281   1.816  13.631 -2.3748  2.4889 -1.5641
  753TMC3    H111185   3.013   1.655  13.345 -0.4735 -0.8893  0.3764
  753TMC3    H211186   3.218   1.391  13.600 -1.5157 -0.4029  0.8381
  753TMC3    C711187   3.060   1.401  13.394 -0.6696 -0.4717 -0.5910
  753TMC3    C811188   3.306   1.578  13.769 -0.2469  0.0755 -0.3913
  753TMC3    O111189   3.026   1.428  13.281  0.2896 -0.4351  0.2128
  753TMC3    O211190   3.331   1.461  13.790  0.0922  0.5827  0.3992
  754MPD2     C11191   1.959   0.336  13.354  0.5515 -0.6610 -0.4819
  754MPD2    C111192   1.956   0.205  13.389 -0.0671  0.4650 -0.0671
  754MPD2    C211193   1.837   0.144  13.399 -0.4605  0.3184 -0.3115
  754MPD2    C311194   1.725   0.214  13.369  0.1582  0.2178  0.2928
  754MPD2    C411195   1.730   0.346  13.332  0.0991 -0.1572  0.2580
  754MPD2    C511196   1.847   0.409  13.332 -0.4050  0.1685  0.3651
  754MPD2     H11197   1.833   0.036  13.400  1.5540  0.2482  0.5565
  754MPD2    H111198   1.640   0.398  13.301  0.3924  0.3131  0.1948
  754MPD2    H211199   2.045   0.401  13.358  0.4798 -0.7123  1.6332
  754MPD2    H311200   1.856   0.512  13.299 -2.4871  0.5183  0.9215
  754MPD2     N11201   1.598   0.154  13.363  0.3370  0.5104 -0.3704
  754MPD2    H511202   1.519   0.210  13.332  0.6650 -0.0014 -2.1146
  754MPD2    N111203   2.077   0.146  13.423 -0.0651 -0.2793 -0.4522
  754MPD2    H711204   2.163   0.195  13.399  0.1793 -0.0922  0.7837
  755MPD2     C11205   0.910   0.635  13.263 -0.3371 -0.6337  0.4941
  755MPD2    C111206   0.855   0.539  13.345 -0.3310  0.3016 -0.2224
  755MPD2    C211207   0.924   0.421  13.380  0.4213 -0.0400  1.2652
  755MPD2    C311208   1.048   0.398  13.319  0.3385  0.1383  0.3665
  755MPD2    C411209   1.095   0.488  13.228  0.3394 -0.4499  0.0986
  755MPD2    C511210   1.027   0.601  13.201 -0.8561  0.1997 -1.0041
  755MPD2     H11211   0.874   0.350  13.444  0.5032 -1.5236 -0.2995
  755MPD2    H111212   1.179   0.458  13.166 -0.8344 -1.4934 -1.0002
  755MPD2    H211213   0.862   0.728  13.237 -1.0524 -1.7000 -2.0262
  755MPD2    H311214   1.066   0.673  13.130  0.5377  0.5831  0.1392
  755MPD2     N11215   1.123   0.275  13.344  0.3967 -0.0474 -0.1326
  755MPD2    H511216   1.208   0.267  13.289 -1.3575 -1.2616 -2.6622
  755MPD2    N111217   0.728   0.558  13.401  0.2183  0.0355  0.5288
  755MPD2    H711218   0.676   0.488  13.452  0.3903 -0.8930 -0.5741
  756MPD2     C11219   2.167   1.841   9.932  0.1229  0.0258 -0.2162
  756MPD2    C111220   2.063   1.778  10.003 -0.6016 -0.9121  0.2904
  756MPD2    C211221   1.934   1.819   9.981 -0.5361 -0.2800 -0.6624
  756MPD2    C311222   1.912   1.929   9.896  0.4191  0.4458  0.4709
  756MPD2    C411223   2.017   1.987   9.832 -0.2668  0.1168 -0.2053
  756MPD2    C511224   2.144   1.949   9.856  0.7160  0.2112  0.4305
  756MPD2     H11225   1.860   1.757  10.029 -0.8346 -0.2209 -1.0460
  756MPD2    H111226   2.019   2.079   9.774 -2.7259  0.7764  0.7138
  756MPD2    H211227   2.268   1.802   9.934  0.2126  0.2742  0.0065
  756MPD2    H311228   2.222   2.009   9.811 -0.5779  1.3105 -0.3258
  756MPD2     N11229   1.781   1.973   9.882 -0.6817 -0.1782  0.1692
  756MPD2    H511230   1.705   1.911   9.908 -1.1352  0.3799  0.1570
  756MPD2    N111231   2.079   1.661  10.078 -0.3128 -0.0801  0.0579
  756MPD2    H711232   1.997   1.616  10.116 -1.5956  1.1034 -1.3421
  757MPD2     C11233   1.208   1.438   9.806 -0.6866 -0.3052  0.0272
  757MPD2    C111234   1.338   1.454   9.766 -0.2347  0.2094 -1.4329
  757MPD2    C211235   1.381   1.581   9.755  0.0567  0.0278  0.7163
  757MPD2    C311236   1.308   1.695   9.792 -0.3398 -0.0583 -0.4774
  757MPD2    C411237   1.176   1.668   9.837  0.3767 -0.9816  1.1051
  757MPD2    C511238   1.123   1.543   9.846 -0.7918  0.4411  0.8367
  757MPD2     H11239   1.476   1.610   9.712 -0.5204  3.0861  1.4946
  757MPD2    H111240   1.111   1.750   9.866  2.6433  1.6897 -1.3057
  757MPD2    H211241   1.170   1.339   9.830 -1.7577 -0.4960 -2.4844
  757MPD2    H311242   1.024   1.528   9.888 -1.4852  3.2259  0.2519
  757MPD2     N11243   1.357   1.826   9.787  0.1816 -0.1769 -0.6524
  757MPD2    H511244   1.454   1.840   9.760  1.1087  1.0405  3.2879
  757MPD2    N111245   1.415   1.338   9.746 -0.2222 -0.1296  0.0554
  757MPD2    H711246   1.370   1.248   9.759  0.4074 -0.1928  1.7494
  758MPD2     C11247   1.659   0.565  15.868 -0.2593 -0.6525 -0.0347
  758MPD2    C111248   1.689   0.450  15.933 -0.0325 -0.1584  0.5821
  758MPD2    C211249   1.614   0.416  16.044  0.4311 -0.3501  0.2971
  758MPD2    C311250   1.509   0.497  16.090 -0.4565 -0.0335 -0.0794
  758MPD2    C411251   1.484   0.615  16.024  0.2156  0.1371 -0.1018
  758MPD2    C511252   1.559   0.646  15.915  0.9310 -0.8567 -0.0941
  758MPD2     H11253   1.623   0.317  16.088  0.6872 -0.2292  0.5256
  758MPD2    H111254   1.404   0.682  16.053  0.1667 -0.6190  1.5430
  758MPD2    H211255   1.705   0.581  15.771 -1.0475  1.0374 -0.1188
  758MPD2    H311256   1.530   0.737  15.865  1.2617 -1.1321 -0.7843
  758MPD2     N11257   1.460   0.484  16.224 -0.0879 -0.1758  0.2679
  758MPD2    H511258   1.423   0.571  16.261  2.6296  0.8636  0.5590
  758MPD2    N111259   1.805   0.376  15.897  0.3839  0.1176  0.4775
  758MPD2    H711260   1.868   0.417  15.827  1.0937  1.2893  1.7910
  759MPD2     C11261   0.582   3.559  10.154  0.0175 -0.1890 -0.3178
  759MPD2    C111262   0.652   3.439  10.133 -0.3976  0.2362  0.1731
  759MPD2    C211263   0.717   3.420  10.013 -0.2663  0.2103  0.1353
  759MPD2    C311264   0.739   3.521   9.927 -0.4217  0.3369 -0.1721
  759MPD2    C411265   0.680   3.646   9.954 -0.3001  0.2768 -0.4899
  759MPD2    C511266   0.602   3.661  10.063  0.3199  0.2681  0.0961
  759MPD2     H11267   0.759   3.322   9.993 -1.6507 -0.7337  1.9054
  759MPD2    H111268   0.671   3.729   9.885  0.7480  1.3786  0.6949
  759MPD2    H211269   0.526   3.588  10.242  2.7068 -0.9988  1.6712
  759MPD2    H311270   0.544   3.752  10.077 -0.9805 -0.2834 -1.6996
  759MPD2     N11271   0.805   3.497   9.801  0.4806 -0.3592  0.0008
  759MPD2    H511272   0.849   3.406   9.792  0.9283 -0.2015  0.5976
  759MPD2    N111273   0.630   3.326  10.220 -0.0617 -0.1398 -0.1910
  759MPD2    H711274   0.669   3.234  10.200  1.3694  0.4616 -0.1425
  760MPD2     C11275   4.462   0.041  12.558  0.1804  0.2870  0.5728
  760MPD2    C111276   4.585   0.055  12.501 -0.0525  0.1779  0.2049
  760MPD2    C211277   4.656   4.690  12.455 -0.5421  0.0613  0.2119
  760MPD2    C311278   4.608   4.558  12.466  0.0855 -0.5464  0.1323
  760MPD2    C411279   4.488   4.543  12.522 -0.5614  0.0108 -0.2014
  760MPD2    C511280   4.415   4.653  12.564  0.8003 -0.2991 -0.0277
  760MPD2     H11281   0.011   4.722  12.416  0.1728 -2.2576  0.0524
  760MPD2    H111282   4.449   4.444  12.543 -2.9674  0.4045 -2.9347
  760MPD2    H211283   4.394   0.119  12.591 -2.1075 -0.5311 -2.2221
  760MPD2    H311284   4.320   4.629  12.609 -0.4999 -0.1008 -2.6756
  760MPD2     N11285   4.680   4.447  12.418 -0.2160 -0.4351 -0.2726
  760MPD2    H511286   4.646   4.360  12.458 -0.0708 -1.1610 -1.7519
  760MPD2    N111287   4.639   0.184  12.475  0.5288  0.0416  0.3951
  760MPD2    H711288   4.734   0.190  12.439  1.2227 -0.8879  2.0424
  761MPD2     C11289   1.499   4.101  11.217  0.3146 -0.8028  0.1407
  761MPD2    C111290   1.634   4.103  11.177  0.1457 -0.5536  0.4391
  761MPD2    C211291   1.728   4.200  11.220  0.0810  0.0563 -0.0944
  761MPD2    C311292   1.679   4.317  11.287 -0.4189 -0.1742  0.4392
  761MPD2    C411293   1.549   4.317  11.320  0.2529  0.6852  0.6884
  761MPD2    C511294   1.463   4.212  11.293  0.6365 -0.3019  0.2277
  761MPD2     H11295   1.833   4.193  11.194  0.3385 -1.7900  1.4192
  761MPD2    H111296   1.502   4.403  11.367 -2.0339 -1.0128  1.4970
  761MPD2    H211297   1.429   4.020  11.204 -0.8252  0.8938 -4.3210
  761MPD2    H311298   1.359   4.217  11.321  0.2054 -0.6257 -1.3164
  761MPD2     N11299   1.761   4.426  11.332 -0.0189 -0.3474  0.1151
  761MPD2    H511300   1.715   4.505  11.376  0.5196  0.3445 -0.5497
  761MPD2    N111301   1.675   4.003  11.091 -0.5348  0.7009 -0.1941
  761MPD2    H711302   1.616   3.921  11.084  1.5293 -0.7386 -0.6812
  762MPD2     C11303   2.054   3.999  10.382  0.2825  0.2813 -0.9117
  762MPD2    C111304   2.096   3.913  10.482 -0.3799 -0.0841 -0.1664
  762MPD2    C211305   2.229   3.877  10.496 -0.0322  0.1445 -0.8335
  762MPD2    C311306   2.318   3.913  10.400 -0.1462 -0.0560 -0.0397
  762MPD2    C411307   2.268   3.988  10.296 -0.2857  0.0122 -0.0148
  762MPD2    C511308   2.146   4.048  10.293  0.1463  0.0405  0.3392
  762MPD2     H11309   2.258   3.820  10.583  1.6911  0.2256 -1.3473
  762MPD2    H111310   2.336   4.017  10.217 -1.0579 -1.1263 -1.1034
  762MPD2    H211311   1.954   4.036  10.362  0.3076  3.0320  4.3168
  762MPD2    H311312   2.124   4.121  10.216 -0.7566 -0.8440 -0.2441
  762MPD2     N11313   2.450   3.866  10.417  0.0825  0.2515  0.9557
  762MPD2    H511314   2.471   3.811  10.500  1.3503 -0.3458  0.2259
  762MPD2    N111315   2.008   3.889  10.592 -0.3837 -0.3726  0.2315
  762MPD2    H711316   1.924   3.946  10.593 -0.1017  0.0360  0.6556
  763MPD2     C11317   3.464   0.282  16.498  0.4201 -0.1466  0.1925
  763MPD2    C111318   3.430   0.320  16.370 -0.4419 -0.3273 -0.8493
  763MPD2    C211319   3.400   0.457  16.355  0.5214  0.9969 -0.5447
  763MPD2    C311320   3.407   0.550  16.461 -0.6717  0.2200  0.2602
  763MPD2    C411321   3.460   0.506  16.583 -0.7251  0.3183  0.3971
  763MPD2    C511322   3.491   0.370  16.599  0.0854  0.2598  0.1150
  763MPD2     H11323   3.358   0.491  16.262  2.0163  3.9001 -0.1407
  763MPD2    H111324   3.487   0.575  16.662  1.1963 -0.0611  0.0838
  763MPD2    H211325   3.488   0.177  16.511 -1.0575 -0.4701  0.3360
  763MPD2    H311326   3.513   0.334  16.699  5.5038 -0.2906 -1.2846
  763MPD2     N11327   3.378   0.687  16.443 -0.1792  0.5219 -0.1939
  763MPD2    H511328   3.360   0.712  16.347 -2.4975 -0.1318  0.0529
  763MPD2    N111329   3.398   0.233  16.261  0.0464  0.5436  0.2933
  763MPD2    H711330   3.350   0.277  16.183  1.7804  0.8310 -0.6283
  764MPD2     C11331   1.911   2.038  17.689 -0.5664 -0.8001  0.4777
  764MPD2    C111332   1.826   1.981  17.592 -0.2759  0.4679  0.4286
  764MPD2    C211333   1.745   1.884  17.636  0.5320  0.0517  0.8213
  764MPD2    C311334   1.745   1.839   0.007  0.6102  0.0535 -0.3735
  764MPD2    C411335   1.830   1.899   0.107  0.0263  0.0245 -0.0468
  764MPD2    C511336   1.918   1.990   0.056  0.2567 -0.3120 -0.3150
  764MPD2     H11337   1.660   1.854  17.575 -0.0709  4.3045 -0.4019
  764MPD2    H111338   1.843   1.859   0.208  0.1629  2.5231  0.9152
  764MPD2    H211339   1.979   2.119  17.666 -2.4948  1.2621  2.0020
  764MPD2    H311340   1.984   2.037   0.128  1.0713 -0.6408 -0.8497
  764MPD2     N11341   1.638   1.751   0.042  0.2438 -0.1989  0.0801
  764MPD2    H511342   1.572   1.726  17.729 -2.2412  1.3107  1.8102
  764MPD2    N111343   1.818   2.019  17.460 -0.2440  0.5121  0.1063
  764MPD2    H711344   1.749   1.970  17.405 -1.1885  1.0705  0.7867
  765MPD2     C11345   1.338   4.464  16.368  0.0466  0.3999  0.4737
  765MPD2    C111346   1.383   4.527  16.252 -0.3278  0.1646 -0.2928
  765MPD2    C211347   1.504   4.489  16.193 -0.2472 -0.3442  0.6075
  765MPD2    C311348   1.571   4.382  16.242 -0.1685  0.7450 -0.4309
  765MPD2    C411349   1.514   4.310  16.352 -0.2105 -0.3585  0.7377
  765MPD2    C511350   1.401   4.353  16.413 -0.9277 -0.6856  0.3334
  765MPD2     H11351   1.554   4.537  16.110 -0.7890  1.1749  1.1565
  765MPD2    H111352   1.570   4.224  16.387  2.1053  0.5634 -0.6784
  765MPD2    H211353   1.253   4.499  16.425 -0.1160 -2.5291  2.0379
  765MPD2    H311354   1.358   4.294  16.493 -1.2310 -0.6255  0.2138
  765MPD2     N11355   1.686   4.351  16.172  0.4191  0.4009  0.5477
  765MPD2    H511356   1.699   4.406  16.088  0.1882 -1.4149 -0.6649
  765MPD2    N111357   1.296   4.628  16.200  0.3154  0.2163 -0.0370
  765MPD2    H711358   1.202   4.626  16.237  0.3211  0.3807 -0.0134
  766MPD2     C11359   0.742   4.607  15.694  0.2342  0.1678 -0.6443
  766MPD2    C111360   0.880   4.605  15.714 -0.7444 -0.2428  0.0756
  766MPD2    C211361   0.969   4.556  15.615 -0.4156  0.4766  0.3004
  766MPD2    C311362   0.916   4.522  15.488  0.3308 -0.1211 -0.2667
  766MPD2    C411363   0.780   4.521  15.473  0.7325 -0.1282  0.0748
  766MPD2    C511364   0.696   4.552  15.579 -0.2303 -0.1028  0.0554
  766MPD2     H11365   1.074   4.566  15.641 -0.8503  2.2093  1.3821
  766MPD2    H111366   0.728   4.486  15.385 -0.0941  2.1111 -0.3308
  766MPD2    H211367   0.671   4.638  15.770  0.1164  0.6177 -0.9387
  766MPD2    H311368   0.591   4.557  15.554  0.0978 -0.0132 -1.3398
  766MPD2     N11369   1.002   4.483  15.384  0.4513 -0.2455  0.3166
  766MPD2    H511370   0.965   4.464  15.292  1.0685  1.3741 -0.2594
  766MPD2    N111371   0.939   4.663  15.831  0.0041  0.1503  0.1691
  766MPD2    H711372   1.035   4.638  15.851  0.1827 -0.7501 -1.8160
  767MPD2     C11373   0.595   0.169  15.455 -0.0881  0.5451  0.6714
  767MPD2    C111374   0.716   0.117  15.407  0.2038  0.4152  0.2290
  767MPD2    C211375   0.715   0.040  15.289 -0.5117 -0.3396  0.1313
  767MPD2    C311376   0.599   0.025  15.219  0.1786  0.1556 -0.7590
  767MPD2    C411377   0.478   0.062  15.278 -0.0901  0.2621 -0.0669
  767MPD2    C511378   0.476   0.135  15.394 -0.3829 -0.1111  0.0583
  767MPD2     H11379   0.799   4.736  15.237 -2.0327 -0.7428 -1.9663
  767MPD2    H111380   0.383   0.062  15.226  0.9072 -0.3687 -1.8760
  767MPD2    H211381   0.597   0.229  15.545 -2.8541 -1.2934  1.9621
  767MPD2    H311382   0.382   0.168  15.436 -0.3710 -0.6675  0.5130
  767MPD2     N11383   0.608   4.709  15.094 -0.5179  0.0675  0.3903
  767MPD2    H511384   0.701   4.681  15.062 -0.6146 -0.4710  0.5879
  767MPD2    N111385   0.830   0.151  15.485  0.6314 -0.1407 -0.4552
  767MPD2    H711386   0.824   0.216  15.563  0.1997  0.7951 -1.2607
  768MPD2     C11387   2.172   2.884  10.719  0.4456 -0.4857  0.4294
  768MPD2    C111388   2.139   2.769  10.794  0.1489  0.1976 -0.8430
  768MPD2    C211389   2.215   2.736  10.910  0.2187 -0.2479  0.0498
  768MPD2    C311390   2.321   2.813  10.944 -0.2003 -0.3538  0.2207
  768MPD2    C411391   2.351   2.924  10.866  0.1635 -0.1891 -0.2971
  768MPD2    C511392   2.281   2.953  10.754  0.0591  0.5017  0.1023
  768MPD2     H11393   2.190   2.650  10.970 -0.9491  1.1736  1.5951
  768MPD2    H111394   2.432   2.986  10.904 -0.8433  0.1587  1.2832
  768MPD2    H211395   2.119   2.923  10.633  1.4211  0.0490  0.0624
  768MPD2    H311396   2.307   3.039  10.693  2.1560 -0.6179 -0.5935
  768MPD2     N11397   2.399   2.791  11.061 -0.1292  0.7843  0.3996
  768MPD2    H511398   2.469   2.865  11.067  1.8096 -1.1101  1.1180
  768MPD2    N111399   2.027   2.693  10.756 -0.2598  0.2081  0.1584
  768MPD2    H711400   2.014   2.607  10.809  0.3565 -0.5014 -0.8262
  769MPD2     C11401   2.738   1.282  14.785 -0.2074 -0.5744  0.4309
  769MPD2    C111402   2.619   1.316  14.836  0.5675 -0.0163  0.3355
  769MPD2    C211403   2.607   1.355  14.969 -0.3896 -0.2668  0.3312
  769MPD2    C311404   2.723   1.382  15.045  0.2712  0.6257  0.0297
  769MPD2    C411405   2.842   1.334  14.987 -0.0123 -0.3893 -0.5496
  769MPD2    C511406   2.852   1.286  14.861 -0.0015  0.3631 -0.3275
  769MPD2     H11407   2.510   1.369  15.015 -0.5688  0.8064 -0.3455
  769MPD2    H111408   2.939   1.334  15.036 -0.8146 -0.3214  1.0300
  769MPD2    H211409   2.742   1.244  14.684  2.6245 -0.4973  0.5225
  769MPD2    H311410   2.948   1.255  14.821 -0.7082 -2.3289  0.0166
  769MPD2     N11411   2.704   1.426  15.182 -0.2727 -0.3356 -0.6315
  769MPD2    H511412   2.607   1.442  15.208  0.1620 -1.1450  1.4607
  769MPD2    N111413   2.509   1.301  14.749  0.5972  0.4489  0.5633
  769MPD2    H711414   2.516   1.243  14.666  0.5815  0.6038  0.4556
  770MPD2     C11415   1.777   0.739  14.862  0.1143 -0.3563 -0.0834
  770MPD2    C111416   1.914   0.723  14.850  0.6660  0.7288  0.5594
  770MPD2    C211417   1.984   0.833  14.801 -0.1796  0.0033  0.8208
  770MPD2    C311418   1.916   0.952  14.780  0.4420  0.6132 -0.5443
  770MPD2    C411419   1.782   0.963  14.799 -0.3074  0.0601 -0.1495
  770MPD2    C511420   1.716   0.858  14.844 -0.3068 -0.9371 -0.0773
  770MPD2     H11421   2.091   0.827  14.786 -0.6248 -1.5315 -1.6627
  770MPD2    H111422   1.724   1.043  14.757  2.3391  1.3415 -1.3756
  770MPD2    H211423   1.713   0.652  14.865 -0.4163  0.0852  1.7883
  770MPD2    H311424   1.608   0.863  14.842 -0.1887  0.7906 -1.2855
  770MPD2     N11425   1.995   1.052  14.728 -0.0169 -0.0398  0.4308
  770MPD2    H511426   2.094   1.033  14.725  0.7763  3.8006  2.4853
  770MPD2    N111427   1.966   0.599  14.880  0.0685  0.1597  0.3001
  770MPD2    H711428   1.897   0.525  14.885 -0.4433  0.5571 -1.0952
  771MPD2     C11429   3.394   3.749  13.419 -0.7601 -0.4988 -0.0730
  771MPD2    C111430   3.323   3.868  13.388  0.8534  0.1393  0.1452
  771MPD2    C211431   3.216   3.856  13.302  0.0810 -0.6368  0.9449
  771MPD2    C311432   3.174   3.736  13.255  0.6683  0.4115  0.6694
  771MPD2    C411433   3.242   3.621  13.289 -0.5830 -0.4418 -0.1460
  771MPD2    C511434   3.355   3.632  13.360  0.4374  0.1136 -0.6176
  771MPD2     H11435   3.166   3.947  13.274  0.2404 -1.0303 -0.6288
  771MPD2    H111436   3.215   3.522  13.253 -0.3819 -1.0566  1.4284
  771MPD2    H211437   3.474   3.741  13.491 -1.4400  2.3812  0.9871
  771MPD2    H311438   3.408   3.540  13.377 -0.1330 -0.4020 -1.6314
  771MPD2     N11439   3.064   3.737  13.169  0.1912 -0.2794 -0.7549
  771MPD2    H511440   3.031   3.831  13.148  0.6102  0.0475  0.0705
  771MPD2    N111441   3.350   4.000  13.444  0.4054  0.2785  0.3305
  771MPD2    H711442   3.296   4.084  13.422  2.4480  0.8848 -2.3208
  772MPD2     C11443   2.952   4.608  13.634  0.6164  0.1068  0.3033
  772MPD2    C111444   2.996   4.503  13.710 -0.0704  0.0267 -0.3031
  772MPD2    C211445   2.925   4.476  13.825  0.4678  0.1720  0.3120
  772MPD2    C311446   2.810   4.549  13.862 -0.1961  0.5789  0.2461
  772MPD2    C411447   2.779   4.661  13.785 -0.2876 -0.1147 -0.3050
  772MPD2    C511448   2.848   4.687  13.670  0.2791 -0.3121 -0.3141
  772MPD2     H11449   2.955   4.391  13.885 -2.4580 -0.9081  0.2554
  772MPD2    H111450   2.693   4.723  13.805  0.7444  1.2361 -0.0218
  772MPD2    H211451   2.999   4.636  13.540 -0.8044 -2.1656 -1.1050
  772MPD2    H311452   2.837   0.041  13.617  0.4200  0.9165  1.8757
  772MPD2     N11453   2.727   4.526  13.980  0.1347 -0.8339  0.1265
  772MPD2    H511454   2.642   4.580  13.983 -0.5621 -1.9025 -0.2871
  772MPD2    N111455   3.121   4.432  13.680 -0.3281 -0.2099  0.1773
  772MPD2    H711456   3.145   4.360  13.747 -2.6299 -0.7525  0.4026
  773MPD2     C11457   2.292   0.383   0.518  0.0539  0.2945  0.1439
  773MPD2    C111458   2.226   0.312   0.419  0.5770 -0.2106 -0.2938
  773MPD2    C211459   2.248   0.171   0.417 -0.2585 -0.4738 -0.0197
  773MPD2    C311460   2.340   0.098   0.497 -0.2132 -0.2909  0.2100
  773MPD2    C411461   2.390   0.170   0.596 -0.6083 -0.7730 -0.3390
  773MPD2    C511462   2.371   0.308   0.603  0.3219  0.0081 -0.3553
  773MPD2     H11463   2.195   0.120   0.338  2.9106 -0.8500 -1.8762
  773MPD2    H111464   2.452   0.121   0.670 -1.4184  0.4109  1.1163
  773MPD2    H211465   2.282   0.491   0.524 -2.0052  0.1358 -0.4549
  773MPD2    H311466   2.409   0.372   0.681  1.2713 -2.7446  1.4275
  773MPD2     N11467   2.373   4.703   0.477  0.0183 -0.0106 -0.3725
  773MPD2    H511468   2.332   4.669   0.391 -1.6242  1.6718 -0.2540
  773MPD2    N111469   2.130   0.365   0.324  0.4902 -0.5914 -0.9082
  773MPD2    H711470   2.106   0.299   0.251 -0.1702 -0.9715 -0.3419
  774MPD2     C11471   1.682   3.914  13.775  0.0298 -0.2850  0.3532
  774MPD2    C111472   1.622   4.033  13.810 -0.2342  0.2296  0.0206
  774MPD2    C211473   1.664   4.152  13.752  0.0127 -0.4076 -0.2385
  774MPD2    C311474   1.785   4.154  13.679  1.0363 -0.1150  0.3151
  774MPD2    C411475   1.847   4.037  13.647 -0.6562  0.2656 -0.6353
  774MPD2    C511476   1.792   3.909  13.682  0.0275  0.2267 -0.6561
  774MPD2     H11477   1.633   4.248  13.792 -1.1777 -0.8381 -0.1426
  774MPD2    H111478   1.944   4.039  13.599 -0.0900  1.7048  0.5818
  774MPD2    H211479   1.643   3.821  13.812  0.3646 -0.5905 -0.0572
  774MPD2    H311480   1.833   3.815  13.647 -3.7641 -0.5850 -2.9697
  774MPD2     N11481   1.837   4.287  13.664  0.4499 -0.1155 -0.1497
  774MPD2    H511482   1.771   4.359  13.693 -0.3765 -0.6964 -0.5930
  774MPD2    N111483   1.516   4.024  13.906 -0.2601  0.6034  0.5269
  774MPD2    H711484   1.530   3.951  13.976  2.5023  2.1552  1.5877
  775MPD2     C11485   2.830   1.366  15.933  0.3204 -0.2292  0.1994
  775MPD2    C111486   2.800   1.487  15.995 -0.0200 -0.1974  0.1967
  775MPD2    C211487   2.867   1.606  15.951 -0.2585 -0.5731 -0.5940
  775MPD2    C311488   2.956   1.596  15.843 -0.9458 -0.0386 -0.3036
  775MPD2    C411489   2.968   1.475  15.783 -0.4833  0.5193  0.4851
  775MPD2    C511490   2.905   1.361  15.822  0.0347  0.1738  0.1649
  775MPD2     H11491   2.840   1.706  15.983 -1.3112 -1.1003  0.2035
  775MPD2    H111492   3.036   1.463  15.700 -0.4759 -0.3066  0.6143
  775MPD2    H211493   2.787   1.276  15.975  3.2341 -1.8202 -0.2370
  775MPD2    H311494   2.917   1.268  15.768  1.6014  0.6313 -0.2821
  775MPD2     N11495   3.026   1.706  15.790 -0.9203 -0.1446 -0.0212
  775MPD2    H511496   3.089   1.685  15.714 -0.1231  1.8800  0.0769
  775MPD2    N111497   2.717   1.478  16.102  0.0169  0.6161 -0.6684
  775MPD2    H711498   2.673   1.387  16.112  0.0071  0.7320  0.3658
  776MPD2     C11499   2.018   0.978  11.890  0.1475  0.4736  0.6086
  776MPD2    C111500   1.910   1.054  11.866 -0.2425  0.0381 -0.0408
  776MPD2    C211501   1.908   1.191  11.881 -0.3170 -0.5493 -0.0123
  776MPD2    C311502   2.024   1.254  11.919  0.0729 -0.8788  0.4478
  776MPD2    C411503   2.134   1.172  11.949 -0.2358  0.4571  0.3601
  776MPD2    C511504   2.124   1.035  11.941 -0.5735  0.4176  0.0404
  776MPD2     H11505   1.826   1.248  11.839 -0.1078 -0.1946  0.0640
  776MPD2    H111506   2.229   1.207  11.987 -1.2333  1.4920  1.9024
  776MPD2    H211507   2.019   0.870  11.879 -0.2117  0.3555  1.7427
  776MPD2    H311508   2.217   0.982  11.961 -0.4392  0.4983 -0.3700
  776MPD2     N11509   2.039   1.391  11.925  0.6333  0.2158 -0.1131
  776MPD2    H511510   2.131   1.424  11.952  0.1289  0.2165  1.6253
  776MPD2    N111511   1.795   0.992  11.819 -0.2729  0.3195 -0.4091
  776MPD2    H711512   1.725   1.055  11.782 -1.9843 -1.4889 -0.2021
  777MPD2     C11513   2.125   3.716   0.886 -0.2651  0.2220 -0.7699
  777MPD2    C111514   2.108   3.595   0.952  0.1860  0.4239 -0.2757
  777MPD2    C211515   2.068   3.481   0.891 -0.0831 -0.7021  0.2997
  777MPD2    C311516   2.031   3.480   0.758  0.0559 -0.1869 -0.1027
  777MPD2    C411517   2.051   3.595   0.689  0.2582  0.5907 -0.2006
  777MPD2    C511518   2.108   3.707   0.750  0.1072 -0.1964  0.1090
  777MPD2     H11519   2.054   3.394   0.954  1.2558 -1.9885 -1.1712
  777MPD2    H111520   2.026   3.596   0.584  2.4320  0.4189 -0.7221
  777MPD2    H211521   2.164   3.811   0.920  1.3126  0.2917 -2.7403
  777MPD2    H311522   2.131   3.789   0.683 -1.1220 -1.7355 -2.2178
  777MPD2     N11523   1.988   3.362   0.699 -0.0707 -0.1736  0.2458
  777MPD2    H511524   1.977   3.290   0.769 -0.1054  0.8044  1.2455
  777MPD2    N111525   2.129   3.596   1.095  0.3608 -0.5986 -0.6446
  777MPD2    H711526   2.163   3.680   1.140 -1.5884  1.5063 -3.1376
  778MPD2     C11527   3.234   4.093  15.159  0.5182 -0.3638  0.1724
  778MPD2    C111528   3.277   3.988  15.070  0.1682  0.1110 -0.1356
  778MPD2    C211529   3.317   4.022  14.944 -0.1763 -0.1357 -0.3625
  778MPD2    C311530   3.310   4.156  14.907  0.0899 -0.5240 -0.8158
  778MPD2    C411531   3.252   4.253  14.989  0.2952 -0.0837  1.0898
  778MPD2    C511532   3.225   4.221  15.114  0.1054 -0.2641  0.0976
  778MPD2     H11533   3.363   3.950  14.878  1.0017  0.5404 -0.2792
  778MPD2    H111534   3.263   4.360  14.972 -0.1507 -0.3135 -0.6042
  778MPD2    H211535   3.213   4.075  15.263 -0.7489  0.1198 -0.0035
  778MPD2    H311536   3.203   4.301  15.184  0.9253 -0.9249  1.1160
  778MPD2     N11537   3.360   4.190  14.780 -0.0121 -0.4365 -0.3982
  778MPD2    H511538   3.403   4.110  14.734 -0.7939 -0.1717 -1.5880
  778MPD2    N111539   3.272   3.854  15.107  0.0881 -1.0350  0.7273
  778MPD2    H711540   3.295   3.789  15.033  1.2020  1.7183 -1.3454
  779MPD2     C11541   3.074   2.675  14.440  0.0444  0.4493 -0.1995
  779MPD2    C111542   3.205   2.690  14.400 -0.1596  0.5864  0.0367
  779MPD2    C211543   3.247   2.818  14.370 -0.1307 -0.1665 -0.2429
  779MPD2    C311544   3.159   2.921  14.356  0.2560 -0.1610  0.3358
  779MPD2    C411545   3.028   2.901  14.391  0.2935  0.4928 -0.3972
  779MPD2    C511546   2.986   2.778  14.441 -0.2433 -0.3820 -0.5455
  779MPD2     H11547   3.348   2.843  14.340 -0.0513 -0.7583 -0.4659
  779MPD2    H111548   2.951   2.977  14.383 -0.7742 -0.5577 -0.1296
  779MPD2    H211549   3.031   2.581  14.473  2.3020  1.1743  4.7812
  779MPD2    H311550   2.884   2.753  14.463 -0.6376  0.6764 -1.1606
  779MPD2     N11551   3.205   3.045  14.312  0.0650 -0.3529  0.1176
  779MPD2    H511552   3.305   3.058  14.300 -0.0738  0.3777 -0.2712
  779MPD2    N111553   3.296   2.583  14.386 -0.1627 -0.8305 -0.4275
  779MPD2    H711554   3.396   2.601  14.387 -0.3842  0.3686  0.2778
  780MPD2     C11555   2.667   2.783   1.258 -0.2952  0.0183  0.6021
  780MPD2    C111556   2.558   2.747   1.179  0.1735  0.0074  0.2901
  780MPD2    C211557   2.549   2.803   1.050  0.5047  0.2295  0.1059
  780MPD2    C311558   2.643   2.892   1.005  0.2391  0.7773  0.0070
  780MPD2    C411559   2.756   2.911   1.080  0.4460  0.5031  0.1740
  780MPD2    C511560   2.766   2.865   1.205  0.2177 -0.2704 -0.1300
  780MPD2     H11561   2.467   2.783   0.983  1.7795 -0.0589 -1.3558
  780MPD2    H111562   2.835   2.979   1.050 -0.1101  1.1723  0.2127
  780MPD2    H211563   2.677   2.743   1.358 -1.4764  1.1013  1.1657
  780MPD2    H311564   2.853   2.890   1.265 -0.9321  1.6207  0.7633
  780MPD2     N11565   2.643   2.957   0.882 -0.2637 -0.4678 -0.6643
  780MPD2    H511566   2.703   3.038   0.873 -0.4915 -0.4019 -1.5954
  780MPD2    N111567   2.466   2.655   1.238 -0.4417  0.3044  0.2338
  780MPD2    H711568   2.495   2.602   1.320  0.2352 -2.2385 -1.6296
  781MPD2     C11569   3.957   4.706  12.495  0.1006 -0.1213  0.0567
  781MPD2    C111570   4.024   4.588  12.522  0.1168 -0.5229 -0.1875
  781MPD2    C211571   4.105   4.536  12.420  0.9396  0.2984  0.8973
  781MPD2    C311572   4.136   4.615  12.306 -0.6839  0.0456 -0.1300
  781MPD2    C411573   4.072   4.736  12.290  0.2188 -0.1072  0.3071
  781MPD2    C511574   3.970   0.033  12.376  0.2201 -0.2593  0.1834
  781MPD2     H11575   4.133   4.432  12.429 -0.8494  0.0613  3.9921
  781MPD2    H111576   4.101   0.073  12.220 -0.0585 -0.2218  0.0676
  781MPD2    H211577   3.880   4.735  12.564 -2.6157 -0.8196 -2.6907
  781MPD2    H311578   3.919   0.123  12.346  0.7025  0.1159  0.4923
  781MPD2     N11579   4.230   4.579  12.203  0.3194  0.2933 -0.7745
  781MPD2    H511580   4.260   4.649  12.136 -0.6889  0.7121 -0.7825
  781MPD2    N111581   3.995   4.506  12.626  0.3224  0.3399  0.4338
  781MPD2    H711582   4.031   4.411  12.627  1.2646  0.6786 -0.6071
  782MPD2     C11583   2.598   4.723  10.106 -0.0069  0.2283 -0.1164
  782MPD2    C111584   2.604   4.698  10.238 -0.1713  0.0808  0.3030
  782MPD2    C211585   2.554   0.050  10.323  0.7659  0.3007  0.0497
  782MPD2    C311586   2.517   0.176  10.280 -0.3439 -0.1204 -0.5344
  782MPD2    C411587   2.508   0.199  10.147  0.1019  0.3492 -0.6897
  782MPD2    C511588   2.543   0.099  10.057 -0.4204  0.1348 -0.7162
  782MPD2     H11589   2.554   0.034  10.430 -0.6344  2.2245  0.3435
  782MPD2    H111590   2.474   0.287  10.093 -0.3311  0.2042 -0.6509
  782MPD2    H211591   2.631   4.646  10.036  0.4711  0.7314 -0.4457
  782MPD2    H311592   2.526   0.111   9.950  0.9351  1.0817 -0.8203
  782MPD2     N11593   2.487   0.291  10.359 -0.4664  0.3166 -0.2431
  782MPD2    H511594   2.472   0.379  10.311 -0.5243  0.0269 -0.7483
  782MPD2    N111595   2.648   4.573  10.286 -0.0287  0.2654 -0.0974
  782MPD2    H711596   2.673   4.504  10.217  0.4061  1.8255 -1.5128
  783MPD2     C11597   2.168   4.237  11.008 -0.3520  0.6050 -0.0672
  783MPD2    C111598   2.253   4.347  11.015  0.1664 -0.5771 -0.1143
  783MPD2    C211599   2.376   4.357  10.953 -0.1039 -0.0882  0.0574
  783MPD2    C311600   2.409   4.263  10.862 -0.1835  0.1179  0.9878
  783MPD2    C411601   2.323   4.153  10.839  0.4377 -0.3979 -0.1817
  783MPD2    C511602   2.207   4.139  10.923  0.7579  0.1972 -1.4249
  783MPD2     H11603   2.429   4.450  10.968  0.7096 -0.3569 -1.1774
  783MPD2    H111604   2.354   4.083  10.762 -0.8364 -0.2859 -0.8025
  783MPD2    H211605   2.077   4.235  11.067 -0.4119 -0.5182 -0.1919
  783MPD2    H311606   2.148   4.048  10.917  1.3574 -0.1681 -1.8118
  783MPD2     N11607   2.515   4.280  10.785  0.7220  0.7357  0.4161
  783MPD2    H511608   2.564   4.368  10.799  1.7441 -0.0479  1.7982
  783MPD2    N111609   2.191   4.445  11.105  0.1170  0.2676 -0.4362
  783MPD2    H711610   2.109   4.410  11.154  0.2262 -0.5680 -0.8460
  784MPD2     C11611   0.277   0.592   0.877 -0.0097 -0.2911 -0.4762
  784MPD2    C111612   0.263   0.684   0.979  0.1096  0.1387 -0.0789
  784MPD2    C211613   0.168   0.780   0.971  0.1122 -0.5380 -0.1460
  784MPD2    C311614   0.077   0.794   0.865 -0.4520 -0.1738 -0.5182
  784MPD2    C411615   0.094   0.704   0.764  0.3783 -0.7779 -0.2348
  784MPD2    C511616   0.184   0.606   0.773  0.4763  0.2858 -0.2757
  784MPD2     H11617   0.169   0.851   1.052  0.2006 -0.8878  0.1592
  784MPD2    H111618   0.034   0.699   0.674  1.5925  0.0833 -1.0862
  784MPD2    H211619   0.345   0.507   0.876 -0.9235 -1.0645  1.2480
  784MPD2    H311620   0.198   0.531   0.696 -1.5333  0.6402 -0.9871
  784MPD2     N11621   4.723   0.899   0.867 -0.0064  0.6308 -0.1457
  784MPD2    H511622   4.729   0.970   0.939 -1.5695  1.7242 -1.0915
  784MPD2    N111623   0.349   0.694   1.093 -0.1332  0.4313 -0.6003
  784MPD2    H711624   0.325   0.772   1.154  0.9632 -0.3813  0.8677
  785MPD2     C11625   1.434   4.480  10.628  0.2463  0.2867  0.1670
  785MPD2    C111626   1.309   4.478  10.678 -0.2022 -0.4758  0.4162
  785MPD2    C211627   1.226   4.377  10.634 -0.1556  0.2628  0.4059
  785MPD2    C311628   1.254   4.292  10.536  0.5950  0.1769 -0.1578
  785MPD2    C411629   1.389   4.288  10.501 -0.0081  0.9085  0.5176
  785MPD2    C511630   1.481   4.378  10.553  0.2706 -0.6691 -0.0724
  785MPD2     H11631   1.120   4.374  10.656 -0.6397  1.1838 -1.7200
  785MPD2    H111632   1.426   4.204  10.442  2.9866  1.2508  1.9065
  785MPD2    H211633   1.507   4.557  10.653 -0.0266  1.2825 -2.0382
  785MPD2    H311634   1.581   4.367  10.513  0.7938  0.8041  0.8294
  785MPD2     N11635   1.157   4.210  10.483  1.0095  0.1339 -0.0287
  785MPD2    H511636   1.063   4.221  10.519  1.5779  0.4213  1.3609
  785MPD2    N111637   1.268   4.581  10.761  0.1053 -0.0016  1.0259
  785MPD2    H711638   1.342   4.650  10.777 -1.2473  1.9595 -1.2152
  786MPD2     C11639   4.026   2.018  15.179 -0.7573 -0.3309  0.0641
  786MPD2    C111640   4.118   1.925  15.148 -0.0614  0.2256  0.1021
  786MPD2    C211641   4.203   1.880  15.248 -0.3361  0.1453 -0.1403
  786MPD2    C311642   4.184   1.911  15.379  0.6980 -0.2455 -0.3729
  786MPD2    C411643   4.081   1.991  15.415 -0.2138 -0.3293  0.0680
  786MPD2    C511644   4.004   2.044  15.315  0.2523 -0.3921  0.4804
  786MPD2     H11645   4.282   1.809  15.225 -1.2869 -0.1065 -2.6223
  786MPD2    H111646   4.056   2.015  15.518  1.4628 -0.9578  0.6079
  786MPD2    H211647   3.947   2.040  15.108  0.0759  1.6421 -0.2359
  786MPD2    H311648   3.914   2.105  15.325  0.2225 -0.5746  1.2872
  786MPD2     N11649   4.265   1.867  15.487  0.0262  0.0312 -0.5742
  786MPD2    H511650   4.225   1.894  15.577 -1.6615  0.2869 -1.4033
  786MPD2    N111651   4.141   1.878  15.019 -0.4464  0.6081  0.4428
  786MPD2    H711652   4.216   1.810  15.017  0.4775  1.6278  0.3380
  787MPD2     C11653   4.362   1.343  15.061 -0.3231 -0.2443  0.1843
  787MPD2    C111654   4.316   1.341  14.927  0.1524  0.2876 -0.3977
  787MPD2    C211655   4.327   1.219  14.857  0.2779 -0.0628 -0.3783
  787MPD2    C311656   4.385   1.105  14.918 -0.0874 -0.3279 -0.4631
  787MPD2    C411657   4.428   1.114  15.049 -0.6897  0.5774 -0.7929
  787MPD2    C511658   4.412   1.232  15.118 -0.1337  0.2607 -0.1651
  787MPD2     H11659   4.285   1.213  14.758  0.7151  0.4931 -0.5978
  787MPD2    H111660   4.494   1.041  15.095 -1.1077  0.7167  0.0149
  787MPD2    H211661   4.361   1.437  15.115  1.3388 -0.5925  0.8225
  787MPD2    H311662   4.456   1.250  15.215 -0.4356 -0.1746  0.0510
  787MPD2     N11663   4.391   1.002  14.831 -0.9048 -0.3419 -0.1275
  787MPD2    H511664   4.362   1.022  14.736  0.4455  0.5139 -0.3451
  787MPD2    N111665   4.270   1.459  14.868 -0.2185 -0.2813 -0.1748
  787MPD2    H711666   4.272   1.543  14.924  2.1999 -1.2321  1.1630
  788MPD2     C11667   1.272   0.834   1.142  0.0757 -0.4377 -0.0301
  788MPD2    C111668   1.243   0.770   1.021 -0.3319  0.1527 -0.3707
  788MPD2    C211669   1.224   0.857   0.916 -0.3610 -0.2890 -0.1522
  788MPD2    C311670   1.219   0.991   0.924  0.2222  0.6042  0.0070
  788MPD2    C411671   1.217   1.050   1.050 -0.1649  0.0966  0.0607
  788MPD2    C511672   1.239   0.966   1.156  0.3290  0.1680  0.3583
  788MPD2     H11673   1.221   0.817   0.815 -1.9513 -3.2907  1.0953
  788MPD2    H111674   1.221   1.159   1.053 -0.5371  0.1014  0.3252
  788MPD2    H211675   1.294   0.777   1.232  0.6827 -1.1639 -0.6320
  788MPD2    H311676   1.260   1.002   1.256  0.3798 -2.6932  1.4036
  788MPD2     N11677   1.207   1.069   0.811  0.7210 -0.0105  0.1713
  788MPD2    H511678   1.172   1.165   0.816 -1.5286 -0.7675 -1.1031
  788MPD2    N111679   1.224   0.634   1.003  0.1646  0.1797 -0.4605
  788MPD2    H711680   1.189   0.619   0.909 -0.8803 -1.1041  0.1257
  789MPD2     C11681   1.043   4.735  16.633 -0.6252 -0.3467  0.0878
  789MPD2    C111682   0.914   0.028  16.590 -0.8258  0.0908  0.0868
  789MPD2    C211683   0.839   0.128  16.650  0.2457  0.0960 -0.2945
  789MPD2    C311684   0.896   0.198  16.756 -0.5815  0.3182 -0.5392
  789MPD2    C411685   1.024   0.161  16.797 -0.7647  0.5105 -0.3367
  789MPD2    C511686   1.089   0.054  16.745 -0.4186  0.3348 -0.3705
  789MPD2     H11687   0.740   0.141  16.609 -0.2649 -1.1941  0.5435
  789MPD2    H111688   1.076   0.202  16.882 -0.0750  1.2603 -1.1160
  789MPD2    H211689   1.096   4.653  16.586 -1.5803 -0.0775 -1.4663
  789MPD2    H311690   1.187   0.022  16.778 -0.2365 -1.5947 -2.7171
  789MPD2     N11691   0.828   0.300  16.824  0.2661  0.6501 -0.4867
  789MPD2    H511692   0.875   0.345  16.902 -2.9523  3.0290  0.0533
  789MPD2    N111693   0.864   4.711  16.473 -0.6775 -0.6163  0.3093
  789MPD2    H711694   0.766   4.735  16.458 -1.4983 -4.3130 -0.1155
  790MPD2     C11695   2.116   1.675  13.458  0.1999 -0.0466 -0.1027
  790MPD2    C111696   2.146   1.547  13.499 -0.2752 -0.6049  0.1889
  790MPD2    C211697   2.122   1.451  13.409  0.6568  0.3541  0.2038
  790MPD2    C311698   2.094   1.467  13.277  0.1436 -0.5381 -0.0707
  790MPD2    C411699   2.079   1.597  13.234 -0.4355  0.9166  1.4193
  790MPD2    C511700   2.082   1.697  13.325  0.4135  0.7541 -0.2067
  790MPD2     H11701   2.132   1.349  13.444  2.1513 -0.0139 -1.2539
  790MPD2    H111702   2.052   1.631  13.135  2.0595  1.0700  0.7898
  790MPD2    H211703   2.122   1.753  13.532  1.1841 -0.7441  0.5579
  790MPD2    H311704   2.076   1.798  13.285  1.6700  1.4719  1.3911
  790MPD2     N11705   2.087   1.362  13.191 -0.2389 -0.2522  0.0466
  790MPD2    H511706   2.116   1.272  13.229  0.1381  0.9279  2.5506
  790MPD2    N111707   2.192   1.509  13.633  0.0183 -0.3256  0.6853
  790MPD2    H711708   2.200   1.411  13.657 -2.7366 -0.4290  1.1689
  791MPD2     C11709   1.664   1.222  12.501  0.0981  0.4039 -0.0488
  791MPD2    C111710   1.706   1.139  12.601 -0.1426 -0.0624  1.1678
  791MPD2    C211711   1.619   1.060  12.666 -0.4474 -0.5962 -0.4423
  791MPD2    C311712   1.489   1.041  12.613 -0.0086 -0.5823  0.8711
  791MPD2    C411713   1.444   1.118  12.508 -0.1898 -0.2927 -0.6566
  791MPD2    C511714   1.531   1.212  12.465  0.5631  0.2593 -0.2933
  791MPD2     H11715   1.647   0.999  12.751  0.1709 -0.5523 -0.6142
  791MPD2    H111716   1.343   1.121  12.470  0.8428 -6.4052 -3.8713
  791MPD2    H211717   1.730   1.299  12.465  1.0697 -0.8720 -1.0090
  791MPD2    H311718   1.491   1.289  12.400  0.1782  0.1433 -0.1971
  791MPD2     N11719   1.399   0.948  12.685  0.0537  0.3566 -0.3848
  791MPD2    H511720   1.435   0.925  12.777  1.2305  0.4065 -0.8377
  791MPD2    N111721   1.834   1.158  12.654 -0.2184 -0.5099  0.2445
  791MPD2    H711722   1.884   1.243  12.628 -1.0941 -0.1385 -0.2550
  792MPD2     C11723   2.628   0.715  11.279  0.2224 -0.7528 -0.0438
  792MPD2    C111724   2.548   0.814  11.327 -0.0052 -0.0850  0.5506
  792MPD2    C211725   2.419   0.828  11.285  0.7180  0.3896 -0.2647
  792MPD2    C311726   2.361   0.728  11.208 -0.0377 -0.1516 -0.4016
  792MPD2    C411727   2.443   0.622  11.177  0.3614  0.3772  0.1003
  792MPD2    C511728   2.574   0.614  11.206  0.1484 -0.8232  0.3888
  792MPD2     H11729   2.344   0.903  11.308  1.3865  1.3475 -1.1983
  792MPD2    H111730   2.401   0.543  11.116 -0.4801  0.7120  0.2367
  792MPD2    H211731   2.733   0.713  11.304  0.2116  2.6604  0.2559
  792MPD2    H311732   2.638   0.538  11.163 -0.7820 -0.3131 -1.9209
  792MPD2     N11733   2.231   0.719  11.161  0.3813 -0.0535 -0.1990
  792MPD2    H511734   2.205   0.639  11.104  0.3910 -0.0666 -0.1848
  792MPD2    N111735   2.616   0.918  11.400 -0.1674  0.1342 -0.3142
  792MPD2    H711736   2.716   0.908  11.420  0.0227  1.7414 -0.4851
  793MPD2     C11737   1.699   1.203  10.531  0.2483  0.2807  0.3047
  793MPD2    C111738   1.834   1.185  10.566 -0.5270 -0.1475  0.6285
  793MPD2    C211739   1.861   1.094  10.668 -0.6697  0.4883 -0.1375
  793MPD2    C311740   1.758   1.036  10.740  0.2788  0.2709 -0.2176
  793MPD2    C411741   1.625   1.053  10.708 -0.0533 -0.4071  0.1988
  793MPD2    C511742   1.598   1.143  10.610  0.0228  0.6342 -0.0905
  793MPD2     H11743   1.962   1.066  10.695  0.3458  2.6368 -1.7046
  793MPD2    H111744   1.541   1.001  10.753 -1.5629  0.0730 -2.0351
  793MPD2    H211745   1.659   1.267  10.454 -0.3296  1.6532  1.7582
  793MPD2    H311746   1.496   1.170  10.583 -0.6900 -0.6647  1.3009
  793MPD2     N11747   1.805   0.958  10.851 -0.2462  0.9353 -0.1022
  793MPD2    H511748   1.904   0.951  10.871  0.0586 -1.9494 -2.5062
  793MPD2    N111749   1.941   1.238  10.502  0.5028 -0.7517 -0.5594
  793MPD2    H711750   2.032   1.210  10.538  0.9519 -0.3385 -1.3837
  794MPD2     C11751   1.855   1.082  17.641 -0.1351  0.2381 -0.3204
  794MPD2    C111752   1.845   0.961  17.579 -0.2226  0.6486 -0.5242
  794MPD2    C211753   1.790   0.965  17.453 -0.0192 -0.3315 -0.0494
  794MPD2    C311754   1.751   1.080  17.386 -0.4017 -0.2162 -0.1193
  794MPD2    C411755   1.768   1.197  17.452  1.1881 -0.3464  0.0567
  794MPD2    C511756   1.821   1.198  17.573  0.2606  0.3606 -0.1228
  794MPD2     H11757   1.760   0.869  17.414  0.8143 -0.5306 -0.1940
  794MPD2    H111758   1.758   1.294  17.404 -1.7861 -0.5740  0.1849
  794MPD2    H211759   1.905   1.095  17.737 -1.7062  2.9996  0.1264
  794MPD2    H311760   1.838   1.298  17.611 -1.5096  0.0574  1.4602
  794MPD2     N11761   1.685   1.086  17.259 -0.4941 -0.6647 -0.1025
  794MPD2    H511762   1.674   1.177  17.216 -0.2833 -0.3380  0.5279
  794MPD2    N111763   1.874   0.840  17.647 -0.2097 -0.9542  0.4517
  794MPD2    H711764   1.864   0.755  17.592  1.3532 -0.6084 -0.3645
  795MPD2     C11765   4.239   3.325  13.638  0.4037 -0.2134 -0.4844
  795MPD2    C111766   4.180   3.202  13.636  0.0072 -0.1802  0.0946
  795MPD2    C211767   4.262   3.100  13.682 -0.0912  0.3725 -0.3432
  795MPD2    C311768   4.393   3.121  13.725  0.6027 -0.5290  0.3771
  795MPD2    C411769   4.446   3.250  13.723 -0.3984  0.4776  0.0980
  795MPD2    C511770   4.367   3.349  13.680  0.0058 -0.1337 -0.0366
  795MPD2     H11771   4.230   2.998  13.670 -3.6457  1.2189  1.7639
  795MPD2    H111772   4.544   3.275  13.761 -1.6443  2.0987  2.2936
  795MPD2    H211773   4.184   3.406  13.591 -1.3275 -1.3661 -0.4522
  795MPD2    H311774   4.396   3.452  13.698  2.1414 -0.7411  0.0429
  795MPD2     N11775   4.470   3.018  13.769 -0.0512 -0.1616 -0.1673
  795MPD2    H511776   4.570   3.036  13.774 -0.4359  1.3400  2.2186
  795MPD2    N111777   4.051   3.166  13.586 -0.0971  0.3177 -0.2872
  795MPD2    H711778   4.022   3.069  13.576  1.2266 -0.3020  1.9554
  796MPD2     C11779   3.766   4.399  15.916  0.5790 -0.0429 -0.2297
  796MPD2    C111780   3.771   4.452  16.042  0.6856  0.5785  1.0737
  796MPD2    C211781   3.732   4.578  16.063  0.0853 -0.2743 -0.0500
  796MPD2    C311782   3.679   4.648  15.958  0.7714  0.4077 -0.2360
  796MPD2    C411783   3.663   4.585  15.834 -0.5167  0.2900  0.5398
  796MPD2    C511784   3.699   4.455  15.817  0.0528  0.8261 -0.1514
  796MPD2     H11785   3.741   4.635  16.155  2.4272  0.3603 -0.6740
  796MPD2    H111786   3.633   4.638  15.744 -0.3576 -1.5514 -0.6024
  796MPD2    H211787   3.804   4.299  15.899  1.1539  0.5545 -2.4128
  796MPD2    H311788   3.698   4.405  15.721 -0.5435 -1.3213  0.9820
  796MPD2     N11789   3.641   0.044  15.975 -0.2579 -1.3060  0.0068
  796MPD2    H511790   3.664   0.080  16.067 -0.4049  0.5039 -0.6612
  796MPD2    N111791   3.828   4.362  16.140  0.4427  0.3627 -0.1780
  796MPD2    H711792   3.854   4.271  16.104  2.4865  0.4226  1.1723
  797MPD2     C11793   0.344   3.879  17.691  0.6494  0.5076  0.1868
  797MPD2    C111794   0.356   4.017  17.664  0.5028  0.4764 -0.3434
  797MPD2    C211795   0.285   4.076  17.559 -0.1746 -0.1056 -0.2232
  797MPD2    C311796   0.193   4.002  17.493 -0.5750  0.1274  0.5973
  797MPD2    C411797   0.184   3.868  17.519  0.1810 -0.1079  0.0782
  797MPD2    C511798   0.260   3.809  17.615 -0.3923 -0.5889  0.0068
  797MPD2     H11799   0.310   4.175  17.524 -1.8164  0.9316  1.5867
  797MPD2    H111800   0.130   3.806  17.449 -1.6736 -0.0720  1.4877
  797MPD2    H211801   0.395   3.824   0.009 -0.5771  1.0441  1.3543
  797MPD2    H311802   0.246   3.702  17.616 -1.4402 -0.4335  1.2967
  797MPD2     N11803   0.120   4.072  17.393 -0.1293  0.5483  0.0387
  797MPD2    H511804   0.146   4.169  17.377 -3.2312  1.1773 -1.1634
  797MPD2    N111805   0.444   4.097  17.733 -0.1082 -0.1933  0.2214
  797MPD2    H711806   0.466   4.190  17.696  0.2057 -0.7385 -0.9561
  798MPD2     C11807   0.245   4.741  17.424 -0.1768 -0.1033  0.7864
  798MPD2    C111808   0.209   4.611  17.458  0.8765  0.8598  0.4109
  798MPD2    C211809   0.281   4.546  17.557  0.3805  0.0685 -0.5123
  798MPD2    C311810   0.374   4.609  17.636  0.7431  0.9199  0.0225
  798MPD2    C411811   0.413   4.738  17.603  0.3212 -0.3047  0.3338
  798MPD2    C511812   0.338   0.067  17.506  0.4129  0.1053  0.0720
  798MPD2     H11813   0.269   4.441  17.584 -0.5083  0.5659  1.0309
  798MPD2    H111814   0.475   0.051  17.675 -0.3875 -0.6583  1.2134
  798MPD2    H211815   0.200   0.043  17.336 -0.4352  0.3905  1.1616
  798MPD2    H311816   0.345   0.174  17.493 -0.4615  0.1162 -0.3246
  798MPD2     N11817   0.431   4.535  17.738 -0.2635 -0.7648 -0.2863
  798MPD2    H511818   0.379   4.449  17.752 -1.8730  0.5773  1.9252
  798MPD2    N111819   0.097   4.547  17.395 -0.0284  0.2356 -0.2610
  798MPD2    H711820   0.050   4.596  17.320  1.2456  1.9849  0.0832
  799MPD2     C11821   3.801   1.170  14.697  0.7340  0.3992 -0.2252
  799MPD2    C111822   3.727   1.102  14.610 -0.4813  0.9053 -0.0025
  799MPD2    C211823   3.716   1.158  14.479 -0.0014  0.1548 -0.7313
  799MPD2    C311824   3.800   1.262  14.436 -0.8014  0.1699  0.4594
  799MPD2    C411825   3.873   1.323  14.530  0.9832  0.8709  0.3431
  799MPD2    C511826   3.875   1.274  14.655  0.3826 -0.2139 -0.5334
  799MPD2     H11827   3.649   1.106  14.412 -2.1164  0.4797  1.1186
  799MPD2    H111828   3.933   1.409  14.501 -0.3313  0.7039 -2.9502
  799MPD2    H211829   3.832   1.117  14.786  0.0058  0.4029  0.0321
  799MPD2    H311830   3.946   1.316  14.725  0.1289 -1.2628  0.3523
  799MPD2     N11831   3.807   1.301  14.295 -0.4702  0.1242 -0.5063
  799MPD2    H511832   3.873   1.374  14.272 -2.7266  1.9198 -1.2243
  799MPD2    N111833   3.655   0.984  14.640  0.6206 -0.0701 -0.1053
  799MPD2    H711834   3.608   0.935  14.565  0.0970  0.4036 -0.0859
  800MPD2     C11835   4.248   2.074  14.162 -0.1522  0.4995 -1.1784
  800MPD2    C111836   4.362   2.001  14.137  0.0290 -0.1083  0.6867
  800MPD2    C211837   4.409   2.001  14.010 -0.0969  0.3266  0.4419
  800MPD2    C311838   4.333   2.056  13.900 -0.5141  0.0779  0.0733
  800MPD2    C411839   4.212   2.112  13.929  0.6381  0.6101 -0.4965
  800MPD2    C511840   4.173   2.125  14.061 -0.0748  0.0248 -0.3863
  800MPD2     H11841   4.507   1.958  13.991 -0.2110  0.5879 -0.7555
  800MPD2    H111842   4.151   2.161  13.854 -1.7638 -0.7113  0.5937
  800MPD2    H211843   4.203   2.089  14.260 -0.2305 -0.5227 -1.0570
  800MPD2    H311844   4.076   2.162  14.094  0.8529  0.6001  1.6830
  800MPD2     N11845   4.392   2.055  13.767 -0.5958 -0.2541  0.8871
  800MPD2    H511846   4.486   2.016  13.761  0.7743  3.2716 -1.2256
  800MPD2    N111847   4.449   1.955  14.239 -0.1402 -0.3975 -0.6477
  800MPD2    H711848   4.424   1.982  14.333  0.5226  1.7834 -1.0989
  801MPD2     C11849   4.521   1.970  14.950 -0.3633 -0.3630  0.1960
  801MPD2    C111850   4.459   2.001  14.826 -0.5103 -0.0168 -0.3446
  801MPD2    C211851   4.373   2.109  14.812  0.0167  0.2505  0.8221
  801MPD2    C311852   4.336   2.185  14.928  0.6852 -0.7112  0.3124
  801MPD2    C411853   4.390   2.142  15.052 -0.5317 -0.3346 -0.3018
  801MPD2    C511854   4.478   2.031  15.065  0.3031 -0.5333  0.4165
  801MPD2     H11855   4.346   2.137  14.711  0.3279  1.9113  1.2065
  801MPD2    H111856   4.356   2.191  15.143  2.7192 -1.2956  1.4308
  801MPD2    H211857   4.599   1.895  14.954 -1.0531 -1.0297  1.1792
  801MPD2    H311858   4.496   2.001  15.167 -0.9983 -1.6604  0.3147
  801MPD2     N11859   4.256   2.305  14.926 -0.3982  0.7107  0.1089
  801MPD2    H511860   4.254   2.354  15.015  4.1465 -2.3721  1.9558
  801MPD2    N111861   4.479   1.923  14.710  1.3873  0.5453  0.0287
  801MPD2    H711862   4.444   1.960  14.623 -0.5232  0.5955  0.8158
  802MPD2     C11863   3.902   3.252   0.285 -1.0416  0.2592 -0.0282
  802MPD2    C111864   3.841   3.319   0.184  0.1332  0.5502  0.0484
  802MPD2    C211865   3.846   3.266   0.058 -0.1751 -0.0829  0.4120
  802MPD2    C311866   3.929   3.160   0.031  0.0921  0.0352  0.4444
  802MPD2    C411867   4.013   3.114   0.130 -0.8116  0.6464 -1.0024
  802MPD2    C511868   3.996   3.160   0.255  0.5393  0.4007  0.1581
  802MPD2     H11869   3.783   3.306  17.740 -0.6001 -0.7926  0.3839
  802MPD2    H111870   4.082   3.032   0.118 -0.9369  0.3750  0.1441
  802MPD2    H211871   3.897   3.280   0.389  0.9641 -0.6161  0.3107
  802MPD2    H311872   4.060   3.132   0.338  0.7336 -1.7505 -0.7152
  802MPD2     N11873   3.935   3.102  17.660  0.2096  0.1304  0.3695
  802MPD2    H511874   3.871   3.138  17.590  0.5078  0.6428  0.3649
  802MPD2    N111875   3.749   3.423   0.210 -0.1617  0.0594  0.3779
  802MPD2    H711876   3.715   3.466   0.125 -0.8271 -0.9014  0.1642
  803MPD2     C11877   0.075   1.242  12.271  0.7055  0.8918  1.1059
  803MPD2    C111878   0.199   1.200  12.318  0.0732  0.1407  0.2057
  803MPD2    C211879   0.209   1.128  12.437 -0.2387  0.0155  0.2477
  803MPD2    C311880   0.095   1.101  12.505  0.1077  0.4613  0.2358
  803MPD2    C411881   4.712   1.148  12.455 -0.2888 -0.1216 -0.5054
  803MPD2    C511882   4.702   1.207  12.335 -0.3483 -0.4230 -0.3729
  803MPD2     H11883   0.310   1.095  12.459 -0.2778 -1.5112 -1.8227
  803MPD2    H111884   4.624   1.138  12.518  2.0459 -0.6592  2.6509
  803MPD2    H211885   0.065   1.304  12.182  0.7401 -1.9701 -0.8680
  803MPD2    H311886   4.609   1.230  12.285 -1.6362  1.0821  2.6875
  803MPD2     N11887   0.091   1.031  12.629  0.0613 -0.2228 -0.0484
  803MPD2    H511888   0.002   1.020  12.677 -0.3122  0.9080 -0.4867
  803MPD2    N111889   0.322   1.221  12.253  0.3857  0.8220  0.2452
  803MPD2    H711890   0.405   1.189  12.303 -0.1041 -1.1833 -0.2515
  804MPD2     C11891   4.213   2.917  17.072 -0.5273 -0.6644  0.0796
  804MPD2    C111892   4.283   2.891  17.188  0.6687 -0.3379  0.2526
  804MPD2    C211893   4.331   2.997  17.262  0.0562 -0.7857 -0.3067
  804MPD2    C311894   4.307   3.127  17.234  0.3900 -0.3828  0.1597
  804MPD2    C411895   4.223   3.157  17.125  0.2568 -0.0174  0.3011
  804MPD2    C511896   4.183   3.049  17.049  0.2024 -0.0926 -0.2366
  804MPD2     H11897   4.387   2.969  17.351 -2.1886  1.2959  1.7481
  804MPD2    H111898   4.203   3.254  17.081 -0.2396 -0.3436 -0.2018
  804MPD2    H211899   4.171   2.839  17.010  0.3679 -1.5720  0.6236
  804MPD2    H311900   4.123   3.065  16.960  1.2382  0.1371 -0.8868
  804MPD2     N11901   4.369   3.230  17.303  0.1591 -0.2564 -0.0597
  804MPD2    H511902   4.429   3.203  17.380  0.5184 -1.1554 -0.6608
  804MPD2    N111903   4.307   2.759  17.231 -0.3136  0.2376 -0.3182
  804MPD2    H711904   4.356   2.759  17.321  0.5652  0.0169 -0.7981
  805MPD2     C11905   3.383   0.909  15.687  0.8607 -0.2059 -0.4608
  805MPD2    C111906   3.402   1.044  15.702 -0.2163  0.2818  0.2002
  805MPD2    C211907   3.513   1.098  15.775  0.0332 -0.5896 -0.1288
  805MPD2    C311908   3.610   1.010  15.823  0.4476 -0.2981 -0.1731
  805MPD2    C411909   3.592   0.879  15.798  0.2279 -0.0286 -0.0913
  805MPD2    C511910   3.479   0.827  15.737 -0.1591 -0.0101 -0.1058
  805MPD2     H11911   3.517   1.204  15.797 -0.7865 -0.8425  1.2203
  805MPD2    H111912   3.660   0.805  15.839 -0.2035 -0.3244  0.0994
  805MPD2    H211913   3.300   0.870  15.629  0.1296  0.9493 -0.1892
  805MPD2    H311914   3.461   0.721  15.726 -0.9232  0.1721 -0.6320
  805MPD2     N11915   3.716   1.068  15.899  0.3133 -0.6015 -1.0365
  805MPD2    H511916   3.707   1.168  15.914  1.9174 -0.4058 -1.3333
  805MPD2    N111917   3.306   1.136  15.649  0.3989 -0.1097  0.7336
  805MPD2    H711918   3.336   1.232  15.638  1.2120 -0.4632 -0.0491
  806MPD2     C11919   3.566   0.636   0.372  0.4673 -0.4379  0.0091
  806MPD2    C111920   3.694   0.621   0.424  0.1923  0.3082  0.3185
  806MPD2    C211921   3.797   0.704   0.381 -0.0327  0.1536  0.7686
  806MPD2    C311922   3.771   0.814   0.303 -0.5452  0.8092 -0.3751
  806MPD2    C411923   3.638   0.843   0.264 -0.5595 -0.0231  0.0741
  806MPD2    C511924   3.538   0.750   0.301  0.6389  0.1835  0.6433
  806MPD2     H11925   3.900   0.686   0.409  0.2079  0.7559  0.2776
  806MPD2    H111926   3.609   0.927   0.202 -2.4279  0.1478  1.1982
  806MPD2    H211927   3.485   0.575   0.411 -0.1948 -0.8374 -2.0251
  806MPD2    H311928   3.433   0.763   0.274  0.9890  2.4164  0.3056
  806MPD2     N11929   3.866   0.915   0.285 -0.2112 -0.0638  0.4102
  806MPD2    H511930   3.834   1.007   0.255 -0.7148  0.3008  2.0802
  806MPD2    N111931   3.714   0.522   0.522 -0.1012  0.0164 -0.0151
  806MPD2    H711932   3.643   0.450   0.531 -0.7425  0.4336 -1.8876
  807MPD2     C11933   3.442   4.667   0.933 -0.3429  0.1425 -0.6985
  807MPD2    C111934   3.554   4.708   1.004  0.2373  0.0564 -0.2084
  807MPD2    C211935   3.602   4.637   1.110 -0.2848  0.0060 -0.2919
  807MPD2    C311936   3.558   4.506   1.127 -0.6415  1.1175 -0.3114
  807MPD2    C411937   3.447   4.470   1.060  0.5895 -0.9214  0.3864
  807MPD2    C511938   3.382   4.551   0.971 -0.1783 -0.1516  0.3565
  807MPD2     H11939   3.694   4.662   1.160 -0.6918  0.6491  0.1297
  807MPD2    H111940   3.404   4.371   1.069  0.1946 -0.5852  2.2344
  807MPD2    H211941   3.400   4.729   0.855 -0.5510  1.3993  0.4126
  807MPD2    H311942   3.294   4.518   0.917  1.0815 -2.1565 -0.4631
  807MPD2     N11943   3.635   4.424   1.209 -0.4736  0.3292  0.7899
  807MPD2    H511944   3.722   4.463   1.243  0.5204  0.6683 -2.1701
  807MPD2    N111945   3.609   0.097   0.975  0.4070  0.1347  0.2355
  807MPD2    H711946   3.683   0.132   1.036 -0.3418  1.9163  0.1230
  808MPD2     C11947   4.332   1.935   9.711  0.4897  0.6469 -0.4070
  808MPD2    C111948   4.348   1.934   9.845  0.1751  0.4111  0.0225
  808MPD2    C211949   4.401   2.041   9.910  0.3664 -0.0287 -0.2467
  808MPD2    C311950   4.423   2.156   9.831  0.1708  0.6001  0.7815
  808MPD2    C411951   4.404   2.153   9.699 -0.5630  0.7653 -0.0088
  808MPD2    C511952   4.360   2.040   9.635  0.4811  0.0879  0.3860
  808MPD2     H11953   4.395   2.041  10.018 -0.7691 -0.4631 -0.3097
  808MPD2    H111954   4.415   2.237   9.630 -0.6118 -0.0687 -1.0329
  808MPD2    H211955   4.292   1.848   9.661 -0.5958  0.9689 -0.0975
  808MPD2    H311956   4.337   2.031   9.529 -0.1679  0.5062  0.4897
  808MPD2     N11957   4.465   2.279   9.890  0.6471 -0.4312  0.0149
  808MPD2    H511958   4.447   2.353   9.823  2.4086  0.9593  1.0659
  808MPD2    N111959   4.334   1.820   9.926  0.3983  0.3732 -0.1246
  808MPD2    H711960   4.365   1.834  10.022  0.8833  1.0942 -0.3863
  809MPD2     C11961   4.409   3.180   9.578  0.3581  0.2600 -0.2520
  809MPD2    C111962   4.537   3.151   9.613 -0.1689  0.2254 -0.1264
  809MPD2    C211963   4.559   3.055   9.706 -0.0215  0.3565 -0.2251
  809MPD2    C311964   4.451   2.974   9.755  0.8449 -0.5336 -0.1783
  809MPD2    C411965   4.319   2.997   9.709 -0.1670 -0.8955  0.9649
  809MPD2    C511966   4.302   3.104   9.619  1.0417  0.2009 -0.1269
  809MPD2     H11967   4.660   3.029   9.734  0.3510  1.3603 -0.6121
  809MPD2    H111968   4.235   2.933   9.733 -0.5030 -0.9902 -0.4578
  809MPD2    H211969   4.381   3.262   9.513 -2.4674 -1.0377 -0.6775
  809MPD2    H311970   4.202   3.126   9.583  1.3010  1.0356 -0.3400
  809MPD2     N11971   4.487   2.873   9.850 -0.3685  0.1516  0.0663
  809MPD2    H511972   4.584   2.870   9.879 -0.2257 -0.6975 -0.5058
  809MPD2    N111973   4.648   3.211   9.559 -0.4532  0.3667 -0.5661
  809MPD2    H711974   4.731   3.198   9.616 -0.9991  0.1017  0.1801
  810MPD2     C11975   4.362   0.862  10.775  0.2051 -1.0593 -0.5867
  810MPD2    C111976   4.295   0.892  10.661 -0.2512 -0.1323 -0.1066
  810MPD2    C211977   4.279   1.027  10.631 -0.0880 -0.0798 -0.4388
  810MPD2    C311978   4.318   1.127  10.716  0.4255 -0.0746  0.3434
  810MPD2    C411979   4.392   1.095  10.829 -0.1522 -0.5799  0.1152
  810MPD2    C511980   4.407   0.964  10.860  0.5133 -0.1812  0.1263
  810MPD2     H11981   4.230   1.056  10.538  1.2590 -0.0126 -1.1283
  810MPD2    H111982   4.422   1.172  10.900  2.6751 -0.2478 -1.4459
  810MPD2    H211983   4.369   0.762  10.817 -0.7140  0.0634  2.2741
  810MPD2    H311984   4.454   0.942  10.955 -0.4857 -0.8932  0.4537
  810MPD2     N11985   4.287   1.270  10.711  0.4219 -0.3439 -1.0903
  810MPD2    H511986   4.324   1.331  10.783 -2.5750 -1.7167  1.6041
  810MPD2    N111987   4.235   0.797  10.584  0.0852 -0.4403  0.2160
  810MPD2    H711988   4.190   0.833  10.500  0.3541 -2.5389 -0.8323
  811MPD2     C11989   3.706   0.910  10.039  0.5108 -0.0675  0.3976
  811MPD2    C111990   3.775   0.940  10.156  1.0826  0.1206 -0.1374
  811MPD2    C211991   3.795   1.076  10.182 -0.1606 -0.4312 -1.0241
  811MPD2    C311992   3.734   1.174  10.108  0.3118 -0.6943 -0.4107
  811MPD2    C411993   3.670   1.143   9.992  0.0854  0.0160 -0.5368
  811MPD2    C511994   3.657   1.007   9.958  0.2932 -0.6015  0.2288
  811MPD2     H11995   3.850   1.102  10.272  0.5044 -0.5191 -1.4021
  811MPD2    H111996   3.650   1.223   9.922  0.4175  0.5692  0.0062
  811MPD2    H211997   3.684   0.808  10.011  0.3708  0.2661 -0.7216
  811MPD2    H311998   3.609   0.980   9.865 -1.8645 -0.1072  1.1957
  811MPD2     N11999   3.757   1.310  10.147  0.2216 -0.4733  0.1606
  811MPD2    H512000   3.820   1.317  10.226 -0.6444 -1.4667  0.9432
  811MPD2    N112001   3.822   0.826  10.226  0.1246  0.0052 -0.6828
  811MPD2    H712002   3.804   0.735  10.185  0.3215  0.0528 -0.8735
  812MPD2     C12003   3.024   0.841  12.406  0.5470 -0.0160 -0.0508
  812MPD2    C112004   3.085   0.956  12.446 -0.0033  0.3503 -0.3078
  812MPD2    C212005   3.122   0.973  12.579  0.2576 -0.1441 -0.0430
  812MPD2    C312006   3.108   0.873  12.674 -0.3464  0.4679 -0.3877
  812MPD2    C412007   3.065   0.754  12.621 -0.2373  0.8165  0.4579
  812MPD2    C512008   3.014   0.738  12.496 -0.1552 -0.2314 -0.0131
  812MPD2     H12009   3.140   1.068  12.628  0.1907  0.0499 -0.4022
  812MPD2    H112010   3.056   0.667  12.685  2.5780 -0.6257 -1.0813
  812MPD2    H212011   2.975   0.843  12.310  1.6518  0.8981 -0.6080
  812MPD2    H312012   2.979   0.642  12.459 -0.9710 -0.5153  1.4520
  812MPD2     N12013   3.148   0.899  12.813 -0.7259 -0.1653  0.0875
  812MPD2    H512014   3.164   0.996  12.838 -1.9188 -0.3817  1.7321
  812MPD2    N112015   3.085   1.062  12.349  0.3473  0.2212 -0.4939
  812MPD2    H712016   3.060   1.042  12.253  0.3026  3.2885 -1.1207
  813MPD2     C12017   1.942   2.798  13.001 -0.0240 -0.1750 -0.1580
  813MPD2    C112018   2.006   2.916  13.029 -0.9737  0.0911  0.4892
  813MPD2    C212019   1.941   3.014  13.112  0.8868 -0.0759  0.2029
  813MPD2    C312020   1.820   2.979  13.172  0.3071 -0.6823 -0.2600
  813MPD2    C412021   1.765   2.856  13.149 -0.3341 -0.5148  0.0281
  813MPD2    C512022   1.823   2.765  13.064 -0.5124 -0.0247  0.0323
  813MPD2     H12023   1.992   3.104  13.144  0.4053 -0.8347  3.1081
  813MPD2    H112024   1.668   2.824  13.186 -0.7473  2.6655  1.6415
  813MPD2    H212025   1.985   2.725  12.934  0.5398  0.1190 -0.1152
  813MPD2    H312026   1.790   2.663  13.049  0.3183 -0.0823 -1.4843
  813MPD2     N12027   1.755   3.066  13.274 -0.0421 -0.7610 -0.0130
  813MPD2    H512028   1.799   3.157  13.275  0.6745 -1.0913 -1.6159
  813MPD2    N112029   2.142   2.935  12.990  0.1176 -0.1775  0.0784
  813MPD2    H712030   2.197   2.861  12.946  2.0804  1.1150  0.3814
  814MPD2     C12031   2.119   4.322  12.378 -0.4190  0.0456 -0.4035
  814MPD2    C112032   2.206   4.330  12.270  0.4738  0.3795 -0.6017
  814MPD2    C212033   2.296   4.446  12.267 -0.2154  0.2327 -0.5312
  814MPD2    C312034   2.307   4.528  12.383 -0.1288  0.4989 -0.2372
  814MPD2    C412035   2.219   4.514  12.486 -0.0282 -0.6253  0.7256
  814MPD2    C512036   2.132   4.413  12.485  0.4446  0.0678  0.2446
  814MPD2     H12037   2.364   4.463  12.185  0.4082  1.0326  0.1485
  814MPD2    H112038   2.216   4.580  12.573  0.2323 -0.1060  0.3384
  814MPD2    H212039   2.044   4.244  12.379 -0.4254  0.0977  2.5896
  814MPD2    H312040   2.064   4.410  12.570  0.5283 -1.0113  0.2769
  814MPD2     N12041   2.401   4.638  12.392 -0.0306 -0.4946  0.3153
  814MPD2    H512042   2.410   4.687  12.480 -2.2454  1.9991 -0.8535
  814MPD2    N112043   2.186   4.246  12.159 -1.0761 -0.2036 -0.1205
  814MPD2    H712044   2.231   4.265  12.070 -0.6539 -0.1002  0.1116
  815MPD2     C12045   3.190   2.191  12.560 -0.0686  0.3216  0.4035
  815MPD2    C112046   3.195   2.253  12.436  0.3581 -0.8369 -0.4075
  815MPD2    C212047   3.073   2.300  12.392  0.2773 -0.9209 -0.7119
  815MPD2    C312048   2.956   2.290  12.463 -0.8767  0.2488 -1.1147
  815MPD2    C412049   2.959   2.230  12.590  0.4716  0.1226 -0.3846
  815MPD2    C512050   3.079   2.191  12.641 -0.5889 -0.6988  0.0960
  815MPD2     H12051   3.077   2.347  12.294  1.9725  0.6732  0.1300
  815MPD2    H112052   2.874   2.230  12.658  0.4350  0.3872 -0.4301
  815MPD2    H212053   3.277   2.148  12.608  0.3701 -0.3535 -1.0070
  815MPD2    H312054   3.080   2.161  12.745  2.0892  0.1704  0.3196
  815MPD2     N12055   2.836   2.331  12.402 -0.2919 -0.2040  0.0079
  815MPD2    H512056   2.838   2.347  12.302  0.2423 -0.5042 -0.0277
  815MPD2    N112057   3.307   2.267  12.354  0.5831  0.1685 -0.4064
  815MPD2    H712058   3.287   2.302  12.261 -0.2358  0.3393 -0.1671
  816MPD2     C12059   2.743   2.352  17.534  0.1269 -0.3802  0.7804
  816MPD2    C112060   2.793   2.437  17.441 -0.9718  0.7666  1.0991
  816MPD2    C212061   2.894   2.392  17.361 -0.6321 -0.3191 -0.4305
  816MPD2    C312062   2.934   2.258  17.362  0.2662 -1.0832  0.4792
  816MPD2    C412063   2.877   2.171  17.454  0.5512  0.5601 -0.4560
  816MPD2    C512064   2.788   2.224  17.545  0.6713 -0.3335  0.0799
  816MPD2     H12065   2.951   2.461  17.299 -0.9276 -0.1422 -0.5043
  816MPD2    H112066   2.919   2.072  17.470 -0.2316  0.2136 -0.5490
  816MPD2    H212067   2.661   2.390  17.593  0.1578 -0.7814  1.0847
  816MPD2    H312068   2.750   2.157  17.622 -0.4673  0.4928  0.2358
  816MPD2     N12069   3.021   2.208  17.267 -0.3652 -0.1581 -0.6157
  816MPD2    H512070   3.063   2.279  17.208  0.4984  0.1041  0.2967
  816MPD2    N112071   2.745   2.564  17.448 -0.2162 -0.2811  0.1621
  816MPD2    H712072   2.672   2.584  17.514 -1.1944 -1.9235 -0.4198
  817MPD2     C12073   2.472   3.414  10.328 -0.7171 -0.7134 -0.3699
  817MPD2    C112074   2.522   3.428  10.200 -0.0728  0.3309 -0.7472
  817MPD2    C212075   2.461   3.515  10.109  0.6705  0.1121  0.0049
  817MPD2    C312076   2.353   3.599  10.134  0.5053 -0.1238 -0.1611
  817MPD2    C412077   2.304   3.580  10.262 -0.2179  0.5553  1.1213
  817MPD2    C512078   2.364   3.495  10.357 -0.3910 -0.7331  0.4543
  817MPD2     H12079   2.521   3.532  10.021 -2.3708 -0.4546 -2.1759
  817MPD2    H112080   2.220   3.642  10.292  0.2749  2.4885 -1.5087
  817MPD2    H212081   2.515   3.358  10.411 -0.3105  0.8959  0.5059
  817MPD2    H312082   2.326   3.506  10.458 -0.2717  1.6905  0.2175
  817MPD2     N12083   2.292   3.680  10.033 -0.2952 -0.2049  0.1233
  817MPD2    H512084   2.342   3.691   9.945  1.3467  2.0011  1.3051
  817MPD2    N112085   2.640   3.353  10.161 -0.4132 -0.3759  0.3423
  817MPD2    H712086   2.684   3.388  10.076 -2.4441 -0.3041 -0.6812
  818MPD2     C12087   1.542   3.392   9.754  0.8469 -0.1964  0.4184
  818MPD2    C112088   1.589   3.397   9.884 -1.0060  0.4004 -0.0140
  818MPD2    C212089   1.715   3.339   9.903  0.9117  0.3143  0.2551
  818MPD2    C312090   1.775   3.261   9.804  0.1798  0.3031 -0.4690
  818MPD2    C412091   1.718   3.258   9.675  0.0906 -0.2332  0.3201
  818MPD2    C512092   1.603   3.330   9.653 -0.0225 -0.4344 -0.7800
  818MPD2     H12093   1.756   3.335  10.003  0.1356  1.4548  0.6186
  818MPD2    H112094   1.748   3.190   9.596 -0.1675  1.5007 -1.2672
  818MPD2    H212095   1.449   3.440   9.725  1.3963  0.3995 -0.3537
  818MPD2    H312096   1.554   3.330   9.557 -0.4926 -1.1184 -0.5442
  818MPD2     N12097   1.881   3.173   9.836  0.7853 -0.0239  0.1351
  818MPD2    H512098   1.906   3.110   9.760 -0.1440 -0.4816  0.2092
  818MPD2    N112099   1.522   3.456   9.995  0.0895  0.2556  0.0367
  818MPD2    H712100   1.565   3.446  10.086 -0.0467  2.0460  0.3007
  819MPD2     C12101   4.125   1.237  15.788  0.3275  0.5645  0.2064
  819MPD2    C112102   4.103   1.101  15.777 -0.0755 -0.2272  1.1885
  819MPD2    C212103   4.165   1.011  15.866 -0.1409 -0.7542  0.3701
  819MPD2    C312104   4.255   1.057  15.955 -0.6091  0.2340  0.5317
  819MPD2    C412105   4.292   1.192  15.955 -0.9180 -0.0673 -1.2120
  819MPD2    C512106   4.221   1.278  15.869  0.2022  0.1938 -0.0219
  819MPD2     H12107   4.138   0.906  15.855  0.0420 -0.6283 -1.2721
  819MPD2    H112108   4.362   1.238  16.023 -2.9430  1.4601 -0.1611
  819MPD2    H212109   4.068   1.310  15.732  1.8097  2.3872  1.0589
  819MPD2    H312110   4.241   1.384  15.873  1.3696 -0.0488  0.7089
  819MPD2     N12111   4.317   0.969  16.050  0.3802 -0.2169  0.3217
  819MPD2    H512112   4.276   0.876  16.052 -0.1672 -0.0356 -1.7838
  819MPD2    N112113   4.001   1.080  15.680  0.4559 -0.1748 -0.9908
  819MPD2    H712114   3.959   1.158  15.629  0.0618  1.0670  1.2080
  820MPD2     C12115   3.433   1.619  15.152 -0.5068  1.0662  0.6037
  820MPD2    C112116   3.407   1.565  15.273 -0.3758  0.6502 -0.7050
  820MPD2    C212117   3.479   1.450  15.318  1.5131  0.5884 -0.3770
  820MPD2    C312118   3.572   1.393  15.233  0.4503 -0.0366 -0.2543
  820MPD2    C412119   3.590   1.440  15.105 -0.6761 -0.5236 -0.1486
  820MPD2    C512120   3.525   1.558  15.068  0.4718 -0.1194  0.3539
  820MPD2     H12121   3.468   1.417  15.421 -2.4956  0.3699 -0.8619
  820MPD2    H112122   3.648   1.378  15.038  0.4975  1.0062 -0.5478
  820MPD2    H212123   3.376   1.703  15.114 -0.7524  1.1853  1.2377
  820MPD2    H312124   3.534   1.597  14.967  0.1410  0.2414  0.4645
  820MPD2     N12125   3.626   1.271  15.271 -0.5052 -0.3375 -0.7254
  820MPD2    H512126   3.665   1.206  15.203  2.2074 -0.8084  1.2465
  820MPD2    N112127   3.306   1.617  15.352  0.7243  0.3840  0.2580
  820MPD2    H712128   3.287   1.716  15.335 -2.5207  0.1526  2.6119
  821MPD2     C12129   0.024   2.640  13.420 -0.2691 -0.5964 -0.0589
  821MPD2    C112130   0.041   2.519  13.482 -0.4630 -0.3460 -0.3122
  821MPD2    C212131   0.155   2.507  13.561  1.1596 -0.0715  0.1824
  821MPD2    C312132   0.254   2.600  13.562 -0.5516  0.1733  0.1074
  821MPD2    C412133   0.242   2.709  13.483 -0.4155  0.2437  0.5566
  821MPD2    C512134   0.120   2.731  13.417  1.2712 -0.4014 -1.1247
  821MPD2     H12135   0.176   2.411  13.608  0.3039 -0.8245 -0.9677
  821MPD2    H112136   0.318   2.785  13.467 -0.6766  0.8308  2.1062
  821MPD2    H212137   4.679   2.664  13.359 -0.7624 -1.3706  0.3380
  821MPD2    H312138   0.111   2.813  13.346 -1.0480  0.3432  0.0418
  821MPD2     N12139   0.383   2.569  13.613 -0.3294  0.3828 -0.0542
  821MPD2    H512140   0.454   2.637  13.590 -0.0946  0.9383  2.3245
  821MPD2    N112141   4.694   2.403  13.474  0.1661  0.0178  0.4366
  821MPD2    H712142   4.718   2.326  13.536  0.9883 -1.2380 -1.4136
  822MPD2     C12143   0.325   2.390  15.771  0.8455  0.4637 -0.2797
  822MPD2    C112144   0.383   2.374  15.894 -0.7966 -0.1036  0.2516
  822MPD2    C212145   0.371   2.470  15.993 -0.0582  0.1557  0.4263
  822MPD2    C312146   0.303   2.587  15.969 -0.1569  0.0567 -0.2025
  822MPD2    C412147   0.240   2.605  15.844  0.2185 -0.0502 -0.7691
  822MPD2    C512148   0.253   2.508  15.747 -0.9493  0.1863  0.3270
  822MPD2     H12149   0.412   2.458  16.093  0.8619  0.4288  0.0822
  822MPD2    H112150   0.181   2.692  15.819 -0.5927 -0.0369  1.1813
  822MPD2    H212151   0.322   2.312  15.696  0.5444  1.0954 -0.9226
  822MPD2    H312152   0.194   2.520  15.657 -1.2278 -2.2869  0.1899
  822MPD2     N12153   0.286   2.688  16.065  0.8472 -0.5681 -0.8108
  822MPD2    H512154   0.318   2.650  16.154 -0.7483 -0.5239 -0.2195
  822MPD2    N112155   0.450   2.252  15.944 -1.0152  0.1832  0.5419
  822MPD2    H712156   0.455   2.244  16.045  1.5051 -0.9995  0.3310
  823MPD2     C12157   0.124   2.846  16.846 -0.7544 -0.1661 -0.1834
  823MPD2    C112158   0.135   2.767  16.739  0.0923 -0.1201  0.7550
  823MPD2    C212159   0.145   2.634  16.755  0.3860 -0.6976 -0.1041
  823MPD2    C312160   0.118   2.578  16.884 -0.3205 -0.2058 -0.3435
  823MPD2    C412161   0.103   2.662  16.990  0.5480  0.2224 -0.5972
  823MPD2    C512162   0.117   2.795  16.973 -0.2760  0.1244 -0.4399
  823MPD2     H12163   0.152   2.565  16.672  0.1276 -0.4033 -0.3678
  823MPD2    H112164   0.098   2.616  17.089  2.5861  0.7014 -0.2628
  823MPD2    H212165   0.128   2.955  16.842 -1.6712 -0.0644  1.6083
  823MPD2    H312166   0.100   2.869  17.050 -2.3008 -2.1696  1.3004
  823MPD2     N12167   0.110   2.437  16.912 -0.5279  0.1270  0.3821
  823MPD2    H512168   0.102   2.408  17.009 -0.0100 -1.0487  0.0733
  823MPD2    N112169   0.147   2.821  16.608 -1.1035 -0.5640 -0.5975
  823MPD2    H712170   0.132   2.920  16.593 -1.8155 -0.7351 -1.0695
  824MPD2     C12171   0.430   1.316  15.884 -0.4406  0.1332 -0.4603
  824MPD2    C112172   0.502   1.423  15.830 -0.4810  0.3704 -0.3537
  824MPD2    C212173   0.623   1.393  15.772 -0.6838  0.2431 -0.5114
  824MPD2    C312174   0.671   1.265  15.755 -0.1181 -0.0149  0.4581
  824MPD2    C412175   0.590   1.157  15.798  0.0206 -0.5313  0.5903
  824MPD2    C512176   0.467   1.183  15.850 -0.2004 -0.1150 -0.6360
  824MPD2     H12177   0.677   1.478  15.733  2.2677  0.1045  3.2871
  824MPD2    H112178   0.615   1.055  15.771  1.0072  0.1996 -1.3054
  824MPD2    H212179   0.337   1.336  15.937 -1.1427  1.0524 -2.0037
  824MPD2    H312180   0.411   1.096  15.879  0.6764  0.2034  1.9875
  824MPD2     N12181   0.800   1.246  15.701  1.1497 -0.3239  0.1113
  824MPD2    H512182   0.843   1.331  15.664 -0.3011  1.1301  1.7554
  824MPD2    N112183   0.468   1.556  15.864 -0.2541 -0.2272 -0.0148
  824MPD2    H712184   0.411   1.559  15.948  0.8388 -1.9027  0.7785
  825MPD2     C12185   1.559   1.511  15.398 -0.0987  0.0601  0.2947
  825MPD2    C112186   1.455   1.525  15.487  0.0406  0.7541  0.7242
  825MPD2    C212187   1.439   1.649  15.559  0.1226 -0.0255  0.2448
  825MPD2    C312188   1.517   1.755  15.510 -0.6319  0.0360  0.0210
  825MPD2    C412189   1.613   1.740  15.414 -0.3369 -0.2475 -0.1149
  825MPD2    C512190   1.644   1.614  15.364  0.1295  0.4861  0.1058
  825MPD2     H12191   1.353   1.666  15.622 -0.6449  1.3497 -1.1703
  825MPD2    H112192   1.665   1.826  15.375 -1.0590  1.5898  2.9930
  825MPD2    H212193   1.565   1.413  15.352 -0.0291 -0.0638  0.5679
  825MPD2    H312194   1.713   1.610  15.280 -0.4621 -3.1569 -0.1941
  825MPD2     N12195   1.496   1.883  15.559 -0.2768 -0.2550  0.6541
  825MPD2    H512196   1.540   1.952  15.500 -0.2287  0.2879  1.3302
  825MPD2    N112197   1.363   1.411  15.501  0.3361 -0.5436 -0.1248
  825MPD2    H712198   1.388   1.328  15.448  0.2725 -1.7537  1.7404
  826MPD2     C12199   0.791   0.595  13.864  0.6887  0.5287  0.4643
  826MPD2    C112200   0.867   0.699  13.816  0.1094  0.6210 -0.1557
  826MPD2    C212201   0.875   0.816  13.886  0.4613 -0.4700  0.5999
  826MPD2    C312202   0.801   0.827  14.000  0.0458  0.0589  0.0077
  826MPD2    C412203   0.723   0.725  14.048  0.5452  0.1269 -0.3912
  826MPD2    C512204   0.720   0.613  13.981 -0.4786  0.4470  0.5800
  826MPD2     H12205   0.939   0.894  13.846  1.4546 -0.7136  1.7409
  826MPD2    H112206   0.662   0.739  14.137 -0.1928 -1.0113 -0.7113
  826MPD2    H212207   0.779   0.499  13.816  0.5086  0.0062  1.5727
  826MPD2    H312208   0.674   0.528  14.030  1.0612 -1.0700 -0.6202
  826MPD2     N12209   0.800   0.944  14.081 -0.3188 -0.0742  0.4181
  826MPD2    H512210   0.732   0.943  14.156 -1.3878 -2.5980 -0.5967
  826MPD2    N112211   0.946   0.673  13.701 -0.9126  0.5545 -0.0372
  826MPD2    H712212   0.946   0.577  13.667  0.9010  0.5607 -0.0597
  827MPD2     C12213   2.253   2.425  10.413  0.3931  0.3442 -0.5708
  827MPD2    C112214   2.293   2.308  10.478  0.1751 -0.0671 -1.1682
  827MPD2    C212215   2.194   2.237  10.541 -0.7404 -0.4637  0.6855
  827MPD2    C312216   2.057   2.271  10.527  0.4077  0.2663  0.1903
  827MPD2    C412217   2.021   2.394  10.467  0.0442  0.1453  0.5677
  827MPD2    C512218   2.120   2.470  10.412  0.4095  0.3025 -0.6813
  827MPD2     H12219   2.224   2.153  10.603  0.7888  1.2733  2.2552
  827MPD2    H112220   1.920   2.427  10.450 -0.1094 -0.8639 -0.5133
  827MPD2    H212221   2.319   2.488  10.355 -0.3488  1.6556  0.0234
  827MPD2    H312222   2.096   2.572  10.382  0.4167  0.1636 -1.1596
  827MPD2     N12223   1.961   2.183  10.580  0.1891 -0.2262 -0.4294
  827MPD2    H512224   2.004   2.109  10.634 -0.5003  1.4146  2.3949
  827MPD2    N112225   2.426   2.281  10.486 -0.2154  0.1831  0.3853
  827MPD2    H712226   2.487   2.349  10.442 -0.0876  0.0608  0.3733
  828MPD2     C12227   0.541   3.157  12.275  0.7004 -0.5462  0.3267
  828MPD2    C112228   0.451   3.107  12.183  0.6867 -0.4773 -0.6344
  828MPD2    C212229   0.500   3.073  12.060 -0.4975  0.0407  0.2621
  828MPD2    C312230   0.630   3.096  12.021 -0.2579 -0.0901 -0.0865
  828MPD2    C412231   0.710   3.158  12.110 -0.4721  0.2719 -0.6922
  828MPD2    C512232   0.666   3.183  12.237 -0.2781 -0.3890  0.3896
  828MPD2     H12233   0.427   3.044  11.985  0.4494  2.1257 -1.4917
  828MPD2    H112234   0.812   3.185  12.083 -0.1009  1.2053  1.6654
  828MPD2    H212235   0.504   3.191  12.372 -0.6754 -0.3761 -0.2515
  828MPD2    H312236   0.735   3.222  12.311  0.6137  0.1747 -0.7480
  828MPD2     N12237   0.684   3.055  11.899 -0.7366  0.1607 -0.1644
  828MPD2    H512238   0.784   3.063  11.882 -0.6035 -3.9630 -1.4003
  828MPD2    N112239   0.308   3.083  12.207  0.7798 -0.6033  0.1237
  828MPD2    H712240   0.261   3.029  12.135  0.4196  0.8618 -0.7357
  829MPD2     C12241   4.642   2.575  11.747 -0.6277 -0.1435 -0.0154
  829MPD2    C112242   4.565   2.565  11.855  0.8295  0.6243  0.3662
  829MPD2    C212243   4.561   2.670  11.944 -0.1922  0.4152  0.0769
  829MPD2    C312244   4.636   2.782  11.927 -0.2174 -0.2005 -0.1452
  829MPD2    C412245   4.714   2.789  11.811  0.1441 -0.7186  0.1064
  829MPD2    C512246   4.712   2.690  11.717 -0.3076  0.7810 -0.4414
  829MPD2     H12247   4.504   2.659  12.035  0.5469 -1.5259  0.3124
  829MPD2    H112248   0.019   2.884  11.787 -1.8983  0.0800 -0.6751
  829MPD2    H212249   4.653   2.497  11.673 -1.4550 -0.8299  0.5850
  829MPD2    H312250   0.019   2.689  11.620  0.3561 -3.6410 -0.0601
  829MPD2     N12251   4.654   2.876  12.031 -0.2000 -0.1872  0.3551
  829MPD2    H512252   0.002   2.923  12.029  0.0893 -0.8387 -1.8002
  829MPD2    N112253   4.486   2.444  11.868 -0.3475 -0.4328  0.2477
  829MPD2    H712254   4.487   2.378  11.791 -0.1811  2.1164 -1.9206
  830MPD2     C12255   4.453   0.197  16.405 -0.9553  0.2349 -0.1121
  830MPD2    C112256   4.447   0.272  16.293  0.2670  0.2917 -0.3444
  830MPD2    C212257   4.434   0.215  16.168  0.0215  0.2879 -0.4863
  830MPD2    C312258   4.427   0.072  16.165 -0.0336  0.3274  0.4301
  830MPD2    C412259   4.439   4.733  16.279  0.0356 -0.6535  0.4153
  830MPD2    C512260   4.440   0.058  16.396  0.1482  0.3756 -0.4772
  830MPD2     H12261   4.419   0.268  16.074  0.6330 -0.2985 -0.9200
  830MPD2    H112262   4.450   4.625  16.274  0.3956 -0.6107  0.3062
  830MPD2    H212263   4.458   0.252  16.499  1.6895 -1.1516  0.5631
  830MPD2    H312264   4.436   4.730  16.479  0.9227 -0.5606 -1.2151
  830MPD2     N12265   4.421   0.014  16.037 -0.2700 -0.0394 -0.1021
  830MPD2    H512266   4.451   4.658  16.033 -0.6562 -0.1804  0.4989
  830MPD2    N112267   4.441   0.414  16.309 -0.1018  0.3032 -0.1279
  830MPD2    H712268   4.459   0.450  16.403 -0.0588 -4.2456  1.5821
  831MPD2     C12269   0.614   2.569  16.595 -0.3763 -0.1134 -0.6035
  831MPD2    C112270   0.594   2.552  16.461  0.2583 -0.3443  0.5979
  831MPD2    C212271   0.485   2.482  16.413  0.2053  0.0107 -0.1246
  831MPD2    C312272   0.397   2.410  16.496  0.2472  0.2868 -0.6257
  831MPD2    C412273   0.424   2.426  16.630  0.0861 -0.0600 -0.2244
  831MPD2    C512274   0.533   2.498  16.675 -1.2023  0.3599  0.5757
  831MPD2     H12275   0.477   2.466  16.307  1.9493 -1.3734 -0.0355
  831MPD2    H112276   0.355   2.395  16.708  0.5398  1.0421  0.6197
  831MPD2    H212277   0.702   2.621  16.631 -0.7124 -0.7760  1.1259
  831MPD2    H312278   0.552   2.519  16.780  0.4989  0.4239  0.2500
  831MPD2     N12279   0.282   2.340  16.453  1.1909  0.6500  0.2495
  831MPD2    H512280   0.230   2.310  16.535  0.3452  0.2857 -0.4088
  831MPD2    N112281   0.687   2.603  16.373 -0.5041  0.1154 -0.4102
  831MPD2    H712282   0.773   2.636  16.416 -0.4111  1.0010 -1.2919
  832MPD2     C12283   3.537   3.344  17.246  1.1330  0.0890 -0.0722
  832MPD2    C112284   3.502   3.468  17.278  0.0499  0.0321 -0.4793
  832MPD2    C212285   3.406   3.538  17.202  0.1295  1.0671  0.2628
  832MPD2    C312286   3.353   3.476  17.092 -0.1863  0.8951 -0.1834
  832MPD2    C412287   3.384   3.338  17.070  0.0647  0.3730  0.0694
  832MPD2    C512288   3.467   3.276  17.153 -0.0404  0.4166 -0.7081
  832MPD2     H12289   3.396   3.645  17.207 -0.1047  1.0442  0.2792
  832MPD2    H112290   3.336   3.284  16.989  0.7441  1.1343 -0.8415
  832MPD2    H212291   3.626   3.297  17.287  2.2722  0.2664 -2.3745
  832MPD2    H312292   3.498   3.174  17.133  0.9495  0.2294  1.7077
  832MPD2     N12293   3.256   3.543  17.020  0.5842  0.0856 -0.8612
  832MPD2    H512294   3.235   3.633  17.061 -1.0342 -1.2506  1.2431
  832MPD2    N112295   3.603   3.534  17.351  0.3259 -0.2917  0.3386
  832MPD2    H712296   3.672   3.473  17.393 -0.1995  0.3704  2.1365
  833MPD2     C12297   1.123   4.577  12.558 -0.2317  0.8515 -0.3853
  833MPD2    C112298   1.023   4.636  12.475 -0.3852  0.5024  0.3804
  833MPD2    C212299   1.058   4.653  12.343  0.4894  0.5639  0.3309
  833MPD2    C312300   1.180   4.602  12.294 -0.9235 -0.4251  0.5310
  833MPD2    C412301   1.278   4.552  12.377 -0.0503 -0.3050  0.0877
  833MPD2    C512302   1.245   4.539  12.506  0.0740  0.2482 -0.5669
  833MPD2     H12303   0.977   4.684  12.278 -0.3173 -0.8394  0.6455
  833MPD2    H112304   1.375   4.518  12.344  1.4114  1.4439  2.5316
  833MPD2    H212305   1.103   4.570  12.664  0.1218  0.9620 -0.3120
  833MPD2    H312306   1.316   4.494  12.575  0.2478  2.1410  0.5014
  833MPD2     N12307   1.204   4.625  12.156 -0.3743  0.0397  0.3991
  833MPD2    H512308   1.125   4.655  12.100 -2.2137  0.3367  3.1148
  833MPD2    N112309   0.896   4.681  12.516  0.2119  0.8401  0.0056
  833MPD2    H712310   0.838   4.725  12.446 -0.7154 -0.5114 -0.0708
  834MPD2     C12311   0.885   3.834  11.674 -0.5771  0.9746 -0.4704
  834MPD2    C112312   0.928   3.904  11.562 -0.4172  0.2540 -0.0143
  834MPD2    C212313   0.999   4.021  11.586  0.6086 -0.2058 -0.1899
  834MPD2    C312314   1.027   4.066  11.706 -0.3708  0.7987  0.0490
  834MPD2    C412315   0.979   3.995  11.811 -0.1912  0.2293  0.6477
  834MPD2    C512316   0.915   3.876  11.797 -0.7164 -0.7509 -0.2358
  834MPD2     H12317   1.029   4.075  11.497  2.2570 -0.5437  0.1609
  834MPD2    H112318   0.987   4.027  11.914  0.9771  2.1362 -0.0475
  834MPD2    H212319   0.837   3.737  11.668  1.3474  0.0636 -1.1497
  834MPD2    H312320   0.883   3.815  11.880  0.8629 -0.4089  0.6159
  834MPD2     N12321   1.098   4.188  11.714 -0.7552 -0.2115  0.1032
  834MPD2    H512322   1.138   4.231  11.631 -0.4768  0.3277  0.5146
  834MPD2    N112323   0.900   3.852  11.433  0.6141 -0.3395  0.5003
  834MPD2    H712324   0.840   3.770  11.432 -0.1005  0.2041 -1.2124
  835MPD2     C12325   1.332   2.011  11.314 -0.3051  0.1871 -0.4648
  835MPD2    C112326   1.289   2.131  11.358  0.1680  0.3923  0.7335
  835MPD2    C212327   1.343   2.185  11.470 -0.9123 -0.4436  0.3642
  835MPD2    C312328   1.418   2.108  11.562  0.8585  0.3872 -0.4440
  835MPD2    C412329   1.462   1.982  11.514  0.6606  0.0531  0.3262
  835MPD2    C512330   1.427   1.942  11.387 -0.2734  0.2297  0.0863
  835MPD2     H12331   1.315   2.285  11.500 -1.0610 -0.9024  1.7893
  835MPD2    H112332   1.516   1.914  11.579  1.7634  1.6356  1.0494
  835MPD2    H212333   1.291   1.971  11.222 -4.8230  1.0425  1.1482
  835MPD2    H312334   1.449   1.840  11.356  0.1472  0.6679 -1.0638
  835MPD2     N12335   1.431   2.147  11.697  0.3371  0.0855  0.1344
  835MPD2    H512336   1.505   2.099  11.746  0.0868 -0.9469 -0.5030
  835MPD2    N112337   1.205   2.218  11.286 -0.2996 -0.3952  0.2336
  835MPD2    H712338   1.183   2.305  11.333  0.6913 -1.3941  2.5273
  836MPD2     C12339   1.062   2.729  12.039 -0.4585  0.9212  0.1265
  836MPD2    C112340   1.154   2.681  12.129  0.1268  0.1071 -0.6427
  836MPD2    C212341   1.149   2.732  12.260  0.2413 -0.0531  0.8573
  836MPD2    C312342   1.048   2.822  12.295  1.1237  0.0925  0.2996
  836MPD2    C412343   0.964   2.875  12.203 -0.0261 -0.3901 -0.3651
  836MPD2    C512344   0.979   2.829  12.076 -0.5250 -0.3268  0.3078
  836MPD2     H12345   1.219   2.695  12.334 -0.8552 -0.2556  1.7898
  836MPD2    H112346   0.887   2.948  12.223 -0.4041 -0.9380  0.1744
  836MPD2    H212347   1.052   2.689  11.939  0.1970  0.4028  0.2648
  836MPD2    H312348   0.910   2.879  12.008  2.3608  3.2847  0.0477
  836MPD2     N12349   1.027   2.881  12.425  0.4303  0.0937 -0.0031
  836MPD2    H512350   0.951   2.948  12.440 -2.1404 -2.8740  0.1538
  836MPD2    N112351   1.239   2.575  12.086  0.6774 -0.2176  0.4791
  836MPD2    H712352   1.223   2.540  11.992  1.0283  1.4418 -0.1807
  837MPD2     C12353   4.181   1.889  10.524  0.5717 -0.1000  0.3338
  837MPD2    C112354   4.060   1.923  10.474 -0.7053  0.5811 -0.3999
  837MPD2    C212355   4.013   2.057  10.486 -0.3828 -0.3917  0.5248
  837MPD2    C312356   4.091   2.157  10.547 -1.2896 -0.1010  0.0174
  837MPD2    C412357   4.205   2.115  10.605  0.5605  0.2601  0.2213
  837MPD2    C512358   4.253   1.982  10.589  0.1990 -0.1422 -0.1117
  837MPD2     H12359   3.919   2.089  10.444  0.6171  1.6301 -0.1583
  837MPD2    H112360   4.275   2.181  10.654  1.5934 -1.4016  1.0031
  837MPD2    H212361   4.226   1.792  10.505  1.3541  0.4677 -0.6484
  837MPD2    H312362   4.347   1.963  10.639 -0.0082 -1.7038 -0.3175
  837MPD2     N12363   4.041   2.283  10.530  0.2086 -0.3379 -0.2842
  837MPD2    H512364   3.962   2.300  10.469  0.7832  0.1091 -0.9050
  837MPD2    N112365   3.973   1.843  10.403 -0.0944  0.3472  0.2188
  837MPD2    H712366   3.895   1.899  10.367  0.1698  0.8256  0.3931
  838MPD2     C12367   2.355   0.380  12.180 -0.0965  0.2349 -0.1238
  838MPD2    C112368   2.281   0.266  12.143  0.1635 -0.6696 -0.4707
  838MPD2    C212369   2.196   0.214  12.239 -0.7993  0.5639  0.8179
  838MPD2    C312370   2.173   0.284  12.357 -0.3876  0.3859 -0.5976
  838MPD2    C412371   2.253   0.389  12.390  0.7374 -0.3778 -0.8101
  838MPD2    C512372   2.346   0.441  12.302  0.0105  0.6666 -0.3005
  838MPD2     H12373   2.148   0.119  12.220 -0.7321  0.5560  0.6867
  838MPD2    H112374   2.256   0.427  12.492 -1.7058  0.7342 -1.1397
  838MPD2    H212375   2.435   0.414  12.115 -1.7940  2.0324 -1.2874
  838MPD2    H312376   2.417   0.518  12.333 -1.0858  1.4547  0.2498
  838MPD2     N12377   2.092   0.228  12.447 -0.8018  0.2959  0.0240
  838MPD2    H512378   2.048   0.138  12.429 -1.8714  0.9605 -0.6548
  838MPD2    N112379   2.288   0.210  12.017 -0.1117  0.2763 -0.3189
  838MPD2    H712380   2.246   0.119  12.007 -0.5272  0.3791  0.4991
  839MPD2     C12381   1.614   4.533  11.707  0.0180 -0.2006 -0.6356
  839MPD2    C112382   1.714   4.445  11.673 -0.4647  0.3810 -0.0940
  839MPD2    C212383   1.847   4.489  11.667  0.4591 -0.2552  0.2778
  839MPD2    C312384   1.871   4.620  11.711 -0.1721  0.0345 -0.5266
  839MPD2    C412385   1.763   4.704  11.753 -0.1705 -0.4212  0.7444
  839MPD2    C512386   1.638   4.660  11.744  0.1592  0.2433  0.5571
  839MPD2     H12387   1.936   4.431  11.645  2.1894  0.3612  5.5961
  839MPD2    H112388   1.779   0.064  11.790 -0.6766  0.2880 -0.9471
  839MPD2    H212389   1.514   4.499  11.730 -0.5242  1.6535 -0.3064
  839MPD2    H312390   1.567   4.731  11.784 -0.3835  0.5296 -0.8987
  839MPD2     N12391   1.998   4.688  11.715 -0.4961  0.2812  0.0042
  839MPD2    H512392   1.997   0.035  11.767 -2.5297  2.2987 -3.4311
  839MPD2    N112393   1.687   4.308  11.638  0.1942 -0.0315 -0.0670
  839MPD2    H712394   1.771   4.254  11.621  0.1333 -0.0480 -0.3192
  840MPD2     C12395   2.803   2.732  10.469 -0.1060  0.3017  0.4453
  840MPD2    C112396   2.862   2.647  10.564  0.3254 -0.4303  0.0852
  840MPD2    C212397   2.934   2.707  10.664  0.0037 -0.1063 -0.0560
  840MPD2    C312398   2.975   2.837  10.652 -0.3452  0.7025  0.2602
  840MPD2    C412399   2.923   2.915  10.549 -0.0854 -0.4395 -0.0749
  840MPD2    C512400   2.835   2.863  10.460  0.4831  0.0308  0.1879
  840MPD2     H12401   2.956   2.652  10.755 -1.6578  0.1392  0.4929
  840MPD2    H112402   2.944   3.020  10.532  3.9877 -1.0545  1.0701
  840MPD2    H212403   2.736   2.702  10.390 -1.8029  2.4264  1.0766
  840MPD2    H312404   2.781   2.928  10.392  0.1056 -2.4356 -1.8731
  840MPD2     N12405   3.068   2.902  10.740 -0.2318 -0.4223  0.2062
  840MPD2    H512406   3.104   2.993  10.713 -1.1465  0.7324  2.9179
  840MPD2    N112407   2.818   2.515  10.565 -0.0883  0.1589  0.2122
  840MPD2    H712408   2.750   2.485  10.495  1.1232 -1.1171 -0.4385
  841MPD2     C12409   2.574   2.258  14.161 -0.1014 -0.3111  0.1925
  841MPD2    C112410   2.444   2.294  14.208  0.2894 -0.5061 -0.3429
  841MPD2    C212411   2.450   2.343  14.336  0.0071  0.6881 -0.0489
  841MPD2    C312412   2.569   2.393  14.395  0.7466 -0.1394 -0.4459
  841MPD2    C412413   2.686   2.381  14.325  0.1179  0.1299  0.0160
  841MPD2    C512414   2.692   2.297  14.217 -0.5186 -0.8531  0.2437
  841MPD2     H12415   2.354   2.359  14.384 -0.6774  0.1616 -1.2332
  841MPD2    H112416   2.777   2.413  14.374  0.7508 -2.0398  0.2900
  841MPD2    H212417   2.578   2.192  14.076 -0.4495  0.5609 -0.5075
  841MPD2    H312418   2.788   2.265  14.178 -0.0432  1.6004 -0.5457
  841MPD2     N12419   2.557   2.455  14.521 -0.9057 -0.2890  0.9091
  841MPD2    H512420   2.463   2.462  14.559 -1.4243 -0.1948 -0.3951
  841MPD2    N112421   2.331   2.260  14.134 -0.5652 -0.2052  0.0795
  841MPD2    H712422   2.243   2.255  14.185  0.2424  1.0960  1.5876
  842MPD2     C12423   2.666   3.781  17.037 -0.0272 -0.6041  0.8069
  842MPD2    C112424   2.532   3.744  17.047  0.1548  0.6387 -0.0719
  842MPD2    C212425   2.490   3.635  17.119  0.1224  0.1243  0.9775
  842MPD2    C312426   2.583   3.583  17.208 -0.0266 -0.8274 -0.2211
  842MPD2    C412427   2.711   3.621  17.204  0.4676  0.1046  0.4203
  842MPD2    C512428   2.755   3.723  17.123 -0.0450  0.9077  0.8438
  842MPD2     H12429   2.385   3.621  17.140  0.1182 -1.7014 -0.1905
  842MPD2    H112430   2.780   3.578  17.276  0.7460  0.6037  0.4493
  842MPD2    H212431   2.699   3.870  16.985  1.6390 -2.5010 -1.4114
  842MPD2    H312432   2.853   3.769  17.127 -0.1612  1.2663 -0.3574
  842MPD2     N12433   2.549   3.476  17.296 -0.4888  0.0388  0.7807
  842MPD2    H512434   2.630   3.417  17.312 -1.5977 -1.3293  1.3752
  842MPD2    N112435   2.450   3.812  16.959  0.1481 -0.1133 -0.2895
  842MPD2    H712436   2.489   3.894  16.913  1.7716 -1.2293 -0.9040
  843MPD2     C12437   0.112   4.642   0.114  0.3089 -0.5368  0.5207
  843MPD2    C112438   0.144   4.626   0.247 -0.5358  0.4749  0.6259
  843MPD2    C212439   0.185   4.733   0.319  0.1620 -0.0739 -0.4251
  843MPD2    C312440   0.194   0.121   0.269 -1.0946 -0.2714  0.3526
  843MPD2    C412441   0.165   0.133   0.134  1.3567 -0.0782  0.1662
  843MPD2    C512442   0.133   0.018   0.063  0.6779  1.0068 -0.5688
  843MPD2     H12443   0.218   4.714   0.420  0.0620 -3.2049 -0.9725
  843MPD2    H112444   0.183   0.228   0.084 -0.1628  0.8152  1.3404
  843MPD2    H212445   0.081   4.555   0.057  2.4704 -1.5122  0.8608
  843MPD2    H312446   0.119   0.032  17.717  2.2217  0.1621 -0.8838
  843MPD2     N12447   0.247   0.230   0.353  0.3425 -0.1636 -0.0344
  843MPD2    H512448   0.275   0.204   0.447 -1.2981  0.3361  0.6031
  843MPD2    N112449   0.138   4.501   0.304 -0.5211 -0.1288  0.0298
  843MPD2    H712450   0.104   4.429   0.241 -1.4189  0.0739  0.2751
  844MPD2     C12451   2.842   2.981  16.632  0.6852  0.2957  0.7248
  844MPD2    C112452   2.904   2.984  16.507 -0.8988 -0.2228 -0.0799
  844MPD2    C212453   2.985   3.097  16.490 -0.3322  0.0749  0.4186
  844MPD2    C312454   3.026   3.182  16.592  0.2077  0.6868 -0.0357
  844MPD2    C412455   2.968   3.163  16.716  0.4624  0.6743 -0.4816
  844MPD2    C512456   2.867   3.071  16.727 -0.0081 -0.0567 -0.7777
  844MPD2     H12457   3.031   3.108  16.392 -3.3864 -1.6676 -1.2199
  844MPD2    H112458   2.996   3.219  16.804 -2.0107 -0.4289  1.0293
  844MPD2    H212459   2.766   2.908  16.657  1.9777 -1.0401  0.7633
  844MPD2    H312460   2.816   3.053  16.821  0.7659  0.7711 -0.1901
  844MPD2     N12461   3.139   3.267  16.587 -0.5999  0.0564  0.0484
  844MPD2    H512462   3.167   3.317  16.671 -0.1078  0.6178 -0.4550
  844MPD2    N112463   2.890   2.879  16.409  0.0858  0.1709 -0.3437
  844MPD2    H712464   2.932   2.899  16.318 -0.5128  0.6854 -0.5102
  845MPD2     C12465   3.543   4.186  16.479 -0.3497 -0.0156  0.3913
  845MPD2    C112466   3.595   4.120  16.585 -0.2792 -0.5126 -1.1876
  845MPD2    C212467   3.590   3.983  16.590 -0.4801 -0.5683 -0.3925
  845MPD2    C312468   3.531   3.908  16.486 -0.1160 -0.2102 -0.1372
  845MPD2    C412469   3.477   3.978  16.380 -0.6504  0.0373 -0.4434
  845MPD2    C512470   3.484   4.114  16.378  0.0521 -0.2895 -0.2973
  845MPD2     H12471   3.629   3.930  16.675 -0.1224 -0.9202 -0.7732
  845MPD2    H112472   3.424   3.932  16.298 -2.6685 -2.4981  2.2464
  845MPD2    H212473   3.535   4.294  16.480 -1.2118 -0.0817  1.3071
  845MPD2    H312474   3.453   4.166  16.288 -0.2881  0.6874  0.3898
  845MPD2     N12475   3.517   3.767  16.499 -0.7128 -0.1360 -0.1361
  845MPD2    H512476   3.526   3.735  16.595  0.3026 -1.3665 -0.6319
  845MPD2    N112477   3.647   4.198  16.696  0.3221  0.4660  0.2719
  845MPD2    H712478   3.636   4.298  16.686  1.9856  0.3419 -2.8062
  846MPD2     C12479   0.187   4.660  14.074  0.0705 -0.5852  0.5346
  846MPD2    C112480   0.066   4.677  14.011  0.1398  0.8159 -0.2141
  846MPD2    C212481   4.693   4.691  14.096 -0.0415  0.4980  0.0502
  846MPD2    C312482   4.708   4.705  14.229 -0.6924 -0.1855 -0.5150
  846MPD2    C412483   0.086   4.688  14.286 -0.0697 -0.1722  0.0870
  846MPD2    C512484   0.199   4.663  14.205 -0.6899 -0.2154 -0.2240
  846MPD2     H12485   4.594   4.695  14.053 -0.2850  1.5760  0.7284
  846MPD2    H112486   0.096   4.672  14.393  0.2312  1.9216  0.3652
  846MPD2    H212487   0.271   4.638  14.009 -2.4614  0.3058 -3.0708
  846MPD2    H312488   0.295   4.654  14.255 -0.3845  0.0528 -0.7700
  846MPD2     N12489   4.589   4.733  14.318 -0.2162  0.8058  0.8551
  846MPD2    H512490   4.498   4.715  14.277  1.0375  1.6458 -2.3013
  846MPD2    N112491   0.068   4.656  13.872  0.4717  0.2995 -0.0764
  846MPD2    H712492   0.157   4.643  13.826 -0.1696  0.8839 -1.4857
  847MPD2     C12493   0.687   1.138  14.963 -0.5552 -0.5911  0.7455
  847MPD2    C112494   0.626   1.073  15.064  0.1429 -1.1719 -1.0914
  847MPD2    C212495   0.669   0.944  15.089  0.2978  1.4890  0.2224
  847MPD2    C312496   0.773   0.881  15.024  0.2602 -0.0040  0.1151
  847MPD2    C412497   0.845   0.956  14.932 -0.1033 -0.1901  0.4291
  847MPD2    C512498   0.793   1.077  14.900  0.6240 -0.0442  0.0171
  847MPD2     H12499   0.621   0.887  15.168  1.4861  0.0988 -0.0634
  847MPD2    H112500   0.932   0.911  14.885  2.0980  4.1665  0.2956
  847MPD2    H212501   0.676   1.243  14.939 -2.3579 -0.8087  0.6439
  847MPD2    H312502   0.838   1.141  14.825  0.2726  1.8146  1.3941
  847MPD2     N12503   0.813   0.755  15.073  0.7461  0.2874  0.0714
  847MPD2    H512504   0.760   0.722  15.153  1.2739 -1.9261 -0.4814
  847MPD2    N112505   0.520   1.129  15.140  0.0941  0.3408 -0.1406
  847MPD2    H712506   0.475   1.072  15.210  0.7675  0.2855  0.2514
  848MPD2     C12507   3.088   3.642  16.242  0.2443  0.1317 -0.3452
  848MPD2    C112508   3.088   3.721  16.357  0.0661 -0.3942  0.2523
  848MPD2    C212509   3.118   3.849  16.348 -0.3177  0.3947  0.5733
  848MPD2    C312510   3.142   3.904  16.220 -0.0437 -0.5495 -0.1570
  848MPD2    C412511   3.145   3.823  16.108 -0.1784  0.1311  0.0252
  848MPD2    C512512   3.110   3.692  16.120 -0.1336  0.9082 -0.1699
  848MPD2     H12513   3.097   3.909  16.435 -1.7756  0.3119  0.2766
  848MPD2    H112514   3.168   3.861  16.009  0.9428  2.2323  1.0940
  848MPD2    H212515   3.060   3.538  16.249  0.8839  0.0198  0.5476
  848MPD2    H312516   3.115   3.624  16.036 -0.0217 -0.2739  0.7998
  848MPD2     N12517   3.132   4.043  16.193 -0.0180 -0.0241  0.1677
  848MPD2    H512518   3.134   4.072  16.095 -0.7918  0.7278  0.3704
  848MPD2    N112519   3.072   3.661  16.483  0.1506  0.4039  0.4084
  848MPD2    H712520   3.107   3.711  16.564 -0.8475  0.7884  0.6057
  849MPD2     C12521   1.990   3.089  14.496  0.0300 -0.1736 -0.4794
  849MPD2    C112522   2.079   3.165  14.413  0.1152  0.4541  0.7853
  849MPD2    C212523   2.212   3.183  14.449 -0.5853 -0.5750 -0.6289
  849MPD2    C312524   2.268   3.113  14.554 -0.5330 -0.3177 -0.0459
  849MPD2    C412525   2.184   3.047  14.640  0.4073 -0.0660 -0.5322
  849MPD2    C512526   2.052   3.031  14.605 -0.3066  0.3723 -0.5002
  849MPD2     H12527   2.270   3.243  14.380 -0.5931 -0.0360 -0.1653
  849MPD2    H112528   2.227   2.991  14.723  0.3207 -1.7126 -1.6059
  849MPD2    H212529   1.885   3.069  14.478  0.6355 -1.8285 -2.1332
  849MPD2    H312530   1.995   2.980  14.683 -1.2892 -0.1499 -1.5640
  849MPD2     N12531   2.407   3.124  14.574 -0.5451  0.7984 -0.4800
  849MPD2    H512532   2.453   3.159  14.490  0.5773 -0.3693 -0.3483
  849MPD2    N112533   2.041   3.240  14.307 -0.3062  0.4629  0.0903
  849MPD2    H712534   2.102   3.316  14.280 -0.5293  0.5600 -0.1362
  850MPD2     C12535   0.884   0.923  15.342  0.1222  0.1544 -0.2319
  850MPD2    C112536   0.773   0.993  15.383 -1.0022 -0.0838  0.4102
  850MPD2    C212537   0.775   1.127  15.369  0.3540 -0.0021  0.7705
  850MPD2    C312538   0.877   1.197  15.303  0.6586 -0.6103 -0.7689
  850MPD2    C412539   0.980   1.120  15.248  0.6597 -0.1893 -0.5558
  850MPD2    C512540   0.992   0.987  15.280  0.0173  0.2252  0.1868
  850MPD2     H12541   0.693   1.190  15.403 -0.0919 -0.4616  0.5562
  850MPD2    H112542   1.070   1.175  15.222  1.0454 -0.4748  0.1666
  850MPD2    H212543   0.883   0.817  15.360 -1.7297  0.0728 -0.8122
  850MPD2    H312544   1.079   0.931  15.248 -0.4686 -0.3216 -0.1796
  850MPD2     N12545   0.886   1.336  15.292 -1.2812 -0.7857  0.3645
  850MPD2    H512546   0.963   1.371  15.235 -0.5164 -0.6442  1.4990
  850MPD2    N112547   0.667   0.913  15.433  0.4965  0.8055  1.0147
  850MPD2    H712548   0.680   0.812  15.439  0.1227  0.7081  0.1309
  851MPD2     C12549   0.371   0.244  15.727 -0.2870 -1.0140 -0.9170
  851MPD2    C112550   0.280   0.325  15.680 -0.5870  0.0424  0.4974
  851MPD2    C212551   0.153   0.276  15.656 -0.1094 -0.3625  0.2381
  851MPD2    C312552   0.129   0.143  15.661 -0.4218 -0.9569  0.1006
  851MPD2    C412553   0.228   0.057  15.702  0.2793  0.3026 -0.8492
  851MPD2    C512554   0.355   0.106  15.733 -0.1798  0.5271 -0.5984
  851MPD2     H12555   0.078   0.348  15.627  0.1229 -0.1091  0.2579
  851MPD2    H112556   0.213   4.692  15.713 -2.5231  0.8799  0.9123
  851MPD2    H212557   0.473   0.277  15.748  0.2059 -2.1655 -1.5052
  851MPD2    H312558   0.443   0.047  15.757 -0.0141  1.6991  1.6629
  851MPD2     N12559   4.737   0.098  15.644  0.0965  0.1612 -0.2784
  851MPD2    H512560   4.663   0.164  15.623  0.5935  0.1882 -1.9324
  851MPD2    N112561   0.295   0.465  15.662  0.2842  0.7335  0.1593
  851MPD2    H712562   0.210   0.521  15.656  0.4632  1.1307  1.2821
  852MPD2     C12563   0.800   4.254   9.796 -0.0089 -0.0890  0.1062
  852MPD2    C112564   0.865   4.296   9.908 -0.8306  0.0010  0.4204
  852MPD2    C212565   0.896   4.427   9.925  0.7833  0.2622  0.5802
  852MPD2    C312566   0.851   4.516   9.822  0.5669 -0.2447  0.2240
  852MPD2    C412567   0.781   4.481   9.709  0.1625 -0.3491 -0.6262
  852MPD2    C512568   0.761   4.343   9.697 -0.4921  0.3497 -0.3509
  852MPD2     H12569   0.954   4.462  10.009 -2.3302  0.9205  2.4476
  852MPD2    H112570   0.744   4.547   9.632  1.3157  2.2232  1.0152
  852MPD2    H212571   0.766   4.151   9.791  1.4378 -0.6495  1.6531
  852MPD2    H312572   0.697   4.316   9.613  0.5144  0.0964 -1.0334
  852MPD2     N12573   0.876   4.652   9.853 -0.0028  0.6785  0.3490
  852MPD2    H512574   0.952   4.678   9.915  1.3169  0.2313 -1.0711
  852MPD2    N112575   0.902   4.210  10.013 -0.2202  0.2891  0.0459
  852MPD2    H712576   0.931   4.263  10.095  0.6025  2.0927 -1.4143
  853MPD2     C12577   2.104   3.731  12.533  0.0994  0.1548 -0.0001
  853MPD2    C112578   1.982   3.733  12.474 -0.4401 -0.0617  0.5364
  853MPD2    C212579   1.967   3.696  12.339  0.2701 -0.7923 -0.2808
  853MPD2    C312580   2.075   3.665  12.261 -0.3084  0.6008 -0.0964
  853MPD2    C412581   2.202   3.663  12.321  0.7074 -0.0864 -0.1305
  853MPD2    C512582   2.212   3.692  12.456  0.7040 -0.4604  0.0446
  853MPD2     H12583   1.868   3.685  12.297 -0.5232  2.2058  0.7600
  853MPD2    H112584   2.293   3.640  12.265  1.9674  1.9281  1.1037
  853MPD2    H212585   2.119   3.749  12.639  4.2706 -1.5274 -0.2821
  853MPD2    H312586   2.307   3.693  12.507  1.2495  0.9769 -0.9996
  853MPD2     N12587   2.075   3.622  12.127  0.2657 -0.4192 -0.2974
  853MPD2    H512588   2.163   3.604  12.079  0.6094  0.2413  0.0928
  853MPD2    N112589   1.874   3.767  12.562  0.0827  0.4688 -0.3953
  853MPD2    H712590   1.893   3.780  12.661 -0.8320 -0.3487 -0.1111
  854MPD2     C12591   3.392   3.985  12.991  0.1819 -0.3078 -0.0971
  854MPD2    C112592   3.461   4.104  12.998  0.5760  0.3514 -0.0183
  854MPD2    C212593   3.582   4.107  13.069 -1.1718 -0.2307  0.1690
  854MPD2    C312594   3.629   3.992  13.138 -0.5665  0.0069 -0.2965
  854MPD2    C412595   3.564   3.871  13.129 -0.5851  0.0812  0.2084
  854MPD2    C512596   3.448   3.875  13.055 -1.0198  0.4518 -0.4261
  854MPD2     H12597   3.640   4.199  13.076  1.4501 -1.9256  0.8386
  854MPD2    H112598   3.592   3.780  13.182 -1.0021  0.7371  1.5174
  854MPD2    H212599   3.299   3.977  12.935  0.8031  0.7071 -1.2763
  854MPD2    H312600   3.392   3.782  13.053 -0.3794  0.1242 -2.4699
  854MPD2     N12601   3.754   3.991  13.197 -0.0695 -0.5103 -0.0143
  854MPD2    H512602   3.797   3.900  13.211  0.9076  0.1989  1.6155
  854MPD2    N112603   3.412   4.204  12.910 -0.2826  0.1955  0.4179
  854MPD2    H712604   3.316   4.193  12.879  0.1858  1.4318 -1.4490
  855MPD2     C12605   3.723   3.942  13.926 -0.2914  0.4087  0.0629
  855MPD2    C112606   3.833   3.878  13.870  0.0996  0.2743 -1.0552
  855MPD2    C212607   3.918   3.958  13.798 -1.0181 -0.3865 -0.5581
  855MPD2    C312608   3.893   4.088  13.766 -0.0181 -0.2922  0.2423
  855MPD2    C412609   3.782   4.146  13.818  0.5859 -0.1490 -0.1763
  855MPD2    C512610   3.697   4.072  13.893  0.2630 -0.1458 -0.0888
  855MPD2     H12611   4.008   3.905  13.767  0.2352  1.9556 -0.8978
  855MPD2    H112612   3.751   4.249  13.806 -0.1506 -0.3029  0.4047
  855MPD2    H212613   3.656   3.886  13.991  1.0583  2.1033  2.9364
  855MPD2    H312614   3.614   4.116  13.947  0.7310  1.0556 -0.3501
  855MPD2     N12615   3.965   4.152  13.666  0.1700 -0.2259 -1.1709
  855MPD2    H512616   3.913   4.225  13.618 -1.4479  0.8099  2.2091
  855MPD2    N112617   3.869   3.743  13.899  0.2518 -0.8635  0.4052
  855MPD2    H712618   3.956   3.706  13.862 -0.0713  0.6552 -1.9328
  856MPD2     C12619   1.390   4.347  14.542 -0.5345 -0.7461  0.1677
  856MPD2    C112620   1.439   4.413  14.430 -0.2706 -0.1126 -0.1367
  856MPD2    C212621   1.348   4.451  14.334  0.4097  0.1127  0.0721
  856MPD2    C312622   1.210   4.422  14.344  0.3436 -0.4951  0.0170
  856MPD2    C412623   1.161   4.364  14.459 -1.1143 -0.5505 -0.4041
  856MPD2    C512624   1.255   4.329  14.556  1.3835  0.4569 -0.1588
  856MPD2     H12625   1.389   4.502  14.248 -0.4922 -0.1946 -0.5370
  856MPD2    H112626   1.055   4.344  14.473 -1.0343 -0.5177  0.2442
  856MPD2    H212627   1.458   4.309  14.617 -1.2597 -1.3662  0.5077
  856MPD2    H312628   1.228   4.286  14.652 -1.4021 -2.1500 -2.1251
  856MPD2     N12629   1.119   4.464  14.248  0.2163 -0.2366 -0.3873
  856MPD2    H512630   1.019   4.454  14.262 -0.0866 -1.6812 -3.4631
  856MPD2    N112631   1.579   4.469  14.426 -0.4567 -0.7411  0.2498
  856MPD2    H712632   1.608   4.525  14.347 -0.3207 -1.2421 -0.0567
  857MPD2     C12633   2.674   1.817  12.986  0.4277  0.3237  0.1000
  857MPD2    C112634   2.811   1.842  12.992 -0.1648 -0.1791  0.3161
  857MPD2    C212635   2.858   1.970  12.969 -0.3585 -0.2420  0.9978
  857MPD2    C312636   2.773   2.081  12.954 -0.1178  0.5242  0.2468
  857MPD2    C412637   2.640   2.057  12.960 -0.0766  0.6230 -0.1613
  857MPD2    C512638   2.597   1.927  12.975  0.0098  0.3607 -0.9483
  857MPD2     H12639   2.964   1.986  12.955 -0.9388  2.0628 -0.6910
  857MPD2    H112640   2.559   2.128  12.963  1.1242  1.9170  1.3543
  857MPD2    H212641   2.631   1.718  13.000  1.5368 -0.0488  0.9052
  857MPD2    H312642   2.490   1.913  12.987  0.5511 -1.3176  1.9144
  857MPD2     N12643   2.829   2.208  12.932 -0.4875  0.2949  0.3633
  857MPD2    H512644   2.928   2.215  12.953 -0.6336 -0.7987  1.3876
  857MPD2    N112645   2.890   1.728  12.991 -0.3121  0.0321 -0.5681
  857MPD2    H712646   2.833   1.645  12.977 -1.0492  0.0156  2.7133
  858MPD2     C12647   3.609   1.535  16.779  0.1142 -0.2001 -0.4080
  858MPD2    C112648   3.584   1.400  16.800 -0.4266 -0.1557  0.3719
  858MPD2    C212649   3.595   1.355  16.931 -0.1267 -0.5729  0.0159
  858MPD2    C312650   3.623   1.445  17.038 -0.5619 -0.4055 -0.2743
  858MPD2    C412651   3.649   1.574  17.013  0.0678 -0.6488 -0.3668
  858MPD2    C512652   3.643   1.623  16.882  0.1723 -0.2341 -0.1769
  858MPD2     H12653   3.557   1.254  16.947 -1.5477  0.0941  0.8258
  858MPD2    H112654   3.654   1.643  17.097 -0.7103  0.0054 -0.8625
  858MPD2    H212655   3.609   1.580  16.680 -3.5031 -0.8509 -0.7237
  858MPD2    H312656   3.659   1.729  16.869  1.2927 -0.6280 -2.0527
  858MPD2     N12657   3.622   1.394  17.168  0.1518  0.2587 -0.2232
  858MPD2    H512658   3.633   1.467  17.237 -0.1537 -1.3797  1.5581
  858MPD2    N112659   3.529   1.320  16.694 -0.2123  0.0709  1.2026
  858MPD2    H712660   3.505   1.381  16.617  1.5274  1.0232  1.4157
  859MPD2     C12661   2.258   3.346  15.370  0.0152 -0.3953 -0.1667
  859MPD2    C112662   2.144   3.421  15.370 -0.0372 -0.6756  0.2087
  859MPD2    C212663   2.025   3.368  15.316  0.0826 -0.5382  0.7181
  859MPD2    C312664   2.020   3.243  15.254  0.1769  0.2306  0.0527
  859MPD2    C412665   2.142   3.177  15.244  0.5698 -0.2787  0.1979
  859MPD2    C512666   2.254   3.222  15.305 -0.0189  0.2312 -0.9388
  859MPD2     H12667   1.937   3.431  15.319 -0.3678 -1.1585  0.6411
  859MPD2    H112668   2.141   3.090  15.180  0.1588  0.9739 -1.4838
  859MPD2    H212669   2.349   3.380  15.418  0.2947  1.5792 -2.0860
  859MPD2    H312670   2.346   3.165  15.306  0.4633  1.0156 -0.1880
  859MPD2     N12671   1.906   3.197  15.184  0.6700 -0.0534 -0.0425
  859MPD2    H512672   1.908   3.108  15.136  1.6798  0.0327 -0.1693
  859MPD2    N112673   2.155   3.548  15.420  0.0440 -0.4411  0.2815
  859MPD2    H712674   2.252   3.566  15.443  0.0820  0.5356 -0.6549
  860MPD2     C12675   4.614   3.186  11.917  0.4576  0.7105 -0.1201
  860MPD2    C112676   4.671   3.286  11.993 -0.3872  0.0098  0.6626
  860MPD2    C212677   4.590   3.347  12.084 -0.2822  0.2240  0.6677
  860MPD2    C312678   4.456   3.312  12.094 -0.2885 -0.2569  0.2860
  860MPD2    C412679   4.398   3.215  12.007  0.7607  0.0843 -0.3344
  860MPD2    C512680   4.481   3.159  11.920 -0.4634  0.3324 -0.0631
  860MPD2     H12681   4.616   3.439  12.135  0.5832  0.2291  0.2282
  860MPD2    H112682   4.293   3.188  12.012  1.4259 -2.8623 -1.9297
  860MPD2    H212683   4.674   3.130  11.847 -3.1046 -1.8700 -1.0993
  860MPD2    H312684   4.440   3.083  11.855 -0.3119  0.8748 -0.7915
  860MPD2     N12685   4.378   3.393  12.181 -0.5325 -0.7070  0.3987
  860MPD2    H512686   4.429   3.456  12.242  2.4634 -2.3001 -0.4654
  860MPD2    N112687   0.064   3.328  11.993  0.7600 -0.4360  0.3500
  860MPD2    H712688   0.090   3.409  12.048 -0.9240  0.5353 -0.2911
  861MPD2     C12689   3.899   1.368  11.258 -0.0429  0.1333 -0.4605
  861MPD2    C112690   3.796   1.364  11.349  0.1990  0.6055 -0.3604
  861MPD2    C212691   3.667   1.393  11.308  0.3638  0.0675  0.0627
  861MPD2    C312692   3.643   1.432  11.175 -0.2153 -0.2687 -0.6454
  861MPD2    C412693   3.753   1.428  11.088 -0.1346  0.2318  0.2965
  861MPD2    C512694   3.879   1.393  11.123 -0.4585  0.2268 -0.2253
  861MPD2     H12695   3.590   1.381  11.384 -0.9821  1.1260 -1.1397
  861MPD2    H112696   3.740   1.451  10.982 -1.7063 -0.2894  0.3687
  861MPD2    H212697   4.000   1.340  11.288 -0.0109 -0.8618 -1.5202
  861MPD2    H312698   3.958   1.402  11.050 -1.7493 -0.2237 -1.6898
  861MPD2     N12699   3.520   1.494  11.130 -0.1016  0.2487  0.6460
  861MPD2    H512700   3.515   1.501  11.029  0.9204 -0.1678  0.5662
  861MPD2    N112701   3.811   1.317  11.475 -0.4842  0.3412 -0.2015
  861MPD2    H712702   3.722   1.297  11.519  0.4315 -3.8352 -0.2650
  862MPD2     C12703   3.144   1.763  10.630 -0.7294  0.0675 -0.1909
  862MPD2    C112704   3.201   1.679  10.717  0.2690 -0.4228 -1.1196
  862MPD2    C212705   3.197   1.546  10.698  0.2725 -0.0391 -0.2956
  862MPD2    C312706   3.129   1.489  10.593 -1.1628  0.0100 -0.8619
  862MPD2    C412707   3.058   1.576  10.508 -0.2954 -0.6562  0.0954
  862MPD2    C512708   3.063   1.709  10.528 -0.0530 -0.4397  0.0537
  862MPD2     H12709   3.246   1.478  10.766 -0.4301 -0.3949 -0.1384
  862MPD2    H112710   3.002   1.545  10.421 -0.4246 -0.3955  0.0850
  862MPD2    H212711   3.145   1.871  10.640  0.9877  0.0011  0.2916
  862MPD2    H312712   3.017   1.785  10.466 -1.0630 -1.7439 -0.7688
  862MPD2     N12713   3.129   1.349  10.568 -0.0712 -0.3781  0.2750
  862MPD2    H512714   3.070   1.314  10.493 -2.0982  3.2944  0.1630
  862MPD2    N112715   3.256   1.717  10.834 -0.3734  0.0204 -0.0682
  862MPD2    H712716   3.274   1.641  10.899 -1.8186  0.3616  0.7199
  863MPD2     C12717   1.818   0.007  16.682 -0.3907  1.0523 -0.1687
  863MPD2    C112718   1.806   0.134  16.732 -0.4213  0.9207 -0.0246
  863MPD2    C212719   1.876   0.170  16.844 -0.3314 -0.3297  0.3788
  863MPD2    C312720   1.984   0.085  16.881  0.3733  1.0680  0.0999
  863MPD2    C412721   2.001   4.704  16.824  0.0325  0.3590  0.8988
  863MPD2    C512722   1.919   4.665  16.720  0.2297 -0.3028 -0.2699
  863MPD2     H12723   1.852   0.263  16.894  2.0644 -0.0401  1.0260
  863MPD2    H112724   2.081   4.638  16.855  1.0280  1.2382  0.2352
  863MPD2    H212725   1.745   4.705  16.615  0.1561 -0.2053  0.0366
  863MPD2    H312726   1.915   4.561  16.687 -0.7661 -0.1813 -0.5249
  863MPD2     N12727   2.068   0.110  16.991 -0.0021 -0.6886 -0.1756
  863MPD2    H512728   2.145   0.045  17.005  0.5300 -0.1071 -0.4094
  863MPD2    N112729   1.703   0.209  16.670  0.8998 -0.0283  0.5776
  863MPD2    H712730   1.662   0.173  16.585  1.7417  0.4328 -0.0183
  864MPD2     C12731   2.193   1.223  17.598  0.1025 -0.6531 -0.1626
  864MPD2    C112732   2.246   1.214  17.476  0.6327  0.4104 -0.0944
  864MPD2    C212733   2.342   1.303  17.430 -0.0681 -0.2084  0.1891
  864MPD2    C312734   2.378   1.414  17.508 -0.6183 -0.2991 -0.0916
  864MPD2    C412735   2.329   1.418  17.635 -0.1218 -0.5972 -0.4079
  864MPD2    C512736   2.246   1.320  17.684  0.4224 -0.3384  0.2054
  864MPD2     H12737   2.385   1.288  17.331 -2.0210 -0.4156 -0.6352
  864MPD2    H112738   2.373   1.487  17.707 -0.7621 -0.5524 -0.0587
  864MPD2    H212739   2.114   1.158  17.634 -0.6124  0.8809  1.0306
  864MPD2    H312740   2.206   1.347   0.021  2.9389  1.9670  0.5859
  864MPD2     N12741   2.468   1.511  17.458 -0.1064 -0.0913  0.2296
  864MPD2    H512742   2.475   1.601  17.504  0.4421  1.5518 -3.0825
  864MPD2    N112743   2.209   1.095  17.408 -0.7607 -0.3229  0.0915
  864MPD2    H712744   2.143   1.028  17.446 -0.2922 -0.5519  0.5054
  865MPD2     C12745   2.612   2.018  16.648  0.6862  0.2346 -0.8737
  865MPD2    C112746   2.544   1.905  16.695 -0.2727 -0.9342  0.5527
  865MPD2    C212747   2.525   1.882  16.831 -0.2652  0.3724  0.3197
  865MPD2    C312748   2.567   1.982  16.920 -0.0698 -0.6990  0.6131
  865MPD2    C412749   2.630   2.096  16.873 -0.1527  0.4675  0.1779
  865MPD2    C512750   2.646   2.111  16.740 -0.2662 -0.6697  0.2041
  865MPD2     H12751   2.476   1.792  16.866  0.9035  0.6909  2.7123
  865MPD2    H112752   2.672   2.170  16.941 -1.4756 -0.1824  1.7105
  865MPD2    H212753   2.618   2.046  16.544 -0.7896  2.4850 -0.3658
  865MPD2    H312754   2.687   2.204  16.702  0.5180 -0.5593  1.3365
  865MPD2     N12755   2.579   1.958  17.058 -0.4944 -0.5709 -0.6353
  865MPD2    H512756   2.633   2.024  17.113 -1.4741  0.6918 -1.1893
  865MPD2    N112757   2.529   1.806  16.595  0.0090  0.0952 -0.3918
  865MPD2    H712758   2.563   1.833  16.503  1.6770 -0.8939 -0.0681
  866MPD2     C12759   4.490   1.696  11.714  0.8172 -0.3244  0.6305
  866MPD2    C112760   4.450   1.644  11.593 -0.4696  0.0390  0.4821
  866MPD2    C212761   4.317   1.629  11.566 -0.1443  0.6411 -0.1725
  866MPD2    C312762   4.215   1.667  11.656 -0.5136  0.8063 -0.1403
  866MPD2    C412763   4.255   1.705  11.780 -0.5332  0.1502  0.1789
  866MPD2    C512764   4.390   1.719  11.809 -0.2751  0.0064  0.0518
  866MPD2     H12765   4.297   1.600  11.463  0.6116  0.4588 -0.2650
  866MPD2    H112766   4.186   1.726  11.861 -0.3863  1.4748 -0.0246
  866MPD2    H212767   4.592   1.679  11.749  2.0382  1.5631 -1.9795
  866MPD2    H312768   4.423   1.735  11.911  1.5136  0.1208 -0.5390
  866MPD2     N12769   4.075   1.658  11.623  0.0843 -0.0777  0.2698
  866MPD2    H512770   4.009   1.666  11.700 -2.3820 -3.3554 -1.4594
  866MPD2    N112771   4.551   1.593  11.509 -0.0258  0.6848 -0.1657
  866MPD2    H712772   4.646   1.626  11.520  0.1902  0.2017 -0.6147
  867MPD2     C12773   1.347   1.620  16.705  0.1555  0.2876 -0.1835
  867MPD2    C112774   1.423   1.590  16.813  0.0926 -0.8899  0.2469
  867MPD2    C212775   1.485   1.691  16.886  0.3322  0.1837  0.0006
  867MPD2    C312776   1.481   1.827  16.855 -0.6874 -0.6132 -0.5529
  867MPD2    C412777   1.393   1.854  16.758 -0.2243  0.7622  0.7917
  867MPD2    C512778   1.323   1.760  16.682 -0.3069  0.3566  0.4565
  867MPD2     H12779   1.552   1.660  16.966 -0.5549 -1.0751  0.2427
  867MPD2    H112780   1.361   1.957  16.750 -1.4409  0.2180 -1.1660
  867MPD2    H212781   1.305   1.543  16.641  2.7806  1.5040 -3.3639
  867MPD2    H312782   1.255   1.794  16.606 -0.3867  0.6831  0.6721
  867MPD2     N12783   1.541   1.937  16.931  0.3830  0.0875 -0.0230
  867MPD2    H512784   1.523   2.033  16.904  2.7370  0.6812  0.4741
  867MPD2    N112785   1.456   1.451  16.819 -0.7026 -0.2479  0.4387
  867MPD2    H712786   1.413   1.396  16.745 -0.9534 -1.5784  1.5772
  868MPD2     C12787   2.845   0.633  12.976 -0.4091 -0.4850  0.3228
  868MPD2    C112788   2.899   0.546  13.069 -0.5752  0.3184 -0.1508
  868MPD2    C212789   2.838   0.526  13.191  0.1194 -0.4948  0.1829
  868MPD2    C312790   2.724   0.594  13.219  0.0898 -1.3800 -0.1784
  868MPD2    C412791   2.663   0.670  13.119  0.1254  0.4650 -0.0421
  868MPD2    C512792   2.722   0.684  12.996 -0.3670 -0.9066 -0.1577
  868MPD2     H12793   2.882   0.462  13.266 -1.8222 -2.5635 -0.4503
  868MPD2    H112794   2.563   0.709  13.131  0.9252  1.9846  1.5923
  868MPD2    H212795   2.893   0.650  12.881 -2.4387 -0.3996 -0.6812
  868MPD2    H312796   2.675   0.745  12.920 -0.6399  0.5557  1.1662
  868MPD2     N12797   2.672   0.588  13.349  0.3530 -0.8864 -0.7166
  868MPD2    H512798   2.723   0.541  13.423 -0.6283 -1.1439 -0.2033
  868MPD2    N112799   3.024   0.497  13.038 -0.2682 -0.0980 -0.0222
  868MPD2    H712800   3.069   0.534  12.955 -1.9765  1.7814 -0.1123
  869MPD2     C12801   4.344   2.958   0.650  0.8788  0.3234 -0.0997
  869MPD2    C112802   4.361   3.094   0.632  0.9091  0.5971 -0.6123
  869MPD2    C212803   4.485   3.153   0.648  0.5859 -0.5007  0.2361
  869MPD2    C312804   4.586   3.083   0.724 -1.1037 -0.0068  0.3012
  869MPD2    C412805   4.570   2.954   0.757 -0.0650  0.5126  0.4882
  869MPD2    C512806   4.454   2.892   0.709 -0.1960 -0.3470  0.1817
  869MPD2     H12807   4.508   3.258   0.636 -0.1432 -0.4102 -0.3924
  869MPD2    H112808   4.638   2.895   0.817 -1.7744  1.1989  3.1083
  869MPD2    H212809   4.250   2.909   0.630  1.0366 -0.2052  0.4337
  869MPD2    H312810   4.441   2.785   0.728 -0.6010 -0.2615  0.4004
  869MPD2     N12811   4.704   3.137   0.778 -0.0052 -0.4217  0.4651
  869MPD2    H512812   0.001   3.084   0.856  0.4345  0.2760  0.7224
  869MPD2    N112813   4.253   3.170   0.582  0.1712 -0.1315 -0.2751
  869MPD2    H712814   4.162   3.127   0.579 -0.4339  1.1982 -1.0207
  870MPD2     C12815   4.533   1.649   1.835  0.4107  0.5590 -0.0681
  870MPD2    C112816   4.504   1.630   1.705 -0.3683 -0.2292  0.1524
  870MPD2    C212817   4.420   1.715   1.641  0.1340  0.1704 -0.3445
  870MPD2    C312818   4.366   1.826   1.706  0.2517  0.2549 -0.3444
  870MPD2    C412819   4.413   1.859   1.834 -0.1829 -0.4664  0.4449
  870MPD2    C512820   4.496   1.764   1.894  0.1057 -0.5016 -0.4955
  870MPD2     H12821   4.380   1.685   1.545 -1.5453 -0.1792  0.4582
  870MPD2    H112822   4.379   1.940   1.898  1.1926 -0.7482  1.5447
  870MPD2    H212823   4.587   1.579   1.898 -1.2193  0.0966  0.8258
  870MPD2    H312824   4.530   1.780   1.996  0.2208 -1.0879 -0.4419
  870MPD2     N12825   4.264   1.907   1.647 -0.0466 -0.1229  0.1749
  870MPD2    H512826   4.220   1.976   1.707  1.5276  0.2826  0.8562
  870MPD2    N112827   4.547   1.510   1.649 -0.3541  0.0892  0.2482
  870MPD2    H712828   4.612   1.455   1.705 -1.3199 -0.9742  0.3140
  871MPD2     C12829   0.197   1.783  16.484  1.2334 -0.3232 -0.5810
  871MPD2    C112830   0.147   1.767  16.612 -0.0315 -0.3672  0.2149
  871MPD2    C212831   0.076   1.648  16.643  0.0599 -0.2015  0.2750
  871MPD2    C312832   0.053   1.548  16.550  0.4303 -0.0940  0.3133
  871MPD2    C412833   0.101   1.572  16.422 -0.7147  0.8170 -0.6105
  871MPD2    C512834   0.174   1.683  16.392 -1.0330  0.2130  0.3883
  871MPD2     H12835   0.039   1.624  16.742 -1.2842  0.1128 -0.1504
  871MPD2    H112836   0.085   1.498  16.344  0.6007  0.6257 -0.7103
  871MPD2    H212837   0.238   1.880  16.459  0.8765 -0.2676 -0.9359
  871MPD2    H312838   0.211   1.703  16.292  0.3915 -0.0183  0.8720
  871MPD2     N12839   4.721   1.428  16.577  0.3395 -0.0615 -0.1928
  871MPD2    H512840   4.730   1.354  16.508 -0.1985 -0.9455  0.6858
  871MPD2    N112841   0.168   1.865  16.707 -0.5997  0.7526 -0.0969
  871MPD2    H712842   0.215   1.947  16.670 -1.1618  0.9339 -0.4107
  872MPD2     C12843   1.181   3.713  14.516 -0.5396  0.0058 -0.0605
  872MPD2    C112844   1.134   3.837  14.484 -0.4016 -0.5634  0.0898
  872MPD2    C212845   1.012   3.880  14.534  0.5101 -0.3935  0.2161
  872MPD2    C312846   0.938   3.794  14.608  0.5438  0.2037  0.2814
  872MPD2    C412847   0.981   3.668  14.646  0.6812  0.2508  0.3560
  872MPD2    C512848   1.105   3.630  14.604 -0.2131 -0.1376  0.3047
  872MPD2     H12849   0.969   3.970  14.493  0.4343 -1.3275 -1.7885
  872MPD2    H112850   0.923   3.602  14.710  2.1519 -0.2033  1.2175
  872MPD2    H212851   1.279   3.673  14.494  0.1614  0.7509  1.6724
  872MPD2    H312852   1.138   3.528  14.623  2.4776  0.8161  0.8063
  872MPD2     N12853   0.820   3.834  14.672 -0.2986 -0.2478 -0.2235
  872MPD2    H512854   0.790   3.771  14.747  2.3881 -1.8796 -0.5043
  872MPD2    N112855   1.205   3.921  14.392  0.3793  0.1726 -0.9579
  872MPD2    H712856   1.164   4.005  14.350 -0.6214 -0.1003 -0.5229
  873MPD2     C12857   2.729   4.339   1.049 -0.1814 -0.2670  0.1734
  873MPD2    C112858   2.764   4.212   1.076  0.3487 -0.2049 -0.1534
  873MPD2    C212859   2.704   4.106   1.004 -0.7235  0.3229  0.1206
  873MPD2    C312860   2.606   4.138   0.906 -0.0977 -0.2324 -0.8516
  873MPD2    C412861   2.590   4.271   0.871 -0.8379 -0.1410  0.2958
  873MPD2    C512862   2.653   4.374   0.944 -0.4787  0.3420  0.2558
  873MPD2     H12863   2.729   4.004   1.030 -2.2437 -0.3454 -1.0443
  873MPD2    H112864   2.520   4.295   0.792  0.6450  3.1499 -0.0168
  873MPD2    H212865   2.777   4.420   1.103  0.2129 -1.1004  1.0792
  873MPD2    H312866   2.644   4.479   0.919 -0.0670  0.3387  0.0952
  873MPD2     N12867   2.545   4.044   0.820  1.0171 -0.4501  0.3360
  873MPD2    H512868   2.493   4.080   0.741 -0.1255  0.3223  1.4495
  873MPD2    N112869   2.844   4.202   1.194  0.7450  0.4344 -0.3493
  873MPD2    H712870   2.863   4.284   1.251  2.6874  0.4818 -1.0598
  874MPD2     C12871   2.322   4.301  16.290 -0.2911  0.8662 -0.9365
  874MPD2    C112872   2.407   4.234  16.378  0.2305  0.7345 -0.3247
  874MPD2    C212873   2.546   4.257  16.359  0.7132  0.8092  0.4258
  874MPD2    C312874   2.594   4.335  16.253 -0.8736  0.0784 -0.7779
  874MPD2    C412875   2.505   4.390  16.166  0.2918  0.0186 -0.1450
  874MPD2    C512876   2.369   4.379  16.186 -0.0405 -0.1605  0.0277
  874MPD2     H12877   2.615   4.200  16.420  0.8082 -1.0482 -1.4181
  874MPD2    H112878   2.534   4.444  16.076 -0.4613 -0.9444 -0.9687
  874MPD2    H212879   2.216   4.302  16.315  0.4088 -0.2639  2.0566
  874MPD2    H312880   2.297   4.433  16.126  1.0644 -0.4145 -1.5467
  874MPD2     N12881   2.732   4.341  16.220 -0.5998 -0.4004 -0.7042
  874MPD2    H512882   2.794   4.286  16.279 -1.9164 -0.3844  0.6941
  874MPD2    N112883   2.350   4.159  16.484 -0.3810  0.0938 -0.1165
  874MPD2    H712884   2.251   4.141  16.476 -0.7645  1.0840  2.4565
  875MPD2     C12885   3.824   2.275  14.826  0.0828  0.1331 -0.2723
  875MPD2    C112886   3.733   2.372  14.782  0.1129  0.1969 -0.1035
  875MPD2    C212887   3.709   2.479  14.868 -0.8954  0.2887 -0.1060
  875MPD2    C312888   3.778   2.490  14.981 -0.1575 -0.8894  0.3838
  875MPD2    C412889   3.859   2.395  15.022 -0.3540 -0.6580  0.8399
  875MPD2    C512890   3.896   2.296  14.939 -0.6570  0.1412  0.3009
  875MPD2     H12891   3.629   2.550  14.851  1.6361  3.5586  1.5812
  875MPD2    H112892   3.924   2.412  15.107  1.3605  0.9951 -0.7935
  875MPD2    H212893   3.851   2.188  14.767 -0.3615 -0.4898  0.4394
  875MPD2    H312894   3.970   2.227  14.977  0.4677  1.1317 -0.1033
  875MPD2     N12895   3.760   2.595  15.077  0.5452 -0.0239  0.1306
  875MPD2    H512896   3.801   2.577  15.168 -3.2531 -0.3259  1.7551
  875MPD2    N112897   3.647   2.352  14.672 -0.3698  0.3571  0.0928
  875MPD2    H712898   3.584   2.429  14.649  0.6030  1.3502  0.7121
  876MPD2     C12899   2.257   3.888  16.260 -1.0503 -0.1142  0.3260
  876MPD2    C112900   2.382   3.870  16.203 -0.3386 -0.6703 -0.4673
  876MPD2    C212901   2.454   3.752  16.235 -0.0197  0.2682  0.1503
  876MPD2    C312902   2.401   3.652  16.316 -0.0775 -0.3944 -0.2506
  876MPD2    C412903   2.272   3.666  16.373 -0.3474 -0.3521 -0.1650
  876MPD2    C512904   2.203   3.785  16.341 -0.9798 -0.4436  0.1040
  876MPD2     H12905   2.549   3.736  16.185  0.4429  1.1064  0.7612
  876MPD2    H112906   2.231   3.592  16.440 -0.2959  1.8284  2.2737
  876MPD2    H212907   2.200   3.979  16.248  0.9092  0.8740 -1.6635
  876MPD2    H312908   2.102   3.801  16.378 -0.2918 -1.6479  2.5147
  876MPD2     N12909   2.479   3.538  16.336  0.3017 -0.1864 -0.2431
  876MPD2    H512910   2.566   3.537  16.283  0.8185 -1.9469  0.6473
  876MPD2    N112911   2.436   3.975  16.134 -0.5569  0.3231  0.1969
  876MPD2    H712912   2.377   4.023  16.066  0.9908 -1.2692 -2.2764
  877MPD2     C12913   2.378   4.270  15.433  0.1085  0.7666  0.1744
  877MPD2    C112914   2.514   4.256  15.462 -0.6099 -0.5307  0.2278
  877MPD2    C212915   2.602   4.246  15.357 -0.2701 -0.0599  0.3302
  877MPD2    C312916   2.556   4.246  15.227 -0.2869 -0.3968 -0.8217
  877MPD2    C412917   2.423   4.262  15.207  0.2872  0.5785 -0.1082
  877MPD2    C512918   2.335   4.273  15.303 -0.6835 -0.8153  0.6197
  877MPD2     H12919   2.709   4.239  15.368 -0.2095  2.0695  0.9683
  877MPD2    H112920   2.402   4.261  15.100  0.4913 -1.6830 -0.1350
  877MPD2    H212921   2.306   4.277  15.514 -1.6704 -2.5800 -1.1068
  877MPD2    H312922   2.235   4.302  15.274  0.6370  1.1785 -1.8819
  877MPD2     N12923   2.632   4.222  15.110  0.5918  0.4196  0.4258
  877MPD2    H512924   2.580   4.223  15.023 -0.5683  1.4662  1.1412
  877MPD2    N112925   2.569   4.255  15.596 -0.5474 -0.7417 -0.4176
  877MPD2    H712926   2.665   4.222  15.598  0.7931  3.0765 -1.7943
  878MPD2     C12927   2.069   2.844  13.379  0.1083 -0.7555  0.4517
  878MPD2    C112928   2.184   2.918  13.414 -0.7893  0.2728  0.1795
  878MPD2    C212929   2.182   2.997  13.525  0.3020 -0.5271  0.4045
  878MPD2    C312930   2.074   2.999  13.606  0.2285 -0.5217 -0.2346
  878MPD2    C412931   1.964   2.916  13.582 -0.1212  0.1688 -0.4286
  878MPD2    C512932   1.961   2.848  13.465  0.2968 -0.1108 -0.0644
  878MPD2     H12933   2.261   3.064  13.556 -0.6901 -0.9302  3.8682
  878MPD2    H112934   1.877   2.902  13.646 -1.1947  1.9295 -1.5002
  878MPD2    H212935   2.057   2.791  13.286 -1.3179  2.9186 -1.4812
  878MPD2    H312936   1.870   2.801  13.429 -0.4657 -0.3198  2.1335
  878MPD2     N12937   2.069   3.088  13.717  0.1674  0.3532  0.3586
  878MPD2    H512938   2.147   3.153  13.718 -0.0840  0.6823 -2.4680
  878MPD2    N112939   2.290   2.924  13.321  0.2355 -0.3813  0.0764
  878MPD2    H712940   2.278   2.870  13.236  0.6552 -2.0308  1.0526
  879MPD2     C12941   3.188   4.566  16.962 -0.3767 -0.0208  0.2991
  879MPD2    C112942   3.100   4.577  17.064 -0.0211  0.3180  0.2270
  879MPD2    C212943   2.963   4.566  17.034 -0.3034 -0.2665  0.1012
  879MPD2    C312944   2.927   4.538  16.899  0.1494 -0.9850 -0.7949
  879MPD2    C412945   3.025   4.522  16.801  0.6891  0.2266  0.2537
  879MPD2    C512946   3.154   4.542  16.835  0.0802  0.5252  1.0109
  879MPD2     H12947   2.883   4.580  17.107 -0.4611  0.2939 -0.1795
  879MPD2    H112948   3.005   4.497  16.698  0.7124  2.0500 -0.1942
  879MPD2    H212949   3.293   4.576  16.983  0.2161  0.2188 -2.8637
  879MPD2    H312950   3.227   4.529  16.756 -1.7925 -0.4473 -0.5663
  879MPD2     N12951   2.797   4.526  16.837  0.5688 -0.5481  0.8064
  879MPD2    H512952   2.799   4.508  16.737  0.4348  0.8962  0.5485
  879MPD2    N112953   3.146   4.594  17.198  0.1622 -0.5464 -0.0833
  879MPD2    H712954   3.247   4.593  17.203  0.1032 -0.4196  1.1755
  880MPD2     C12955   3.849   1.448   0.477 -0.0178  0.2488  0.5953
  880MPD2    C112956   3.952   1.539   0.500 -0.2669 -0.1041  0.1347
  880MPD2    C212957   4.069   1.487   0.549  0.9412 -0.2570  0.8794
  880MPD2    C312958   4.067   1.352   0.595  0.3075  0.2906 -0.4306
  880MPD2    C412959   3.959   1.266   0.570 -0.4025 -0.2794 -0.2270
  880MPD2    C512960   3.853   1.318   0.513  0.2393 -0.3552 -0.3963
  880MPD2     H12961   4.151   1.552   0.576  0.9631  0.0162  0.1334
  880MPD2    H112962   3.959   1.159   0.585  1.6094 -0.0718  1.2355
  880MPD2    H212963   3.756   1.485   0.437  1.1132  0.3351 -1.9502
  880MPD2    H312964   3.765   1.256   0.500  1.0183 -1.1655 -1.9057
  880MPD2     N12965   4.184   1.303   0.665 -0.1093 -0.5652 -0.6328
  880MPD2    H512966   4.246   1.369   0.709  0.4310  0.2158 -2.5976
  880MPD2    N112967   3.948   1.679   0.468  0.0971 -0.5305 -0.0780
  880MPD2    H712968   3.864   1.735   0.458  0.5154 -0.1420 -1.5770
  881MPD2     C12969   4.332   2.634   0.087 -0.3036 -0.3843  0.6820
  881MPD2    C112970   4.347   2.509   0.028  0.9026 -0.0933 -0.6760
  881MPD2    C212971   4.306   2.399   0.103  0.6259  0.0596  0.4521
  881MPD2    C312972   4.278   2.411   0.239  0.3594  0.4456 -0.5343
  881MPD2    C412973   4.299   2.533   0.303 -0.2060 -0.3138  0.3808
  881MPD2    C512974   4.332   2.640   0.227 -0.4943 -0.6793  0.6520
  881MPD2     H12975   4.311   2.300   0.059 -1.7522 -0.1096  0.5633
  881MPD2    H112976   4.309   2.532   0.411  0.8682 -1.3762  0.2724
  881MPD2    H212977   4.346   2.725   0.029 -1.2038  0.4972  1.8554
  881MPD2    H312978   4.333   2.739   0.271 -1.9855 -0.4107  0.0776
  881MPD2     N12979   4.217   2.307   0.316 -0.3365  0.0153 -0.2590
  881MPD2    H512980   4.212   2.332   0.414 -1.2176  0.6246 -0.4613
  881MPD2    N112981   4.376   2.506  17.649 -0.0768  0.0190  0.0248
  881MPD2    H712982   4.374   2.595  17.599 -1.6348  0.6685  1.2234
  882MPD2     C12983   2.698   3.986  14.300  0.2487  0.0548  0.6558
  882MPD2    C112984   2.638   3.988  14.423 -0.2808  0.1247 -0.2730
  882MPD2    C212985   2.509   3.941  14.439 -0.0267  0.0346 -0.0713
  882MPD2    C312986   2.434   3.916  14.328 -0.5161  0.2126 -0.3997
  882MPD2    C412987   2.491   3.919  14.202  0.5160 -0.5108 -0.1055
  882MPD2    C512988   2.624   3.941  14.190  0.2342 -0.4133 -0.3702
  882MPD2     H12989   2.469   3.918  14.537 -0.6968  0.9817 -0.1267
  882MPD2    H112990   2.426   3.906  14.116 -0.8255  0.1636  0.8093
  882MPD2    H212991   2.804   4.010  14.289 -0.2155  0.8949 -2.0429
  882MPD2    H312992   2.665   3.944  14.089 -2.0827  0.5570 -1.2941
  882MPD2     N12993   2.295   3.886  14.337 -0.5592  0.0327  0.1071
  882MPD2    H512994   2.249   3.844  14.257 -1.2720  0.8887  0.0651
  882MPD2    N112995   2.708   4.039  14.533  0.4236 -0.5038 -0.2008
  882MPD2    H712996   2.805   4.061  14.511  0.7768 -1.3420  0.5169
  883MPD2     C12997   3.904   4.007  15.753  0.1861  0.2180 -0.6224
  883MPD2    C112998   4.012   4.081  15.705  0.2437  0.5191 -0.0370
  883MPD2    C212999   4.118   4.107  15.793 -0.5933  0.7335 -1.0741
  883MPD2    C313000   4.106   4.100  15.928  0.5855 -0.0307  0.3627
  883MPD2    C413001   3.987   4.051  15.972  0.2131 -0.4014  0.1054
  883MPD2    C513002   3.895   4.004  15.889  0.4226  0.2313 -0.5169
  883MPD2     H13003   4.218   4.127  15.755  0.4384  0.5839  1.6138
  883MPD2    H113004   3.957   4.052  16.076  0.5280 -2.5577  0.2141
  883MPD2    H213005   3.831   3.956  15.692  0.5436  0.3339 -1.1545
  883MPD2    H313006   3.815   3.945  15.931  0.0081  0.2164 -1.3322
  883MPD2     N13007   4.208   4.151  16.014  0.1122 -0.3198  0.2609
  883MPD2    H513008   4.300   4.174  15.979  1.0813 -2.4917  1.3708
  883MPD2    N113009   4.023   4.105  15.566 -0.3729  0.4645  0.4619
  883MPD2    H713010   4.108   4.153  15.539  0.1725 -1.3214 -1.0921
  884MPD2     C13011   1.808   4.687  15.176 -0.2120 -0.4235 -0.1344
  884MPD2    C113012   1.767   0.074  15.141 -0.2530  0.1032 -0.1244
  884MPD2    C213013   1.647   0.120  15.197  0.3173  0.0138  0.1004
  884MPD2    C313014   1.581   0.034  15.283 -0.5108  0.0531  0.1824
  884MPD2    C413015   1.626   4.650  15.324  0.3015 -0.3414  0.2637
  884MPD2    C513016   1.744   4.614  15.271  0.4174 -0.1450 -0.1540
  884MPD2     H13017   1.607   0.218  15.173 -1.2082 -0.3154  1.3324
  884MPD2    H113018   1.569   4.582  15.387  1.0698  1.2306  2.6683
  884MPD2    H213019   1.896   4.639  15.136 -0.8176 -1.0584 -0.7138
  884MPD2    H313020   1.770   4.511  15.291  0.9749  0.0504  0.1230
  884MPD2     N13021   1.465   0.097  15.329  0.2358 -0.1991 -0.0459
  884MPD2    H513022   1.439   0.183  15.280 -3.5206 -1.0373  0.5030
  884MPD2    N113023   1.858   0.153  15.070 -0.7605  0.3858  0.1846
  884MPD2    H713024   1.829   0.250  15.067 -0.3587  0.5005 -0.0257
  885MPD2     C13025   4.636   4.701   0.596 -0.5947 -0.0892  0.4049
  885MPD2    C113026   4.679   0.088   0.593 -0.2930  0.4280  0.6830
  885MPD2    C213027   4.664   0.160   0.472 -0.3445 -0.2718  0.2128
  885MPD2    C313028   4.587   0.110   0.369  0.0288 -0.4511 -0.1032
  885MPD2    C413029   4.544   4.722   0.373  0.2432 -0.1066 -0.0274
  885MPD2    C513030   4.573   4.644   0.489  0.2397 -0.6975 -0.2529
  885MPD2     H13031   4.726   0.249   0.462  2.3505 -2.0089  1.5412
  885MPD2    H113032   4.497   4.668   0.291  1.0367 -1.8840  0.6942
  885MPD2    H213033   4.658   4.638   0.681 -2.8543  2.4717  2.9065
  885MPD2    H313034   4.542   4.540   0.489 -1.2612 -0.2485 -1.8753
  885MPD2     N13035   4.578   0.196   0.257 -0.6346  0.4126  0.4366
  885MPD2    H513036   4.631   0.282   0.266 -1.1699  0.7967 -0.1187
  885MPD2    N113037   4.736   0.145   0.709  0.6550 -0.5285 -0.2595
  885MPD2    H713038   0.006   0.083   0.789 -0.4115 -1.6003 -0.9356
  886MPD2     C13039   1.317   3.216  15.298  0.2920  0.4172 -0.0416
  886MPD2    C113040   1.373   3.297  15.398  0.5254 -0.4972 -0.4974
  886MPD2    C213041   1.320   3.416  15.438  0.1907  0.2293  0.0535
  886MPD2    C313042   1.205   3.468  15.381  0.7556  0.2377 -0.5305
  886MPD2    C413043   1.148   3.392  15.278 -0.2579 -0.1276 -0.4579
  886MPD2    C513044   1.203   3.270  15.240 -0.2448  0.9331  0.0739
  886MPD2     H13045   1.377   3.472  15.511 -0.8244  1.9004 -0.4285
  886MPD2    H113046   1.069   3.437  15.219  0.4668  1.2508 -0.3656
  886MPD2    H213047   1.349   3.114  15.285 -1.1807 -0.2637  1.7067
  886MPD2    H313048   1.152   3.208  15.167  2.1757  0.6551 -1.3602
  886MPD2     N13049   1.155   3.601  15.410  1.1269  0.1709 -0.2328
  886MPD2    H513050   1.080   3.639  15.352 -0.3414  1.6946  2.6945
  886MPD2    N113051   1.483   3.251  15.469  0.1274  0.3627  0.5671
  886MPD2    H713052   1.522   3.323  15.530 -1.4651  0.1646  1.8310
  887MPD2     C13053   2.105   3.508  15.775 -0.0363 -0.2409 -0.2652
  887MPD2    C113054   1.976   3.543  15.809 -0.0372  0.2843  0.7777
  887MPD2    C213055   1.956   3.665  15.864 -0.5526  0.1447  0.2462
  887MPD2    C313056   2.055   3.761  15.883  0.2820  0.6990 -0.9322
  887MPD2    C413057   2.185   3.721  15.855  0.7680 -0.5330 -0.1003
  887MPD2    C513058   2.207   3.598  15.797  0.0795  0.0093 -0.6595
  887MPD2     H13059   1.853   3.696  15.881  0.2829  1.9570  1.8576
  887MPD2    H113060   2.268   3.790  15.865  0.0885 -0.1074  2.4778
  887MPD2    H213061   2.132   3.415  15.727  0.6275  0.8575 -2.0155
  887MPD2    H313062   2.310   3.571  15.778  0.7537  0.6814  2.0912
  887MPD2     N13063   2.018   3.892  15.926  0.6694  0.5697  0.1183
  887MPD2    H513064   1.922   3.924  15.922  1.2596  2.5845  1.6975
  887MPD2    N113065   1.868   3.452  15.793 -0.0280  0.0036  0.3131
  887MPD2    H713066   1.776   3.469  15.832 -0.3497 -1.3992  0.1567
  888MPD2     C13067   3.608   3.389  14.863  0.6867  0.1816 -0.1411
  888MPD2    C113068   3.578   3.404  14.994 -0.6046 -0.3004  0.2040
  888MPD2    C213069   3.587   3.531  15.050  0.7619 -0.0781 -0.4375
  888MPD2    C313070   3.624   3.639  14.972  0.1117  0.8773  0.1083
  888MPD2    C413071   3.661   3.613  14.843 -0.1591 -0.3432  0.4276
  888MPD2    C513072   3.660   3.489  14.793  0.0617  0.0179  0.4833
  888MPD2     H13073   3.563   3.548  15.155  1.0915  0.8197 -0.5068
  888MPD2    H113074   3.716   3.690  14.790 -3.6340  0.5402 -1.8764
  888MPD2    H213075   3.582   3.300  14.808 -0.3103 -0.1545  0.8719
  888MPD2    H313076   3.683   3.482  14.687  1.4323 -0.6744  0.8205
  888MPD2     N13077   3.640   3.774  15.014  0.4605  0.2795 -0.1373
  888MPD2    H513078   3.657   3.843  14.942 -2.2981  1.4909  0.3940
  888MPD2    N113079   3.528   3.300  15.079 -0.2423  0.4851 -0.3474
  888MPD2    H713080   3.508   3.324  15.175  2.1787  1.4676 -0.1038
  889MPD2     C13081   2.554   2.923  12.739 -1.0503  0.4396 -0.2473
  889MPD2    C113082   2.637   2.925  12.850 -0.1896  1.6228  0.2356
  889MPD2    C213083   2.689   3.050  12.886  0.4263  0.5588 -0.7390
  889MPD2    C313084   2.659   3.171  12.832 -0.2221  0.2590  1.1998
  889MPD2    C413085   2.580   3.164  12.718  0.5796 -0.4833 -0.8987
  889MPD2    C513086   2.538   3.038  12.667 -0.3746 -0.2031 -0.0492
  889MPD2     H13087   2.744   3.066  12.978 -0.2892 -1.0744 -0.0301
  889MPD2    H113088   2.545   3.249  12.659  0.5476 -0.9922 -1.6104
  889MPD2    H213089   2.533   2.828  12.691  0.0244  0.3228 -0.4905
  889MPD2    H313090   2.492   3.033  12.570 -0.1199  1.7784 -0.2540
  889MPD2     N13091   2.707   3.293  12.890 -0.2504  0.3645 -0.4530
  889MPD2    H513092   2.762   3.290  12.975 -1.5112  2.5491  0.4321
  889MPD2    N113093   2.690   2.801  12.891 -0.1515 -0.1914  0.3510
  889MPD2    H713094   2.674   2.720  12.833 -1.0084 -1.8692  2.9029
  890MPD2     C13095   2.791   0.165  14.452  0.2293 -0.4667  0.5940
  890MPD2    C113096   2.826   0.246  14.559 -0.0054 -0.5520 -0.5370
  890MPD2    C213097   2.801   0.210  14.688 -0.3046  0.3925  0.3551
  890MPD2    C313098   2.723   0.095  14.708 -0.5252 -0.2783 -0.1195
  890MPD2    C413099   2.689   0.016  14.608 -0.1298  0.5863  0.0849
  890MPD2    C513100   2.733   0.044  14.482  0.2612  0.0000 -0.2291
  890MPD2     H13101   2.837   0.263  14.775  0.0703 -0.7510  0.8955
  890MPD2    H113102   2.647   4.658  14.618  0.7429 -0.0321 -2.4172
  890MPD2    H213103   2.822   0.186  14.351  0.5911 -0.2756  0.7461
  890MPD2    H313104   2.708   4.716  14.402 -3.0615  0.0705  0.7741
  890MPD2     N13105   2.694   0.060  14.842  0.3720  0.2374  0.6204
  890MPD2    H513106   2.729   0.115  14.920 -1.2289  1.7422  0.2682
  890MPD2    N113107   2.885   0.374  14.524  0.4283  0.1431 -0.5573
  890MPD2    H713108   2.914   0.387  14.427 -1.1041  0.8939 -0.9103
  891MPD2     C13109   0.556   3.795  16.875 -0.9413  0.7270  0.5769
  891MPD2    C113110   0.499   3.670  16.877 -0.4251  0.5381  0.2359
  891MPD2    C213111   0.561   3.568  16.949 -0.0616 -0.0583 -0.4707
  891MPD2    C313112   0.655   3.600  17.044  0.7252 -0.5311  0.0297
  891MPD2    C413113   0.709   3.727  17.044  0.1566 -0.6836  0.0449
  891MPD2    C513114   0.658   3.821  16.957  0.4906 -0.1299 -0.0466
  891MPD2     H13115   0.525   3.466  16.961 -0.1008  0.1498  1.2261
  891MPD2    H113116   0.784   3.772  17.109 -1.1998 -0.8941  1.7737
  891MPD2    H213117   0.518   3.883  16.824 -1.2492  1.1369  1.5075
  891MPD2    H313118   0.692   3.924  16.962 -1.0429  0.2925  1.7000
  891MPD2     N13119   0.697   3.502  17.146  0.5641  0.0704 -0.3363
  891MPD2    H513120   0.652   3.411  17.147  0.6240  0.0309 -1.4710
  891MPD2    N113121   0.373   3.658  16.802 -0.6034 -0.8087  0.2741
  891MPD2    H713122   0.340   3.731  16.740  3.1083 -0.4668 -1.2784
  892MPD2     C13123   1.465   3.933  15.017  0.3845 -0.1266  0.3549
  892MPD2    C113124   1.524   4.044  14.961  0.7843 -0.3982  0.1641
  892MPD2    C213125   1.608   4.032  14.844  0.4979 -0.2030 -0.1822
  892MPD2    C313126   1.625   3.908  14.782  0.8100 -0.3596 -1.2238
  892MPD2    C413127   1.560   3.794  14.838  0.2518  0.2392  0.1989
  892MPD2    C513128   1.475   3.811  14.948  1.3633 -0.4194 -0.7041
  892MPD2     H13129   1.656   4.123  14.810  2.5776 -2.0938 -2.2885
  892MPD2    H113130   1.577   3.703  14.782 -0.2338 -1.0942  2.2076
  892MPD2    H213131   1.404   3.941  15.106 -3.3194 -0.3188 -2.1969
  892MPD2    H313132   1.418   3.726  14.984  1.8838 -0.6477 -0.4123
  892MPD2     N13133   1.703   3.886  14.668 -0.0393 -0.0402  0.0029
  892MPD2    H513134   1.707   3.793  14.627  0.0931  0.3252 -0.8084
  892MPD2    N113135   1.488   4.173  15.008 -0.4795 -0.4280 -0.0708
  892MPD2    H713136   1.525   4.250  14.954 -2.1506  0.8731  0.6459
  893MPD2     C13137   4.142   3.596   2.134 -0.2179  0.2796 -0.1628
  893MPD2    C113138   4.059   3.533   2.046  0.1876  0.3620  0.5354
  893MPD2    C213139   3.925   3.519   2.069 -0.0212 -0.0827 -0.0019
  893MPD2    C313140   3.868   3.572   2.188 -1.0713 -0.3169 -0.5088
  893MPD2    C413141   3.953   3.641   2.277  0.1510 -0.3100  0.3091
  893MPD2    C513142   4.082   3.645   2.250 -0.4571 -0.6532 -0.7648
  893MPD2     H13143   3.869   3.461   1.997 -1.8255  0.1940  1.1645
  893MPD2    H113144   3.914   3.695   2.362  2.6666  0.1847  1.1512
  893MPD2    H213145   4.249   3.612   2.124 -0.2339  1.5548  1.6356
  893MPD2    H313146   4.135   3.710   2.320 -1.0058 -1.8460  0.7642
  893MPD2     N13147   3.729   3.569   2.223 -0.0587  0.2810  0.1299
  893MPD2    H513148   3.706   3.619   2.309  0.5606 -1.2092  1.1741
  893MPD2    N113149   4.118   3.501   1.918  0.3617  0.2029  0.2972
  893MPD2    H713150   4.214   3.527   1.897  0.2422 -1.4661 -2.3444
  894MPD2     C13151   1.570   0.280   1.076 -0.4473  0.2676  0.4330
  894MPD2    C113152   1.549   0.336   1.201  0.4169 -0.1026  0.0306
  894MPD2    C213153   1.560   0.474   1.211  0.6566  0.7395 -0.4178
  894MPD2    C313154   1.600   0.555   1.102 -0.0929  0.5520  0.3490
  894MPD2    C413155   1.628   0.488   0.987  0.3247  0.2065  0.4941
  894MPD2    C513156   1.594   0.360   0.966  0.0912 -0.2407  0.5324
  894MPD2     H13157   1.543   0.515   1.310  0.6098 -0.5341  0.1077
  894MPD2    H113158   1.667   0.548   0.905  0.1084  1.3922  1.2626
  894MPD2    H213159   1.553   0.178   1.046 -2.1292  0.2368  1.4878
  894MPD2    H313160   1.610   0.307   0.872  0.2301  1.9715 -0.6931
  894MPD2     N13161   1.638   0.689   1.129 -0.3123 -0.2042  0.4644
  894MPD2    H513162   1.615   0.726   1.220  0.3490  2.7986 -0.5564
  894MPD2    N113163   1.518   0.254   1.312 -0.6963  0.5778  0.2083
  894MPD2    H713164   1.489   0.301   1.398 -0.6207  1.2553 -0.1410
  895MPD2     C13165   0.770   3.807  13.968 -0.2169 -0.7504 -0.3796
  895MPD2    C113166   0.697   3.785  13.856 -0.4767 -0.6443  0.4415
  895MPD2    C213167   0.717   3.667  13.788  0.3324 -0.7889  0.2312
  895MPD2    C313168   0.823   3.585  13.814 -0.7773 -0.4663 -0.0549
  895MPD2    C413169   0.911   3.621  13.912  0.3776 -0.1241  0.0145
  895MPD2    C513170   0.877   3.725  13.992  0.2665  0.7899  0.0032
  895MPD2     H13171   0.658   3.646  13.701 -0.5942  0.6253  0.5188
  895MPD2    H113172   1.009   3.577  13.925  0.8405  0.6269 -0.9157
  895MPD2    H213173   0.756   3.888  14.038 -2.5603 -0.1695 -1.5298
  895MPD2    H313174   0.947   3.756  14.069 -0.1368 -1.1648  1.1405
  895MPD2     N13175   0.835   3.474  13.727  0.2365 -0.0067 -0.0408
  895MPD2    H513176   0.778   3.470  13.643 -0.4266 -0.1019  0.4082
  895MPD2    N113177   0.593   3.863  13.809 -0.2757  0.4828  0.3353
  895MPD2    H713178   0.553   3.839  13.720  0.6895  0.8126 -0.1906
  896MPD2     C13179   3.405   1.296   1.527 -0.0028 -0.7325 -0.0701
  896MPD2    C113180   3.362   1.218   1.415 -0.3338  0.5119 -0.4819
  896MPD2    C213181   3.227   1.211   1.386 -0.1241 -0.0281  0.0424
  896MPD2    C313182   3.133   1.257   1.470  0.5737  0.2012  0.3563
  896MPD2    C413183   3.175   1.329   1.578  0.3213  0.6305 -0.0339
  896MPD2    C513184   3.305   1.346   1.609 -0.2561 -0.1338  0.1164
  896MPD2     H13185   3.192   1.158   1.298 -0.1975 -1.6848  1.0819
  896MPD2    H113186   3.105   1.362   1.654 -1.2217  1.2133 -1.6920
  896MPD2    H213187   3.508   1.300   1.561  0.2492  0.6212 -0.9856
  896MPD2    H313188   3.333   1.384   1.707  2.0907  0.2950 -0.7183
  896MPD2     N13189   2.993   1.228   1.445 -0.0865 -0.5126  0.3919
  896MPD2    H513190   2.975   1.166   1.366  1.8297 -1.0796  0.4080
  896MPD2    N113191   3.465   1.166   1.329  0.2840  0.3975  0.1676
  896MPD2    H713192   3.560   1.189   1.355 -0.1723  2.4298  0.0627
  897MPD2     C13193   4.648   2.552  11.020  0.3626 -0.6653 -0.3176
  897MPD2    C113194   4.572   2.585  10.914 -0.4370 -0.2039 -0.0568
  897MPD2    C213195   4.465   2.508  10.873 -0.5388 -0.3262 -0.2435
  897MPD2    C313196   4.415   2.414  10.960  0.3606 -0.5360  0.1924
  897MPD2    C413197   4.493   2.390  11.074 -0.0688  0.1222  0.4097
  897MPD2    C513198   4.609   2.451  11.103 -0.2732  0.1741 -0.4409
  897MPD2     H13199   4.399   2.543  10.793 -1.1010  0.9115  0.7591
  897MPD2    H113200   4.462   2.311  11.142 -0.6505  0.8840  1.0240
  897MPD2    H213201   4.735   2.603  11.060 -1.8801  4.3814 -1.8984
  897MPD2    H313202   4.678   2.419  11.180 -0.1459 -0.9242 -0.9997
  897MPD2     N13203   4.286   2.361  10.936  0.0866  0.8189  0.3805
  897MPD2    H513204   4.245   2.387  10.846 -0.9694 -1.0898  0.2943
  897MPD2    N113205   4.616   2.707  10.853  0.4231 -0.5843 -0.0504
  897MPD2    H713206   4.689   2.760  10.900  1.1737 -0.2718 -1.5572
  898MPD2     C13207   0.966   3.947  17.669  0.3882 -0.3232 -0.2768
  898MPD2    C113208   1.049   4.049  17.625  0.3539 -0.2720  0.1079
  898MPD2    C213209   0.993   4.168  17.592  0.0206 -0.1059  0.3721
  898MPD2    C313210   0.856   4.185  17.589  0.4006  0.4941 -0.1595
  898MPD2    C413211   0.775   4.082  17.625 -0.2826  0.6829 -0.5735
  898MPD2    C513212   0.829   3.963  17.671 -0.2756 -0.2059 -0.4400
  898MPD2     H13213   1.063   4.249  17.576 -0.6406 -0.0374 -2.2993
  898MPD2    H113214   0.670   4.093  17.600 -0.2020  1.3039 -0.6582
  898MPD2    H213215   1.007   3.852  17.702 -0.8737 -0.1857  1.7087
  898MPD2    H313216   0.757   3.886  17.698  0.6871  0.3563  3.8213
  898MPD2     N13217   0.808   4.314  17.563  0.3500 -0.5665 -0.0204
  898MPD2    H513218   0.884   4.377  17.537  0.6111 -0.2689  1.4845
  898MPD2    N113219   1.187   4.043  17.625 -0.5785 -0.0700  0.3724
  898MPD2    H713220   1.229   4.131  17.599  0.1590 -0.8261 -1.0114
  899MPD2     C13221   2.274   4.396  17.366 -0.1391 -0.2725 -0.1279
  899MPD2    C113222   2.209   4.493  17.435  0.1225  0.1029  0.0220
  899MPD2    C213223   2.143   4.464  17.552  0.1308  0.2582 -0.0526
  899MPD2    C313224   2.130   4.328  17.594 -0.0744 -0.1507 -0.4187
  899MPD2    C413225   2.178   4.231  17.508  0.4171  0.3275 -0.6969
  899MPD2    C513226   2.262   4.265  17.398  0.2167 -0.7280  0.3001
  899MPD2     H13227   2.105   4.545  17.614 -2.9514 -2.8524  2.1804
  899MPD2    H113228   2.157   4.127  17.531 -0.9502  0.3187 -2.0099
  899MPD2    H213229   2.340   4.422  17.284  1.0913  0.2666  1.0247
  899MPD2    H313230   2.321   4.194  17.342 -2.3517 -1.3627 -1.5775
  899MPD2     N13231   2.052   4.288  17.707  0.5359  0.2697  0.2462
  899MPD2    H513232   2.050   4.186  17.709  1.1662  0.2974  1.9498
  899MPD2    N113233   2.222   4.618  17.385 -0.4901  0.1780  0.3270
  899MPD2    H713234   2.243   4.632  17.286 -1.5213  2.9455  0.4973
  900MPD2     C13235   1.747   0.746  12.542 -0.0747 -0.1252  0.2431
  900MPD2    C113236   1.665   0.646  12.592 -0.5789 -0.4162  0.7829
  900MPD2    C213237   1.538   0.630  12.538  0.2534  0.0248  0.0139
  900MPD2    C313238   1.495   0.699  12.429  0.8705 -0.0761  0.4975
  900MPD2    C413239   1.579   0.791  12.380 -0.2126  0.3542  0.2911
  900MPD2    C513240   1.700   0.822  12.437  0.3200  0.3208 -0.2694
  900MPD2     H13241   1.457   0.579  12.589  0.5202  0.2282  0.6257
  900MPD2    H113242   1.532   0.852  12.304  1.6254 -0.0089 -1.1134
  900MPD2    H213243   1.851   0.760  12.571 -0.5016 -0.3850  1.8813
  900MPD2    H313244   1.759   0.906  12.403  0.3955  2.1447  4.4353
  900MPD2     N13245   1.363   0.671  12.391 -0.0347 -0.5999 -0.3672
  900MPD2    H513246   1.318   0.586  12.424 -1.0463 -0.0565 -0.3374
  900MPD2    N113247   1.713   0.566  12.703 -0.4245 -0.5547  0.3666
  900MPD2    H713248   1.801   0.589  12.748 -1.3338  0.2828  1.7492
  901MPD2     C13249   1.561   4.345  13.201 -0.0506 -0.5411 -0.0067
  901MPD2    C113250   1.695   4.373  13.208  0.1336 -0.2372 -0.1852
  901MPD2    C213251   1.732   4.494  13.148 -0.5593  0.5847 -0.1913
  901MPD2    C313252   1.642   4.593  13.112  0.0962 -0.8957 -0.4378
  901MPD2    C413253   1.508   4.561  13.116 -0.3201  0.1536 -0.6090
  901MPD2    C513254   1.472   4.437  13.152 -0.1743 -0.7058  0.0721
  901MPD2     H13255   1.839   4.516  13.144  0.1936 -3.4309 -1.6672
  901MPD2    H113256   1.421   4.622  13.095 -0.1547  0.4980 -0.2840
  901MPD2    H213257   1.509   4.266  13.254  0.4361  0.3570  1.8213
  901MPD2    H313258   1.365   4.416  13.154 -0.0407 -1.3340  1.0120
  901MPD2     N13259   1.687   4.717  13.074 -0.5253  0.1120  0.1008
  901MPD2    H513260   1.787   4.735  13.073 -0.1846 -1.5885  2.3635
  901MPD2    N113261   1.785   4.274  13.254  0.2263 -0.0311  0.1540
  901MPD2    H713262   1.742   4.183  13.265  0.4342 -0.1096  0.3304
  902MPD2     C13263   1.529   3.518  12.816  0.4831 -0.2963 -0.2836
  902MPD2    C113264   1.421   3.577  12.759 -0.5306  0.1704  0.1543
  902MPD2    C213265   1.413   3.586  12.623 -0.0049 -0.1708  0.8458
  902MPD2    C313266   1.509   3.530  12.533  0.6093 -0.7214 -1.2758
  902MPD2    C413267   1.617   3.473  12.600 -0.7805 -1.2877 -0.4014
  902MPD2    C513268   1.626   3.467  12.741  0.0489  0.1823 -0.1001
  902MPD2     H13269   1.326   3.632  12.577  0.1371 -0.2905  0.4568
  902MPD2    H113270   1.694   3.428  12.538  0.6298  0.2662  0.2267
  902MPD2    H213271   1.535   3.506  12.924  1.8410 -1.7061 -0.5108
  902MPD2    H313272   1.714   3.420  12.784 -1.2245 -1.1636  1.0119
  902MPD2     N13273   1.520   3.533  12.387 -0.2547 -0.2073 -0.0409
  902MPD2    H513274   1.600   3.493  12.339  0.8717  0.5490  1.1949
  902MPD2    N113275   1.316   3.629  12.837 -0.3541 -0.1412 -0.4023
  902MPD2    H713276   1.334   3.644  12.935 -2.8719 -0.2389  0.0906
  903MPD2     C13277   1.100   3.406  11.583 -0.6906 -0.1269  0.2980
  903MPD2    C113278   1.090   3.461  11.712 -0.2685  1.0516 -0.5583
  903MPD2    C213279   0.966   3.462  11.772  0.5520  0.3615 -0.1810
  903MPD2    C313280   0.855   3.417  11.706  0.4702 -0.2171 -0.5881
  903MPD2    C413281   0.859   3.366  11.579  0.0889 -0.1819 -0.4594
  903MPD2    C513282   0.986   3.353  11.525 -0.3160  0.0253 -0.5030
  903MPD2     H13283   0.946   3.504  11.870  0.3393 -1.9003  0.7368
  903MPD2    H113284   0.776   3.325  11.523 -0.8556  1.5291 -0.3071
  903MPD2    H213285   1.195   3.411  11.532 -1.9680 -1.4053 -2.1673
  903MPD2    H313286   0.992   3.315  11.424 -1.6771  2.0100 -1.3435
  903MPD2     N13287   0.735   3.424  11.785 -0.2024 -0.9752  0.4231
  903MPD2    H513288   0.762   3.426  11.883  3.2086  2.0277 -0.5909
  903MPD2    N113289   1.198   3.500  11.785  0.7154 -0.1054  0.1747
  903MPD2    H713290   1.291   3.490  11.747  0.5630  0.5380 -0.3694
  904MPD2     C13291   0.379   3.335  13.880  0.6433  0.1201  0.1551
  904MPD2    C113292   0.324   3.242  13.968 -1.0439 -0.2255 -0.6036
  904MPD2    C213293   0.421   3.174  14.038  0.3346  0.3977 -0.2839
  904MPD2    C313294   0.558   3.200  14.035 -0.1671  0.1357 -0.0652
  904MPD2    C413295   0.603   3.299  13.948 -0.0945 -0.5470  0.1134
  904MPD2    C513296   0.513   3.365  13.870 -0.0568 -0.1898  0.3399
  904MPD2     H13297   0.386   3.095  14.104  0.4151  0.4289 -0.2027
  904MPD2    H113298   0.709   3.319  13.936 -0.1538 -0.4515 -0.2533
  904MPD2    H213299   0.318   3.389  13.809 -0.3311  0.1822  1.0243
  904MPD2    H313300   0.544   3.440  13.798  1.2106 -1.3696 -0.3388
  904MPD2     N13301   0.642   3.112  14.120 -0.3727 -1.0762 -0.1181
  904MPD2    H513302   0.597   3.032  14.164 -1.8619 -1.4540 -2.3183
  904MPD2    N113303   0.190   3.204  13.978 -0.2433  0.2924  0.3471
  904MPD2    H713304   0.173   3.104  13.986 -0.2587  0.2783  0.1403
  905MPD2     C13305   0.090   3.306  13.461 -1.0767  0.2540 -1.0324
  905MPD2    C113306   0.179   3.397  13.516  0.0595 -0.0781 -0.1670
  905MPD2    C213307   0.309   3.364  13.519 -1.0546  0.2764  0.0270
  905MPD2    C313308   0.355   3.247  13.457 -0.1116  0.5634 -0.4167
  905MPD2    C413309   0.268   3.168  13.397  0.6340  0.2924  0.2890
  905MPD2    C513310   0.132   3.192  13.399  0.1997 -0.3030  0.0083
  905MPD2     H13311   0.379   3.435  13.562  2.2274 -1.8593 -1.7692
  905MPD2    H113312   0.306   3.075  13.357  1.1701  1.1929 -1.3374
  905MPD2    H213313   4.726   3.334  13.463 -1.0118  0.3586  0.7700
  905MPD2    H313314   0.063   3.112  13.373  1.5979 -0.9844 -1.6805
  905MPD2     N13315   0.492   3.205  13.453  0.1020  0.0497 -0.6980
  905MPD2    H513316   0.515   3.114  13.413  0.5735 -1.2001  2.4415
  905MPD2    N113317   0.114   3.496  13.598  0.0889  0.0235  0.0355
  905MPD2    H713318   0.012   3.492  13.601  0.1575 -1.2880  0.7470
  906MPD2     C13319   3.308   2.888  11.572 -0.1114 -0.9511  0.3043
  906MPD2    C113320   3.245   2.832  11.465 -0.2145 -0.3570 -0.7505
  906MPD2    C213321   3.166   2.720  11.488  0.0480  0.0685 -0.1612
  906MPD2    C313322   3.160   2.663  11.617 -0.0658  0.2717  0.4534
  906MPD2    C413323   3.254   2.703  11.707 -0.8688 -0.1685 -0.1990
  906MPD2    C513324   3.328   2.821  11.686  0.3370  0.4057 -0.1131
  906MPD2     H13325   3.110   2.676  11.407  1.3131 -0.7776 -0.5766
  906MPD2    H113326   3.261   2.657  11.805  0.4165 -2.6495 -1.4631
  906MPD2    H213327   3.361   2.981  11.552  0.5437 -0.9035  2.3322
  906MPD2    H313328   3.388   2.854  11.770 -1.3209 -1.2104  1.7182
  906MPD2     N13329   3.077   2.553  11.658 -0.2610  0.4838  0.3544
  906MPD2    H513330   3.092   2.498  11.741 -2.2743 -2.0027 -0.9424
  906MPD2    N113331   3.249   2.875  11.327 -0.1651 -0.4653 -0.1762
  906MPD2    H713332   3.200   2.814  11.262 -0.8017  0.5701 -0.6661
  907MPD2     C13333   1.688   2.494  16.059  0.5485 -0.0522 -0.6499
  907MPD2    C113334   1.674   2.362  16.046  0.7948 -1.2614  0.2281
  907MPD2    C213335   1.757   2.284  16.127  0.4222 -0.4896  0.3526
  907MPD2    C313336   1.849   2.335  16.213  1.0052 -1.0919 -0.0199
  907MPD2    C413337   1.865   2.475  16.212 -0.0243  0.0097 -0.3975
  907MPD2    C513338   1.787   2.549  16.139  0.3298  0.5263 -0.1879
  907MPD2     H13339   1.755   2.176  16.118 -0.8915 -0.4143 -0.2852
  907MPD2    H113340   1.937   2.531  16.269 -0.1222 -0.1567 -0.1090
  907MPD2    H213341   1.635   2.572  16.004 -1.2735 -1.1491 -0.4696
  907MPD2    H313342   1.801   2.656  16.126 -0.9998  0.7577  0.3365
  907MPD2     N13343   1.936   2.246  16.282 -0.3351 -0.2529  0.7205
  907MPD2    H513344   1.915   2.147  16.269 -0.5552 -0.1058 -0.0111
  907MPD2    N113345   1.596   2.292  15.947  0.4336  0.7792 -0.2504
  907MPD2    H713346   1.614   2.192  15.938 -0.2176  0.6548 -0.1077
  908MPD2     C13347   4.219   3.027  10.054 -0.2822 -1.0859 -0.2342
  908MPD2    C113348   4.198   2.939  10.150 -0.6744  0.2639 -0.0828
  908MPD2    C213349   4.280   2.935  10.262  0.3615  0.5245 -0.0196
  908MPD2    C313350   4.387   3.015  10.269  0.3212 -0.0959  0.2047
  908MPD2    C413351   4.403   3.104  10.169  0.1686  0.2723 -0.1428
  908MPD2    C513352   4.325   3.108  10.058 -0.4203 -0.2568 -0.4396
  908MPD2     H13353   4.257   2.861  10.338 -0.2085  0.0617 -0.6386
  908MPD2    H113354   4.474   3.186  10.175  0.4806 -0.2141  2.8511
  908MPD2    H213355   4.168   3.011   9.960 -0.1845 -3.4860  0.1364
  908MPD2    H313356   4.336   3.183   9.980 -0.6135  2.1558  1.8586
  908MPD2     N13357   4.467   3.002  10.386  0.2054 -0.1756 -0.0725
  908MPD2    H513358   4.439   2.936  10.457 -1.0045  1.0528  0.6088
  908MPD2    N113359   4.099   2.834  10.124 -0.3061 -0.2324  0.8613
  908MPD2    H713360   4.027   2.846  10.054 -1.5368 -2.6677  1.6804
  909MPD2     C13361   4.716   0.700  12.582  0.1720 -0.6277  0.2122
  909MPD2    C113362   4.658   0.769  12.477 -0.2815  0.2679  0.2238
  909MPD2    C213363   4.526   0.797  12.482  0.4568  1.0250 -0.2883
  909MPD2    C313364   4.451   0.776  12.600 -0.0367  0.1069  0.4510
  909MPD2    C413365   4.502   0.704  12.699  0.1378 -0.5404 -0.1076
  909MPD2    C513366   4.637   0.672  12.690  0.4991 -0.1336 -0.6051
  909MPD2     H13367   4.481   0.836  12.392 -3.4420 -1.2675  0.6856
  909MPD2    H113368   4.453   0.676  12.792 -0.8493 -0.5704 -0.6417
  909MPD2    H213369   0.077   0.662  12.574  0.2568 -0.7473  1.8436
  909MPD2    H313370   4.669   0.616  12.777  0.5749  1.0775  0.1544
  909MPD2     N13371   4.324   0.835  12.608  0.5478  0.0170 -0.1998
  909MPD2    H513372   4.300   0.879  12.520 -0.0980  2.2570  1.0991
  909MPD2    N113373   4.717   0.782  12.352  1.1566  0.0214  0.2550
  909MPD2    H713374   4.659   0.818  12.277 -1.4872 -0.2368  2.1987
  910MPD2     C13375   0.901   3.012  16.168 -0.4248  0.6514 -0.0833
  910MPD2    C113376   0.957   2.943  16.065 -0.2522 -0.8821  0.2629
  910MPD2    C213377   0.913   2.959  15.940 -0.2840 -0.0314 -0.4693
  910MPD2    C313378   0.802   3.033  15.910  0.0623 -0.5120 -0.0917
  910MPD2    C413379   0.743   3.100  16.010 -0.0467 -0.6706  0.0688
  910MPD2    C513380   0.797   3.100  16.137  0.4055 -0.2252  0.5195
  910MPD2     H13381   0.963   2.896  15.867 -0.7463 -1.8738  0.7927
  910MPD2    H113382   0.669   3.174  15.981  1.9031 -0.1182 -3.4403
  910MPD2    H213383   0.914   3.016  16.276 -2.0285 -0.9731  0.1756
  910MPD2    H313384   0.754   3.159  16.218 -0.9182 -1.8336  0.9947
  910MPD2     N13385   0.749   3.048  15.783 -0.9695 -0.1994  0.5432
  910MPD2    H513386   0.666   3.106  15.780  0.9375  2.5313 -0.0385
  910MPD2    N113387   1.071   2.853  16.088  0.0771  0.0732 -0.1942
  910MPD2    H713388   1.100   2.793  16.011  0.8068 -0.5181  0.5568
  911MPD2     C13389   3.569   2.912  16.485  0.1489  0.4452  0.0346
  911MPD2    C113390   3.651   2.982  16.399  0.0798  0.4373 -0.4898
  911MPD2    C213391   3.602   3.065  16.305  0.8238 -0.0091  0.1959
  911MPD2    C313392   3.463   3.078  16.301  0.3972  0.0257  0.0679
  911MPD2    C413393   3.383   3.015  16.394 -0.4687 -0.2150  0.0843
  911MPD2    C513394   3.436   2.940  16.485  0.3616  0.1492 -0.2481
  911MPD2     H13395   3.664   3.121  16.237 -0.3978 -0.2469 -1.0980
  911MPD2    H113396   3.274   3.010  16.394 -0.4932  0.5493  1.2146
  911MPD2    H213397   3.606   2.846  16.562 -3.7005  0.2011  1.6609
  911MPD2    H313398   3.374   2.889  16.557  2.5022 -1.6049  0.3340
  911MPD2     N13399   3.404   3.161  16.212 -0.0331  0.2206  0.2336
  911MPD2    H513400   3.303   3.167  16.204 -0.0505 -0.7476 -0.2913
  911MPD2    N113401   3.783   2.954  16.405 -0.0698  0.1809  0.4848
  911MPD2    H713402   3.818   2.886  16.472  0.0451  1.3483  1.6107
  912MPD2     C13403   2.976   3.011  15.624  0.0131  0.4502 -0.2838
  912MPD2    C113404   2.977   3.059  15.756 -0.7520  1.1813 -0.4224
  912MPD2    C213405   2.891   2.995  15.848 -0.1694  0.5111 -0.2470
  912MPD2    C313406   2.856   2.863  15.829  0.0867 -0.1100 -0.2081
  912MPD2    C413407   2.878   2.806  15.703 -0.3185 -0.1949  0.1222
  912MPD2    C513408   2.924   2.887  15.600  0.2896  0.6358 -0.0556
  912MPD2     H13409   2.871   3.039  15.945  1.4990 -2.3287  1.4032
  912MPD2    H113410   2.860   2.701  15.681  2.2272 -0.8312  0.9663
  912MPD2    H213411   3.025   3.065  15.544  0.5332 -0.4093 -0.5449
  912MPD2    H313412   2.934   2.839  15.503  1.7724  1.9216 -0.5474
  912MPD2     N13413   2.798   2.793  15.939 -0.2753  0.1344  0.0749
  912MPD2    H513414   2.773   2.842  16.024  0.1083 -0.4187  0.5076
  912MPD2    N113415   3.053   3.174  15.780 -0.1584 -0.3002  0.2533
  912MPD2    H713416   3.107   3.211  15.703  0.2398  1.1120  1.2010
  913MPD2     C13417   4.315   4.221  10.787 -0.8748 -0.4295 -0.7662
  913MPD2    C113418   4.317   4.358  10.770  0.1824  0.7433 -0.0866
  913MPD2    C213419   4.281   4.405  10.646  0.2838  0.8846  0.9596
  913MPD2    C313420   4.252   4.321  10.541  0.1352 -0.1866 -0.5290
  913MPD2    C413421   4.240   4.186  10.564 -0.2502 -0.5050 -0.0505
  913MPD2    C513422   4.285   4.134  10.679 -0.3301 -0.0058 -0.0604
  913MPD2     H13423   4.283   4.510  10.622  0.2962  0.1096 -2.4729
  913MPD2    H113424   4.214   4.117  10.485 -0.2568 -0.8339  0.2389
  913MPD2    H213425   4.353   4.172  10.876  1.2663  0.8680 -0.9587
  913MPD2    H313426   4.298   4.027  10.690  0.9662  0.2473  0.8231
  913MPD2     N13427   4.234   4.357  10.405 -0.3858  0.0109 -0.5094
  913MPD2    H513428   4.228   4.277  10.343 -0.7662  0.5602 -1.1787
  913MPD2    N113429   4.355   4.432  10.886  0.2161  0.7364  0.3567
  913MPD2    H713430   4.382   4.378  10.967 -1.7523  0.3989  0.7874
  914MPD2     C13431   1.732   4.323  12.545  0.1080 -0.0182 -0.8278
  914MPD2    C113432   1.795   4.403  12.642  0.2288 -0.3015  0.3520
  914MPD2    C213433   1.886   4.346  12.733 -0.6631 -0.3432 -0.8914
  914MPD2    C313434   1.902   4.211  12.736 -0.5398  0.0475  0.4724
  914MPD2    C413435   1.835   4.132  12.645 -0.1132  0.7994  0.6314
  914MPD2    C513436   1.755   4.187  12.553  0.2650  0.7410  0.0394
  914MPD2     H13437   1.935   4.404  12.811 -1.7881  0.4764 -0.8076
  914MPD2    H113438   1.839   4.023  12.648 -1.9399  0.7654  1.6524
  914MPD2    H213439   1.665   4.356  12.466  0.5809  1.7373 -0.5089
  914MPD2    H313440   1.698   4.126  12.484  1.3565 -0.4597  0.2130
  914MPD2     N13441   1.983   4.170  12.844  0.2097 -0.4226 -0.6878
  914MPD2    H513442   2.011   4.245  12.907 -0.4779  0.1531 -1.0618
  914MPD2    N113443   1.789   4.548  12.625 -0.7239 -0.4300  0.0142
  914MPD2    H713444   1.743   4.582  12.542  0.5569 -0.0597 -0.5425
  915MPD2     C13445   4.088   4.504  15.769 -0.0619 -0.6565 -0.3525
  915MPD2    C113446   4.015   4.618  15.772  0.1568  0.1301  0.6171
  915MPD2    C213447   4.015   4.677  15.898  0.1520  0.4566 -0.0778
  915MPD2    C313448   4.069   4.629  16.016 -0.7353  0.2243  0.3725
  915MPD2    C413449   4.150   4.516  16.002 -0.0997 -0.0239  0.3519
  915MPD2    C513450   4.157   4.452  15.882 -0.2316  0.2899  0.1217
  915MPD2     H13451   3.948   0.021  15.910  1.6198  1.6995 -0.6466
  915MPD2    H113452   4.201   4.478  16.090 -1.8653  0.2877  1.4956
  915MPD2    H213453   4.102   4.438  15.684  2.0586 -0.7487  0.0542
  915MPD2    H313454   4.223   4.367  15.871 -0.6727  0.0690 -0.8405
  915MPD2     N13455   4.051   4.700  16.134 -0.3465 -0.2315 -0.1438
  915MPD2    H513456   3.996   0.044  16.128  0.6903  0.4476  0.0330
  915MPD2    N113457   3.947   4.675  15.654  0.4357 -0.0102  0.3031
  915MPD2    H713458   3.881   0.009  15.674 -1.2069 -1.2159 -0.5934
  916MPD2     C13459   2.372   3.211  15.848 -0.5142 -0.0993 -0.6183
  916MPD2    C113460   2.466   3.126  15.913 -0.9099 -0.6613 -0.2356
  916MPD2    C213461   2.522   3.022  15.843  0.8769  0.3332 -0.1850
  916MPD2    C313462   2.483   3.001  15.707  0.4439  0.2670  0.2042
  916MPD2    C413463   2.385   3.075  15.649  0.2083 -0.2952  0.6757
  916MPD2    C513464   2.336   3.182  15.721 -0.2418 -0.7328  0.3080
  916MPD2     H13465   2.605   2.963  15.881  0.5919 -0.2651 -0.5010
  916MPD2    H113466   2.348   3.065  15.548  0.3274 -1.7786  0.7802
  916MPD2    H213467   2.329   3.294  15.902  0.5558  0.2866 -0.3436
  916MPD2    H313468   2.262   3.244  15.673  0.6166  0.0738  0.0209
  916MPD2     N13469   2.547   2.897  15.638  0.1751  0.5756  0.2166
  916MPD2    H513470   2.604   2.839  15.699 -2.1511 -0.6739  1.1831
  916MPD2    N113471   2.497   3.164  16.047 -0.5103 -0.7766  0.1201
  916MPD2    H713472   2.449   3.245  16.085  1.2690 -0.4013  1.5779
  917MPD2     C13473   3.041   4.651  11.192  0.0872 -0.6316  0.8425
  917MPD2    C113474   3.081   4.721  11.299  0.5962  0.1766 -0.0221
  917MPD2    C213475   3.214   0.031  11.300  0.4713  0.5157 -0.1954
  917MPD2    C313476   3.300   0.011  11.200  0.0226  0.0394 -0.3473
  917MPD2    C413477   3.257   4.665  11.100 -0.8501 -0.3115 -0.4005
  917MPD2    C513478   3.129   4.622  11.094 -0.0107  0.1170 -0.4807
  917MPD2     H13479   3.232   0.088  11.391  0.8469  0.3720 -0.1799
  917MPD2    H113480   3.330   4.637  11.025  1.9108  0.9291  1.8357
  917MPD2    H213481   2.948   4.603  11.166  0.9314 -1.7393 -0.1492
  917MPD2    H313482   3.099   4.549  11.019  0.5192 -1.7893  1.1475
  917MPD2     N13483   3.429   0.061  11.203 -0.4314  0.1297 -0.2607
  917MPD2    H513484   3.487   0.031  11.126 -0.4886 -1.0665  0.1682
  917MPD2    N113485   2.982   0.020  11.392  0.2507 -0.0077  0.0783
  917MPD2    H713486   2.886   4.739  11.367  0.0798  1.8698 -0.8834
  918MPD2     C13487   2.983   0.770  11.773 -1.0411 -0.0969  0.5107
  918MPD2    C113488   3.055   0.689  11.867 -0.0420 -0.1151 -0.5029
  918MPD2    C213489   3.013   0.562  11.892 -0.3789 -0.1245  0.0925
  918MPD2    C313490   2.906   0.505  11.818  0.8960 -0.1969 -0.1367
  918MPD2    C413491   2.842   0.578  11.727  0.8035  0.9473  0.3860
  918MPD2    C513492   2.872   0.711  11.714  0.3539 -0.5002 -0.1972
  918MPD2     H13493   3.064   0.498  11.964  1.6203  1.3126 -0.0367
  918MPD2    H113494   2.757   0.539  11.673  0.3453  1.1493  0.9617
  918MPD2    H213495   3.002   0.875  11.752 -3.0069  0.4583  1.4900
  918MPD2    H313496   2.817   0.769  11.641 -0.9942 -0.7789  0.6006
  918MPD2     N13497   2.870   0.368  11.844  0.6389  0.8038  0.2435
  918MPD2    H513498   2.942   0.317  11.896 -0.3115  0.8955  1.6559
  918MPD2    N113499   3.170   0.731  11.931  0.2453  0.3013  1.1101
  918MPD2    H713500   3.184   0.683  12.020  1.2598 -0.5986  0.4739
  919MPD2     C13501   3.856   4.252  12.133  0.6890  0.1606  0.2422
  919MPD2    C113502   3.855   4.122  12.077 -0.2579  0.4009 -0.4531
  919MPD2    C213503   3.926   4.098  11.958  0.7305 -0.7538  0.0186
  919MPD2    C313504   3.983   4.201  11.886  0.1988 -0.0844 -0.4487
  919MPD2    C413505   3.973   4.330  11.937 -0.0482 -0.2453 -0.5631
  919MPD2    C513506   3.907   4.355  12.054  0.6095  0.0316 -0.2058
  919MPD2     H13507   3.937   3.998  11.917  1.7262 -0.3333 -0.7255
  919MPD2    H113508   3.996   4.413  11.871  3.1195 -0.3991  0.3254
  919MPD2    H213509   3.815   4.277  12.231  0.7797  1.3281 -0.0277
  919MPD2    H313510   3.925   4.453  12.098  1.5597  0.2608 -1.1235
  919MPD2     N13511   4.024   4.191  11.746  0.0060  0.2633 -0.5864
  919MPD2    H513512   4.023   4.276  11.692 -3.6061  0.7158  0.2420
  919MPD2    N113513   3.790   4.009  12.137 -0.2586 -0.5980 -0.3506
  919MPD2    H713514   3.812   3.921  12.092 -0.6398 -0.1892 -1.3231
  920MPD2     C13515   3.948   4.453  10.748  0.2548 -0.6553 -0.9324
  920MPD2    C113516   3.951   4.314  10.745  0.0026 -0.9433  0.6437
  920MPD2    C213517   3.961   4.242  10.865 -0.0511  0.3782  0.1423
  920MPD2    C313518   3.979   4.299  10.988 -0.7108  0.3353  0.5539
  920MPD2    C413519   3.987   4.435  10.980 -0.4813 -0.1323  0.3004
  920MPD2    C513520   3.960   4.509  10.864 -0.4371 -0.2469 -0.1246
  920MPD2     H13521   3.963   4.134  10.870 -0.8051  0.3749  0.3489
  920MPD2    H113522   3.999   4.496  11.069 -0.4087  0.9322 -0.4502
  920MPD2    H213523   3.947   4.515  10.659 -0.6791 -0.0124 -0.4680
  920MPD2    H313524   3.965   4.616  10.879  1.5929 -0.2939 -0.5295
  920MPD2     N13525   3.994   4.223  11.105 -0.1625 -0.4825  0.0989
  920MPD2    H513526   3.995   4.122  11.092 -0.1499 -0.2770 -1.6242
  920MPD2    N113527   3.919   4.240  10.629  0.7769  0.8696  0.0379
  920MPD2    H713528   3.928   4.139  10.635 -0.9963  0.7564  0.8248
  921MPD2     C13529   4.270   3.487  16.809  0.1064 -0.3485  0.3927
  921MPD2    C113530   4.359   3.404  16.752  0.2505  0.2988 -0.1938
  921MPD2    C213531   4.322   3.275  16.730  0.3979  0.7348 -0.3498
  921MPD2    C313532   4.186   3.229  16.741  0.1995 -0.2112 -0.1811
  921MPD2    C413533   4.103   3.313  16.804  0.3028 -0.1416  0.7213
  921MPD2    C513534   4.147   3.439  16.848 -0.8501  0.2447 -0.4013
  921MPD2     H13535   4.393   3.208  16.684  1.4369  2.2611 -0.9767
  921MPD2    H113536   4.002   3.277  16.818  0.0304  0.4332  0.2268
  921MPD2    H213537   4.286   3.592  16.834 -0.3625 -0.4246  1.0027
  921MPD2    H313538   4.077   3.499  16.905 -1.4800 -1.0169  0.1458
  921MPD2     N13539   4.139   3.107  16.689 -0.3668  0.1201 -0.6381
  921MPD2    H513540   4.040   3.093  16.701  0.0767 -3.2791 -0.7956
  921MPD2    N113541   4.485   3.453  16.718  0.0182  0.2644  0.2904
  921MPD2    H713542   4.495   3.553  16.704 -2.2148  0.7822  2.3976
  922MPD2     C13543   0.676   1.340  17.310  0.1789  0.3207  0.1533
  922MPD2    C113544   0.587   1.439  17.286  0.6844  0.2570 -0.6759
  922MPD2    C213545   0.463   1.431  17.347 -0.9864 -0.8596 -0.0709
  922MPD2    C313546   0.430   1.330  17.437  0.8600 -0.8404  0.1866
  922MPD2    C413547   0.525   1.235  17.468  0.3989  0.1630  0.4533
  922MPD2    C513548   0.645   1.239  17.395 -0.3569  0.0893 -0.2408
  922MPD2     H13549   0.386   1.507  17.341  0.7008  0.8161 -0.4568
  922MPD2    H113550   0.509   1.160  17.544 -0.8755  1.3390  1.3383
  922MPD2    H213551   0.779   1.347  17.276 -0.3930  1.9818 -1.2460
  922MPD2    H313552   0.722   1.165  17.414  1.4069  2.3387  1.2778
  922MPD2     N13553   0.303   1.339  17.501 -0.2362  0.2578  0.3939
  922MPD2    H513554   0.236   1.403  17.459  1.0683  0.5622 -1.2193
  922MPD2    N113555   0.616   1.562  17.227  0.4509 -0.1044  0.1660
  922MPD2    H713556   0.546   1.632  17.244  0.7922  0.1305  0.5970
  923MPD2     C13557   2.298   2.726   8.864  0.3576 -0.2478  0.0394
  923MPD2    C113558   2.221   2.757   8.974 -0.1813  0.1219 -0.5465
  923MPD2    C213559   2.280   2.743   9.093  0.5882  0.2284 -0.0548
  923MPD2    C313560   2.420   2.718   9.106 -0.1958 -0.9159  0.4407
  923MPD2    C413561   2.496   2.700   8.992 -0.0611 -0.6462  0.4690
  923MPD2    C513562   2.435   2.697   8.870  0.6767 -0.1413  0.4700
  923MPD2     H13563   2.210   2.762   9.174  0.5147  0.0862 -0.0863
  923MPD2    H113564   2.603   2.682   8.995  0.2410  0.8028 -1.1969
  923MPD2    H213565   2.258   2.726   8.763 -0.9547  0.7058  0.5533
  923MPD2    H313566   2.475   2.658   8.777  0.3106  0.1528  0.1861
  923MPD2     N13567   2.477   2.691   9.230 -0.3615  0.1280  0.4160
  923MPD2    H513568   2.575   2.664   9.234 -0.2146  0.2355 -3.3217
  923MPD2    N113569   2.080   2.781   8.946  0.3886  0.0582  0.3042
  923MPD2    H713570   2.042   2.764   8.853 -1.0627 -1.7231  1.2374
  924MPD2     C13571   1.967   1.413  16.215 -0.4006 -0.9185  0.2271
  924MPD2    C113572   1.959   1.448  16.348 -0.3827 -0.4650  0.1719
  924MPD2    C213573   2.013   1.568  16.384  0.2765  0.3727  0.5947
  924MPD2    C313574   2.084   1.652  16.296 -0.6035 -0.4434 -0.0935
  924MPD2    C413575   2.089   1.617  16.167 -0.4733  0.7599  0.3703
  924MPD2    C513576   2.038   1.497  16.128 -0.4198 -0.2226  0.6559
  924MPD2     H13577   2.011   1.610  16.484  0.6734 -1.7845  1.5175
  924MPD2    H113578   2.132   1.676  16.087  0.1874  0.7083  0.6871
  924MPD2    H213579   1.929   1.326  16.162 -0.7343 -0.1580 -0.7974
  924MPD2    H313580   2.039   1.472  16.023 -1.6616 -0.8800  0.8016
  924MPD2     N13581   2.137   1.778  16.334 -0.1196  0.0712  0.3449
  924MPD2    H513582   2.156   1.846  16.261  0.6940  0.2214  0.6912
  924MPD2    N113583   1.896   1.357  16.436 -0.6697 -0.1706  0.1932
  924MPD2    H713584   1.897   1.259  16.409 -1.1644 -0.2604  0.5022
  925MPD2     C13585   0.777   4.011  15.429  0.5300 -0.2113  0.3380
  925MPD2    C113586   0.680   4.086  15.371  0.8257  0.1521 -0.1382
  925MPD2    C213587   0.600   4.164  15.451 -0.3031 -0.6884 -0.3084
  925MPD2    C313588   0.629   4.186  15.587 -0.1269 -0.0594 -0.3263
  925MPD2    C413589   0.739   4.126  15.636 -0.0236 -0.3617  0.5197
  925MPD2    C513590   0.801   4.028  15.564 -0.9642 -0.4138 -0.5364
  925MPD2     H13591   0.521   4.215  15.396 -1.0015 -1.4177  0.0237
  925MPD2    H113592   0.756   4.131  15.743  2.3030  0.6326  0.1136
  925MPD2    H213593   0.840   3.938  15.380  0.6607 -0.5870  1.0625
  925MPD2    H313594   0.884   3.984  15.619 -0.0117  0.8335 -0.9640
  925MPD2     N13595   0.534   4.249  15.675  0.9348  0.1147 -0.3800
  925MPD2    H513596   0.559   4.258  15.773 -0.1372 -2.1613  0.0962
  925MPD2    N113597   0.655   4.069  15.230 -0.3049  0.7630 -0.3831
  925MPD2    H713598   0.576   4.129  15.207 -1.0486 -0.4266 -0.9658
  926MPD2     C13599   4.226   2.588  13.560 -0.2217  0.1129  0.2567
  926MPD2    C113600   4.125   2.670  13.536 -0.8899 -0.9950 -0.0846
  926MPD2    C213601   4.155   2.783  13.458  0.2753 -0.5131  0.0402
  926MPD2    C313602   4.287   2.819  13.420 -1.0925  0.5780  0.5136
  926MPD2    C413603   4.388   2.739  13.466  0.1441  0.0348 -0.0203
  926MPD2    C513604   4.356   2.626  13.537 -0.2665 -0.0379  0.2321
  926MPD2     H13605   4.076   2.852  13.429  0.4618 -1.4145 -2.6563
  926MPD2    H113606   4.492   2.762  13.444 -0.4108  0.5927 -2.0752
  926MPD2    H213607   4.210   2.489  13.600  0.4813  0.2878  0.9908
  926MPD2    H313608   4.439   2.566  13.571  0.0288 -0.0829 -0.5695
  926MPD2     N13609   4.331   2.921  13.331 -0.1164  0.1060 -0.0695
  926MPD2    H513610   4.425   2.912  13.292 -0.9109 -0.0533 -1.9413
  926MPD2    N113611   3.990   2.643  13.585 -0.3723 -0.5910  0.6052
  926MPD2    H713612   3.915   2.698  13.544 -0.1059 -2.0044 -1.7608
  927MPD2     C13613   3.510   4.618   0.146 -0.3772 -0.5733 -0.1800
  927MPD2    C113614   3.616   4.534   0.157  0.7376  0.5061  1.2861
  927MPD2    C213615   3.741   4.559   0.107 -1.1020 -0.3911 -0.5169
  927MPD2    C313616   3.761   4.684   0.049  0.3499  0.0250 -0.2676
  927MPD2    C413617   3.651   0.025   0.029  0.3831 -0.0248 -0.2791
  927MPD2    C513618   3.527   4.738   0.076 -0.1748  0.0188  0.0621
  927MPD2     H13619   3.828   4.494   0.116 -0.0991  1.0150  0.0606
  927MPD2    H113620   3.653   0.115  17.728 -0.6729  0.9142  1.0505
  927MPD2    H213621   3.414   4.585   0.182 -0.3546 -1.0133 -0.5275
  927MPD2    H313622   3.445   0.066   0.056  0.9981  0.8447 -1.8435
  927MPD2     N13623   3.891   4.704  17.752  0.6901 -0.3780 -0.7087
  927MPD2    H513624   3.954   4.625  17.754  0.8664 -0.1797  1.0869
  927MPD2    N113625   3.581   4.413   0.227 -0.4731 -0.2645 -0.0745
  927MPD2    H713626   3.490   4.423   0.271 -0.2814  0.4963  0.1441
  928MPD2     C13627   1.352   2.692   0.928  0.2352 -0.7080  0.0100
  928MPD2    C113628   1.363   2.829   0.941  0.6184  0.4732  0.2018
  928MPD2    C213629   1.447   2.897   0.852  0.6186  0.5158  0.2342
  928MPD2    C313630   1.506   2.821   0.755 -0.1210  0.1264 -0.1600
  928MPD2    C413631   1.479   2.690   0.734 -0.4021 -0.7683  0.5930
  928MPD2    C513632   1.403   2.620   0.827  0.5032 -0.4606 -0.0575
  928MPD2     H13633   1.479   3.000   0.863  0.3759  0.2157  3.9271
  928MPD2    H113634   1.539   2.637   0.661  0.7774 -0.9896  1.7172
  928MPD2    H213635   1.289   2.634   0.995  0.2299  0.1670  0.7690
  928MPD2    H313636   1.377   2.515   0.815  0.7112 -0.1612 -3.1872
  928MPD2     N13637   1.605   2.877   0.666  0.4350  0.5681  0.1554
  928MPD2    H513638   1.658   2.808   0.614 -1.1633 -0.3618 -0.2524
  928MPD2    N113639   1.318   2.886   1.057 -0.1392 -0.1061 -0.4236
  928MPD2    H713640   1.269   2.824   1.120  1.9227 -0.0678  1.2295
  929MPD2     C13641   2.516   2.873  10.570 -0.6374 -0.7072  0.1350
  929MPD2    C113642   2.444   2.762  10.527 -0.6795 -0.1350 -0.4674
  929MPD2    C213643   2.375   2.769  10.411 -0.2764  0.4009  0.4540
  929MPD2    C313644   2.357   2.889  10.342  0.1704  0.4818  0.1813
  929MPD2    C413645   2.428   2.997  10.381 -0.3449  0.1553  0.4610
  929MPD2    C513646   2.510   2.987  10.494  0.1810  0.0801 -0.3552
  929MPD2     H13647   2.317   2.679  10.392 -0.7321  0.7232  0.3032
  929MPD2    H113648   2.419   3.087  10.321 -1.5186 -0.0379  0.3443
  929MPD2    H213649   2.576   2.878  10.660  0.8347 -1.3459 -0.8083
  929MPD2    H313650   2.571   3.075  10.511 -0.7143  0.3925  1.2165
  929MPD2     N13651   2.273   2.904  10.231 -0.0168 -0.0057  0.6058
  929MPD2    H513652   2.259   3.001  10.206 -1.7441 -0.2412  0.7124
  929MPD2    N113653   2.441   2.644  10.602 -0.0862 -0.1134  0.3306
  929MPD2    H713654   2.362   2.582  10.587  0.3588 -0.0613 -2.3537
  930MPD2     C13655   3.416   0.665  14.141  0.0543  0.1269  0.0389
  930MPD2    C113656   3.550   0.641  14.127 -0.5693 -0.4182 -0.6482
  930MPD2    C213657   3.587   0.553  14.029  0.0451  0.3679  0.5472
  930MPD2    C313658   3.500   0.508  13.935 -0.6989 -0.6936 -0.2656
  930MPD2    C413659   3.367   0.544  13.946  0.5179  0.2945 -0.2948
  930MPD2    C513660   3.325   0.613  14.053 -0.5150 -0.4595  0.2364
  930MPD2     H13661   3.691   0.525  14.019  0.2658  1.1816  0.5280
  930MPD2    H113662   3.295   0.499  13.879 -0.2114 -1.3083  1.5815
  930MPD2    H213663   3.377   0.723  14.223  0.6004 -0.3258  0.6114
  930MPD2    H313664   3.220   0.620  14.081 -0.9656  0.7427 -1.7145
  930MPD2     N13665   3.537   0.429  13.824  0.2123  0.3013 -0.7193
  930MPD2    H513666   3.464   0.418  13.754  0.4356  1.0417 -1.0584
  930MPD2    N113667   3.629   0.708  14.218  0.2334 -0.6856 -0.2790
  930MPD2    H713668   3.587   0.783  14.273 -0.2632 -0.4524 -0.9791
  931MPD2     C13669   4.082   3.917   0.516 -0.0071  0.1538 -0.3228
  931MPD2    C113670   3.967   3.915   0.595 -0.2065 -0.2311 -0.6281
  931MPD2    C213671   3.971   3.874   0.726 -0.4252 -0.0424 -0.4866
  931MPD2    C313672   4.089   3.830   0.777 -0.0007  0.5245  0.3850
  931MPD2    C413673   4.204   3.852   0.701 -0.8582  0.5099  0.5576
  931MPD2    C513674   4.200   3.890   0.569  1.1911  0.2766  0.5432
  931MPD2     H13675   3.878   3.853   0.779 -0.7256  0.4551 -0.8123
  931MPD2    H113676   4.305   3.828   0.734 -0.7901  1.8792  1.3464
  931MPD2    H213677   4.084   3.938   0.410 -0.2823  2.3723  0.1151
  931MPD2    H313678   4.291   3.894   0.511 -0.5200 -2.1119 -2.3135
  931MPD2     N13679   4.099   3.780   0.914 -0.3952 -0.8347 -0.5211
  931MPD2    H513680   4.190   3.746   0.943  0.0722  0.5401 -0.3424
  931MPD2    N113681   3.850   3.948   0.526 -0.1022  0.4145 -0.3930
  931MPD2    H713682   3.857   3.965   0.426 -0.1833  1.5678 -0.2041
  932MPD2     C13683   0.706   3.246  11.106  0.0146  0.2605 -0.6050
  932MPD2    C113684   0.824   3.319  11.114 -1.3270  0.2239 -0.2384
  932MPD2    C213685   0.944   3.254  11.102 -0.0613 -0.3530 -0.1980
  932MPD2    C313686   0.948   3.117  11.090 -0.6468  0.5221  0.4432
  932MPD2    C413687   0.829   3.045  11.077 -0.1744 -0.2838 -0.3387
  932MPD2    C513688   0.710   3.110  11.096 -0.3712 -0.1904 -0.8874
  932MPD2     H13689   1.029   3.321  11.101 -1.4694  1.4611  0.2251
  932MPD2    H113690   0.816   2.938  11.065 -2.1997 -0.0717 -0.1419
  932MPD2    H213691   0.605   3.283  11.121  0.5883  1.4783  0.2605
  932MPD2    H313692   0.611   3.068  11.095 -1.0200  1.3418 -0.2013
  932MPD2     N13693   1.077   3.058  11.108 -0.4822 -0.6755  0.2321
  932MPD2    H513694   1.154   3.123  11.115 -1.0388 -0.0821  0.8882
  932MPD2    N113695   0.820   3.458  11.130  0.0017 -0.2360  0.5140
  932MPD2    H713696   0.910   3.502  11.147 -0.1760  1.2787 -2.3745
  933MPD2     C13697   1.116   3.512   1.573  0.3290  0.5780  0.8600
  933MPD2    C113698   1.194   3.510   1.456 -0.7213  0.5215  0.3631
  933MPD2    C213699   1.190   3.625   1.382  0.0572  0.2036 -0.7448
  933MPD2    C313700   1.116   3.731   1.405 -0.1307  0.9594 -0.8645
  933MPD2    C413701   1.045   3.745   1.524  0.1887 -0.2751  0.5901
  933MPD2    C513702   1.051   3.632   1.609 -1.0675 -0.1179  0.3276
  933MPD2     H13703   1.249   3.626   1.291 -1.0655 -0.8446 -1.4917
  933MPD2    H113704   0.994   3.835   1.553  0.2729 -0.6415  1.8722
  933MPD2    H213705   1.111   3.429   1.643  2.5304  0.9000  1.3885
  933MPD2    H313706   0.999   3.637   1.704 -2.1747  0.1103 -0.2892
  933MPD2     N13707   1.139   3.843   1.327 -0.8986 -0.0721  0.5384
  933MPD2    H513708   1.221   3.834   1.268 -2.2120  2.3505 -1.6079
  933MPD2    N113709   1.261   3.391   1.414 -0.3243 -0.3922 -0.4421
  933MPD2    H713710   1.310   3.406   1.326  1.6942 -2.4874  0.3352
  934MPD2     C13711   3.234   0.888   1.673 -0.2574 -0.4030  0.4927
  934MPD2    C113712   3.235   0.780   1.584  0.3130 -0.0831 -0.1263
  934MPD2    C213713   3.123   0.708   1.557  0.5272 -0.2627 -0.9083
  934MPD2    C313714   2.995   0.751   1.601  0.0749 -0.4025 -0.7535
  934MPD2    C413715   2.995   0.866   1.678  0.0665 -0.2013  0.1247
  934MPD2    C513716   3.109   0.929   1.713  0.2518 -0.6813 -0.0670
  934MPD2     H13717   3.122   0.628   1.484  2.1216 -0.3772 -0.8104
  934MPD2    H113718   2.901   0.888   1.728 -0.3155 -2.0435  0.2182
  934MPD2    H213719   3.321   0.942   1.707 -0.5676  0.0707  0.5224
  934MPD2    H313720   3.117   1.011   1.784 -1.4598 -0.5742 -0.0139
  934MPD2     N13721   2.866   0.685   1.586  0.1232 -0.0781 -0.2273
  934MPD2    H513722   2.779   0.732   1.606 -0.5148 -1.0249 -0.7857
  934MPD2    N113723   3.365   0.746   1.528  0.2730 -0.5802  0.3215
  934MPD2    H713724   3.370   0.677   1.454  0.3054 -0.6081  0.3496
  935MPD2     C13725   2.587   4.467   1.580 -0.1066 -0.0612 -0.6686
  935MPD2    C113726   2.552   4.515   1.451  0.4963 -0.0037 -0.2705
  935MPD2    C213727   2.550   4.655   1.435 -0.0926 -0.4377  0.3681
  935MPD2    C313728   2.588   0.003   1.532  0.1791 -0.0496 -0.2119
  935MPD2    C413729   2.616   4.698   1.658  0.2241 -0.0185 -0.0195
  935MPD2    C513730   2.622   4.562   1.679  0.7248  0.0093 -0.2567
  935MPD2     H13731   2.516   4.692   1.339  0.4925 -1.2462 -0.1572
  935MPD2    H113732   2.634   0.028   1.738 -4.4714 -0.1910  1.1824
  935MPD2    H213733   2.599   4.361   1.602 -0.7995 -0.2108 -1.0024
  935MPD2    H313734   2.641   4.538   1.783 -2.0253  2.9915  0.9361
  935MPD2     N13735   2.585   0.145   1.519  0.1536 -0.5462  0.3661
  935MPD2    H513736   2.627   0.189   1.599  0.6231 -0.4815  0.0854
  935MPD2    N113737   2.505   4.434   1.343 -0.1195  0.3507 -0.3020
  935MPD2    H713738   2.457   4.474   1.263 -0.2262 -0.1506 -0.4866
  936MPD2     C13739   1.025   1.415  12.777 -0.2369  0.1137  0.2519
  936MPD2    C113740   1.095   1.474  12.880 -0.4571 -0.0976 -0.3071
  936MPD2    C213741   1.223   1.513  12.843 -0.5177 -0.4618  0.1981
  936MPD2    C313742   1.279   1.495  12.726 -0.0761 -0.1041  0.1595
  936MPD2    C413743   1.209   1.441  12.621 -0.3478  0.4573 -0.9970
  936MPD2    C513744   1.082   1.404  12.653  1.1450 -0.5087 -0.2739
  936MPD2     H13745   1.279   1.559  12.923 -0.3204  1.6309 -1.1323
  936MPD2    H113746   1.247   1.405  12.526 -0.3595 -0.2527 -0.7362
  936MPD2    H213747   0.926   1.372  12.779 -0.7248  1.1216 -1.8456
  936MPD2    H313748   1.027   1.344  12.580  0.4079 -1.0248  0.7086
  936MPD2     N13749   1.413   1.541  12.709 -0.0366  0.2714 -0.5686
  936MPD2    H513750   1.462   1.569  12.793 -0.7485  0.3027 -0.1702
  936MPD2    N113751   1.056   1.478  13.015  0.5148 -0.1129  0.0038
  936MPD2    H713752   1.122   1.527  13.074  2.3736 -3.2449  0.5101
  937MPD2     C13753   3.656   3.421  11.863  0.2981  0.8662 -0.0632
  937MPD2    C113754   3.733   3.447  11.969  0.3611  0.3313  0.0164
  937MPD2    C213755   3.868   3.429  11.953  0.4399 -0.4523 -0.0719
  937MPD2    C313756   3.920   3.386  11.831 -0.0767 -0.5872  0.2424
  937MPD2    C413757   3.839   3.351  11.724  0.0985  0.4983 -0.2920
  937MPD2    C513758   3.706   3.356  11.747 -0.4187  0.0364 -0.0350
  937MPD2     H13759   3.933   3.456  12.035 -1.2750  2.2504  0.4077
  937MPD2    H113760   3.872   3.307  11.630 -0.4862 -0.5926  0.0245
  937MPD2    H213761   3.548   3.432  11.865  0.3339  1.0104  0.8548
  937MPD2    H313762   3.633   3.304  11.687 -1.2339  0.2719  0.7536
  937MPD2     N13763   4.060   3.399  11.817 -0.3902 -0.5365  0.1701
  937MPD2    H513764   4.107   3.423  11.904 -0.6736 -0.3703  0.2751
  937MPD2    N113765   3.698   3.534  12.080 -0.8329  0.2283 -0.5419
  937MPD2    H713766   3.778   3.560  12.137 -2.3709  0.3804  1.5017
  938MPD2     C13767   1.715   0.342   0.473 -0.0496 -0.0941 -0.5533
  938MPD2    C113768   1.796   0.368   0.580  0.2876  0.1105  0.1213
  938MPD2    C213769   1.804   0.266   0.674 -0.0805  0.0735  0.2246
  938MPD2    C313770   1.746   0.141   0.662 -0.2913  0.0462 -0.4724
  938MPD2    C413771   1.671   0.120   0.551 -0.6530  0.0797 -0.4741
  938MPD2    C513772   1.661   0.216   0.456 -0.5246  0.3815  0.3189
  938MPD2     H13773   1.858   0.290   0.765  0.8852  5.0592 -1.6449
  938MPD2    H113774   1.613   0.030   0.533  0.0551 -0.0879 -1.8967
  938MPD2    H213775   1.711   0.413   0.391 -2.0431  0.8052  0.3239
  938MPD2    H313776   1.596   0.196   0.372  1.4128 -0.7449 -0.8797
  938MPD2     N13777   1.738   0.040   0.766  0.0070  0.1122 -0.5828
  938MPD2    H513778   1.691   4.693   0.745 -1.5895  0.8423 -0.0589
  938MPD2    N113779   1.856   0.495   0.605  0.5943  0.4348  0.5004
  938MPD2    H713780   1.913   0.491   0.689  1.8326  4.2582 -0.1326
  939MPD2     C13781   3.166   1.289   1.019  0.8852  0.1265 -0.5611
  939MPD2    C113782   3.063   1.380   1.013  0.3089  0.8312 -0.6108
  939MPD2    C213783   2.974   1.367   0.906 -0.2337  0.0033 -0.4831
  939MPD2    C313784   2.992   1.274   0.807  0.8537 -0.4470 -0.2308
  939MPD2    C413785   3.093   1.183   0.818 -0.2144  0.1338  0.2450
  939MPD2    C513786   3.176   1.184   0.927  0.1442  0.2295  0.1526
  939MPD2     H13787   2.889   1.435   0.909 -0.4808 -0.2092 -2.8716
  939MPD2    H113788   3.122   1.114   0.739 -0.7099  0.5190 -0.2696
  939MPD2    H213789   3.231   1.289   1.106  0.3085  0.1001 -0.1280
  939MPD2    H313790   3.265   1.123   0.926 -0.5355 -0.7426 -1.4382
  939MPD2     N13791   2.908   1.280   0.694 -0.2091  0.3005  0.1426
  939MPD2    H513792   2.825   1.339   0.697  0.5996  1.5084 -1.3429
  939MPD2    N113793   3.048   1.464   1.126  0.2060 -0.0485 -0.3080
  939MPD2    H713794   3.112   1.443   1.201 -2.9015 -3.4562  1.4007
  940MPD2     C13795   2.475   2.024  12.671  0.0189 -0.0201  0.3555
  940MPD2    C113796   2.380   1.940  12.716 -1.2399  0.2363 -0.2691
  940MPD2    C213797   2.410   1.809  12.724  0.6787 -0.4503 -0.1261
  940MPD2    C313798   2.525   1.760  12.676  0.5420 -0.0614 -0.2559
  940MPD2    C413799   2.621   1.842  12.616 -0.1522  1.1460 -0.2282
  940MPD2    C513800   2.590   1.977  12.621 -0.1068 -0.0579 -0.6891
  940MPD2     H13801   2.335   1.750  12.776  1.7718  0.5759  2.6186
  940MPD2    H113802   2.720   1.811  12.586 -0.7751  0.6221 -1.7776
  940MPD2    H213803   2.469   2.131  12.687  0.8911  0.2557 -1.1674
  940MPD2    H313804   2.676   2.040  12.603 -0.2517  0.6711  1.1855
  940MPD2     N13805   2.551   1.624  12.689  0.7939 -0.2744 -0.2634
  940MPD2    H513806   2.641   1.597  12.650  1.0014 -0.2215  0.1741
  940MPD2    N113807   2.260   1.987  12.774  0.3763 -0.5050  0.1449
  940MPD2    H713808   2.194   1.915  12.803  0.3788 -0.0234  1.3196
  941MPD2     C13809   1.108   1.150  10.658  0.3543  0.5702 -0.4901
  941MPD2    C113810   1.189   1.093  10.560 -0.5335  0.7324  0.1429
  941MPD2    C213811   1.241   0.967  10.582  0.0640  0.2432 -0.0075
  941MPD2    C313812   1.230   0.908  10.704  0.0768  0.7028  0.1210
  941MPD2    C413813   1.153   0.970  10.805 -0.1202 -0.4807  0.2072
  941MPD2    C513814   1.090   1.090  10.780  0.4273  0.3936  0.8301
  941MPD2     H13815   1.291   0.907  10.507 -0.9560 -1.3402  0.5960
  941MPD2    H113816   1.135   0.924  10.901 -1.4503 -1.7658 -0.6598
  941MPD2    H213817   1.064   1.247  10.639 -0.0310  0.3631 -0.6647
  941MPD2    H313818   1.041   1.147  10.858  1.0829  1.7890  0.2377
  941MPD2     N13819   1.293   0.778  10.734  0.4724 -0.4675 -0.3359
  941MPD2    H513820   1.288   0.744  10.829  0.1933 -0.4580 -0.3484
  941MPD2    N113821   1.207   1.157  10.439 -0.3208  0.2682  0.5478
  941MPD2    H713822   1.244   1.102  10.363 -0.0581  1.2832 -0.0669
  942MPD2     C13823   1.318   2.549   9.134 -0.4319 -0.4121  0.2107
  942MPD2    C113824   1.389   2.614   9.234 -0.0860  0.3274 -0.2154
  942MPD2    C213825   1.527   2.584   9.238 -0.2015 -0.1071  0.6799
  942MPD2    C313826   1.589   2.488   9.158  0.2820  0.0224 -0.9555
  942MPD2    C413827   1.515   2.424   9.063 -0.6413 -0.0017 -0.4086
  942MPD2    C513828   1.383   2.462   9.051  0.1208  0.2754 -0.1782
  942MPD2     H13829   1.597   2.644   9.296 -0.0496 -0.0509  0.4377
  942MPD2    H113830   1.559   2.351   8.997 -0.0532 -0.5617  0.6110
  942MPD2    H213831   1.211   2.560   9.128 -0.5605 -1.0064  1.3181
  942MPD2    H313832   1.324   2.411   8.975  1.7945 -1.7885 -0.1032
  942MPD2     N13833   1.729   2.453   9.158  0.3840 -0.2292  0.6094
  942MPD2    H513834   1.765   2.392   9.085 -1.8143  1.9205 -2.2626
  942MPD2    N113835   1.333   2.714   9.324  0.5076  0.4985  0.3649
  942MPD2    H713836   1.383   2.742   9.408  2.9577  0.3809 -1.0602
  943MPD2     C13837   4.561   1.336   9.854  0.0824 -0.6155  0.0651
  943MPD2    C113838   4.513   1.234   9.923  0.3009 -0.5488 -0.2365
  943MPD2    C213839   4.538   1.226  10.061  1.1285  0.4812 -0.3177
  943MPD2    C313840   4.612   1.319  10.124 -0.1447  0.8798  0.3444
  943MPD2    C413841   4.663   1.418  10.049 -0.4418  0.5585 -0.0385
  943MPD2    C513842   4.634   1.432   9.914  0.1066  0.7737  0.0923
  943MPD2     H13843   4.493   1.141  10.111 -1.1530 -0.1012 -3.3513
  943MPD2    H113844   4.726   1.491  10.099 -1.4315  2.1076 -1.0776
  943MPD2    H213845   4.531   1.352   9.751  0.8984 -1.9099 -0.3780
  943MPD2    H313846   4.677   1.517   9.862 -0.0237  2.2982  2.4983
  943MPD2     N13847   4.635   1.318  10.266  0.2819 -0.3440 -0.4449
  943MPD2    H513848   4.721   1.364  10.293 -0.6592 -0.3074  2.4996
  943MPD2    N113849   4.444   1.129   9.854 -0.7753 -0.3105  0.3176
  943MPD2    H713850   4.428   1.146   9.755  0.1830 -1.6669 -0.0786
  944MPD2     C13851   0.177   0.839  11.134 -0.6293 -0.0790  0.2764
  944MPD2    C113852   0.050   0.783  11.120  0.0996 -0.0392 -0.1554
  944MPD2    C213853   4.701   0.811  11.220  0.3257  0.8685 -0.3017
  944MPD2    C313854   4.734   0.885  11.333  0.0509 -0.0093  0.5310
  944MPD2    C413855   0.119   0.942  11.339  0.2466 -0.1807  0.6269
  944MPD2    C513856   0.211   0.924  11.236 -0.2259 -0.3319  0.4333
  944MPD2     H13857   4.601   0.772  11.208  0.7980 -0.1511 -0.9156
  944MPD2    H113858   0.161   0.993  11.424  0.0847  0.0441  0.5740
  944MPD2    H213859   0.256   0.807  11.067  0.3097  1.6362  0.5611
  944MPD2    H313860   0.314   0.957  11.247  0.6405 -2.0346 -2.4081
  944MPD2     N13861   4.641   0.907  11.431  0.1301  0.7923  0.6738
  944MPD2    H513862   4.553   0.858  11.418  0.9684  0.0515 -2.2880
  944MPD2    N113863   0.027   0.690  11.023  0.2865 -0.8006  0.5597
  944MPD2    H713864   0.102   0.667  10.959 -0.3786  2.6663 -1.4566
    1TMC1    C113865   3.337   1.568  14.666  0.4204 -0.1330  0.8930
    1TMC1    C213866   3.467   1.619  14.666 -0.3727 -0.2320  0.0395
    1TMC1    C313867   3.546   1.586  14.554 -0.6938 -0.0988  0.2471
    1TMC1    C413868   3.290   1.483  14.571  0.0533 -0.4548  0.2672
    1TMC1    C513869   3.377   1.446  14.474  0.2554 -0.9523  0.9526
    1TMC1    C613870   3.501   1.504  14.452  0.2613 -0.3408 -0.5269
    1TMC1     C13871   3.250   1.594  14.781  0.1528  0.0457  0.1213
    1TMC1     O13872   3.314   1.611  14.883  0.0020 -0.2132 -0.2385
    1TMC1     H13873   3.513   1.661  14.755 -2.8317  0.1657  1.1342
    1TMC1    H113874   3.193   1.433  14.577 -0.3255  0.4694  1.9527
    1TMC1    H213875   3.566   1.487  14.367 -2.9953 -0.8258 -2.9107
    1TMC1    C713876   3.321   1.370  14.366 -0.1765 -0.1684 -0.1831
    1TMC1    C813877   3.653   1.675  14.518  0.3116 -0.5090 -0.0545
    1TMC1    O113878   3.315   1.247  14.370 -0.0051 -0.7011  0.5507
    1TMC1    O213879   3.743   1.642  14.443 -0.4882  0.4729 -0.0343
    1TMC1    O313880   3.344   1.450  14.259  0.2620 -0.0396 -0.6073
    1TMC1    H313881   3.340   1.545  14.282 -2.5875 -0.5404  1.0106
    1TMC1    O513882   3.599   1.799  14.537  0.5918  0.8641  0.1415
    1TMC1    H513883   3.532   1.809  14.608 -0.3958 -0.5465 -0.6019
    2MPD2     C13884   2.818   1.705  15.020  0.1856 -0.7023 -0.2265
    2MPD2    C113885   2.785   1.680  14.893 -0.4202 -0.3429  0.4445
    2MPD2    C213886   2.885   1.640  14.806 -0.4404  0.6931 -0.1083
    2MPD2    C313887   3.017   1.638  14.847  0.0619 -0.1932 -0.5947
    2MPD2    C413888   3.049   1.675  14.979  0.0024 -0.2952 -0.0579
    2MPD2    C513889   2.948   1.697  15.062 -0.3813 -0.5795 -0.0127
    2MPD2     H13890   2.872   1.603  14.705 -0.2097  1.1611 -0.3090
    2MPD2    H113891   3.151   1.680  15.017 -0.7255 -0.5128  1.8999
    2MPD2    H213892   2.741   1.717  15.095  1.1783  1.1618  0.5012
    2MPD2    H313893   2.968   1.702  15.168 -0.7055 -3.6563  0.2101
    2MPD2     N13894   3.116   1.597  14.752 -0.5563 -0.3064 -0.0502
    2MPD2    H513895   3.085   1.568  14.660  1.5594 -5.5105  0.8796
    2MPD2    N113896   2.648   1.693  14.859 -0.2357  0.7390 -0.1768
    2MPD2    H713897   2.583   1.698  14.937  1.0024  0.8259  0.8620
    3TMC2    C113898   2.460   1.697  14.726 -0.1189 -0.4354  0.1232
    3TMC2    C213899   2.378   1.667  14.830  0.5241  0.1070 -0.1034
    3TMC2    C313900   2.243   1.677  14.805  0.3333  0.3100 -0.2623
    3TMC2    C413901   2.415   1.733  14.600 -0.2814 -0.9681  0.3856
    3TMC2    C513902   2.278   1.728  14.578  0.3855  0.3919  0.3668
    3TMC2    C613903   2.187   1.691  14.673  0.5835  0.2377  0.2897
    3TMC2     C13904   2.596   1.682  14.736  0.7241 -0.1062 -0.4021
    3TMC2     O13905   2.653   1.661  14.625  0.3054  0.5112 -0.1307
    3TMC2     H13906   2.414   1.608  14.913 -0.7370 -1.8369 -0.9318
    3TMC2    H113907   2.488   1.745  14.521  1.6392  1.1291  2.4912
    3TMC2    H213908   2.083   1.669  14.653  0.0325  1.3487  1.9279
    3TMC2    C713909   2.232   1.719  14.438 -0.5955  0.0701 -0.2725
    3TMC2    C813910   2.148   1.638  14.906  0.5273  0.3853  0.2651
    3TMC2    O113911   2.141   1.647  14.405 -0.0985 -0.3816  0.5433
    3TMC2    O213912   2.033   1.598  14.892 -0.1897  0.2113 -0.4971
    3TMC2    O513913   2.204   1.674  15.021  0.2397  0.0648 -0.2107
    3TMC2    H513914   2.288   1.723  15.006  1.1066 -1.7902 -1.4508
    4TMC2    C113915   2.733   2.124  13.665  0.4369  0.1705  0.4803
    4TMC2    C213916   2.865   2.091  13.655  0.0785  0.2368  0.8268
    4TMC2    C313917   2.917   2.013  13.754  0.6226  1.1074 -0.0768
    4TMC2    C413918   2.653   2.059  13.753  0.0131  0.2367 -0.4329
    4TMC2    C513919   2.709   1.980  13.844  0.5570  1.0888 -0.0313
    4TMC2    C613920   2.838   1.946  13.844  0.0385 -0.1466  0.3816
    4TMC2     C13921   2.685   2.254  13.624  0.5052  0.1498  0.0973
    4TMC2     O13922   2.764   2.348  13.616  0.3497 -0.3291 -0.0093
    4TMC2     H13923   2.921   2.151  13.584  1.5672 -1.8916  0.2063
    4TMC2    H113924   2.557   2.105  13.773  0.4054  0.4789  0.8497
    4TMC2    H213925   2.877   1.871  13.912  0.9542  1.7512  1.9335
    4TMC2    C713926   2.627   1.937  13.953 -0.1772  0.7862  0.1881
    4TMC2    C813927   3.062   2.008  13.786 -0.2043  0.8220 -1.2508
    4TMC2    O113928   2.689   1.926  14.063 -0.5787  0.2078  0.4185
    4TMC2    O213929   3.104   1.911  13.850  0.1713  0.0006 -0.2309
    4TMC2    O513930   3.137   2.096  13.710 -0.2304  0.1045 -0.0958
    4TMC2    H513931   3.076   2.164  13.675 -1.0624 -0.8934 -0.5937
    5MPD2     C13932   2.302   2.554  13.475 -0.1774 -0.0880 -0.1193
    5MPD2    C113933   2.252   2.427  13.484 -0.3808  0.1811  0.4830
    5MPD2    C213934   2.337   2.324  13.531 -0.0101 -0.1437 -0.3070
    5MPD2    C313935   2.472   2.356  13.552 -0.4718  0.2586 -0.0420
    5MPD2    C413936   2.521   2.484  13.546  0.0036 -0.1441  0.4512
    5MPD2    C513937   2.432   2.582  13.508 -0.7655 -0.0422 -0.3721
    5MPD2     H13938   2.302   2.222  13.536  0.9955 -0.4095  1.1106
    5MPD2    H113939   2.627   2.505  13.559 -0.0862  1.4015 -1.2387
    5MPD2    H213940   2.240   2.635  13.440  1.0003 -0.5447 -3.2476
    5MPD2    H313941   2.464   2.683  13.486 -0.3592  0.2960  1.7138
    5MPD2     N13942   2.557   2.248  13.590  0.1304  0.3160  1.0881
    5MPD2    H513943   2.509   2.160  13.602  0.5622 -0.3374 -1.8944
    5MPD2    N113944   2.113   2.405  13.466 -0.3840 -0.0696  0.1131
    5MPD2    H713945   2.084   2.321  13.515  0.2517 -1.0879 -1.2251
    6MPD1     C13946   1.294   3.814  13.775  0.2648 -0.4953 -0.1854
    6MPD1    C113947   1.246   3.798  13.646  0.2961 -0.6468 -0.7550
    6MPD1    C213948   1.237   3.671  13.588  0.2987 -0.8489  0.6484
    6MPD1    C313949   1.270   3.560  13.668  0.2819  0.5863  0.2935
    6MPD1    C413950   1.316   3.578  13.798  0.0695  0.2653  0.7081
    6MPD1    C513951   1.340   3.705  13.849  0.2081  0.0293  0.0950
    6MPD1     H13952   1.194   3.662  13.489 -2.3266 -1.2055  1.8209
    6MPD1    H113953   1.350   3.491  13.853  0.2057  0.6998  1.3061
    6MPD1    H213954   1.308   3.910  13.823  3.3560 -2.1331  2.1937
    6MPD1    H313955   1.378   3.710  13.950 -1.8892  0.6986  0.8557
    6MPD1     N13956   1.250   3.425  13.627  0.0538  0.2611  0.6427
    6MPD1    H513957   1.271   3.358  13.701 -1.1927  1.3943  2.0320
    6MPD1    N113958   1.182   3.907  13.587  0.1455  0.1711 -0.8914
    6MPD1    H613959   1.233   3.995  13.582 -0.4124  0.6073  0.8898
    6MPD1    H713960   1.163   3.882  13.491 -1.0055  0.4712 -0.7383
    7MPD2     C13961   1.397   2.739  13.838  0.2826  0.6449  0.2466
    7MPD2    C113962   1.397   2.744  13.704 -0.4025  0.2363 -0.5926
    7MPD2    C213963   1.458   2.642  13.630  0.8467  0.2694  0.3499
    7MPD2    C313964   1.539   2.546  13.690 -0.2626 -0.2613  0.0663
    7MPD2    C413965   1.546   2.547  13.829 -0.2610 -0.4998 -0.0168
    7MPD2    C513966   1.468   2.636  13.896  0.3090 -0.3786  0.2527
    7MPD2     H13967   1.447   2.630  13.523 -0.5017 -1.4204  0.6726
    7MPD2    H113968   1.601   2.475  13.889 -1.0875 -0.9304  0.2251
    7MPD2    H213969   1.344   2.815  13.893  1.5332 -0.3448  2.8099
    7MPD2    H313970   1.474   2.639  14.005 -0.2828  1.9736  0.2222
    7MPD2     N13971   1.605   2.447  13.610 -0.2629  0.6421  0.9084
    7MPD2    H513972   1.579   2.448  13.511  1.4993  0.6211  0.4496
    7MPD2    N113973   1.318   2.837  13.627  0.2535  0.0197  0.1209
    7MPD2    H713974   1.327   2.817  13.528 -1.1986 -1.4627  0.2816
    8TMC3    C113975   1.742   2.292  13.523 -0.3758  0.1713  0.3647
    8TMC3    C213976   1.865   2.339  13.507 -0.6067 -0.4154  0.7065
    8TMC3    C313977   1.894   2.419  13.395  0.4010 -0.4808 -0.6431
    8TMC3    C413978   1.651   2.298  13.417  0.2735  0.3311  0.3925
    8TMC3    C513979   1.682   2.374  13.301  0.2212 -0.1904 -0.1904
    8TMC3    C613980   1.802   2.433  13.297 -0.2442  0.2321 -0.1323
    8TMC3     C13981   1.690   2.352  13.646  1.0571  0.0380  0.0670
    8TMC3     O13982   1.728   2.316  13.757 -0.3780 -0.0135 -0.3893
    8TMC3     H13983   1.919   2.361  13.599  2.5570 -1.0046 -1.0176
    8TMC3    H113984   1.554   2.256  13.440  0.7137 -0.8229  0.1270
    8TMC3    H213985   1.828   2.499  13.215 -0.4838  2.0176  1.2188
    8TMC3    C713986   1.577   2.455  13.255  0.0104  1.0223  0.3191
    8TMC3    C813987   2.029   2.479  13.381 -0.4574  0.7782  0.0602
    8TMC3    O113988   1.490   2.477  13.336 -0.6084  0.5236  0.4234
    8TMC3    O213989   2.059   2.559  13.293 -0.4228 -0.0561 -0.0155
    9TMC3    C113990   1.214   3.244  13.481 -0.1587 -1.1319 -0.8428
    9TMC3    C213991   1.209   3.198  13.352 -0.1413  0.1618 -0.4210
    9TMC3    C313992   1.199   3.061  13.331  0.1096 -0.3101  1.2111
    9TMC3    C413993   1.206   3.163  13.586 -0.5728 -0.5845 -0.4395
    9TMC3    C513994   1.197   3.026  13.562 -0.1668 -0.3353  0.4853
    9TMC3    C613995   1.197   2.970  13.434 -0.0518 -0.6089  0.3837
    9TMC3     C13996   1.202   3.386  13.506 -0.6991  0.2262 -0.2309
    9TMC3     O13997   1.183   3.450  13.403 -0.5285 -0.6085 -0.0232
    9TMC3     H13998   1.210   3.255  13.260  0.3798  0.6376 -0.1213
    9TMC3    H113999   1.222   3.188  13.690  0.2607  0.8258 -0.9175
    9TMC3    H214000   1.179   2.865  13.413 -3.9702  0.1820 -0.2993
    9TMC3    C714001   1.241   2.941  13.671 -0.4626 -0.2273  0.2129
    9TMC3    C814002   1.238   3.015  13.200  0.1186 -0.5380 -0.8915
    9TMC3    O114003   1.227   2.986  13.785  0.1746  0.1087 -0.7330
    9TMC3    O214004   1.243   3.089  13.104  0.2533  0.5656 -0.0382
   10MPD2     C14005   1.504   2.647  12.943 -0.0760  0.2175  0.4019
   10MPD2    C114006   1.511   2.616  13.081  0.0861 -0.4349 -0.3301
   10MPD2    C214007   1.433   2.705  13.163 -0.1715  0.5426  0.4361
   10MPD2    C314008   1.358   2.810  13.112 -0.0247 -0.8664 -0.4389
   10MPD2    C414009   1.348   2.827  12.977 -0.4243 -0.0843  0.3662
   10MPD2    C514010   1.424   2.748  12.893 -0.4333 -0.0152  0.0415
   10MPD2     H14011   1.436   2.700  13.272  2.4162  0.6963  0.3733
   10MPD2    H114012   1.298   2.912  12.933 -0.5866 -1.1095 -1.4577
   10MPD2    H214013   1.548   2.573  12.877 -2.3242 -0.7582 -0.0329
   10MPD2    H314014   1.437   2.764  12.787 -0.7317  1.2470  0.1980
   10MPD2     N14015   1.291   2.884  13.209  0.2615 -0.7665  0.1236
   10MPD2    H514016   1.303   2.838  13.299  1.1490 -0.9237 -0.0785
   10MPD2    N114017   1.594   2.515  13.134  0.2742 -0.2884  0.9119
   10MPD2    H714018   1.668   2.477  13.076  1.3014  1.0952  1.3199
   11MPD2     C14019   2.169   1.792  14.163 -0.2858 -0.0942  0.1641
   11MPD2    C114020   2.289   1.821  14.223 -0.5030 -0.1792 -0.0542
   11MPD2    C214021   2.390   1.873  14.150  0.8409 -0.0121  0.3923
   11MPD2    C314022   2.380   1.895  14.012  0.1302  0.6972  0.1043
   11MPD2    C414023   2.258   1.870  13.957 -0.0312  0.4520  0.4789
   11MPD2    C514024   2.154   1.819  14.027 -0.9090 -0.3413 -0.1131
   11MPD2     H14025   2.488   1.900  14.189  1.9939 -0.9329 -1.8286
   11MPD2    H114026   2.233   1.897  13.855 -1.4618  0.4722  0.8358
   11MPD2    H214027   2.081   1.761  14.217 -1.2985 -0.3121 -1.6257
   11MPD2    H314028   2.056   1.805  13.982 -0.7629  1.0867 -0.8775
   11MPD2     N14029   2.493   1.927  13.924 -0.7237  0.4605 -0.2930
   11MPD2    H514030   2.464   1.935  13.828 -1.2367 -2.0474 -0.3500
   11MPD2    N114031   2.306   1.803  14.361 -0.3895  0.3431 -0.1745
   11MPD2    H714032   2.380   1.863  14.395 -0.0494 -0.1526 -0.0440
    1MPD1     C14033   1.005   4.365  17.180 -0.1888  0.0468 -0.4860
    1MPD1    C114034   0.880   4.396  17.138  0.3728  0.3545  0.0994
    1MPD1    C214035   0.785   4.301  17.161  0.4612  0.4870  0.5295
    1MPD1    C314036   0.808   4.186  17.236 -0.9639 -0.2706 -0.1250
    1MPD1    C414037   0.935   4.161  17.276  0.0604  0.0400 -0.1362
    1MPD1    C514038   1.037   4.246  17.242  0.3104 -0.0718  1.2031
    1MPD1     H14039   0.686   4.317  17.120 -0.7591 -1.0509  2.8823
    1MPD1    H114040   0.958   4.068  17.328  0.6355 -1.3364 -2.8640
    1MPD1    H214041   1.093   4.426  17.162  0.1833 -0.6506 -1.0210
    1MPD1    H314042   1.142   4.228  17.264  0.7855  0.2128 -0.8946
    1MPD1     N14043   0.711   4.080  17.276 -0.0841 -0.6136  0.2957
    1MPD1    H514044   0.747   4.000  17.327 -0.9196 -1.9131 -1.1174
    1MPD1    N114045   0.857   4.483  17.032  0.6385 -0.3512  0.3855
    1MPD1    H614046   0.759   4.511  17.031  0.5584 -0.8494 -4.1282
    1MPD1    H714047   0.910   4.569  17.045 -1.7340  1.4077 -1.4716
    2MPD1     C14048   0.942   3.431   0.038 -0.4790  0.0367  0.4790
    2MPD1    C114049   1.005   3.539  17.739  0.0344 -0.4448  0.1813
    2MPD1    C214050   0.936   3.604  17.637 -0.0605 -0.2139 -0.0184
    2MPD1    C314051   0.798   3.589  17.622  0.7736 -0.2478  0.4794
    2MPD1    C414052   0.735   3.499  17.704 -0.4089 -0.4708 -0.0353
    2MPD1    C514053   0.810   3.411   0.021 -0.9730  0.0525  0.0085
    2MPD1     H14054   0.994   3.674  17.578 -3.0326  3.4612  1.4770
    2MPD1    H114055   0.631   3.470  17.694 -0.0689 -1.7916  0.2860
    2MPD1    H214056   1.009   3.369   0.097  1.3397 -0.1971 -1.8334
    2MPD1    H314057   0.755   3.338   0.078 -1.5038 -0.9420 -1.7890
    2MPD1     N14058   0.718   3.669  17.533 -0.1602  0.0089  0.3177
    2MPD1    H514059   0.769   3.745  17.489  2.0215 -0.8146  1.4258
    2MPD1    N114060   1.143   3.559  17.751 -0.0417  0.1475 -0.1138
    2MPD1    H614061   1.176   3.644  17.706 -1.0149  0.7171  0.2469
    2MPD1    H714062   1.178   3.565   0.085 -2.6315  2.6098  0.6818
    3TMC3    C114063   0.527   3.733  17.395 -0.0839 -0.2253  0.6996
    3TMC3    C214064   0.424   3.682  17.315  0.3118  0.6440 -0.8271
    3TMC3    C314065   0.371   3.771  17.221 -0.3639  0.3281  0.1430
    3TMC3    C414066   0.569   3.864  17.388 -0.2206  0.5931 -0.0459
    3TMC3    C514067   0.510   3.949  17.297  0.3599 -0.1966  0.0882
    3TMC3    C614068   0.412   3.903  17.221  0.3632 -0.2069 -0.1907
    3TMC3     C14069   0.588   3.641  17.496 -0.5205 -0.4416 -0.3347
    3TMC3     O14070   0.527   3.534  17.504  0.2942 -0.0277 -0.5542
    3TMC3     H14071   0.396   3.578  17.328 -1.3774  1.5896  3.2271
    3TMC3    H114072   0.643   3.901  17.458 -0.9858  0.2435  0.9572
    3TMC3    H214073   0.347   3.975  17.171 -0.1195 -1.0235 -0.7336
    3TMC3    C714074   0.576   4.069  17.245  0.2263 -0.4778  0.1950
    3TMC3    C814075   0.239   3.741  17.154  0.1458  0.4400 -0.2680
    3TMC3    O114076   0.516   4.146  17.172  0.0754 -0.2734 -1.2245
    3TMC3    O214077   0.187   3.823  17.086  0.0856 -0.4713  0.6672
    4MPD1     C14078   4.595   3.420  17.038 -0.4058 -0.5242 -0.3970
    4MPD1    C114079   4.699   3.349  17.090  0.6170  0.0990  1.1930
    4MPD1    C214080   0.067   3.416  17.138 -0.0669 -0.0856  0.3139
    4MPD1    C314081   0.075   3.552  17.123 -0.1072 -0.1705  0.3274
    4MPD1    C414082   4.720   3.627  17.061  0.6021  0.6414 -0.4083
    4MPD1    C514083   4.608   3.553  17.020  0.5129  0.3029  0.6136
    4MPD1     H14084   0.133   3.358  17.201 -1.3464 -1.6373  0.2311
    4MPD1    H114085   4.727   3.735  17.056 -2.0844  0.8122 -0.4800
    4MPD1    H214086   4.509   3.370  16.995 -0.3101 -0.3854 -0.7441
    4MPD1    H314087   4.531   3.607  16.966 -0.4123 -1.2179  0.4242
    4MPD1     N14088   0.196   3.610  17.170 -0.4467 -0.3191 -0.0696
    4MPD1    H514089   0.268   3.551  17.210  0.6887  0.0426 -1.6060
    4MPD1    N114090   4.684   3.216  17.129  0.5833 -0.4375 -0.8467
    4MPD1    H614091   0.036   3.174  17.128  0.8512  0.1720 -2.4073
    4MPD1    H714092   4.622   3.178  17.059 -0.9955  0.0742  0.2836
    1TCq1    O114093   4.168   1.236   1.412  0.1230  0.1394 -0.6041
    1TCq1    C114094   4.082   1.293   1.496 -0.0441 -0.1073  0.1400
    1TCq1    O214095   4.036   1.236   1.594  0.5851 -0.1444  0.0339
    1TCq1    C214096   4.076   1.429   1.472 -0.5350 -0.4994  0.2735
    1TCq1    C314097   4.063   1.513   1.580  0.4548 -0.5780  0.3063
    1TCq1    C414098   3.988   1.625   1.570  0.1553  0.2732  0.2463
    1TCq1    C514099   3.928   1.660   1.450  0.5123  0.4609 -0.5918
    1TCq1    C614100   3.948   1.575   1.341 -0.0990  0.0222 -0.2936
    1TCq1    C714101   4.023   1.460   1.350 -0.8203  0.2915  0.0489
    1TCq1    C814102   3.844   1.569   1.233  0.2617  0.2113  0.0416
    1TCq1    O414103   3.867   1.481   1.151  0.2301  0.0381  0.3968
    1TCq1    C914104   3.908   1.649   1.690  0.2065 -0.1859 -0.0848
    1TCq1    O514105   3.798   1.708   1.667  0.2110 -0.2479  0.0497
    1TCq1    O614106   3.957   1.636   1.803  0.2931 -0.0501  0.7518
    1TCq1    H114107   4.186   1.296   1.337 -0.4746  0.8973 -0.1504
    1TCq1    H214108   4.088   1.463   1.673  1.4256 -1.1335 -0.2622
    1TCq1    H314109   3.851   1.737   1.451 -0.4964 -0.5637  0.2071
    1TCq1    H414110   4.013   1.377   1.281  1.1282  1.0529 -1.1470
    2MPD1     C14111   3.362   1.581   1.085 -0.2681 -0.4491  0.5991
    2MPD1    C114112   3.385   1.684   1.173  0.4272  0.5438  0.2388
    2MPD1    C214113   3.497   1.683   1.248 -0.2756  0.9014 -1.1669
    2MPD1    C314114   3.604   1.608   1.205 -0.0667  0.1682  0.2348
    2MPD1    C414115   3.585   1.516   1.111 -0.6146  0.2144 -0.1629
    2MPD1    C514116   3.467   1.506   1.042 -0.3643  0.0989  0.6932
    2MPD1     H14117   3.505   1.765   1.318  1.4534 -1.2295  1.1203
    2MPD1    H114118   3.666   1.455   1.072 -1.9081 -0.0640 -2.4133
    2MPD1    H214119   3.268   1.572   1.032  0.3220  1.5394 -0.8155
    2MPD1    H314120   3.456   1.436   0.960  1.1136  1.5655 -0.7370
    2MPD1     N14121   3.729   1.627   1.269 -0.5670  0.1885 -0.1993
    2MPD1    H514122   3.727   1.681   1.355  0.1647  1.2691 -0.8711
    2MPD1    N114123   3.282   1.768   1.205 -0.4909  0.1152 -0.0846
    2MPD1    H614124   3.217   1.776   1.126 -0.3909  0.2952 -0.1486
    2MPD1    H714125   3.326   1.858   1.219  1.0238 -0.7457  0.6058
    1TMC1    C114126   3.598   0.344   0.163  0.0582 -0.4129  0.3903
    1TMC1    C214127   3.700   0.399   0.087  0.5781  0.3502  0.1725
    1TMC1    C314128   3.667   0.481  17.740 -0.4105  0.7144  0.6085
    1TMC1    C414129   3.463   0.378   0.144  0.1825  0.2646  0.3796
    1TMC1    C514130   3.445   0.474   0.047  0.0366  0.4412  0.3223
    1TMC1    C614131   3.541   0.528  17.730 -0.5914 -0.8703 -0.0299
    1TMC1     C14132   3.628   0.282   0.291 -0.0877  0.6494 -0.1099
    1TMC1     O14133   3.531   0.249   0.360  0.8239 -0.0038  0.1322
    1TMC1     H14134   3.800   0.360   0.103  0.3350 -0.3894 -0.1193
    1TMC1    H114135   3.386   0.339   0.210  0.1656 -1.8581 -0.8722
    1TMC1    H214136   3.510   0.605  17.660 -0.0833 -0.9579 -0.3508
    1TMC1    C714137   3.326   0.552   0.047 -0.4970  0.7128 -0.3042
    1TMC1    C814138   3.773   0.548  17.675  0.6341 -0.7178 -0.5951
    1TMC1    O114139   3.326   0.671   0.021  0.2558  0.6256  0.2388
    1TMC1    O214140   3.765   0.661  17.626 -0.3968 -0.6739 -0.1138
    1TMC1    O314141   3.221   0.469   0.046 -0.2932  0.3545  0.1607
    1TMC1    H314142   3.227   0.372   0.059 -1.1333  0.1436 -0.9979
    1TMC1    O514143   3.863   0.459  17.649  0.2857  0.0749  0.5069
    1TMC1    H514144   3.839   0.368  17.678  1.6024 -0.1871  0.7718
    2MPD1     C14145   3.942   0.087   0.654  0.0632 -0.0507 -1.2412
    2MPD1    C114146   4.013   0.159   0.563 -0.0235 -0.0539 -1.1670
    2MPD1    C214147   3.952   0.222   0.459 -0.4861 -0.9263 -0.1956
    2MPD1    C314148   3.815   0.212   0.438  0.7181 -0.1156  0.4042
    2MPD1    C414149   3.742   0.129   0.524 -0.5229  0.5273 -0.3729
    2MPD1    C514150   3.810   0.067   0.624  0.1831 -0.4425 -0.0392
    2MPD1     H14151   4.011   0.273   0.385 -1.4506 -2.0021 -1.7175
    2MPD1    H114152   3.634   0.124   0.521 -0.6225  2.0554  0.3983
    2MPD1    H214153   3.986   0.036   0.738 -0.5307  1.0077 -0.2866
    2MPD1    H314154   3.749   0.010   0.693  0.2389  0.4018  0.7093
    2MPD1     N14155   3.761   0.278   0.329 -0.2668  0.1406  0.0497
    2MPD1    H514156   3.823   0.335   0.273  0.2937  0.6329  1.1496
    2MPD1    N114157   4.146   0.183   0.589  0.8095  0.4605  0.1472
    2MPD1    H614158   4.212   0.204   0.514  0.1973  0.5696 -0.3627
    2MPD1    H714159   4.188   0.119   0.657 -2.4597 -1.7543  0.0563
    1MPD1     C14160   2.400   3.069  12.088  0.1482 -0.2195  0.2948
    1MPD1    C114161   2.467   3.031  11.974 -0.3377  0.1840  0.3946
    1MPD1    C214162   2.549   3.127  11.912 -0.3855 -0.0266  0.2105
    1MPD1    C314163   2.541   3.267  11.955 -0.1808 -0.0653  0.0701
    1MPD1    C414164   2.464   3.303  12.065 -0.5026  0.1677 -0.4083
    1MPD1    C514165   2.409   3.202  12.136  0.5597  0.1046  0.2119
    1MPD1     H14166   2.607   3.095  11.826  1.2638  1.8325  0.6249
    1MPD1    H114167   2.467   3.397  12.120  0.2217  1.0344 -1.9402
    1MPD1    H214168   2.333   3.004  12.144 -0.2703 -1.3778 -1.5629
    1MPD1    H314169   2.362   3.230  12.230  0.1190 -0.1956  0.0848
    1MPD1     N14170   2.625   3.364  11.888 -0.7769  0.0328 -0.0657
    1MPD1    H514171   2.688   3.321  11.821  1.5419 -0.4026  2.3810
    1MPD1    N114172   2.485   2.895  11.939  0.7771 -0.2927 -0.1800
    1MPD1    H614173   2.518   2.888  11.842  1.0569  1.0675 -0.1853
    1MPD1    H714174   2.396   2.848  11.935  1.2074 -1.2082  1.4195
    2MPD1     C14175   2.894   3.371  12.305 -0.7005 -0.2835  0.3512
    2MPD1    C114176   2.815   3.281  12.231  0.0919  0.6285 -0.4862
    2MPD1    C214177   2.865   3.247  12.104  0.2088  0.9708 -0.1839
    2MPD1    C314178   2.968   3.318  12.051  0.0271 -0.7181 -1.0196
    2MPD1    C414179   3.041   3.413  12.124 -0.2047  0.8622 -0.4208
    2MPD1    C514180   3.006   3.432  12.256  0.4609 -0.4243  0.5887
    2MPD1     H14181   2.808   3.176  12.046 -0.2668 -0.6358  2.2351
    2MPD1    H114182   3.136   3.455  12.094 -0.7861  2.2524 -0.2825
    2MPD1    H214183   2.870   3.391  12.409  1.8912  0.0912  0.8735
    2MPD1    H314184   3.060   3.505  12.316 -0.8646  0.0657  1.1729
    2MPD1     N14185   3.014   3.294  11.920 -0.0792  0.0944  0.6707
    2MPD1    H514186   3.100   3.339  11.892  0.6571 -2.0719 -0.5062
    2MPD1    N114187   2.706   3.211  12.289 -0.0220 -0.0804 -0.0108
    2MPD1    H614188   2.648   3.166  12.218  0.1695 -0.1583 -0.1179
    2MPD1    H714189   2.646   3.260  12.355  2.2684  0.2504  1.8024
    3MPD1     C14190   2.801   2.744  11.065 -0.0282 -0.3868  0.9032
    3MPD1    C114191   2.833   2.701  11.191  1.0035  0.2367 -0.2512
    3MPD1    C214192   2.856   2.789  11.290  0.0130  0.7402  0.4675
    3MPD1    C314193   2.862   2.925  11.266 -0.6229 -0.2821 -0.1337
    3MPD1    C414194   2.838   2.968  11.138  0.0820  0.2118 -0.3809
    3MPD1    C514195   2.792   2.878  11.042  0.3123 -0.3934  0.6900
    3MPD1     H14196   2.869   2.750  11.391 -0.2009 -2.7117 -0.8206
    3MPD1    H114197   2.836   3.074  11.116 -0.8692  0.1058 -0.8101
    3MPD1    H214198   2.786   2.679  10.979  0.2894 -0.5225  0.9495
    3MPD1    H314199   2.780   2.910  10.939 -0.1061 -0.0201  0.8552
    3MPD1     N14200   2.915   3.018  11.362 -0.1822 -0.0537  0.3164
    3MPD1    H514201   2.917   2.984  11.458  1.3845 -2.0456 -0.4135
    3MPD1    N114202   2.840   2.562  11.219 -0.5098  0.4465 -0.4085
    3MPD1    H614203   2.881   2.536  11.308 -1.9633  1.8437  0.6645
    3MPD1    H714204   2.895   2.513  11.149 -0.1488 -0.8706  0.7976
    4MPD2     C14205   3.144   3.608  11.349  0.6936  0.5541  0.3217
    4MPD2    C114206   3.131   3.704  11.446  0.3545  0.1714 -0.1299
    4MPD2    C214207   3.209   3.822  11.461  0.3021  0.1124  0.0533
    4MPD2    C314208   3.304   3.840  11.369  0.1455 -0.3880  0.2077
    4MPD2    C414209   3.325   3.752  11.268 -0.5744 -0.2396  0.1385
    4MPD2    C514210   3.243   3.638  11.253 -0.0978 -0.2261  0.8178
    4MPD2     H14211   3.192   3.897  11.537 -1.8134  0.7070 -1.0156
    4MPD2    H114212   3.401   3.770  11.193 -1.9953  0.9350 -0.9999
    4MPD2    H214213   3.079   3.524  11.328  0.6976  0.8714 -0.9534
    4MPD2    H314214   3.265   3.584  11.162  1.0381  1.4507  0.0951
    4MPD2     N14215   3.392   3.951  11.370  0.9570  0.2093  0.2702
    4MPD2    H514216   3.457   3.956  11.292 -0.6563  0.8111 -1.0355
    4MPD2    N114217   3.045   3.691  11.561  0.1021 -0.2211 -0.4869
    4MPD2    H714218   3.051   3.757  11.637 -0.8720 -0.2849 -0.3515
    5TMC3    C114219   2.907   3.596  11.720  0.1702 -0.0371 -0.2911
    5TMC3    C214220   2.783   3.545  11.751  0.2910 -0.8071 -0.0983
    5TMC3    C314221   2.767   3.546  11.886  0.4957  0.4592 -0.1501
    5TMC3    C414222   3.005   3.643  11.813  1.2881 -0.5780 -0.0820
    5TMC3    C514223   2.968   3.656  11.944 -0.6373  0.1641 -0.5168
    5TMC3    C614224   2.849   3.602  11.986 -0.3394 -0.2717  0.0237
    5TMC3     C14225   2.952   3.588  11.580 -0.0731  0.5531  0.4641
    5TMC3     O14226   2.910   3.504  11.506 -0.0964  0.2404 -0.1044
    5TMC3     H14227   2.717   3.507  11.674  0.5794 -0.1725 -0.6563
    5TMC3    H114228   3.107   3.666  11.786  0.6875  1.7090 -0.3898
    5TMC3    H214229   2.812   3.624  12.086 -0.3874  0.0905 -0.0729
    5TMC3    C714230   3.043   3.744  12.032 -0.7859 -0.5477  0.0381
    5TMC3    C814231   2.641   3.493  11.937  0.2732 -0.3863 -0.6604
    5TMC3    O114232   2.982   3.805  12.119  0.1946  0.6260  0.0970
    5TMC3    O214233   2.585   3.560  12.024 -0.2304 -0.0504 -0.1616
    6TMC3    C114234   3.032   3.230  11.689 -0.2213  0.3621  0.1523
    6TMC3    C214235   2.972   3.184  11.582 -0.0875  0.4478  0.1811
    6TMC3    C314236   3.039   3.186  11.459  0.2590  0.9908  0.4591
    6TMC3    C414237   3.161   3.261  11.686  0.4547  0.4866  0.3316
    6TMC3    C514238   3.226   3.278  11.568  0.4313 -0.6192  0.0753
    6TMC3    C614239   3.163   3.247  11.450  0.6372 -0.5339  0.2638
    6TMC3     C14240   2.951   3.233  11.814 -0.0627 -0.3832 -0.2131
    6TMC3     O14241   2.833   3.195  11.799  0.2813 -0.5815 -0.5762
    6TMC3     H14242   2.866   3.163  11.579 -0.0148  0.0851  0.1464
    6TMC3    H114243   3.230   3.268  11.770 -2.2246  0.1997  2.5659
    6TMC3    H214244   3.206   3.246  11.351  0.0797 -1.5655  0.0399
    6TMC3    C714245   3.363   3.338  11.577 -0.3836  0.1403 -0.1670
    6TMC3    C814246   2.972   3.141  11.342 -0.1438  0.3471  0.0403
    6TMC3    O114247   3.389   3.410  11.672  0.6577 -0.2531  1.1294
    6TMC3    O214248   2.993   3.204  11.241  0.2723 -0.0728  0.1622
    7MPD2     C14249   3.374   4.142  12.028 -0.1858  0.7178 -0.0672
    7MPD2    C114250   3.412   4.051  11.929 -0.2559 -0.1578 -0.6040
    7MPD2    C214251   3.346   3.926  11.924  0.5425  0.0422 -0.2707
    7MPD2    C314252   3.236   3.897  12.003  0.0757 -0.2126  0.3594
    7MPD2    C414253   3.189   4.000  12.080  0.2274 -0.4788  0.3549
    7MPD2    C514254   3.259   4.116  12.097  0.9334 -0.1897  0.3846
    7MPD2     H14255   3.381   3.857  11.848  1.3437  1.1757 -0.9294
    7MPD2    H114256   3.103   3.993  12.145 -0.3068 -0.4367 -0.3447
    7MPD2    H214257   3.426   4.236  12.042 -0.7281  0.8151  1.3020
    7MPD2    H314258   3.233   4.187  12.175  3.7916  0.5563  0.6367
    7MPD2     N14259   3.163   3.779  11.977 -0.0710  0.6428 -0.2369
    7MPD2    H514260   3.196   3.710  11.910 -2.1763  0.3418 -0.9590
    7MPD2    N114261   3.523   4.081  11.848 -0.2976 -0.0015  0.0991
    7MPD2    H714262   3.568   4.172  11.847  0.7486 -0.5401 -2.0432
    8TMC3    C114263   3.659   4.059  11.657  0.0022  0.2949 -0.3690
    8TMC3    C214264   3.735   3.974  11.580 -0.0189 -0.1608 -0.2945
    8TMC3    C314265   3.731   3.982  11.440 -0.1539 -0.6094 -0.1226
    8TMC3    C414266   3.570   4.142  11.593 -0.0657  0.0874 -0.2247
    8TMC3    C514267   3.535   4.111  11.463 -0.5275  0.1244 -0.5168
    8TMC3    C614268   3.621   4.042  11.382 -0.1648  0.1342  0.4770
    8TMC3     C14269   3.599   3.996  11.773  0.3655  0.3570  0.4169
    8TMC3     O14270   3.612   3.875  11.777 -0.6348  0.2776  0.1259
    8TMC3     H14271   3.798   3.898  11.625  2.8972  1.9212 -0.8684
    8TMC3    H114272   3.502   4.201  11.653  0.5465  1.9785 -1.3839
    8TMC3    H214273   3.603   4.027  11.276 -0.4197  1.1869  0.3723
    8TMC3    C714274   3.399   4.056  11.462 -0.0313 -0.1990  0.0124
    8TMC3    C814275   3.743   3.851  11.378 -1.0913 -0.4508  0.2170
    8TMC3    O114276   3.329   4.073  11.559  0.2753 -0.0445 -0.0810
    8TMC3    O214277   3.785   3.855  11.262  0.1603  0.1005  0.4864
    9MPD2     C14278   3.719   3.570  11.296  0.5106 -0.3353  0.2626
    9MPD2    C114279   3.648   3.621  11.403 -0.4062 -0.6240 -0.7624
    9MPD2    C214280   3.547   3.538  11.458  0.1416 -0.1698 -0.6112
    9MPD2    C314281   3.537   3.406  11.416 -0.1982 -0.1110 -0.1186
    9MPD2    C414282   3.618   3.354  11.314  0.0851  0.4076 -0.2630
    9MPD2    C514283   3.718   3.432  11.263  0.9408 -0.3676 -0.0937
    9MPD2     H14284   3.487   3.582  11.536  0.4931  1.3244 -1.1808
    9MPD2    H114285   3.624   3.246  11.309 -2.0820  0.3812 -1.8829
    9MPD2    H214286   3.799   3.627  11.250 -1.3727  1.1535 -1.1989
    9MPD2    H314287   3.786   3.393  11.187 -0.9534 -0.6479 -1.6450
    9MPD2     N14288   3.432   3.323  11.456  0.1542 -0.5897  0.0250
    9MPD2    H514289   3.413   3.242  11.398  1.7243  0.9245 -2.5642
    9MPD2    N114290   3.662   3.756  11.437 -0.1106  0.3939 -0.3146
    9MPD2    H714291   3.618   3.791  11.522  1.2556 -0.3439  0.6994
    1MPD1     C14292   2.457   2.499  16.482 -0.6360  0.2841 -0.1628
    1MPD1    C114293   2.402   2.574  16.383 -0.7815 -0.4469  0.5224
    1MPD1    C214294   2.357   2.517  16.269 -0.1301 -0.1754  0.1273
    1MPD1    C314295   2.368   2.381  16.245 -0.3239  0.2100 -1.0459
    1MPD1    C414296   2.432   2.299  16.346  0.9440  0.6407 -0.0932
    1MPD1    C514297   2.475   2.362  16.467  0.0541 -0.2561  0.2546
    1MPD1     H14298   2.305   2.578  16.196  0.1217 -1.8128 -1.4117
    1MPD1    H114299   2.443   2.192  16.334  1.3321  0.9566 -2.5795
    1MPD1    H214300   2.495   2.543  16.575  0.2598 -3.0558  1.0382
    1MPD1    H314301   2.512   2.303  16.551 -0.6614 -1.4019 -0.2320
    1MPD1     N14302   2.310   2.304  16.142 -0.9416  0.3969  0.5556
    1MPD1    H514303   2.332   2.205  16.151  3.0527  1.4359  1.9208
    1MPD1    N114304   2.379   2.713  16.400  0.3800 -0.0349 -0.2175
    1MPD1    H614305   2.456   2.749  16.456  1.5516 -1.9535 -0.5745
    1MPD1    H714306   2.377   2.762  16.310  1.2546 -0.3346 -0.4020
    2TMC2    C114307   2.226   2.170  15.715 -0.2678 -0.5892  0.5976
    2TMC2    C214308   2.208   2.038  15.754 -0.8885  0.2268  0.2568
    2TMC2    C314309   2.175   2.015  15.884 -0.7341  0.0314  0.0310
    2TMC2    C414310   2.236   2.269  15.812 -0.0545 -0.0816  0.2785
    2TMC2    C514311   2.216   2.240  15.942  0.1993 -0.4921  0.4317
    2TMC2    C614312   2.167   2.121  15.980 -0.5987 -0.6839  0.1052
    2TMC2     C14313   2.246   2.205  15.577  0.2275 -0.3455  0.1024
    2TMC2     O14314   2.254   2.114  15.495  0.0694  0.1698  0.3251
    2TMC2     H14315   2.184   1.959  15.683  1.9577  2.6013 -3.3713
    2TMC2    H114316   2.271   2.369  15.789  0.6168 -0.3662  0.0724
    2TMC2    H214317   2.127   2.103  16.079 -1.1865 -0.0778 -0.0198
    2TMC2    C714318   2.235   2.346  16.030 -1.1913 -0.6865 -0.2698
    2TMC2    C814319   2.093   1.909  15.933  0.6499  0.0814 -0.9023
    2TMC2    O114320   2.228   2.466  15.997  0.3351  0.5593 -0.3011
    2TMC2    O214321   2.031   1.910  16.038  0.0059 -0.0150  0.2572
    2TMC2    O514322   2.118   1.798  15.862 -0.3077  0.5813  0.3117
    2TMC2    H514323   2.200   1.804  15.807 -0.4198  0.4458  0.1299
    3MPD1     C14324   2.170   2.516  15.181  0.4470 -0.2482  0.3747
    3MPD1    C114325   2.225   2.591  15.281 -0.1559 -0.7094 -0.3127
    3MPD1    C214326   2.232   2.534  15.409 -0.2358 -0.0221 -0.3982
    3MPD1    C314327   2.223   2.396  15.418  0.7134 -0.4915 -0.2919
    3MPD1    C414328   2.167   2.320  15.317  0.2521 -0.0526  0.0464
    3MPD1    C514329   2.137   2.382  15.204  0.8753  0.0445  0.4098
    3MPD1     H14330   2.268   2.596  15.490 -2.7378  1.6980 -0.5740
    3MPD1    H114331   2.153   2.212  15.318  0.4480 -0.0737  0.4437
    3MPD1    H214332   2.154   2.562  15.084  2.3884 -0.2378  0.0554
    3MPD1    H314333   2.094   2.325  15.123  0.9466  0.9312 -0.2472
    3MPD1     N14334   2.243   2.342  15.546 -0.7453 -0.3534  0.5298
    3MPD1    H514335   2.249   2.416  15.615  3.3865 -1.2043  1.0610
    3MPD1    N114336   2.250   2.723  15.261 -0.7664  0.1869 -0.2071
    3MPD1    H614337   2.311   2.770  15.327 -0.2691 -0.6750 -0.0448
    3MPD1    H714338   2.276   2.748  15.166 -1.8808  3.1336  0.2825
    1TMC1    C114339   0.800   1.044  13.152 -0.3638 -0.2223  0.3723
    1TMC1    C214340   0.701   0.964  13.097 -0.2053 -0.5263  0.2344
    1TMC1    C314341   0.571   0.990  13.134  0.2209 -1.3159 -0.2127
    1TMC1    C414342   0.767   1.128  13.251  0.5849 -0.1521 -0.2568
    1TMC1    C514343   0.638   1.133  13.295  0.1358  0.0301  0.0317
    1TMC1    C614344   0.529   1.080  13.229  0.5372  0.7189 -0.2011
    1TMC1     C14345   0.921   1.065  13.076  0.0632 -0.4270 -0.2544
    1TMC1     O14346   0.929   1.025  12.962  0.0550  0.2056 -0.3675
    1TMC1     H14347   0.726   0.897  13.015  1.0676 -1.1016  1.0924
    1TMC1    H114348   0.846   1.186  13.299 -0.8346  0.3782  1.4499
    1TMC1    H214349   0.425   1.109  13.241  0.9645  1.6508  1.1847
    1TMC1    C714350   0.608   1.253  13.372  0.7020 -0.1916  0.7005
    1TMC1    C814351   0.461   0.939  13.046  0.3432  0.1619 -0.1152
    1TMC1    O114352   0.553   1.351  13.329 -0.8781  0.0274  0.2142
    1TMC1    O214353   0.484   0.901  12.933  0.3777  0.4496  0.0610
    1TMC1    O314354   0.695   1.261  13.480  0.3625  0.0057 -0.0206
    1TMC1    H314355   0.741   1.176  13.497 -1.3998 -0.8865  0.3752
    1TMC1    O514356   0.355   0.918  13.121  0.5439  0.2177  0.0554
    1TMC1    H514357   0.373   0.901  13.216 -0.1122  1.9149  0.4757
    2MPD2     C14358   1.181   1.160  12.960  0.1584  0.2770  0.5842
    2MPD2    C114359   1.159   1.136  13.093  0.3596 -0.6293  0.1448
    2MPD2    C214360   1.264   1.136  13.179  0.1511  0.1320 -0.7374
    2MPD2    C314361   1.396   1.158  13.132 -0.6767  0.8941  0.3774
    2MPD2    C414362   1.407   1.183  12.994 -0.3091  0.0105  0.2104
    2MPD2    C514363   1.306   1.184  12.905  0.0531 -0.1322 -0.5615
    2MPD2     H14364   1.248   1.113  13.284  0.9421 -0.7026 -0.7917
    2MPD2    H114365   1.508   1.193  12.954 -0.9102  0.6634 -1.1598
    2MPD2    H214366   1.100   1.171  12.888  1.7224 -0.9093 -1.3696
    2MPD2    H314367   1.307   1.202  12.798  0.1759  1.4921 -0.2877
    2MPD2     N14368   1.504   1.165  13.219 -1.1381 -0.0758 -0.5311
    2MPD2    H514369   1.479   1.170  13.318 -0.4002  1.7382 -0.4369
    2MPD2    N114370   1.032   1.110  13.146 -0.5596 -0.1298 -0.2883
    2MPD2    H714371   1.021   1.112  13.247 -1.9107 -1.2194 -0.4027
    3TCq1    O114372   1.736   1.038  13.770 -0.3069 -0.0506 -0.0076
    3TCq1    C114373   1.662   1.092  13.671  1.5951  0.0292  0.0836
    3TCq1    O214374   1.574   1.177  13.683  0.3792 -0.1356  0.1949
    3TCq1    C214375   1.738   1.082  13.544  0.3128 -0.5716  0.3119
    3TCq1    C314376   1.876   1.078  13.538  0.4848  0.3524 -0.4202
    3TCq1    C414377   1.934   1.096  13.417 -0.2344  0.1439  0.2140
    3TCq1    C514378   1.858   1.135  13.303  0.3753 -0.6313 -0.5443
    3TCq1    C614379   1.722   1.147  13.317 -0.3185  0.7619  0.1674
    3TCq1    C714380   1.659   1.120  13.437  0.2798  0.2740 -0.4466
    3TCq1    C814381   1.645   1.174  13.197  0.5066 -0.0271 -0.0203
    3TCq1    O414382   1.699   1.171  13.087 -0.4741 -0.0909 -0.5363
    3TCq1    C914383   2.081   1.078  13.417 -0.3367 -0.2833 -0.0047
    3TCq1    O514384   2.146   1.112  13.311 -0.2675  0.7330  0.4925
    3TCq1    O614385   2.137   1.022  13.514 -0.0217  0.3988 -0.4476
    3TCq1    H114386   1.791   0.965  13.733  1.2442  0.7132  0.7984
    3TCq1    H214387   1.932   1.050  13.627 -0.4820  0.9545  0.3876
    3TCq1    H314388   1.913   1.155  13.211 -1.0076 -2.1270 -1.6948
    3TCq1    H414389   1.553   1.137  13.449  0.2222 -0.7923  0.6351
    1MPD2     C14390   0.817   2.689  14.779 -0.0914 -0.1035  0.1051
    1MPD2    C114391   0.702   2.606  14.784  0.2201  0.5560  0.7809
    1MPD2    C214392   0.657   2.546  14.904  0.4035 -0.1633 -0.5759
    1MPD2    C314393   0.737   2.570  15.019  0.0502  0.0532 -0.3799
    1MPD2    C414394   0.855   2.643  15.015 -0.1761 -1.0588 -0.6509
    1MPD2    C514395   0.895   2.692  14.892  0.3639 -0.4443  0.2267
    1MPD2     H14396   0.573   2.479  14.913 -0.3824  1.3127  2.9918
    1MPD2    H114397   0.901   2.672  15.109 -0.6721  0.8026 -0.9791
    1MPD2    H214398   0.843   2.740  14.687  0.2268 -1.5674 -0.6161
    1MPD2    H314399   0.987   2.749  14.891  0.4645 -0.6185 -0.6589
    1MPD2     N14400   0.699   2.496  15.127 -0.0691 -0.3965  0.2800
    1MPD2    H514401   0.612   2.444  15.114  0.1995 -0.7057 -0.2923
    1MPD2    N114402   0.638   2.584  14.659  0.8803 -0.0657  0.2974
    1MPD2    H714403   0.680   2.628  14.577  1.6850 -2.4376 -0.5531
    2TMC3    C114404   0.483   2.500  14.502 -0.4166 -0.1748 -0.7249
    2TMC3    C214405   0.430   2.370  14.481  0.8229  0.9595 -0.4368
    2TMC3    C314406   0.305   2.348  14.429 -0.4586  0.4880  0.2901
    2TMC3    C414407   0.395   2.599  14.464  0.4019  0.0886 -0.0903
    2TMC3    C514408   0.272   2.577  14.398  0.3612 -0.3871 -0.1354
    2TMC3    C614409   0.222   2.452  14.387 -0.2816  0.4330  0.2616
    2TMC3     C14410   0.523   2.513  14.642  0.0701 -0.6986  0.5400
    2TMC3     O14411   0.449   2.449  14.718 -0.1761  1.2032 -0.5177
    2TMC3     H14412   0.496   2.287  14.505 -1.2744 -0.4896  0.4248
    2TMC3    H114413   0.430   2.700  14.483 -0.3857 -0.1123  2.4673
    2TMC3    H214414   0.129   2.418  14.341  0.1343 -1.3236  0.7190
    2TMC3    C714415   0.182   2.692  14.358 -0.0159 -0.1534 -0.3666
    2TMC3    C814416   0.231   2.246  14.504 -0.5587 -0.1783  1.0053
    2TMC3    O114417   0.100   2.658  14.270  0.0890  0.0146  0.4734
    2TMC3    O214418   0.122   2.215  14.458 -0.1525  0.3346  0.3127
    3TCq1    O114419   0.183   3.864  14.528 -0.1462  0.0172  0.2064
    3TCq1    C114420   0.312   3.868  14.509  0.2222 -0.1592 -0.0793
    3TCq1    O214421   0.383   3.964  14.533 -0.4240  0.3129 -0.3375
    3TCq1    C214422   0.368   3.731  14.502  1.0275 -0.2827 -0.7433
    3TCq1    C314423   0.463   3.688  14.596 -0.4947  0.0492  0.2717
    3TCq1    C414424   0.489   3.558  14.614 -0.8146 -0.8297 -0.7662
    3TCq1    C514425   0.418   3.463  14.546  0.2358 -0.1228 -0.5169
    3TCq1    C614426   0.317   3.511  14.458 -0.4089 -0.4052 -0.4165
    3TCq1    C714427   0.288   3.642  14.440  0.6397 -0.1730  0.2858
    3TCq1    C814428   0.218   3.422  14.396 -0.0902 -0.4958  0.4785
    3TCq1    O414429   0.117   3.471  14.347  0.4942 -0.0613  0.0934
    3TCq1    C914430   0.591   3.524  14.712  0.3868 -0.3690  0.1229
    3TCq1    O514431   0.640   3.617  14.783  0.5877 -0.1136 -0.0951
    3TCq1    O614432   0.606   3.402  14.745  0.7206  0.7240 -0.2699
    3TCq1    H114433   0.128   3.784  14.515  1.2013 -1.1820  1.7740
    3TCq1    H214434   0.514   3.765  14.653  1.9526  0.3680 -2.4001
    3TCq1    H314435   0.442   3.361  14.575 -1.5318 -0.5325 -0.5112
    3TCq1    H414436   0.214   3.674  14.368 -2.0351 -1.4803  2.4236
    4MPD2     C14437   0.064   3.185  14.295 -0.3907 -0.4518 -0.2444
    4MPD2    C114438   0.179   3.178  14.371  0.0880  0.4882  0.6092
    4MPD2    C214439   0.231   3.054  14.393  0.0931  0.3050  0.2740
    4MPD2    C314440   0.160   2.940  14.355  0.3322  0.1552  0.1619
    4MPD2    C414441   0.037   2.950  14.298  0.0383  0.4132  0.7374
    4MPD2    C514442   4.731   3.077  14.261  0.3753 -0.5082 -0.2772
    4MPD2     H14443   0.334   3.056  14.425  0.2569  0.3730 -0.2629
    4MPD2    H114444   4.727   2.863  14.256  3.3834 -1.4273  0.5295
    4MPD2    H214445   0.014   3.278  14.272  0.3979 -0.2559 -1.1588
    4MPD2    H314446   4.638   3.075  14.206 -0.6452  0.2795  1.4279
    4MPD2     N14447   0.221   2.819  14.390  0.1762  1.2440  0.0621
    4MPD2    H514448   0.310   2.822  14.439  1.0873 -1.2360 -1.4313
    4MPD2    N114449   0.259   3.292  14.406  0.0683  0.3344  0.1493
    4MPD2    H714450   0.353   3.272  14.438  0.3273 -0.4072 -1.0440
    5TMC2    C114451   0.547   2.208  15.224 -0.7331  0.3819 -0.2434
    5TMC2    C214452   0.632   2.105  15.221 -0.4775 -0.1147 -0.0980
    5TMC2    C314453   0.765   2.124  15.262  0.4373 -0.3171 -0.3604
    5TMC2    C414454   0.590   2.332  15.268  0.4713 -0.4445 -0.6494
    5TMC2    C514455   0.728   2.347  15.296 -0.0843  0.1229 -0.2096
    5TMC2    C614456   0.817   2.244  15.299  0.1757 -0.3925 -0.2736
    5TMC2     C14457   0.462   2.226  15.113  0.1537  0.1975  0.2350
    5TMC2     O14458   0.464   2.339  15.067  0.3438  0.1593 -0.0347
    5TMC2     H14459   0.609   2.008  15.181  1.1585  0.0301 -1.4205
    5TMC2    H114460   0.523   2.416  15.284 -1.4492 -2.3977  1.4945
    5TMC2    H214461   0.921   2.261  15.327 -0.2696 -1.0962  1.8751
    5TMC2    C714462   0.774   2.470  15.234  0.4759  0.0000  0.7579
    5TMC2    C814463   0.828   1.996  15.291  0.3396  0.3783  0.6040
    5TMC2    O114464   0.887   2.507  15.263 -0.4770  0.2450  0.7968
    5TMC2    O214465   0.766   1.894  15.307  0.0408 -0.9178  0.1470
    5TMC2    O514466   0.951   2.005  15.241 -0.1042 -0.5936  0.4841
    5TMC2    H514467   0.967   2.098  15.214 -0.0532 -1.0089 -0.9437
    6MPD2     C14468   0.154   2.054  14.739 -0.0820  0.5226  0.2466
    6MPD2    C114469   0.254   2.150  14.739 -0.0358  0.4698  0.1779
    6MPD2    C214470   0.335   2.176  14.852  0.4778  0.2256 -0.2369
    6MPD2    C314471   0.320   2.090  14.959  0.4743  0.0587  0.2717
    6MPD2    C414472   0.223   1.986  14.949 -0.1825 -0.5103  0.9466
    6MPD2    C514473   0.138   1.968  14.844  0.1686 -0.5767  0.0562
    6MPD2     H14474   0.406   2.257  14.854 -0.7441  1.2908  0.7338
    6MPD2    H114475   0.201   1.928  15.037 -3.2508 -1.2463 -0.2927
    6MPD2    H214476   0.087   2.035  14.656  1.7240  1.1633 -1.3708
    6MPD2    H314477   0.067   1.886  14.847  0.1527 -0.5954 -1.0355
    6MPD2     N14478   0.391   2.110  15.082 -0.1756  0.4026 -0.1678
    6MPD2    H514479   0.387   2.035  15.150 -0.7355  0.9409  0.3860
    6MPD2    N114480   0.289   2.225  14.628 -0.2029 -0.2118 -0.3812
    6MPD2    H714481   0.366   2.290  14.644  1.1913 -1.4144 -2.1693
  945NH4     N114482   4.276   0.067  10.604  0.1614 -0.5141 -0.0346
  945NH4     H214483   4.195   0.126  10.633 -0.3103 -1.2510  0.1487
  945NH4     H314484   4.339   0.136  10.559  1.2674 -0.7358  1.1743
  945NH4     H414485   4.245   4.737  10.535 -0.1222  0.1698 -0.6073
  945NH4     H514486   4.319   0.030  10.691 -0.2928  1.1229  0.8857
  946SOD     NA14487   2.281   1.354  11.088 -0.4838  0.1377 -0.1476
  947SOD     NA14488   2.308   4.001  14.757 -0.2334 -0.0828  0.1594
  948SOD     NA14489   3.505   0.928  13.859  0.2165  0.4222 -0.3333
  949SOD     NA14490   3.643   1.015  16.964  0.3727 -0.1707 -0.0123
  950SOD     NA14491   3.953   1.335   2.602 -0.1742 -0.0272  0.2678
  951SOD     NA14492   4.710   3.762   6.183  0.7211 -0.2185 -0.0238
  952SOD     NA14493   4.475   0.856  13.263  0.4229  0.3433 -0.1664
  953SOL     OW14494   2.125   0.923   4.901 -0.1942  0.5207  0.3197
  953SOL    HW114495   2.039   0.964   4.903  0.8531  2.6588  1.9456
  953SOL    HW214496   2.107   0.829   4.901  4.0585 -0.2821  1.4788
  954SOL     OW14497   4.453   2.834  15.232  0.0353  0.7654 -0.7454
  954SOL    HW114498   4.371   2.821  15.280 -0.8905  1.3088 -2.1726
  954SOL    HW214499   4.443   2.926  15.208 -1.1643  0.6242 -0.7715
  955SOL     OW14500   3.508   2.521  12.419  0.0786 -0.3332  0.2962
  955SOL    HW114501   3.452   2.597  12.404 -0.1817 -0.3341  1.2470
  955SOL    HW214502   3.526   2.513  12.326  1.1882  2.4469  0.2878
  956SOL     OW14503   2.973   2.508   2.327  0.1093 -0.0023  0.6877
  956SOL    HW114504   3.030   2.565   2.379 -0.9932  0.4314  1.4257
  956SOL    HW214505   2.942   2.570   2.261  3.8179  0.0501 -1.0273
  957SOL     OW14506   1.024   0.027   4.876  0.5751  0.4958 -0.5720
  957SOL    HW114507   1.105   0.058   4.834  1.4730 -1.3880 -0.2527
  957SOL    HW214508   1.073   4.715   4.939  0.5867 -0.3992 -1.3130
  958SOL     OW14509   4.725   0.439  13.166 -0.6951 -0.0559  0.1968
  958SOL    HW114510   0.016   0.375  13.229 -0.7746 -0.2815  0.0083
  958SOL    HW214511   0.070   0.475  13.144  0.6493 -0.1812  5.3004
  959SOL     OW14512   1.610   0.017  15.686  0.3025  0.1139  0.1740
  959SOL    HW114513   1.669   0.059  15.624  0.5059  0.2231  0.4378
  959SOL    HW214514   1.526   0.023  15.641  0.6208  1.8405 -0.1854
  960SOL     OW14515   4.203   1.655   2.195  0.1962 -0.4193 -0.8431
  960SOL    HW114516   4.214   1.676   2.102 -1.5073  0.2177 -0.9006
  960SOL    HW214517   4.116   1.616   2.201 -0.3341  1.1027  1.3241
  961SOL     OW14518   2.106   0.931   7.940 -0.0070  0.1116  0.1272
  961SOL    HW114519   2.172   0.994   7.910  0.3898 -1.4653 -2.2465
  961SOL    HW214520   2.159   0.868   7.988 -0.3409 -1.6508 -1.8455
  962SOL     OW14521   2.622   4.697   3.366  0.1098 -0.4953  0.5854
  962SOL    HW114522   2.669   4.693   3.449 -0.3100 -0.8936  0.8050
  962SOL    HW214523   2.695   4.681   3.307  0.6374  1.0731  0.8246
  963SOL     OW14524   1.318   1.183   4.713 -0.0823 -0.4182 -0.2829
  963SOL    HW114525   1.372   1.187   4.634  2.8218  0.6290  1.7356
  963SOL    HW214526   1.269   1.104   4.692 -0.8114 -0.1198  0.2803
  964SOL     OW14527   2.799   2.036   3.706 -0.3485 -0.2515 -0.3541
  964SOL    HW114528   2.888   2.050   3.739 -0.9622 -0.2621  1.2889
  964SOL    HW214529   2.759   2.112   3.749  2.1241  0.3682  0.8358
  965SOL     OW14530   2.650   0.510  10.842  0.0235 -0.1619  0.1208
  965SOL    HW114531   2.713   0.534  10.773 -1.3730  1.2355 -0.6799
  965SOL    HW214532   2.687   0.524  10.929  2.0427  2.0405 -1.0522
  966SOL     OW14533   3.011   1.624   8.075  0.2186  0.5117 -0.0698
  966SOL    HW114534   3.084   1.573   8.111 -0.4722 -0.9717 -0.7935
  966SOL    HW214535   3.059   1.665   8.003 -1.2309  2.3790  0.0153
  967SOL     OW14536   2.676   3.664   3.401  0.6815 -0.0098 -0.6644
  967SOL    HW114537   2.634   3.608   3.467 -0.5493  1.1290 -0.4681
  967SOL    HW214538   2.664   3.749   3.444 -0.9064 -0.3571 -0.4202
  968SOL     OW14539   4.163   3.759  15.349  0.7937 -0.2713 -0.1052
  968SOL    HW114540   4.077   3.732  15.317  1.7963 -3.7931  0.1414
  968SOL    HW214541   4.141   3.793  15.435 -0.8454  0.3971 -0.7832
  969SOL     OW14542   1.544   2.680  12.448 -0.4203 -0.0422 -0.1191
  969SOL    HW114543   1.470   2.638  12.405 -0.6159 -1.6810  1.7988
  969SOL    HW214544   1.555   2.632  12.531 -0.8116 -1.3484 -0.8329
  970SOL     OW14545   3.537   2.654  14.636 -0.2736 -0.3308  0.5184
  970SOL    HW114546   3.521   2.736  14.683  1.0156  0.4249 -0.3661
  970SOL    HW214547   3.629   2.663  14.614 -0.2086  1.3176  1.4199
  971SOL     OW14548   4.729   1.279   3.833 -0.4291  0.2662  0.2045
  971SOL    HW114549   4.640   1.245   3.826  0.2843 -1.2780 -1.3421
  971SOL    HW214550   0.021   1.231   3.910 -2.0631  1.8770  1.9207
  972SOL     OW14551   1.600   1.555   5.835  0.3526  0.3237  0.3203
  972SOL    HW114552   1.641   1.641   5.824 -0.9306  0.9466  0.4679
  972SOL    HW214553   1.619   1.525   5.746  0.7533 -1.9729  1.1552
  973SOL     OW14554   1.011   3.980   1.856  0.0969  0.1931  0.4523
  973SOL    HW114555   1.067   3.985   1.934 -1.6197 -0.3381  1.7183
  973SOL    HW214556   1.075   4.002   1.788  0.0535 -2.6235 -0.5057
  974SOL     OW14557   3.181   1.391   2.948  0.4747 -0.0660 -0.0335
  974SOL    HW114558   3.236   1.380   2.870 -1.2891 -0.6963 -1.1851
  974SOL    HW214559   3.167   1.485   2.938  0.1537 -0.1109 -0.0102
  975SOL     OW14560   4.062   0.267   7.109 -0.0309  0.1484  0.4435
  975SOL    HW114561   4.116   0.210   7.164  1.0798  1.1989  0.4187
  975SOL    HW214562   4.089   0.357   7.123 -0.6529  0.3435  0.3855
  976SOL     OW14563   3.127   0.184   4.221  0.0692 -0.1038  0.2232
  976SOL    HW114564   3.046   0.153   4.260  0.3855 -1.7545 -0.4323
  976SOL    HW214565   3.151   0.249   4.287 -0.3845  0.0627  0.2238
  977SOL     OW14566   3.895   1.181   7.483 -0.1553  0.1229  0.2252
  977SOL    HW114567   3.920   1.274   7.487  0.7317 -0.0701 -0.9436
  977SOL    HW214568   3.983   1.158   7.452 -0.6284 -1.0192 -0.2623
  978SOL     OW14569   2.035   2.034   5.488 -0.4385  0.1847  0.6310
  978SOL    HW114570   1.947   2.069   5.476 -0.2445  0.5470  0.2541
  978SOL    HW214571   2.023   1.940   5.474  0.6070  0.3015 -1.0952
  979SOL     OW14572   3.032   4.620   7.889 -0.5147  0.3870  0.1196
  979SOL    HW114573   2.974   4.580   7.825 -0.3545  0.8546 -0.3148
  979SOL    HW214574   2.981   4.596   7.967 -1.0788  1.3509  0.0504
  980SOL     OW14575   1.158   3.695   2.991  0.6709 -1.1024 -0.5223
  980SOL    HW114576   1.154   3.671   3.083 -2.7734  0.0423 -0.3523
  980SOL    HW214577   1.069   3.724   2.972  0.2240 -2.0545  0.1522
  981SOL     OW14578   1.397   3.676   7.522 -0.9360 -0.6238  0.4798
  981SOL    HW114579   1.369   3.599   7.473 -0.1813 -1.0575  0.7189
  981SOL    HW214580   1.340   3.667   7.598  0.7181 -1.4430  1.6363
  982SOL     OW14581   3.440   4.469  15.079 -0.5825 -0.3296  0.3378
  982SOL    HW114582   3.415   4.433  15.164  1.9378  1.7759  1.9703
  982SOL    HW214583   3.359   4.517  15.062  0.3356  1.9130  2.3249
  983SOL     OW14584   2.263   1.170  15.020  0.1912 -0.4931 -0.4748
  983SOL    HW114585   2.300   1.253  14.992  1.8976 -0.6116  1.4572
  983SOL    HW214586   2.336   1.116  14.992 -1.4328 -1.5977 -2.5654
  984SOL     OW14587   0.464   3.094  15.861 -0.2128 -0.1628  0.8657
  984SOL    HW114588   0.383   3.133  15.896 -0.2575 -0.5658  1.2217
  984SOL    HW214589   0.449   3.005  15.894 -0.7921  0.0791  1.2656
  985SOL     OW14590   1.800   2.288   5.782  0.0042 -0.3450 -0.2433
  985SOL    HW114591   1.824   2.321   5.869 -0.9082 -0.2780 -0.0121
  985SOL    HW214592   1.710   2.259   5.794 -0.7048  2.0282  0.2300
  986SOL     OW14593   2.155   1.928   9.317  0.5108 -0.5054  0.5132
  986SOL    HW114594   2.121   1.850   9.360  2.1357 -0.2257  2.3098
  986SOL    HW214595   2.201   1.970   9.390  0.2349  2.3120 -0.9132
  987SOL     OW14596   2.606   2.708   3.481 -0.1395  0.0265 -0.4302
  987SOL    HW114597   2.674   2.692   3.547 -0.4204  1.4246  0.2041
  987SOL    HW214598   2.645   2.667   3.404 -2.8115 -1.0142 -1.2355
  988SOL     OW14599   2.108   3.579   4.144 -0.0121  0.1543  0.1568
  988SOL    HW114600   2.013   3.582   4.139  0.0563 -0.2217 -1.5593
  988SOL    HW214601   2.135   3.551   4.056 -2.9849 -1.5110 -0.2193
  989SOL     OW14602   3.438   4.559   3.447 -0.1009  0.4778 -0.1184
  989SOL    HW114603   3.357   4.582   3.493  0.2564  0.2098  0.6409
  989SOL    HW214604   3.508   4.594   3.501 -0.0246 -2.1393  1.4980
  990SOL     OW14605   1.357   4.274   1.703 -0.2939  0.3034 -0.0618
  990SOL    HW114606   1.274   4.321   1.707 -0.1586  0.5651 -0.3277
  990SOL    HW214607   1.408   4.302   1.779  1.4121 -1.6328 -0.4893
  991SOL     OW14608   2.990   1.467   3.775 -0.4861  0.0643 -0.1291
  991SOL    HW114609   3.082   1.442   3.771 -0.6747 -0.4758 -1.0511
  991SOL    HW214610   3.001   1.513   3.858  2.5798 -0.1000 -0.4712
  992SOL     OW14611   1.969   4.378  16.462  0.0343 -0.4987  0.7793
  992SOL    HW114612   1.875   4.396  16.463  0.3144  0.9793 -2.6797
  992SOL    HW214613   2.010   4.459  16.432  3.7656 -1.9746  1.9081
  993SOL     OW14614   0.603   1.524   7.112 -0.4522  0.2597  0.3329
  993SOL    HW114615   0.622   1.599   7.056 -0.4340 -0.3704 -0.5102
  993SOL    HW214616   0.572   1.465   7.043 -1.6744 -0.8096  1.7888
  994SOL     OW14617   3.656   3.294   0.660 -0.8096  0.3682  0.4208
  994SOL    HW114618   3.690   3.362   0.718 -1.3941  1.0220 -0.0070
  994SOL    HW214619   3.686   3.325   0.575 -0.4773 -0.4786  0.2259
  995SOL     OW14620   0.766   0.809  16.075 -0.2422  0.1596 -0.4206
  995SOL    HW114621   0.836   0.768  16.126 -2.7243 -0.2231  2.6735
  995SOL    HW214622   0.692   0.753  16.098 -0.1780  0.0221 -0.5503
  996SOL     OW14623   2.202   3.234   1.596 -0.6368  0.7312 -0.1746
  996SOL    HW114624   2.169   3.184   1.671 -2.1443 -1.3568 -2.2245
  996SOL    HW214625   2.123   3.276   1.563  0.6908  3.1481 -0.2861
  997SOL     OW14626   3.367   1.598   6.448  0.2652  0.5029  0.2645
  997SOL    HW114627   3.306   1.623   6.379  1.4057 -0.1897 -1.0020
  997SOL    HW214628   3.450   1.603   6.400 -0.4311 -0.4742 -1.0096
  998SOL     OW14629   3.101   1.835  17.566 -0.1991  0.0086 -0.5404
  998SOL    HW114630   3.083   1.747  17.533  2.3731 -0.2006 -1.3711
  998SOL    HW214631   3.112   1.883  17.484  1.8008 -0.5541 -0.6074
  999SOL     OW14632   0.869   0.489   6.426 -0.4524 -0.1607 -0.0526
  999SOL    HW114633   0.849   0.581   6.442 -2.1900 -0.0394 -2.8254
  999SOL    HW214634   0.779   0.460   6.408 -0.6914 -0.9898  2.4272
 1000SOL     OW14635   0.825   2.513   5.907 -0.4490 -0.8403 -0.4820
 1000SOL    HW114636   0.856   2.531   5.995 -2.5089 -3.1169  0.6897
 1000SOL    HW214637   0.749   2.454   5.912 -0.7902 -0.1341  2.5336
 1001SOL     OW14638   2.829   1.280   3.309 -0.0483 -0.3576 -0.0498
 1001SOL    HW114639   2.796   1.334   3.237  0.6323  1.2651  0.8651
 1001SOL    HW214640   2.821   1.342   3.381 -0.2126  0.2491 -0.5942
 1002SOL     OW14641   2.841   0.325   8.023 -0.1362 -0.0349 -0.0705
 1002SOL    HW114642   2.780   0.383   7.978  0.0501 -2.4944 -3.5134
 1002SOL    HW214643   2.913   0.309   7.962  1.0886 -0.7321  1.5722
 1003SOL     OW14644   0.832   4.563  11.577 -0.3664  0.0579  0.3625
 1003SOL    HW114645   0.855   4.493  11.515  1.2778  0.3702  0.6129
 1003SOL    HW214646   0.840   4.640  11.521 -0.9009 -0.2917 -0.2086
 1004SOL     OW14647   2.853   0.995   4.242  0.1844 -0.0424  0.3649
 1004SOL    HW114648   2.828   0.917   4.192  1.0424  0.1916 -0.4263
 1004SOL    HW214649   2.924   1.028   4.187 -1.5508 -3.1211 -3.6805
 1005SOL     OW14650   3.624   3.175   9.752 -0.9060  0.2692  0.4213
 1005SOL    HW114651   3.668   3.242   9.803 -0.5990  0.5746 -0.2453
 1005SOL    HW214652   3.572   3.128   9.817 -1.0522 -0.7309 -0.4099
 1006SOL     OW14653   0.674   3.565   7.578 -0.8296  0.5594 -0.2736
 1006SOL    HW114654   0.671   3.514   7.659 -1.1358 -0.9384 -1.2146
 1006SOL    HW214655   0.768   3.582   7.573 -0.7197  0.7818  2.7539
 1007SOL     OW14656   1.206   1.273   1.808 -0.2420  0.7199  0.0043
 1007SOL    HW114657   1.267   1.199   1.811 -0.9340  0.0319 -2.5820
 1007SOL    HW214658   1.142   1.238   1.870  1.3787  0.4585  1.5242
 1008SOL     OW14659   0.960   3.442  16.421  0.6777  0.1827 -0.0662
 1008SOL    HW114660   1.019   3.491  16.364 -0.3651  0.6631 -0.7346
 1008SOL    HW214661   0.885   3.438  16.362  0.8564 -0.1421 -0.2730
 1009SOL     OW14662   4.416   4.057  12.111 -0.2069  0.2462 -0.0782
 1009SOL    HW114663   4.468   4.005  12.173 -0.7891 -0.6679 -0.3480
 1009SOL    HW214664   4.343   3.995  12.101 -0.2986 -0.0495  2.3174
 1010SOL     OW14665   1.506   4.479  11.063 -0.0928 -0.1534  0.4447
 1010SOL    HW114666   1.557   4.451  11.139  0.6255 -1.7383 -0.6208
 1010SOL    HW214667   1.456   4.556  11.090  1.0834  1.2659 -1.4250
 1011SOL     OW14668   0.465   0.597   9.049  0.3801 -0.4304  0.1409
 1011SOL    HW114669   0.370   0.592   9.039  0.2099 -0.8255  1.9832
 1011SOL    HW214670   0.470   0.567   9.140 -1.9603  1.4220  0.8563
 1012SOL     OW14671   3.653   1.822   1.842  0.4227 -0.3195 -0.2418
 1012SOL    HW114672   3.583   1.759   1.822  0.3313 -0.5587  0.8249
 1012SOL    HW214673   3.714   1.781   1.782 -0.2141 -0.3473 -0.8710
 1013SOL     OW14674   3.217   1.792   0.852  0.1633 -0.3767  0.8458
 1013SOL    HW114675   3.178   1.843   0.922 -0.4223  2.4490 -1.5054
 1013SOL    HW214676   3.235   1.863   0.790 -1.5617  0.2134  1.0143
 1014SOL     OW14677   4.098   0.586   2.998  0.3980  0.5942 -0.4914
 1014SOL    HW114678   4.147   0.580   2.916 -1.5727 -1.2571 -1.5412
 1014SOL    HW214679   4.085   0.495   3.025 -0.2591 -0.1808 -3.3793
 1015SOL     OW14680   4.740   3.932   7.120 -0.2495  0.1388 -0.3352
 1015SOL    HW114681   4.740   3.952   7.026  0.9654  2.3395  0.1457
 1015SOL    HW214682   0.058   4.003   7.144 -0.4423 -0.2284  1.1734
 1016SOL     OW14683   4.373   0.847   4.750 -0.9227  0.4010  0.1167
 1016SOL    HW114684   4.305   0.794   4.792  0.8761  1.2084  4.0218
 1016SOL    HW214685   4.446   0.828   4.810  0.7017 -0.0780 -2.0071
 1017SOL     OW14686   2.450   1.231   7.385 -0.5730 -0.1083 -0.0155
 1017SOL    HW114687   2.428   1.307   7.332 -1.5344  0.0836  0.6549
 1017SOL    HW214688   2.515   1.188   7.329 -0.3488  0.1089  0.0790
 1018SOL     OW14689   4.589   1.322  17.244  0.3269  0.1365  0.2068
 1018SOL    HW114690   4.526   1.277  17.188 -0.8503 -0.5264  2.0751
 1018SOL    HW214691   4.542   1.325  17.327 -1.0175  0.7813 -0.5795
 1019SOL     OW14692   0.233   4.687  10.736 -0.4377  0.2997  1.0690
 1019SOL    HW114693   0.221   0.038  10.713 -0.2110 -0.2405 -1.1892
 1019SOL    HW214694   0.316   4.669  10.779  0.8198 -3.0733 -2.7658
 1020SOL     OW14695   0.233   1.941   5.467  0.3651  0.0636  0.1589
 1020SOL    HW114696   0.273   1.856   5.485 -1.0041 -0.2100  1.9241
 1020SOL    HW214697   0.246   1.987   5.550  2.3371  0.5533 -0.4287
 1021SOL     OW14698   1.089   1.793   9.470 -0.1864 -0.2772 -0.1482
 1021SOL    HW114699   1.139   1.715   9.445 -1.2907 -0.5232 -1.6502
 1021SOL    HW214700   1.155   1.850   9.507 -1.5243 -0.0507  1.8903
 1022SOL     OW14701   1.328   2.072   3.010  0.1634 -0.0022 -0.9109
 1022SOL    HW114702   1.405   2.123   3.031 -1.2147  0.8075  2.1751
 1022SOL    HW214703   1.343   2.023   2.929  1.4577  2.7523 -2.3412
 1023SOL     OW14704   2.774   1.016  15.214  0.1280  0.0254  0.5482
 1023SOL    HW114705   2.695   1.066  15.193  0.0753 -0.3216 -0.0968
 1023SOL    HW214706   2.752   0.929  15.181  1.4473 -0.2272  0.3432
 1024SOL     OW14707   0.212   4.105   2.836  0.4200 -0.1563  0.2542
 1024SOL    HW114708   0.284   4.124   2.895 -1.5345  0.6744  2.3383
 1024SOL    HW214709   0.204   4.010   2.841 -2.4405  0.0044 -1.2661
 1025SOL     OW14710   0.631   3.544   9.259 -0.0983 -0.1244 -0.2992
 1025SOL    HW114711   0.650   3.517   9.349  0.3606 -0.9172 -0.6326
 1025SOL    HW214712   0.610   3.457   9.226 -0.8220 -0.5056  1.1540
 1026SOL     OW14713   2.200   4.734   1.922 -0.1064  0.1429 -0.1742
 1026SOL    HW114714   2.214   0.081   1.887  1.2527  0.1142  0.3188
 1026SOL    HW214715   2.230   4.687   1.845  1.3337 -1.2507  1.2248
 1027SOL     OW14716   1.346   1.473   9.422  0.2081 -0.1706 -0.0625
 1027SOL    HW114717   1.435   1.507   9.430 -0.5460  1.1361  2.8602
 1027SOL    HW214718   1.332   1.489   9.329  2.3501  1.0380 -0.1744
 1028SOL     OW14719   1.630   2.309   6.296  0.2627 -0.7518 -0.0535
 1028SOL    HW114720   1.607   2.349   6.380 -0.1142 -2.7104  0.7729
 1028SOL    HW214721   1.575   2.230   6.293  0.7537 -1.0742 -0.3928
 1029SOL     OW14722   0.983   3.096   3.934 -0.2041  0.2286 -0.3382
 1029SOL    HW114723   1.025   3.053   3.859 -0.1941  0.8939 -0.7197
 1029SOL    HW214724   1.050   3.087   4.001 -1.0617 -0.6266  0.3987
 1030SOL     OW14725   2.913   2.172   9.114  0.7820  0.2278 -0.2514
 1030SOL    HW114726   2.941   2.260   9.092  0.8917  0.3516  0.3966
 1030SOL    HW214727   2.981   2.122   9.067 -0.6710  0.1608 -2.2987
 1031SOL     OW14728   0.447   3.292   0.187  0.5785 -0.2051  0.2832
 1031SOL    HW114729   0.397   3.371   0.207  0.0076 -0.6683  0.6771
 1031SOL    HW214730   0.535   3.318   0.215  0.6976 -0.2336 -0.0716
 1032SOL     OW14731   3.480   2.280   6.397 -0.6243  0.4661  0.5768
 1032SOL    HW114732   3.573   2.257   6.403 -0.8288 -0.0710  1.6512
 1032SOL    HW214733   3.472   2.336   6.475 -0.6664  3.4286 -1.5392
 1033SOL     OW14734   3.068   4.577   3.708  0.1279  0.6673  0.1301
 1033SOL    HW114735   3.045   4.628   3.786 -2.5627 -0.3408  0.0102
 1033SOL    HW214736   3.161   4.565   3.724  0.1786  1.2728  0.2759
 1034SOL     OW14737   4.259   0.666   7.311 -0.5377 -0.0556  0.8847
 1034SOL    HW114738   4.221   0.655   7.398 -1.5747 -1.2178  0.2821
 1034SOL    HW214739   4.343   0.620   7.311  0.5510  1.9457 -1.1190
 1035SOL     OW14740   3.499   2.887   6.442  0.0929 -0.6698  0.3605
 1035SOL    HW114741   3.443   2.955   6.405  0.7043 -0.9148 -0.9933
 1035SOL    HW214742   3.464   2.806   6.407 -0.6376  0.7838 -2.2164
 1036SOL     OW14743   4.530   2.308  15.960 -0.0259 -0.4928 -0.5896
 1036SOL    HW114744   4.524   2.213  15.949 -2.0068 -0.7854  3.1100
 1036SOL    HW214745   4.543   2.326  15.867 -3.4169  1.4523 -0.6668
 1037SOL     OW14746   4.155   2.803   8.219  0.3123 -0.7366 -0.3597
 1037SOL    HW114747   4.231   2.759   8.181  0.1196 -0.8770 -0.5846
 1037SOL    HW214748   4.078   2.759   8.183 -1.3921  1.6586  0.3983
 1038SOL     OW14749   1.173   1.557   2.637  0.7046 -0.3600 -0.2244
 1038SOL    HW114750   1.094   1.551   2.585  1.1623  0.9894 -1.0916
 1038SOL    HW214751   1.143   1.566   2.728  1.2693 -1.1124  0.0410
 1039SOL     OW14752   0.963   0.245   6.453  0.6121  0.3611 -0.2995
 1039SOL    HW114753   0.925   0.329   6.429  1.1528  0.3285 -1.2549
 1039SOL    HW214754   1.049   0.256   6.412  1.0377  1.2460  0.8187
 1040SOL     OW14755   1.628   1.084   2.393  0.0871 -0.4763 -0.7902
 1040SOL    HW114756   1.542   1.050   2.420  1.0261  0.5607  3.6295
 1040SOL    HW214757   1.634   1.049   2.304  0.3377 -1.8754 -0.2262
 1041SOL     OW14758   0.870   3.157   0.914  0.0582  0.0467 -0.2300
 1041SOL    HW114759   0.879   3.236   0.861  0.2973  1.1931  1.5198
 1041SOL    HW214760   0.922   3.184   0.990  0.5587 -1.6157  0.0294
 1042SOL     OW14761   2.499   2.877   3.311 -0.2580  0.1137  0.0360
 1042SOL    HW114762   2.590   2.894   3.286 -0.3764 -0.5804 -0.8379
 1042SOL    HW214763   2.509   2.828   3.393  1.7148 -0.0030 -0.2636
 1043SOL     OW14764   3.801   0.196   6.731 -0.1580 -0.2518  0.4074
 1043SOL    HW114765   3.804   0.159   6.819  1.3079 -1.9455 -0.3565
 1043SOL    HW214766   3.891   0.193   6.698 -0.5573 -2.6829 -0.4471
 1044SOL     OW14767   1.483   1.923   5.363  0.4830  0.0090  0.2081
 1044SOL    HW114768   1.448   1.951   5.278  0.2951  0.4569  0.4395
 1044SOL    HW214769   1.575   1.914   5.337  0.2120 -1.6335 -0.1918
 1045SOL     OW14770   2.062   0.149   5.946  0.1768 -0.7448 -0.5407
 1045SOL    HW114771   2.155   0.137   5.927  0.2180 -1.8082  0.3048
 1045SOL    HW214772   2.067   0.138   6.041  0.5537  0.6532 -0.3997
 1046SOL     OW14773   1.567   2.045  15.319  0.2124  0.1863  0.1558
 1046SOL    HW114774   1.547   1.995  15.239  2.2800  1.7215 -1.3143
 1046SOL    HW214775   1.658   2.060  15.296  0.6236 -2.2246  0.1536
 1047SOL     OW14776   1.900   1.589   0.339 -0.5999 -0.4541 -0.1215
 1047SOL    HW114777   1.876   1.512   0.391 -0.5017 -1.0626 -0.9765
 1047SOL    HW214778   1.816   1.626   0.313  0.7622  2.2739 -0.6703
 1048SOL     OW14779   0.795   1.791   1.499 -0.4314 -0.0796 -0.1111
 1048SOL    HW114780   0.872   1.736   1.512 -0.6299 -0.5819 -1.0416
 1048SOL    HW214781   0.842   1.852   1.442 -0.3221  0.2578  0.3433
 1049SOL     OW14782   3.166   3.991   7.022 -0.3358 -0.0987 -0.4723
 1049SOL    HW114783   3.233   4.044   7.066 -1.5519  2.4668 -1.6921
 1049SOL    HW214784   3.088   4.021   7.070 -0.2697  0.6728 -0.8397
 1050SOL     OW14785   4.629   4.456   7.159  0.0114  0.1967 -0.1106
 1050SOL    HW114786   4.627   4.551   7.147  1.2153  0.1404 -0.7959
 1050SOL    HW214787   4.669   4.429   7.076  1.3228  1.2544  0.1794
 1051SOL     OW14788   4.677   2.474  12.222 -0.1320  0.1363 -0.2692
 1051SOL    HW114789   4.610   2.457  12.156 -0.5764  3.1184 -0.5957
 1051SOL    HW214790   4.635   2.427  12.295  2.3078  2.0996  2.3993
 1052SOL     OW14791   2.257   3.169   5.514 -0.1581  0.0804  0.4274
 1052SOL    HW114792   2.304   3.133   5.589  0.7852 -0.4449 -0.4181
 1052SOL    HW214793   2.308   3.248   5.495  1.5065 -1.4767 -1.6512
 1053SOL     OW14794   2.554   0.808   4.441  0.7382 -0.1864  0.0901
 1053SOL    HW114795   2.560   0.805   4.537 -2.9435  0.4056  0.3278
 1053SOL    HW214796   2.495   0.736   4.421  0.0958  1.1252 -2.7488
 1054SOL     OW14797   3.287   1.684   2.274 -1.0396  0.7529  0.0540
 1054SOL    HW114798   3.223   1.705   2.342  0.1389 -1.8771  1.9873
 1054SOL    HW214799   3.319   1.768   2.241  0.0562  1.3871  2.7344
 1055SOL     OW14800   3.794   1.979   7.271 -0.3484  0.0420  0.3495
 1055SOL    HW114801   3.792   1.924   7.193 -1.6762  0.8541 -0.2050
 1055SOL    HW214802   3.770   2.066   7.240 -0.2577 -0.6320 -1.6095
 1056SOL     OW14803   3.595   1.973   3.827  0.2841 -0.0496  0.0563
 1056SOL    HW114804   3.549   1.946   3.907  0.7788  2.0781  1.0599
 1056SOL    HW214805   3.657   1.902   3.815  0.3643  0.2109 -1.0717
 1057SOL     OW14806   3.782   4.396   9.001  0.1236  0.5365  0.2215
 1057SOL    HW114807   3.826   4.405   8.917 -2.0797 -0.2004 -0.9838
 1057SOL    HW214808   3.705   4.450   8.988  0.8731  2.0961  2.2407
 1058SOL     OW14809   2.650   0.841  16.183  0.4381  0.5145  0.4007
 1058SOL    HW114810   2.589   0.902  16.141 -1.4371 -0.3057  1.9088
 1058SOL    HW214811   2.734   0.881  16.160 -0.9202  3.6439  0.8884
 1059SOL     OW14812   1.535   2.485   7.000  0.0009  0.3105  0.4591
 1059SOL    HW114813   1.458   2.492   6.943  1.2088  0.3523 -1.1651
 1059SOL    HW214814   1.597   2.523   6.937 -0.9184  0.5316 -0.3147
 1060SOL     OW14815   2.721   0.744   7.873 -0.0177  0.3124  0.3341
 1060SOL    HW114816   2.765   0.782   7.797 -0.3438  0.1079  0.0442
 1060SOL    HW214817   2.634   0.782   7.859  0.1541  0.7859  0.5545
 1061SOL     OW14818   3.485   2.157  13.140 -0.1915  0.5105  0.5133
 1061SOL    HW114819   3.398   2.116  13.144 -0.9599  2.3247  2.7273
 1061SOL    HW214820   3.480   2.221  13.070 -0.5285  0.3718  0.4103
 1062SOL     OW14821   1.468   2.753   2.918 -0.1475  0.1470 -0.7664
 1062SOL    HW114822   1.495   2.671   2.959 -1.1473 -0.9897 -2.3965
 1062SOL    HW214823   1.388   2.751   2.970  0.5482  0.4336  0.3203
 1063SOL     OW14824   3.572   3.034  16.911 -0.1479  0.2807  0.0526
 1063SOL    HW114825   3.566   3.103  16.845  3.2848 -2.2447 -2.9661
 1063SOL    HW214826   3.654   3.070  16.946  0.2794  0.6102 -1.2556
 1064SOL     OW14827   4.299   1.041   2.796 -0.1599  0.0229 -0.0839
 1064SOL    HW114828   4.310   0.982   2.871 -2.4812 -1.8945 -1.2402
 1064SOL    HW214829   4.237   0.990   2.744  0.9306 -0.9198 -0.4608
 1065SOL     OW14830   3.974   3.063   6.790  0.3093 -0.4712  0.4460
 1065SOL    HW114831   4.001   3.094   6.703  0.2590 -1.5866  0.0235
 1065SOL    HW214832   4.054   3.020   6.821  0.0527 -0.9395  0.4619
 1066SOL     OW14833   2.596   4.446   4.184  0.3166 -0.1634 -0.0856
 1066SOL    HW114834   2.517   4.407   4.222  1.2634 -0.0922  1.9609
 1066SOL    HW214835   2.575   4.450   4.090 -4.0075 -0.5743  0.8570
 1067SOL     OW14836   3.772   2.744  13.892 -0.1079 -0.4290  0.2434
 1067SOL    HW114837   3.847   2.783  13.936  0.7570 -0.5056 -1.1739
 1067SOL    HW214838   3.757   2.670  13.951  0.7369 -1.1828 -0.4931
 1068SOL     OW14839   0.360   0.892  14.919  0.2990 -0.1795  0.2580
 1068SOL    HW114840   0.379   0.935  14.835  2.3574  1.9830  1.8356
 1068SOL    HW214841   0.403   0.809  14.899 -0.3622 -0.0584 -1.7407
 1069SOL     OW14842   3.143   3.134   0.720  0.0873  0.6804 -0.3569
 1069SOL    HW114843   3.145   3.114   0.627  0.4295 -2.4777  0.3487
 1069SOL    HW214844   3.203   3.067   0.750 -1.3850 -0.0801  0.8936
 1070SOL     OW14845   1.660   2.224   3.346 -0.0156 -0.0416  0.6424
 1070SOL    HW114846   1.570   2.194   3.360  0.3156 -0.8454  1.0883
 1070SOL    HW214847   1.708   2.167   3.286  1.0137  0.8847  0.5847
 1071SOL     OW14848   1.234   1.845  10.898  0.2757  0.8113  0.6841
 1071SOL    HW114849   1.289   1.793  10.957  0.7280  1.0699  0.4896
 1071SOL    HW214850   1.269   1.819  10.813 -2.2585 -0.2340 -0.0433
 1072SOL     OW14851   3.038   3.019  12.776  0.0329 -0.0683 -0.3616
 1072SOL    HW114852   3.077   2.932  12.777  0.2404  0.0881  3.7301
 1072SOL    HW214853   2.966   3.007  12.713  1.5190  1.5957 -2.3643
 1073SOL     OW14854   4.134   0.170   8.102 -0.1123 -0.6476  0.6544
 1073SOL    HW114855   4.130   0.253   8.149  0.4996 -1.2943  1.8528
 1073SOL    HW214856   4.066   0.122   8.148  0.5054 -1.6261  0.5558
 1074SOL     OW14857   0.336   0.690  10.365 -0.1555 -0.3338 -0.3418
 1074SOL    HW114858   0.265   0.711  10.304 -0.6597  0.2994  0.4750
 1074SOL    HW214859   0.374   0.613  10.322  3.2486  1.4943 -0.6017
 1075SOL     OW14860   0.777   0.691   4.022  0.6580 -0.2235  0.2257
 1075SOL    HW114861   0.801   0.754   3.954  0.3575  0.2868  0.5954
 1075SOL    HW214862   0.685   0.671   4.003  1.1502 -2.6628  0.3997
 1076SOL     OW14863   4.507   3.493   7.434  0.4556 -0.1659  0.1317
 1076SOL    HW114864   4.555   3.545   7.498 -0.2619 -0.0085  0.5358
 1076SOL    HW214865   4.496   3.557   7.363 -0.7299  1.1701  1.5181
 1077SOL     OW14866   4.733   0.721   9.845  0.6633  0.7320 -0.0588
 1077SOL    HW114867   4.737   0.816   9.841  0.5861  0.6716 -1.3780
 1077SOL    HW214868   0.057   0.692   9.781  0.3674 -0.0913  0.0139
 1078SOL     OW14869   1.444   3.951   0.589 -0.2235  0.2587 -0.0198
 1078SOL    HW114870   1.533   3.930   0.563 -0.0579  1.5449 -0.5243
 1078SOL    HW214871   1.449   3.914   0.678  1.6789 -1.9876 -1.0733
 1079SOL     OW14872   2.991   1.748   8.428  0.2526  0.0121 -0.2700
 1079SOL    HW114873   3.083   1.752   8.404  0.4372 -0.6350  0.3338
 1079SOL    HW214874   2.944   1.800   8.362 -1.5924 -1.3728 -0.0632
 1080SOL     OW14875   2.701   3.623   4.789  0.2162 -0.0428  0.2290
 1080SOL    HW114876   2.752   3.673   4.726  0.6561  1.7092  1.9708
 1080SOL    HW214877   2.742   3.539   4.769  0.2514 -0.5003  2.1873
 1081SOL     OW14878   1.349   2.488   4.088 -0.1743  0.4024 -0.1430
 1081SOL    HW114879   1.418   2.421   4.096 -4.0354 -3.6524 -0.5969
 1081SOL    HW214880   1.403   2.561   4.057 -0.2823  0.6472  0.2526
 1082SOL     OW14881   3.220   2.248   6.072  0.3703 -0.1148  0.6958
 1082SOL    HW114882   3.226   2.275   5.980 -0.2352 -4.0432 -0.5128
 1082SOL    HW214883   3.269   2.166   6.076  0.7901  0.1213  0.4313
 1083SOL     OW14884   1.524   0.036   5.212 -0.2128 -0.3085  0.1951
 1083SOL    HW114885   1.538   0.063   5.303 -0.4931 -0.9805  0.4308
 1083SOL    HW214886   1.574   4.696   5.223  1.6183  0.6948 -0.6863
 1084SOL     OW14887   0.705   1.443   4.459 -0.1724 -0.4422 -0.2929
 1084SOL    HW114888   0.681   1.415   4.547  2.9044 -0.1586  0.6295
 1084SOL    HW214889   0.622   1.477   4.426 -0.4788  0.9734  1.9193
 1085SOL     OW14890   3.416   2.644   2.245 -0.1512  0.2248  0.4442
 1085SOL    HW114891   3.448   2.603   2.326 -0.1316  1.5742  1.1148
 1085SOL    HW214892   3.377   2.570   2.197  0.7341 -0.5181  0.8741
 1086SOL     OW14893   3.022   2.948   7.939 -0.5813 -0.4383  0.0849
 1086SOL    HW114894   3.012   2.854   7.924 -0.3089  0.0410 -3.1129
 1086SOL    HW214895   3.058   2.955   8.028  2.5285  2.2159 -1.4010
 1087SOL     OW14896   3.917   4.466   6.120 -0.6560 -0.6274  0.5056
 1087SOL    HW114897   3.827   4.497   6.123 -0.3364  0.3195  0.3933
 1087SOL    HW214898   3.971   4.520   6.177 -1.5563  1.1803 -0.3721
 1088SOL     OW14899   0.244   2.783   3.743  0.2682 -0.3688  0.1391
 1088SOL    HW114900   0.196   2.825   3.671  1.0634 -1.0983 -0.8217
 1088SOL    HW214901   0.278   2.708   3.693  0.9489  0.1466 -0.1678
 1089SOL     OW14902   0.234   0.029  14.606 -0.4217  0.2084  0.0328
 1089SOL    HW114903   0.209   4.709  14.676 -1.8132 -1.2483 -1.7348
 1089SOL    HW214904   0.203   0.109  14.648 -1.2730 -0.3222  0.4211
 1090SOL     OW14905   3.437   4.571   4.227  0.6161  0.1010  0.5731
 1090SOL    HW114906   3.516   4.568   4.174  0.0234 -0.9979 -0.2586
 1090SOL    HW214907   3.433   4.488   4.275 -0.5302 -0.4859 -0.5293
 1091SOL     OW14908   2.407   3.868  13.798 -0.0337  0.2982 -0.1546
 1091SOL    HW114909   2.408   3.884  13.703  0.4264  0.3496 -0.1407
 1091SOL    HW214910   2.486   3.912  13.830 -1.2833  2.1401  0.3275
 1092SOL     OW14911   4.486   1.986   3.127 -0.4084  0.5482  0.0400
 1092SOL    HW114912   4.476   2.057   3.191  0.7299  0.9219 -0.1896
 1092SOL    HW214913   4.394   1.985   3.099 -0.6631  1.9049  0.8158
 1093SOL     OW14914   1.428   1.312   2.913 -0.4993 -0.3786 -0.4878
 1093SOL    HW114915   1.348   1.275   2.877  0.3338 -2.6436 -0.0357
 1093SOL    HW214916   1.485   1.290   2.839  0.8233  2.5238 -0.3373
 1094SOL     OW14917   2.441   4.573   8.824 -0.5955  0.0927  0.0777
 1094SOL    HW114918   2.479   4.603   8.742  1.5994  0.9198  1.4023
 1094SOL    HW214919   2.347   4.575   8.808 -0.4341 -0.2877 -0.9044
 1095SOL     OW14920   2.374   1.263  13.385  0.4135  0.1771  0.2144
 1095SOL    HW114921   2.412   1.180  13.416  1.4395  0.7683  0.5603
 1095SOL    HW214922   2.298   1.219  13.347 -0.8610  0.4209  2.4873
 1096SOL     OW14923   4.412   3.268   9.071 -0.3685 -0.0720  0.1611
 1096SOL    HW114924   4.356   3.244   9.144 -1.1673 -0.2033 -0.4854
 1096SOL    HW214925   4.342   3.281   9.006 -0.4592  1.8032  0.6139
 1097SOL     OW14926   3.948   1.028  12.363 -0.2472 -0.2120 -0.2674
 1097SOL    HW114927   3.855   1.007  12.357  0.0714 -1.3925 -1.1440
 1097SOL    HW214928   3.942   1.124  12.364 -1.6986 -0.2949 -0.3244
 1098SOL     OW14929   2.496   4.139  17.019  0.2838  0.0125 -0.1536
 1098SOL    HW114930   2.556   4.135  16.945 -0.9326  1.0042 -1.2047
 1098SOL    HW214931   2.564   4.153  17.085  0.9611 -0.2164 -0.8056
 1099SOL     OW14932   1.363   3.927   4.264  0.5337 -0.1115  0.2172
 1099SOL    HW114933   1.300   3.970   4.322 -2.3680 -3.7218 -0.2576
 1099SOL    HW214934   1.304   3.860   4.228  1.1657 -0.4151 -0.2444
 1100SOL     OW14935   0.465   1.911  12.860 -0.1521 -0.2953 -0.8369
 1100SOL    HW114936   0.442   1.983  12.919  1.4672  0.3894 -1.0219
 1100SOL    HW214937   0.541   1.944  12.812  0.7893  0.0179  0.8546
 1101SOL     OW14938   1.246   0.537   0.718  0.1813  0.2876  0.7363
 1101SOL    HW114939   1.317   0.581   0.672 -0.4572 -1.1527 -1.6137
 1101SOL    HW214940   1.176   0.551   0.654  0.5497  2.0590  0.7100
 1102SOL     OW14941   3.105   3.373  17.309  0.2442  0.1436  0.1862
 1102SOL    HW114942   3.106   3.309  17.237 -1.2953 -0.0600  0.3378
 1102SOL    HW214943   3.038   3.325  17.357  0.7230  2.0871  2.7878
 1103SOL     OW14944   4.608   3.126   2.357  0.4366 -0.2064  0.4869
 1103SOL    HW114945   4.637   3.059   2.294  0.2986 -1.4385  1.7214
 1103SOL    HW214946   4.602   3.206   2.305  0.0771 -1.2370 -1.0489
 1104SOL     OW14947   1.042   1.556  14.805 -0.2652 -0.0079 -0.2042
 1104SOL    HW114948   1.027   1.518  14.718 -2.1515 -0.6931  0.4134
 1104SOL    HW214949   0.982   1.631  14.808  0.1134  0.3114 -0.6102
 1105SOL     OW14950   2.859   0.280   7.107  0.1528  0.4456 -0.0571
 1105SOL    HW114951   2.801   0.317   7.173  0.6002 -1.1612  1.2178
 1105SOL    HW214952   2.882   0.351   7.046 -0.8557  0.2579 -0.6548
 1106SOL     OW14953   3.197   3.762  14.577 -0.0347  0.0952  0.2662
 1106SOL    HW114954   3.159   3.798  14.657 -1.7273  2.2261 -1.4967
 1106SOL    HW214955   3.237   3.683  14.614 -0.6215  0.2229  1.1576
 1107SOL     OW14956   2.966   4.236  11.972 -0.6821 -0.0584 -0.0860
 1107SOL    HW114957   2.929   4.168  12.028 -2.4422  0.2348 -0.9171
 1107SOL    HW214958   2.995   4.178  11.902 -1.3861 -1.0424  0.4375
 1108SOL     OW14959   3.138   0.637  13.711  0.1078  0.3760  1.1883
 1108SOL    HW114960   3.123   0.577  13.638 -2.3996  0.9955  1.2043
 1108SOL    HW214961   3.049   0.633  13.745 -0.7611  2.6410 -0.7992
 1109SOL     OW14962   0.711   1.938   2.945  0.4280  0.2473  0.0295
 1109SOL    HW114963   0.633   1.892   2.915  0.5285  1.1911 -1.6845
 1109SOL    HW214964   0.681   2.019   2.904 -1.0652 -1.4637 -2.2842
 1110SOL     OW14965   1.255   0.492   0.384  0.1871  0.0373 -0.0788
 1110SOL    HW114966   1.331   0.501   0.442  0.7639  3.2300 -1.3603
 1110SOL    HW214967   1.278   0.543   0.306  1.3206  3.4905  2.5700
 1111SOL     OW14968   1.402   3.904   1.805 -0.5005  1.0240 -0.4198
 1111SOL    HW114969   1.355   3.848   1.867  0.4374  1.1703  0.4161
 1111SOL    HW214970   1.362   3.878   1.722 -0.2567 -2.8774  0.6421
 1112SOL     OW14971   2.168   2.758   2.189  0.0421 -0.3719 -0.1314
 1112SOL    HW114972   2.098   2.693   2.197 -0.8002  0.7533  1.6442
 1112SOL    HW214973   2.130   2.840   2.221 -2.2007 -0.6072 -2.1021
 1113SOL     OW14974   3.215   2.496  13.589  0.4684  0.7727 -0.1163
 1113SOL    HW114975   3.278   2.568  13.586 -0.0081  1.2793  2.2154
 1113SOL    HW214976   3.262   2.415  13.569 -2.2916 -1.2835  1.7649
 1114SOL     OW14977   0.996   4.601   1.963  0.1416 -0.2026 -0.0938
 1114SOL    HW114978   0.921   4.623   1.906 -0.4358 -1.5863  0.1366
 1114SOL    HW214979   0.974   4.513   1.993  3.7529 -1.5560 -1.4312
 1115SOL     OW14980   2.752   4.042   2.641  0.5062 -0.0873  0.4339
 1115SOL    HW114981   2.741   4.136   2.653  1.5369  0.1723 -0.5849
 1115SOL    HW214982   2.843   4.038   2.612 -0.1568  1.4538 -1.8327
 1116SOL     OW14983   2.246   3.701  11.743  0.3751  0.2430 -0.6886
 1116SOL    HW114984   2.161   3.701  11.699  0.6124 -2.1398 -1.1411
 1116SOL    HW214985   2.291   3.756  11.679 -0.0024  0.0086 -1.1523
 1117SOL     OW14986   4.222   3.165   8.572 -0.3882 -0.3741 -0.0402
 1117SOL    HW114987   4.195   3.083   8.532 -1.1383  0.1451 -0.5865
 1117SOL    HW214988   4.158   3.178   8.642 -0.7215  0.7698 -0.5585
 1118SOL     OW14989   2.970   0.062   0.292 -0.5066 -0.4024  0.1243
 1118SOL    HW114990   2.943   0.153   0.305 -0.5706 -0.7180  2.1839
 1118SOL    HW214991   3.065   0.074   0.301 -0.6564  1.4184 -0.6230
 1119SOL     OW14992   1.901   4.286   7.968 -0.3671 -0.5026 -0.2027
 1119SOL    HW114993   1.858   4.231   8.033 -1.2768  1.4920  0.8736
 1119SOL    HW214994   1.985   4.312   8.006 -0.3686 -0.2193 -0.3943
 1120SOL     OW14995   1.947   0.058   3.773 -0.5349 -0.5188 -0.5669
 1120SOL    HW114996   1.889   4.722   3.777 -1.9179  0.5711  0.5124
 1120SOL    HW214997   2.011   0.030   3.708  0.3020 -0.3395  0.1967
 1121SOL     OW14998   0.938   0.688   9.982 -0.1198 -0.4469  0.8081
 1121SOL    HW114999   1.028   0.720   9.979 -1.0884  2.1611 -1.0892
 1121SOL    HW215000   0.907   0.719   9.897 -0.2726  0.6527  1.2725
 1122SOL     OW15001   0.040   1.369  15.453  0.5749 -0.5008  0.1072
 1122SOL    HW115002   4.740   1.393  15.537 -0.3898  1.1119 -0.8167
 1122SOL    HW215003   0.117   1.426  15.447 -0.0955  0.4573  0.5376
 1123SOL     OW15004   2.330   3.780  11.481  0.7816  0.0621 -0.5890
 1123SOL    HW115005   2.301   3.858  11.528  0.2090  0.3367 -1.4156
 1123SOL    HW215006   2.254   3.751  11.431 -0.6426 -0.0196  1.6217
 1124SOL     OW15007   2.609   1.698   9.742  0.3743  0.0157  0.2582
 1124SOL    HW115008   2.673   1.631   9.716  0.2475  0.0850 -0.2262
 1124SOL    HW215009   2.578   1.671   9.828  1.1381  2.6635  1.3618
 1125SOL     OW15010   3.585   4.041   9.285  0.5001 -0.3003 -0.1715
 1125SOL    HW115011   3.580   4.066   9.193 -2.5042  1.8274  0.5751
 1125SOL    HW215012   3.674   4.007   9.290 -0.0387 -1.6762  0.1093
 1126SOL     OW15013   3.327   1.059   4.680  0.1249  0.4240 -0.4363
 1126SOL    HW115014   3.269   1.074   4.754 -2.1402  3.2841 -2.8025
 1126SOL    HW215015   3.399   1.120   4.698  0.5494 -0.5950  1.3319
 1127SOL     OW15016   4.620   3.831   3.952 -0.1666  0.4122  0.5031
 1127SOL    HW115017   4.542   3.886   3.943  0.8343  1.5790 -0.8979
 1127SOL    HW215018   4.585   3.748   3.985 -0.6095 -0.0219 -1.0551
 1128SOL     OW15019   2.372   0.564  16.516 -0.1586  0.0278  0.2737
 1128SOL    HW115020   2.325   0.629  16.464  2.0414  0.2700 -1.4103
 1128SOL    HW215021   2.439   0.553  16.448 -0.8083  1.1556 -0.5528
 1129SOL     OW15022   2.195   2.632   4.943  0.3538 -0.0580  0.1788
 1129SOL    HW115023   2.146   2.700   4.897 -0.8554 -0.5931  0.6969
 1129SOL    HW215024   2.182   2.556   4.887 -0.0846 -0.1839  0.4561
 1130SOL     OW15025   4.282   0.019   6.614 -0.5562  0.0012  0.7368
 1130SOL    HW115026   4.324   0.039   6.531 -0.0014 -0.3070  0.9479
 1130SOL    HW215027   4.235   4.679   6.591  1.0676 -0.7874  0.1918
 1131SOL     OW15028   0.415   2.653  12.823  0.6278  0.1956 -0.0039
 1131SOL    HW115029   0.406   2.558  12.821  1.8464  0.0801  0.1155
 1131SOL    HW215030   0.375   2.680  12.740  1.0326 -0.5530 -0.4389
 1132SOL     OW15031   1.222   2.676   7.401 -0.0890 -0.6749  0.1342
 1132SOL    HW115032   1.271   2.754   7.378 -1.8202  0.6008  0.7316
 1132SOL    HW215033   1.183   2.698   7.486 -2.6993 -1.0041 -0.9637
 1133SOL     OW15034   2.427   0.827   8.735 -0.3166  0.5041 -0.0290
 1133SOL    HW115035   2.513   0.808   8.773 -0.6241 -0.4024  0.2160
 1133SOL    HW215036   2.401   0.894   8.799 -3.6296  0.2532 -1.1134
 1134SOL     OW15037   4.193   1.685   8.492 -0.1488  0.0981 -0.4770
 1134SOL    HW115038   4.237   1.726   8.566  1.4801  0.2731 -1.5452
 1134SOL    HW215039   4.183   1.594   8.518 -1.4811  0.8020  1.4831
 1135SOL     OW15040   2.865   2.890   2.862  0.4345 -0.0536  0.1077
 1135SOL    HW115041   2.792   2.900   2.923 -1.5492 -2.9590 -1.7746
 1135SOL    HW215042   2.875   2.796   2.845  2.7129  0.2962 -0.4407
 1136SOL     OW15043   4.172   4.740   3.175 -0.2509  0.0668 -0.0931
 1136SOL    HW115044   4.227   0.006   3.097  0.4917 -0.5888  0.3722
 1136SOL    HW215045   4.181   0.088   3.210 -1.3660 -0.4493  1.4795
 1137SOL     OW15046   1.627   2.477  17.246  0.2054  0.0495  0.0177
 1137SOL    HW115047   1.631   2.556  17.301  3.2875  1.3465 -2.0293
 1137SOL    HW215048   1.701   2.501  17.190  0.2824 -0.7034 -0.2040
 1138SOL     OW15049   0.798   2.267  10.029  0.1562 -0.0991 -1.1042
 1138SOL    HW115050   0.734   2.338  10.029  0.5330  0.2575  0.7008
 1138SOL    HW215051   0.839   2.278   9.944  3.0939  2.4489  0.6487
 1139SOL     OW15052   4.505   2.561   6.899  0.1222  0.1445 -0.2321
 1139SOL    HW115053   4.412   2.578   6.911  0.4285  1.7484 -0.0634
 1139SOL    HW215054   4.532   2.646   6.864  0.0070  0.9577  1.6596
 1140SOL     OW15055   3.544   4.216   8.370  0.0936 -0.1474 -0.4418
 1140SOL    HW115056   3.563   4.200   8.277  0.7210 -1.6589 -0.0490
 1140SOL    HW215057   3.484   4.145   8.395 -0.1124  0.1738 -0.0253
 1141SOL     OW15058   3.628   1.084   3.723  0.3045 -0.2580  0.5705
 1141SOL    HW115059   3.700   1.037   3.765  0.6668 -1.1635 -1.0653
 1141SOL    HW215060   3.566   1.013   3.705  0.3598 -0.9981  3.3069
 1142SOL     OW15061   4.088   4.591   6.284  0.3412 -0.0943 -0.2678
 1142SOL    HW115062   4.176   4.623   6.265  0.5829 -1.5147 -1.5334
 1142SOL    HW215063   4.104   4.565   6.375 -2.0621 -3.1789 -0.7220
 1143SOL     OW15064   1.659   1.012   7.311  0.7564  0.2838 -0.0663
 1143SOL    HW115065   1.726   1.057   7.259  0.7037 -1.0149 -1.2566
 1143SOL    HW215066   1.703   1.000   7.395 -0.2439 -0.9118  0.2772
 1144SOL     OW15067   2.190   0.434   9.210 -0.0638  0.1809 -0.1685
 1144SOL    HW115068   2.203   0.516   9.163 -2.2912  0.3918 -0.4400
 1144SOL    HW215069   2.265   0.377   9.194 -1.2799 -1.2047 -1.0237
 1145SOL     OW15070   0.185   0.864  14.593 -0.0609 -0.4771  0.1027
 1145SOL    HW115071   0.268   0.901  14.561 -1.0287  0.8168 -0.9221
 1145SOL    HW215072   0.174   0.905  14.678 -2.5639 -0.0262 -0.4330
 1146SOL     OW15073   1.984   0.470   0.888 -0.2106  0.3386 -0.4580
 1146SOL    HW115074   1.928   0.486   0.965 -1.5412 -2.3866 -0.8260
 1146SOL    HW215075   2.011   0.380   0.910  1.3975  0.8612 -0.3609
 1147SOL     OW15076   1.301   3.337  17.690  0.0774 -0.1764 -0.0443
 1147SOL    HW115077   1.254   3.256  17.669  1.5320 -1.1534  0.4225
 1147SOL    HW215078   1.235   3.405  17.699 -1.6638 -1.4546 -3.1149
 1148SOL     OW15079   1.039   0.877   8.424  0.2453  1.2237 -0.5664
 1148SOL    HW115080   1.128   0.909   8.412  0.6308  0.6500  0.7430
 1148SOL    HW215081   0.983   0.952   8.404 -0.7279  0.6579  0.0070
 1149SOL     OW15082   1.064   2.889   0.585 -0.1270  0.1909  0.4328
 1149SOL    HW115083   1.007   2.872   0.510 -0.0208 -0.5110  0.5089
 1149SOL    HW215084   1.139   2.930   0.542  0.8493 -0.2591  1.6829
 1150SOL     OW15085   3.479   0.021   9.889  0.0512  0.4170 -0.1609
 1150SOL    HW115086   3.560   4.734   9.847 -1.6995 -2.5195 -1.5345
 1150SOL    HW215087   3.454   0.076   9.815 -2.5239 -0.2254  0.2452
 1151SOL     OW15088   2.768   2.375   6.201  0.0334 -0.0033 -0.0132
 1151SOL    HW115089   2.814   2.293   6.182 -1.8179 -0.8890 -0.6057
 1151SOL    HW215090   2.681   2.363   6.163 -0.5158 -0.9208  1.5341
 1152SOL     OW15091   0.428   1.367  16.897  0.0377 -0.7251 -0.6992
 1152SOL    HW115092   0.402   1.288  16.851  0.3091 -0.3780 -1.4386
 1152SOL    HW215093   0.342   1.409  16.898  0.3416 -0.0990 -0.1357
 1153SOL     OW15094   3.518   1.181   6.315  0.0918  0.0190 -0.3061
 1153SOL    HW115095   3.527   1.102   6.368 -0.1152 -0.1895 -0.5811
 1153SOL    HW215096   3.465   1.139   6.247  0.2324  1.7132 -1.4702
 1154SOL     OW15097   0.261   3.952   8.345  0.0456 -0.0834  0.3680
 1154SOL    HW115098   0.271   4.008   8.422  0.7920  0.2482  0.0255
 1154SOL    HW215099   0.340   3.972   8.296 -0.7204  1.4225 -0.2881
 1155SOL     OW15100   1.246   2.558   5.410  0.2794 -0.0504  0.2492
 1155SOL    HW115101   1.154   2.542   5.435  0.1239 -0.8475 -0.8404
 1155SOL    HW215102   1.289   2.600   5.485  2.4258  1.9637 -2.1505
 1156SOL     OW15103   1.226   2.841   2.195  0.6926 -0.1847 -0.1628
 1156SOL    HW115104   1.233   2.919   2.250  1.4643  1.4924 -2.6272
 1156SOL    HW215105   1.185   2.885   2.120 -0.6602 -1.7991 -0.3732
 1157SOL     OW15106   3.637   4.320   1.792  0.6411 -0.1699 -0.4475
 1157SOL    HW115107   3.613   4.246   1.848  0.7097 -1.3168 -1.9283
 1157SOL    HW215108   3.552   4.335   1.750 -0.1074 -1.9052  0.4130
 1158SOL     OW15109   2.816   0.012   7.465  0.1315  0.3829 -0.0444
 1158SOL    HW115110   2.874   0.068   7.517  0.6298 -0.9743  0.8770
 1158SOL    HW215111   2.802   4.683   7.529 -0.3617  1.7123  1.2806
 1159SOL     OW15112   3.887   2.415   2.852 -0.2950  0.2067 -0.4013
 1159SOL    HW115113   3.846   2.332   2.828 -0.8828  0.9503 -1.9814
 1159SOL    HW215114   3.947   2.414   2.777  0.6497 -0.3727  0.3518
 1160SOL     OW15115   3.749   2.190   0.161  0.1684  0.6164 -0.7740
 1160SOL    HW115116   3.690   2.115   0.163  1.5337 -0.5205 -3.1841
 1160SOL    HW215117   3.828   2.162   0.114  0.2478  1.5249 -1.1907
 1161SOL     OW15118   4.574   4.362   1.622  0.4491 -0.0791  0.5990
 1161SOL    HW115119   4.627   4.396   1.693  2.1289 -1.8949  0.2183
 1161SOL    HW215120   4.484   4.361   1.656  0.5418 -1.6710  0.8033
 1162SOL     OW15121   0.196   4.156   9.776  0.0719 -0.0801 -0.2704
 1162SOL    HW115122   0.249   4.222   9.731  0.6311 -0.9637 -0.8907
 1162SOL    HW215123   0.274   4.112   9.810 -0.0075 -0.3188 -0.3970
 1163SOL     OW15124   0.934   2.441   4.872 -0.5045 -0.2618 -0.4314
 1163SOL    HW115125   0.991   2.475   4.803 -1.0131  0.1709 -0.6353
 1163SOL    HW215126   0.848   2.445   4.831 -0.3955  0.2948 -0.6022
 1164SOL     OW15127   1.933   3.105   4.367  0.2861  0.4158  0.2327
 1164SOL    HW115128   1.943   3.028   4.310  1.3909  1.9941 -1.7335
 1164SOL    HW215129   1.988   3.073   4.438  0.3604  2.1193  0.9331
 1165SOL     OW15130   3.078   2.763   2.545 -0.3035  0.0453  0.4859
 1165SOL    HW115131   3.109   2.771   2.455 -1.1007 -0.6225  0.1590
 1165SOL    HW215132   3.153   2.796   2.595  1.7237  0.2161 -2.6875
 1166SOL     OW15133   2.678   3.786   5.754  0.4058  0.3575 -0.4531
 1166SOL    HW115134   2.707   3.707   5.800 -1.1014  0.3399  0.4999
 1166SOL    HW215135   2.654   3.845   5.826 -1.7999 -1.5830  0.3901
 1167SOL     OW15136   2.906   2.306  16.891  0.3498 -0.3489  0.5178
 1167SOL    HW115137   2.904   2.377  16.954 -1.2814 -0.8137  1.0024
 1167SOL    HW215138   2.839   2.336  16.829 -0.3099  1.0041  1.9139
 1168SOL     OW15139   2.017   2.792   0.346 -0.3568 -0.2394  0.4735
 1168SOL    HW115140   2.032   2.810   0.439 -0.1155 -0.0392  0.3960
 1168SOL    HW215141   1.964   2.717   0.372  1.1264 -0.4842  2.8495
 1169SOL     OW15142   4.699   4.526   4.110  0.4697 -0.1944  0.0052
 1169SOL    HW115143   4.615   4.534   4.064 -0.6620 -0.2502  2.0531
 1169SOL    HW215144   4.677   4.555   4.199  2.7971 -3.5909  1.6599
 1170SOL     OW15145   0.344   0.730   6.715 -0.1591 -0.0656  0.7149
 1170SOL    HW115146   0.281   0.685   6.660  1.3075  0.1786 -1.1795
 1170SOL    HW215147   0.344   0.817   6.675  1.5239 -0.3687  0.0117
 1171SOL     OW15148   2.958   0.670   5.221  0.1238  0.4993  0.3902
 1171SOL    HW115149   2.880   0.648   5.170 -0.3612  1.9824  0.4739
 1171SOL    HW215150   2.992   0.754   5.189  0.0053  0.6794  0.7294
 1172SOL     OW15151   2.746   1.384  10.443 -0.2663 -0.1991 -0.1590
 1172SOL    HW115152   2.744   1.452  10.511 -3.1022 -1.3515  0.9144
 1172SOL    HW215153   2.655   1.386  10.415  0.6658  0.1492 -3.1752
 1173SOL     OW15154   2.540   2.362   6.338  0.3142 -0.4792 -0.6591
 1173SOL    HW115155   2.511   2.358   6.247 -0.5645 -3.7953 -0.2098
 1173SOL    HW215156   2.604   2.433   6.330  0.0384 -0.1520  0.0193
 1174SOL     OW15157   3.079   4.493   2.468 -0.3455  0.4378 -0.1412
 1174SOL    HW115158   3.066   4.549   2.545 -1.8104  0.7680 -0.6196
 1174SOL    HW215159   3.174   4.503   2.462 -0.2641 -0.6254 -0.5437
 1175SOL     OW15160   4.457   4.402   3.010  0.4008 -0.5769 -0.0514
 1175SOL    HW115161   4.507   4.479   2.984  0.1835 -0.0438  1.1278
 1175SOL    HW215162   4.526   4.340   2.984  0.6121 -0.5654  0.4881
 1176SOL     OW15163   1.211   1.124   2.857 -0.0934  0.5488 -0.0726
 1176SOL    HW115164   1.185   1.177   2.782  2.7755  0.1425 -1.3425
 1176SOL    HW215165   1.221   1.036   2.821 -0.4187  0.8071 -0.7776
 1177SOL     OW15166   0.663   0.501   8.174 -0.5677  0.2509 -0.3485
 1177SOL    HW115167   0.745   0.538   8.206 -0.3242  1.6425 -2.5335
 1177SOL    HW215168   0.683   0.412   8.204  0.0431  1.0362  1.5012
 1178SOL     OW15169   3.104   3.648  17.314  0.0651  0.5997  0.9347
 1178SOL    HW115170   3.112   3.553  17.311 -0.5488  0.5554  0.5724
 1178SOL    HW215171   3.086   3.674  17.405  1.0685 -1.5369  1.7391
 1179SOL     OW15172   3.035   1.697   8.727 -0.4055 -0.1422  0.1519
 1179SOL    HW115173   2.998   1.679   8.641 -1.6076  2.2255  0.1810
 1179SOL    HW215174   3.105   1.756   8.702 -0.9819  0.6708  0.4471
 1180SOL     OW15175   3.875   4.052   5.101  0.3633  0.1382 -0.4322
 1180SOL    HW115176   3.833   4.138   5.099  1.3178  0.6571  1.5630
 1180SOL    HW215177   3.968   4.075   5.104  0.8465 -2.1173  1.7307
 1181SOL     OW15178   2.558   1.910  11.176  0.1642  0.3372  0.1727
 1181SOL    HW115179   2.586   1.999  11.198 -0.0178  0.6083 -0.7274
 1181SOL    HW215180   2.563   1.913  11.081 -0.0294  2.1519  0.2207
 1182SOL     OW15181   4.444   3.927   7.690 -0.1974  0.2411 -0.1957
 1182SOL    HW115182   4.454   3.869   7.765 -1.9992 -0.6440 -0.6498
 1182SOL    HW215183   4.352   3.943   7.708 -0.0459 -0.6577  1.4033
 1183SOL     OW15184   0.392   3.707   2.065 -0.2171  0.2749  0.5130
 1183SOL    HW115185   0.309   3.660   2.064 -0.9924  1.6976 -1.5521
 1183SOL    HW215186   0.365   3.799   2.072  0.8786  0.5872  0.5864
 1184SOL     OW15187   2.185   1.291   9.392  1.1188 -0.2019 -0.1638
 1184SOL    HW115188   2.230   1.305   9.308  0.3816  1.9704 -0.1998
 1184SOL    HW215189   2.207   1.198   9.389  0.5854 -0.3394  0.1821
 1185SOL     OW15190   0.097   1.601   8.705 -0.1726  0.1946  0.4655
 1185SOL    HW115191   0.097   1.681   8.652  0.9767 -0.0638  0.0776
 1185SOL    HW215192   0.152   1.632   8.777  0.9209 -1.1389  0.1942
 1186SOL     OW15193   0.441   1.575   2.557  0.4476 -0.2274 -0.4772
 1186SOL    HW115194   0.448   1.625   2.639 -0.9130 -1.7399  0.5471
 1186SOL    HW215195   0.518   1.519   2.567  0.2863 -0.5738 -1.1942
 1187SOL     OW15196   1.814   1.834   4.830 -0.2264  0.0802 -0.1681
 1187SOL    HW115197   1.807   1.766   4.763  0.1709 -0.6261  0.5081
 1187SOL    HW215198   1.909   1.832   4.844  0.0732 -0.8796 -2.3203
 1188SOL     OW15199   0.812   3.014   8.762 -0.6192  0.3081 -0.3049
 1188SOL    HW115200   0.902   3.013   8.730  0.2242  0.8217  2.0767
 1188SOL    HW215201   0.797   2.920   8.751 -0.3015 -0.0090  1.9386
 1189SOL     OW15202   4.482   1.785  12.336  0.4881 -0.1504 -0.4511
 1189SOL    HW115203   4.480   1.792  12.241  0.5754 -0.2595 -0.4618
 1189SOL    HW215204   4.558   1.732  12.362  0.2972 -0.3728 -0.3412
 1190SOL     OW15205   2.174   4.610  12.836 -0.1961  0.2228  0.4508
 1190SOL    HW115206   2.081   4.625  12.850 -0.2941 -0.7499  0.8277
 1190SOL    HW215207   2.199   4.539  12.894 -0.4566  1.2205  1.7860
 1191SOL     OW15208   3.364   4.605  15.682 -0.3719  0.0371  0.6333
 1191SOL    HW115209   3.365   4.649  15.598 -0.3966 -0.8440  0.1670
 1191SOL    HW215210   3.411   4.671  15.732 -2.2337 -0.0068  2.4667
 1192SOL     OW15211   1.549   0.311   7.073 -0.1679  0.3080 -0.1790
 1192SOL    HW115212   1.640   0.336   7.055  0.3824 -2.1187 -0.7861
 1192SOL    HW215213   1.522   0.396   7.108 -0.4137  0.6142 -1.1127
 1193SOL     OW15214   4.116   4.626   4.719 -0.5425 -0.3336 -0.0666
 1193SOL    HW115215   4.057   4.561   4.758 -1.8121 -0.3740 -2.0374
 1193SOL    HW215216   4.165   4.640   4.800 -2.0303  1.2571  0.5686
 1194SOL     OW15217   2.874   1.587   0.509  0.0399 -0.6269  0.0985
 1194SOL    HW115218   2.890   1.621   0.597  1.4923 -0.7210 -0.1253
 1194SOL    HW215219   2.791   1.630   0.490  0.8196  0.0209 -1.8059
 1195SOL     OW15220   1.709   2.472   2.033 -0.4302  0.2158  0.0658
 1195SOL    HW115221   1.733   2.387   1.995 -0.4180 -0.3896  1.4442
 1195SOL    HW215222   1.800   2.501   2.045  0.3747 -0.6445 -3.9052
 1196SOL     OW15223   0.461   2.322   6.486 -0.0197 -0.9524 -0.3458
 1196SOL    HW115224   0.456   2.328   6.390  1.4102  0.2768 -0.3338
 1196SOL    HW215225   0.437   2.412   6.507  0.4621 -1.1677  1.0972
 1197SOL     OW15226   0.825   3.476  12.956  0.1680 -0.0903 -0.6723
 1197SOL    HW115227   0.824   3.397  12.901  0.8497  0.0532 -0.8957
 1197SOL    HW215228   0.910   3.457  12.996 -0.4092  3.1791  2.0413
 1198SOL     OW15229   3.118   1.535   4.011  0.8667 -0.2445 -0.0800
 1198SOL    HW115230   3.163   1.579   4.083  0.3274  1.6894 -0.9175
 1198SOL    HW215231   3.151   1.445   4.011  0.4100 -0.4132 -0.2260
 1199SOL     OW15232   1.534   0.502   6.196 -0.0831  0.0051  0.1213
 1199SOL    HW115233   1.540   0.411   6.228 -0.9326  0.9944  3.1390
 1199SOL    HW215234   1.440   0.523   6.193  0.2848  1.5235 -0.6484
 1200SOL     OW15235   0.664   1.860   3.512  1.3029 -0.0966 -0.2414
 1200SOL    HW115236   0.572   1.867   3.537  1.4881 -0.2662  0.4645
 1200SOL    HW215237   0.688   1.941   3.557  2.1250 -0.8650  0.7079
 1201SOL     OW15238   4.511   2.072   6.135 -0.2463 -0.0531  0.0266
 1201SOL    HW115239   4.602   2.059   6.159 -0.4137 -1.5133 -0.1452
 1201SOL    HW215240   4.494   1.985   6.100 -1.0222 -0.6908  1.9861
 1202SOL     OW15241   0.602   2.345   5.944 -0.0507 -0.0486 -0.2976
 1202SOL    HW115242   0.634   2.273   5.890  2.5879 -0.1629  1.4423
 1202SOL    HW215243   0.542   2.391   5.885  0.6948 -1.1699 -1.9057
 1203SOL     OW15244   3.991   2.531   7.350  0.4990  0.5967 -0.2399
 1203SOL    HW115245   3.924   2.592   7.380  2.6597  2.4918  0.6960
 1203SOL    HW215246   4.014   2.490   7.433  0.1065  0.3938 -0.2312
 1204SOL     OW15247   1.886   1.563   3.204 -0.5965 -0.3892  0.0283
 1204SOL    HW115248   1.864   1.581   3.295  0.8651 -0.4693  0.3907
 1204SOL    HW215249   1.839   1.480   3.192 -0.0957 -0.8783  1.4483
 1205SOL     OW15250   3.448   3.062   7.330  0.2118 -0.2613 -0.1442
 1205SOL    HW115251   3.449   3.026   7.419  1.4754  0.9695  0.3374
 1205SOL    HW215252   3.409   2.990   7.280  2.6881 -1.6861  0.0009
 1206SOL     OW15253   1.095   1.123   6.061  0.0743  0.1382  0.0233
 1206SOL    HW115254   1.144   1.042   6.075  0.7036  0.3107 -1.2167
 1206SOL    HW215255   1.157   1.162   5.999  0.5376 -2.5223 -1.1842
 1207SOL     OW15256   1.112   2.580   3.549  0.3048  0.2598 -0.3141
 1207SOL    HW115257   1.192   2.565   3.499 -0.0755  1.0251 -1.1449
 1207SOL    HW215258   1.089   2.487   3.558 -2.6617  0.9230 -1.1278
 1208SOL     OW15259   0.414   2.770   4.853 -0.1826  0.4028  0.4604
 1208SOL    HW115260   0.452   2.787   4.939  1.2729  0.8460 -0.2523
 1208SOL    HW215261   0.494   2.751   4.803 -0.6611  0.9625 -0.5146
 1209SOL     OW15262   2.229   1.428   6.084  0.0870  0.0689  0.7742
 1209SOL    HW115263   2.175   1.354   6.111  1.4405 -1.8874 -1.9385
 1209SOL    HW215264   2.160   1.478   6.041  1.6590  2.7471  1.3487
 1210SOL     OW15265   0.020   3.089   6.025 -0.8061 -0.4879  0.0274
 1210SOL    HW115266   4.670   3.116   6.031 -0.6190  0.3845 -0.8393
 1210SOL    HW215267   0.047   3.156   6.088  1.2963 -3.5399  2.3014
 1211SOL     OW15268   3.846   2.080   7.637  0.2333  0.9256  0.1405
 1211SOL    HW115269   3.865   1.993   7.602  1.9055  1.7575 -1.0463
 1211SOL    HW215270   3.935   2.111   7.653  0.3668  0.5329  0.1524
 1212SOL     OW15271   0.991   4.684   9.546 -0.1794 -0.1298 -0.1673
 1212SOL    HW115272   1.028   4.596   9.539  0.6388  0.3403 -1.7103
 1212SOL    HW215273   0.939   4.678   9.626  0.5006  0.0160  0.2860
 1213SOL     OW15274   2.056   3.706   2.522 -0.0114 -0.0830 -0.1606
 1213SOL    HW115275   2.037   3.778   2.462  0.5980  0.4090  0.2559
 1213SOL    HW215276   2.124   3.661   2.472 -0.2138  1.4006 -1.7736
 1214SOL     OW15277   1.754   1.972   3.783 -0.5726 -0.0653 -0.5240
 1214SOL    HW115278   1.777   1.927   3.702  1.3631  0.8928 -0.4903
 1214SOL    HW215279   1.684   1.917   3.818 -0.8199  1.3443  1.2112
 1215SOL     OW15280   2.764   3.317   0.971 -0.6925  0.4199 -0.2443
 1215SOL    HW115281   2.694   3.297   1.033 -0.7594 -0.3601 -0.5669
 1215SOL    HW215282   2.720   3.334   0.887 -0.3319 -0.2140 -0.5600
 1216SOL     OW15283   3.429   1.739   9.457 -0.1933  0.1680  0.2445
 1216SOL    HW115284   3.430   1.661   9.401  2.3012 -0.4009  1.0539
 1216SOL    HW215285   3.335   1.745   9.473 -0.4943 -1.3083 -0.9501
 1217SOL     OW15286   3.839   3.699  13.235 -0.0444  0.2608 -0.2820
 1217SOL    HW115287   3.779   3.624  13.227 -0.8079  1.1005 -2.5560
 1217SOL    HW215288   3.875   3.710  13.147  0.1364 -1.1025 -0.3890
 1218SOL     OW15289   1.038   3.745   9.897 -0.0919 -0.1457  0.1826
 1218SOL    HW115290   1.004   3.726   9.984 -0.5578 -0.5334 -0.0881
 1218SOL    HW215291   1.091   3.667   9.877 -0.4153 -0.5205  0.8187
 1219SOL     OW15292   1.853   3.858   2.221 -0.4445  0.8129  0.2791
 1219SOL    HW115293   1.855   3.778   2.169 -0.2689  1.4512 -0.6968
 1219SOL    HW215294   1.942   3.891   2.232  0.0580 -0.5956  0.4362
 1220SOL     OW15295   4.604   1.424   8.724  0.1783  0.7118 -0.4231
 1220SOL    HW115296   4.686   1.474   8.730  0.7743 -0.5536  1.8348
 1220SOL    HW215297   4.632   1.342   8.682 -1.1030 -0.5178  1.0951
 1221SOL     OW15298   3.315   2.433   7.900  0.1368 -0.4254 -0.1950
 1221SOL    HW115299   3.243   2.399   7.847 -0.9126  1.0589  0.2605
 1221SOL    HW215300   3.373   2.358   7.893  0.0605 -0.2354 -2.6782
 1222SOL     OW15301   1.512   4.162   1.504 -0.2489  0.7095 -0.5995
 1222SOL    HW115302   1.594   4.200   1.535  0.3375 -0.2275 -1.0242
 1222SOL    HW215303   1.450   4.198   1.568 -0.5113 -0.8596  0.0383
 1223SOL     OW15304   3.125   0.738   0.773 -0.2648  0.3954 -0.1080
 1223SOL    HW115305   3.069   0.682   0.827  0.7879 -0.2113  0.3609
 1223SOL    HW215306   3.167   0.788   0.843  0.6430  0.8993 -1.0077
 1224SOL     OW15307   1.532   4.163   5.161 -0.2701  0.2782  0.3182
 1224SOL    HW115308   1.525   4.070   5.184 -1.1383 -0.3731 -2.5956
 1224SOL    HW215309   1.582   4.159   5.080  0.1594 -0.2266  0.6093
 1225SOL     OW15310   2.448   3.680   5.638  0.1984 -0.1100  0.6871
 1225SOL    HW115311   2.509   3.731   5.691 -0.1376  0.2086  0.7734
 1225SOL    HW215312   2.489   3.594   5.637  1.1689  0.3477 -0.4811
 1226SOL     OW15313   1.199   0.846   3.548 -0.6032 -0.0277  0.6929
 1226SOL    HW115314   1.177   0.918   3.489  0.6771 -1.1692 -1.1802
 1226SOL    HW215315   1.133   0.779   3.531 -2.2081  0.9099  3.1795
 1227SOL     OW15316   0.099   4.563   5.615 -0.2052  0.4035  0.1295
 1227SOL    HW115317   0.177   4.606   5.579  0.0067  0.8272  1.0950
 1227SOL    HW215318   0.140   4.505   5.679  0.1494 -0.1867 -0.6354
 1228SOL     OW15319   0.284   4.553  15.226 -0.8417 -0.1934  0.1316
 1228SOL    HW115320   0.284   4.607  15.147  0.0071  0.7722  0.7935
 1228SOL    HW215321   0.199   4.574  15.263 -0.5343  0.0269  0.7099
 1229SOL     OW15322   3.432   4.678   0.545  0.1492 -0.2773 -0.2662
 1229SOL    HW115323   3.348   4.667   0.591 -0.6411 -0.6531 -1.8084
 1229SOL    HW215324   3.423   0.030   0.525  0.0937 -0.2918 -0.3090
 1230SOL     OW15325   3.053   2.950  17.349 -0.4948 -0.0659 -0.0719
 1230SOL    HW115326   2.969   2.947  17.301  0.3646  0.8399 -1.6438
 1230SOL    HW215327   3.033   3.017  17.414 -1.3286 -1.1801  0.8313
 1231SOL     OW15328   4.419   2.675  15.826  0.9453  0.1284  0.3064
 1231SOL    HW115329   4.449   2.746  15.769 -1.3027  0.4885 -0.4188
 1231SOL    HW215330   4.469   2.687  15.907 -2.6727 -1.6327  2.7739
 1232SOL     OW15331   0.951   0.035   8.999 -0.2959  0.0885 -0.0722
 1232SOL    HW115332   1.046   0.025   8.989 -0.4036 -0.1781 -0.8231
 1232SOL    HW215333   0.921   0.071   8.916 -0.1531  3.4653  1.3393
 1233SOL     OW15334   0.277   2.585  11.650  0.2684 -0.4523 -0.2408
 1233SOL    HW115335   0.212   2.648  11.620 -0.5705 -1.6537 -0.9543
 1233SOL    HW215336   0.270   2.533  11.570 -0.7966 -0.1476 -0.3371
 1234SOL     OW15337   0.300   3.268  15.044  0.7075  0.0977  0.1495
 1234SOL    HW115338   0.391   3.262  15.015  0.3735 -0.1132 -0.8483
 1234SOL    HW215339   0.252   3.194  15.007  0.1250  0.9330 -0.7782
 1235SOL     OW15340   2.679   4.321  13.564  0.2878  0.9597 -0.6232
 1235SOL    HW115341   2.746   4.284  13.621 -1.8537 -3.1572 -0.8329
 1235SOL    HW215342   2.611   4.342  13.628 -0.8944 -1.1694 -1.2026
 1236SOL     OW15343   1.260   0.814   4.790 -0.0371 -0.1048  0.1374
 1236SOL    HW115344   1.239   0.815   4.883  0.3745  0.2899  0.2280
 1236SOL    HW215345   1.355   0.802   4.789  0.0737  0.7784  0.6264
 1237SOL     OW15346   1.802   1.564  17.014  0.0550  0.0970  0.3566
 1237SOL    HW115347   1.754   1.481  17.019  0.5444 -0.3164 -1.8833
 1237SOL    HW215348   1.724   1.616  17.034 -0.1023 -0.8956  2.3595
 1238SOL     OW15349   2.804   1.014  11.925  0.1148 -0.0757  0.2208
 1238SOL    HW115350   2.860   1.054  11.858  0.7243 -0.0433  0.7516
 1238SOL    HW215351   2.730   0.987  11.871  1.2105 -1.4253 -0.6080
 1239SOL     OW15352   4.527   3.135  17.508  0.4160 -0.8010 -0.2493
 1239SOL    HW115353   4.561   3.047  17.525 -1.5546 -1.3712  0.7675
 1239SOL    HW215354   4.465   3.151  17.579 -0.9978 -2.1462 -1.1624
 1240SOL     OW15355   4.114   0.484   5.568  0.7531  0.4834 -0.1383
 1240SOL    HW115356   4.048   0.426   5.604  3.5820 -1.7924  1.3945
 1240SOL    HW215357   4.136   0.529   5.649 -2.2763  0.8953  0.4623
 1241SOL     OW15358   4.506   2.301   6.413  0.2923 -0.0600 -0.0512
 1241SOL    HW115359   4.596   2.313   6.444 -0.0258 -0.0585  0.8443
 1241SOL    HW215360   4.494   2.207   6.419 -2.3248  0.2997  0.0319
 1242SOL     OW15361   3.948   2.864   9.502  0.1989  0.2069 -0.5454
 1242SOL    HW115362   3.889   2.803   9.548  0.1152  1.2173  0.6958
 1242SOL    HW215363   3.969   2.927   9.571  0.7459  0.6247 -1.1001
 1243SOL     OW15364   3.224   1.735   6.914  0.7933 -0.2038 -0.4259
 1243SOL    HW115365   3.265   1.769   6.834 -0.1971  2.2543  0.1149
 1243SOL    HW215366   3.281   1.663   6.938  0.3687 -0.6603 -0.7973
 1244SOL     OW15367   3.154   2.461   8.448 -0.2853  0.4039 -0.4086
 1244SOL    HW115368   3.140   2.367   8.446 -1.0874  0.5588 -1.7414
 1244SOL    HW215369   3.232   2.471   8.394 -0.6895 -1.1330 -1.2884
 1245SOL     OW15370   3.416   0.948   8.294  0.6981  0.1257  0.2165
 1245SOL    HW115371   3.500   0.933   8.337  0.3481 -1.2755  0.3923
 1245SOL    HW215372   3.433   1.038   8.267  3.5816 -0.2021  0.8922
 1246SOL     OW15373   1.674   1.099  11.464  0.3735  0.0884  0.3645
 1246SOL    HW115374   1.752   1.048  11.444  0.1676  0.6865 -1.9553
 1246SOL    HW215375   1.691   1.157  11.390  0.9106  0.6160  0.8973
 1247SOL     OW15376   3.505   1.970   8.198  0.2324  0.1484 -0.1701
 1247SOL    HW115377   3.530   1.939   8.285  0.2819 -0.0081 -0.2404
 1247SOL    HW215378   3.594   1.992   8.169  0.2179  0.1927 -0.1798
 1248SOL     OW15379   3.179   3.382   5.883 -0.3370  0.1458  0.0961
 1248SOL    HW115380   3.127   3.452   5.843 -1.0821  0.6345  1.9583
 1248SOL    HW215381   3.262   3.396   5.837  2.3442 -2.0370  4.2403
 1249SOL     OW15382   1.034   0.891   5.497 -0.1703 -0.2053  0.5812
 1249SOL    HW115383   1.034   0.984   5.473 -2.0569 -0.5616 -0.7786
 1249SOL    HW215384   1.117   0.893   5.546  0.1004 -3.0187  0.2152
 1250SOL     OW15385   1.421   1.110   7.290  0.1571 -0.1325  0.1693
 1250SOL    HW115386   1.435   1.174   7.221 -1.9285  1.5951  1.3452
 1250SOL    HW215387   1.508   1.072   7.303  0.9684  1.5669 -0.2587
 1251SOL     OW15388   2.726   1.556   7.484 -0.4954  0.3243 -0.3443
 1251SOL    HW115389   2.778   1.635   7.468  1.5775 -0.8769  0.4019
 1251SOL    HW215390   2.655   1.585   7.427 -1.7688  1.2494  1.7169
 1252SOL     OW15391   1.279   3.991   6.783  0.0208  0.7875  0.5081
 1252SOL    HW115392   1.304   3.988   6.691 -3.2844 -0.3701 -0.3482
 1252SOL    HW215393   1.315   4.077   6.803 -1.8825  1.1338  2.4151
 1253SOL     OW15394   4.391   4.058  16.979  0.1215 -0.2896 -0.1790
 1253SOL    HW115395   4.430   3.987  17.029 -1.1421 -1.4556 -0.8602
 1253SOL    HW215396   4.342   4.017  16.908 -1.6690 -0.7614  1.3413
 1254SOL     OW15397   0.841   1.269   1.746 -0.0715  0.4272  0.1308
 1254SOL    HW115398   0.861   1.187   1.702  0.0665  0.6301 -0.1809
 1254SOL    HW215399   0.900   1.318   1.689 -0.6565 -0.2216 -1.0139
 1255SOL     OW15400   2.830   2.254  14.638 -0.1797 -0.5074  0.7580
 1255SOL    HW115401   2.823   2.344  14.606 -0.5746 -1.3674 -1.6338
 1255SOL    HW215402   2.887   2.211  14.574  0.5102 -1.5628  2.0689
 1256SOL     OW15403   2.334   4.402   4.191 -0.4020 -0.6930  0.3994
 1256SOL    HW115404   2.321   4.308   4.179 -1.4429 -0.5021  0.0566
 1256SOL    HW215405   2.293   4.397   4.277  0.1436 -1.7328  0.6067
 1257SOL     OW15406   3.860   2.143   4.844  0.2124  0.4658 -0.1630
 1257SOL    HW115407   3.953   2.167   4.842  0.0489  1.0554 -0.8727
 1257SOL    HW215408   3.821   2.229   4.832  0.4239  0.5292 -0.4036
 1258SOL     OW15409   1.608   2.499  12.651 -0.2520 -0.0099 -0.4562
 1258SOL    HW115410   1.674   2.442  12.692 -1.3394  0.9431  2.6653
 1258SOL    HW215411   1.535   2.439  12.637 -0.2661 -0.6588  2.3486
 1259SOL     OW15412   1.732   1.555  10.551 -0.0899  0.1264 -0.7828
 1259SOL    HW115413   1.784   1.508  10.485 -0.2854 -0.3781 -0.5773
 1259SOL    HW215414   1.651   1.505  10.551  1.0315 -1.7041 -4.8934
 1260SOL     OW15415   1.126   1.482   7.457  0.1792 -0.4266  0.8069
 1260SOL    HW115416   1.042   1.464   7.499  0.2256 -1.5476  0.4251
 1260SOL    HW215417   1.185   1.441   7.520 -1.9551 -1.3152  2.2316
 1261SOL     OW15418   4.001   4.681   9.168  0.1189  0.4008 -0.0927
 1261SOL    HW115419   3.984   4.664   9.076 -0.2437 -0.6524  0.1682
 1261SOL    HW215420   3.979   4.593   9.198  1.6327 -0.5889 -1.9167
 1262SOL     OW15421   4.454   3.301   5.121 -0.1969  1.1099  0.2392
 1262SOL    HW115422   4.458   3.312   5.026  3.2546 -0.2751  0.2239
 1262SOL    HW215423   4.375   3.351   5.144 -0.4851  0.3334  0.9431
 1263SOL     OW15424   0.850   0.574  15.832 -1.2379 -0.3202  0.1337
 1263SOL    HW115425   0.939   0.549  15.857 -0.7481  0.4545 -0.8324
 1263SOL    HW215426   0.864   0.669  15.831  0.3573 -0.5510  2.0115
 1264SOL     OW15427   4.223   2.164   1.798 -0.2588 -0.5443 -0.4021
 1264SOL    HW115428   4.273   2.168   1.879 -0.7024  0.5358 -0.1827
 1264SOL    HW215429   4.295   2.161   1.735 -1.1675  0.2667 -1.4828
 1265SOL     OW15430   2.449   3.891   1.617  0.3784 -0.0636 -0.1816
 1265SOL    HW115431   2.543   3.904   1.609  0.2877 -0.2033 -1.5286
 1265SOL    HW215432   2.448   3.801   1.648 -0.1565  0.1044  0.3032
 1266SOL     OW15433   4.483   1.269   7.164  0.3464 -0.1253  0.8076
 1266SOL    HW115434   4.471   1.218   7.084  1.1967 -1.3157  1.4356
 1266SOL    HW215435   4.556   1.216   7.197 -1.5713 -2.2255  1.6831
 1267SOL     OW15436   1.512   3.446   6.199  0.7843  0.1684 -0.2288
 1267SOL    HW115437   1.416   3.448   6.206  0.7863  3.5578 -0.8765
 1267SOL    HW215438   1.527   3.360   6.161 -0.3397 -0.4262  0.6778
 1268SOL     OW15439   4.546   4.076   9.959 -0.0973 -0.2450  0.2568
 1268SOL    HW115440   4.620   4.093  10.018 -0.8824  4.0373  0.0508
 1268SOL    HW215441   4.487   4.141   9.999  0.2662 -1.0027  2.0063
 1269SOL     OW15442   0.671   2.697   0.152 -0.2550  0.2684  0.2662
 1269SOL    HW115443   0.707   2.748   0.079  0.3636 -0.7495 -0.1365
 1269SOL    HW215444   0.663   2.616   0.103 -0.4295 -0.4136  1.4136
 1270SOL     OW15445   4.610   3.939  12.752 -0.2056  0.3429 -0.1184
 1270SOL    HW115446   4.701   3.969  12.741 -0.2562  0.3283 -0.6001
 1270SOL    HW215447   4.621   3.893  12.835  4.4238  0.6731 -0.5484
 1271SOL     OW15448   2.168   2.429   7.504 -0.6357 -0.1007  0.7243
 1271SOL    HW115449   2.159   2.521   7.530  1.0535  0.7097 -1.5260
 1271SOL    HW215450   2.082   2.396   7.531 -0.5887 -0.3563  0.5612
 1272SOL     OW15451   4.637   4.182   4.025 -0.0657 -0.5823  0.2713
 1272SOL    HW115452   4.596   4.250   4.078  3.0776  0.1550  1.7629
 1272SOL    HW215453   4.565   4.130   3.991  0.8951  0.0401 -2.7563
 1273SOL     OW15454   4.424   1.639   9.542  0.0644  0.5025  0.2976
 1273SOL    HW115455   4.494   1.680   9.594 -0.2079  1.1973  0.1172
 1273SOL    HW215456   4.351   1.640   9.603 -2.0937 -2.1922 -2.2604
 1274SOL     OW15457   3.048   2.982  16.160 -0.0345 -0.0566 -0.0126
 1274SOL    HW115458   3.086   2.912  16.107 -0.0818 -0.9073  1.0773
 1274SOL    HW215459   3.044   3.061  16.106  1.8147 -0.0521 -0.1647
 1275SOL     OW15460   3.491   2.924   1.498  0.0636 -0.2718  0.1646
 1275SOL    HW115461   3.425   2.946   1.564  1.3210  1.3785  0.8718
 1275SOL    HW215462   3.531   3.005   1.466  0.4103 -1.1773 -1.6822
 1276SOL     OW15463   2.441   1.350  16.768  0.4693  0.5709  0.1162
 1276SOL    HW115464   2.411   1.322  16.854 -1.0396 -2.2801 -1.3393
 1276SOL    HW215465   2.445   1.445  16.779 -0.5786  0.5721  0.3886
 1277SOL     OW15466   0.562   4.572   4.607  0.2650  0.6745 -0.4269
 1277SOL    HW115467   0.478   4.616   4.596 -0.6763 -0.3891  2.5153
 1277SOL    HW215468   0.593   4.564   4.516 -2.0959  2.1188 -1.3530
 1278SOL     OW15469   4.496   0.543   7.141  0.1404  0.0778 -0.2453
 1278SOL    HW115470   4.538   0.559   7.225 -0.7564 -2.6252  0.7240
 1278SOL    HW215471   4.538   0.457   7.129 -2.2727 -0.7602 -2.8285
 1279SOL     OW15472   3.560   0.583   3.092  0.1692 -0.0117  0.0755
 1279SOL    HW115473   3.636   0.531   3.118 -0.3308 -0.2951  0.9413
 1279SOL    HW215474   3.577   0.578   2.997 -0.8970  0.7244 -0.1534
 1280SOL     OW15475   4.169   2.967   6.254 -0.0527 -1.4885 -0.3803
 1280SOL    HW115476   4.117   2.942   6.331  0.8167 -0.0571  0.6754
 1280SOL    HW215477   4.152   2.894   6.194  1.1034 -2.6752  0.7460
 1281SOL     OW15478   1.553   3.069   4.208  0.0211  0.0721  0.3734
 1281SOL    HW115479   1.532   3.000   4.271  1.3250 -0.6907 -0.0244
 1281SOL    HW215480   1.641   3.053   4.174 -0.2273  0.0964 -0.2736
 1282SOL     OW15481   3.233   1.995   0.712 -0.5034  0.3207  0.3414
 1282SOL    HW115482   3.220   2.089   0.700  0.1843  0.3362 -0.2903
 1282SOL    HW215483   3.183   1.968   0.636  1.8824 -0.0909 -1.0887
 1283SOL     OW15484   3.889   3.417   9.506 -0.1218  0.5905  0.9026
 1283SOL    HW115485   3.799   3.447   9.490  0.2183  1.4733  0.6938
 1283SOL    HW215486   3.855   3.328   9.520 -0.0246  0.3994 -0.0614
 1284SOL     OW15487   2.238   2.758  11.629  0.2992  0.0662  0.4045
 1284SOL    HW115488   2.305   2.815  11.666  1.1651 -0.1069 -0.8979
 1284SOL    HW215489   2.216   2.712  11.710 -1.3235 -2.0048 -1.2145
 1285SOL     OW15490   2.351   4.018   8.931 -0.1900 -0.3184 -0.3954
 1285SOL    HW115491   2.261   4.038   8.956 -1.0487 -1.0778 -2.9473
 1285SOL    HW215492   2.370   4.096   8.879  0.2333  1.3171  2.1893
 1286SOL     OW15493   1.828   1.226   5.993 -0.3228 -0.4762 -0.2484
 1286SOL    HW115494   1.847   1.142   5.952 -3.4239 -1.0708 -0.5286
 1286SOL    HW215495   1.852   1.290   5.927 -2.3569 -0.5975 -1.1074
 1287SOL     OW15496   2.256   3.554   2.386  0.4879 -0.2288  0.1995
 1287SOL    HW115497   2.284   3.590   2.302  0.0634 -0.3444  0.0055
 1287SOL    HW215498   2.306   3.611   2.445 -0.7900  3.3808 -2.1489
 1288SOL     OW15499   4.271   2.415  13.865 -0.1284 -0.6377  0.6471
 1288SOL    HW115500   4.234   2.376  13.786 -0.7157  3.5155 -1.1152
 1288SOL    HW215501   4.356   2.374  13.883  0.6612  0.8836  0.3962
 1289SOL     OW15502   2.758   2.914   8.273 -0.2513 -0.2077 -0.1775
 1289SOL    HW115503   2.699   2.909   8.198 -0.7685  0.8673  0.1632
 1289SOL    HW215504   2.704   2.908   8.352  2.0141  1.2655  1.4971
 1290SOL     OW15505   0.433   0.609   8.085 -0.3140  0.2006  0.1524
 1290SOL    HW115506   0.387   0.577   8.163  0.1603 -2.3218 -0.6152
 1290SOL    HW215507   0.525   0.610   8.110 -0.6157 -1.3837  1.2710
 1291SOL     OW15508   2.726   1.600  11.290  0.1149 -0.0007 -0.1110
 1291SOL    HW115509   2.635   1.609  11.316  0.5076 -0.8970  1.5821
 1291SOL    HW215510   2.768   1.668  11.341  0.3743 -0.5418  0.4025
 1292SOL     OW15511   3.252   1.219   3.393  0.4279 -0.0742  0.0730
 1292SOL    HW115512   3.237   1.233   3.487 -0.0962 -0.9347  0.1142
 1292SOL    HW215513   3.173   1.166   3.376  0.7501 -0.8979  1.1189
 1293SOL     OW15514   4.633   2.437   7.149  0.0955 -0.2395 -0.0634
 1293SOL    HW115515   4.607   2.492   7.075  0.0904 -2.1742 -1.4934
 1293SOL    HW215516   4.722   2.471   7.162 -0.4009  1.2587 -0.5695
 1294SOL     OW15517   4.147   4.516   6.544 -1.0996 -0.0356 -0.4693
 1294SOL    HW115518   4.088   4.462   6.597 -1.1970 -2.0787 -2.6275
 1294SOL    HW215519   4.216   4.452   6.526  2.4556  3.0052  2.3245
 1295SOL     OW15520   0.460   2.036  10.868  0.5665  0.5150 -0.8563
 1295SOL    HW115521   0.505   2.067  10.946  0.3625  1.6976 -1.2160
 1295SOL    HW215522   0.540   2.019  10.819  0.2870  0.8634 -1.4300
 1296SOL     OW15523   0.938   1.031   9.742  0.3314  0.3052  0.6701
 1296SOL    HW115524   0.953   1.097   9.810  3.1532  1.4737 -1.0865
 1296SOL    HW215525   0.951   1.090   9.667 -0.4531  1.0639  1.1271
 1297SOL     OW15526   3.924   4.533   0.994  0.0450  0.5125  0.4403
 1297SOL    HW115527   3.973   4.455   0.969  1.0322  1.3349 -0.2255
 1297SOL    HW215528   3.868   4.546   0.918 -2.2003  2.0496  2.3646
 1298SOL     OW15529   4.392   3.656   0.377 -0.3508 -0.0528 -0.1274
 1298SOL    HW115530   4.457   3.716   0.339  0.2097  1.1856  2.8226
 1298SOL    HW215531   4.437   3.624   0.456  2.6732  1.5137 -1.1955
 1299SOL     OW15532   1.414   3.499   3.803  0.3751 -0.4747  0.4832
 1299SOL    HW115533   1.353   3.430   3.779 -0.7310  0.7065 -0.0678
 1299SOL    HW215534   1.465   3.492   3.722 -0.0955  1.3409  0.0382
 1300SOL     OW15535   3.098   0.205   3.170 -0.3926  0.3157 -0.1307
 1300SOL    HW115536   3.108   0.203   3.265  0.9621  2.1104 -0.2371
 1300SOL    HW215537   3.192   0.204   3.150 -0.1849 -1.3268  0.9584
 1301SOL     OW15538   4.020   4.445   3.638  0.1125 -0.2184  0.2304
 1301SOL    HW115539   4.047   4.405   3.555  2.0970  1.5090  0.0284
 1301SOL    HW215540   3.989   4.533   3.617  0.9005 -0.2706 -1.2044
 1302SOL     OW15541   0.273   1.882   9.128  0.0250  0.6256 -0.0388
 1302SOL    HW115542   0.251   1.937   9.202 -1.3550 -0.8972  0.6931
 1302SOL    HW215543   0.288   1.803   9.179 -0.4288 -1.6875 -3.4536
 1303SOL     OW15544   4.232   1.336   7.508  0.0989  0.4317  1.1602
 1303SOL    HW115545   4.147   1.378   7.514 -0.0951 -0.0040  1.4742
 1303SOL    HW215546   4.230   1.260   7.567 -1.4606 -0.2281  0.2465
 1304SOL     OW15547   3.170   3.496   1.773 -0.0149 -0.0272 -0.2616
 1304SOL    HW115548   3.123   3.486   1.856 -0.2161  1.0236 -0.2490
 1304SOL    HW215549   3.129   3.422   1.729  3.3302 -2.0664  0.0718
 1305SOL     OW15550   4.259   1.704   2.738  0.1388  0.0332  0.5118
 1305SOL    HW115551   4.276   1.798   2.745 -0.7018  0.3233 -1.3591
 1305SOL    HW215552   4.262   1.695   2.643 -2.4111  0.2035  0.4125
 1306SOL     OW15553   2.004   4.190  11.537  0.9936  0.3351  0.0350
 1306SOL    HW115554   2.062   4.260  11.507  0.1284  1.5491  1.1694
 1306SOL    HW215555   2.061   4.118  11.513 -1.2104 -1.5411  0.4384
 1307SOL     OW15556   3.626   2.365   1.369 -0.6394 -0.2606  0.3151
 1307SOL    HW115557   3.545   2.318   1.350 -0.4216  0.8922 -3.5814
 1307SOL    HW215558   3.617   2.418   1.448  2.1774  1.0988 -0.2873
 1308SOL     OW15559   1.281   0.860   6.946  0.0440  0.2805  0.1188
 1308SOL    HW115560   1.366   0.891   6.916  1.5774 -4.5623 -0.4939
 1308SOL    HW215561   1.296   0.765   6.942 -0.3549  0.3123 -1.9318
 1309SOL     OW15562   3.806   4.372   3.815 -0.4522 -0.6254  0.2758
 1309SOL    HW115563   3.883   4.406   3.770  0.8348 -1.2906  1.9955
 1309SOL    HW215564   3.850   4.344   3.895  1.5733  2.3512  0.1715
 1310SOL     OW15565   1.203   3.376   5.926  0.4610  0.5294  0.5517
 1310SOL    HW115566   1.166   3.464   5.928 -2.0967 -0.5413  0.1466
 1310SOL    HW215567   1.139   3.333   5.869  1.0069 -0.4897  0.6961
 1311SOL     OW15568   1.517   0.808  14.318  0.0191  0.5781 -0.7664
 1311SOL    HW115569   1.504   0.901  14.334 -2.6847  0.1566 -0.4873
 1311SOL    HW215570   1.599   0.794  14.366 -0.1029  0.4521 -0.5952
 1312SOL     OW15571   3.385   3.463   6.605  0.0728  0.6316  0.4697
 1312SOL    HW115572   3.394   3.521   6.529  0.7001 -1.1879 -0.8585
 1312SOL    HW215573   3.339   3.523   6.663 -0.1495  0.9687 -0.0604
 1313SOL     OW15574   0.061   0.681   8.195  0.3964 -0.4800 -0.0483
 1313SOL    HW115575   4.706   0.676   8.194  0.3709  0.3078 -0.6218
 1313SOL    HW215576   0.079   0.640   8.111  0.1581 -0.9501  0.1262
 1314SOL     OW15577   3.203   3.366   1.432 -0.9856  0.4098 -0.1537
 1314SOL    HW115578   3.168   3.277   1.426  2.8191 -1.0974 -0.4440
 1314SOL    HW215579   3.269   3.365   1.503 -1.4149 -2.8683  0.2322
 1315SOL     OW15580   1.910   3.484   6.160  0.4040 -0.1442 -0.5962
 1315SOL    HW115581   1.882   3.394   6.169 -0.8056  0.3397  0.4080
 1315SOL    HW215582   1.883   3.512   6.248 -1.0752 -1.4203 -0.6596
 1316SOL     OW15583   1.164   2.466  17.420  0.0490  0.2709 -0.1926
 1316SOL    HW115584   1.221   2.539  17.396  1.0080  0.1297  1.6205
 1316SOL    HW215585   1.118   2.450  17.338 -0.0989  1.6652 -0.3752
 1317SOL     OW15586   3.324   3.438   9.857 -0.1121 -0.4943 -0.5390
 1317SOL    HW115587   3.287   3.503   9.797  0.7204  1.2045  0.7939
 1317SOL    HW215588   3.244   3.387   9.868  0.2513 -0.5416  1.8530
 1318SOL     OW15589   2.784   3.786  11.223  0.2851 -0.2045 -0.2980
 1318SOL    HW115590   2.699   3.799  11.265  0.5325  0.9961 -0.1874
 1318SOL    HW215591   2.837   3.858  11.256  1.8726 -2.0831  1.2640
 1319SOL     OW15592   2.152   0.220   8.822  0.0700 -0.4075 -0.1258
 1319SOL    HW115593   2.077   0.277   8.809  0.0957 -0.2629  0.3754
 1319SOL    HW215594   2.211   0.282   8.866  0.7006 -1.4392  0.4909
 1320SOL     OW15595   4.430   0.107   5.798 -0.7360 -0.1509  0.4636
 1320SOL    HW115596   4.497   0.065   5.745 -1.7171 -2.1231  0.7921
 1320SOL    HW215597   4.485   0.171   5.843 -1.4497  1.8291 -1.4692
 1321SOL     OW15598   1.926   3.221   6.180 -0.4905  0.3240 -0.0802
 1321SOL    HW115599   1.911   3.148   6.239 -0.7346 -1.2736 -2.1247
 1321SOL    HW215600   1.969   3.178   6.106  2.7476 -0.1777  2.0777
 1322SOL     OW15601   3.911   4.036   3.165 -0.2331 -0.0668 -0.1340
 1322SOL    HW115602   3.996   4.004   3.193 -0.2278  1.0518  1.1314
 1322SOL    HW215603   3.916   4.033   3.069 -0.0489 -0.9006 -0.0984
 1323SOL     OW15604   2.461   2.053   7.342  0.4707 -0.9238  0.2441
 1323SOL    HW115605   2.432   2.134   7.385 -1.7213 -2.4414  1.5855
 1323SOL    HW215606   2.479   2.082   7.252  0.6369 -1.2637  0.1687
 1324SOL     OW15607   1.302   0.046   5.445  0.1295  0.4058  0.3192
 1324SOL    HW115608   1.397   0.058   5.445  0.1159  0.5104  1.3213
 1324SOL    HW215609   1.263   0.130   5.471 -1.0918 -0.5678  1.5891
 1325SOL     OW15610   1.143   2.346   1.924 -0.0917 -1.0130 -0.2319
 1325SOL    HW115611   1.165   2.284   1.993 -2.2449 -1.6247 -0.0886
 1325SOL    HW215612   1.065   2.387   1.959  0.6053  1.0545 -1.0807
 1326SOL     OW15613   3.750   3.111   8.042 -0.4834 -0.4605  0.2218
 1326SOL    HW115614   3.783   3.089   7.955  0.2513 -1.1274  0.6703
 1326SOL    HW215615   3.682   3.176   8.021  1.6930  1.0706 -2.0643
 1327SOL     OW15616   1.633   2.622   1.829 -0.3666  0.4294  0.1806
 1327SOL    HW115617   1.579   2.559   1.781  0.2673  2.3701 -3.0859
 1327SOL    HW215618   1.635   2.582   1.916 -2.0049  2.3684  1.0976
 1328SOL     OW15619   2.855   1.314  13.661  0.4574  0.0353  0.4422
 1328SOL    HW115620   2.801   1.392  13.650  0.6730 -0.2230 -2.3284
 1328SOL    HW215621   2.806   1.245  13.616  0.3798  0.9746 -0.9096
 1329SOL     OW15622   3.334   1.651   4.859 -0.4752 -0.4903 -0.4304
 1329SOL    HW115623   3.300   1.615   4.777 -1.0082 -1.1961  0.1060
 1329SOL    HW215624   3.378   1.731   4.830  0.5204 -1.0037 -0.3499
 1330SOL     OW15625   2.569   3.157   7.237 -0.0042 -0.2730  0.0121
 1330SOL    HW115626   2.603   3.068   7.241  0.8108  0.0301 -0.2471
 1330SOL    HW215627   2.617   3.185   7.315 -2.1966 -2.4330  2.1421
 1331SOL     OW15628   3.730   1.228   6.972  0.0065  0.1461  0.6780
 1331SOL    HW115629   3.794   1.170   7.014  1.7306 -0.3118 -2.5533
 1331SOL    HW215630   3.697   1.180   6.896  0.3245  0.1771  0.5216
 1332SOL     OW15631   3.095   4.661   2.690 -0.0394 -0.6126 -1.0235
 1332SOL    HW115632   3.107   4.665   2.785 -1.3264  1.1612 -0.9349
 1332SOL    HW215633   3.035   4.732   2.670 -0.1411 -0.6440 -0.8303
 1333SOL     OW15634   4.596   3.402   5.907 -0.1706  0.3705  0.2717
 1333SOL    HW115635   4.544   3.338   5.956  1.0623 -1.3829 -0.7063
 1333SOL    HW215636   4.541   3.434   5.835  0.6614  1.5125  0.1530
 1334SOL     OW15637   0.620   2.645   3.610 -1.0209  0.3789 -0.5089
 1334SOL    HW115638   0.549   2.582   3.599  0.3252 -0.7617 -2.7850
 1334SOL    HW215639   0.699   2.594   3.591  0.8104  3.8450 -2.2671
 1335SOL     OW15640   2.582   3.169   1.926  0.3190  0.4795 -0.2501
 1335SOL    HW115641   2.616   3.258   1.926 -0.9994  0.9824 -3.6174
 1335SOL    HW215642   2.581   3.149   2.020 -0.5528  0.4204 -0.2673
 1336SOL     OW15643   4.199   1.003  16.936 -0.1499 -0.4398 -0.5063
 1336SOL    HW115644   4.152   1.036  17.012  3.5468  1.0784  1.1098
 1336SOL    HW215645   4.138   0.972  16.869 -0.5688  0.1520 -0.3975
 1337SOL     OW15646   4.537   0.169   6.614 -0.2962 -0.4892  0.5495
 1337SOL    HW115647   4.515   0.108   6.684  4.1423 -1.6407  0.9488
 1337SOL    HW215648   4.605   0.119   6.570  1.1552  0.2516  1.9357
 1338SOL     OW15649   4.329   2.039   6.917  0.2414  0.0639 -0.7566
 1338SOL    HW115650   4.268   2.104   6.952 -1.3896 -0.6025 -2.3465
 1338SOL    HW215651   4.267   1.994   6.859  0.8928 -0.1498 -1.2816
 1339SOL     OW15652   2.271   1.417   8.165 -0.2033  0.1491  0.3390
 1339SOL    HW115653   2.187   1.456   8.189 -0.8864 -2.3457  2.0161
 1339SOL    HW215654   2.261   1.322   8.175 -0.1940  0.0173 -0.8540
 1340SOL     OW15655   4.505   1.477   6.675  0.0264 -0.0041  0.0920
 1340SOL    HW115656   4.496   1.437   6.761  0.3140  0.5646  0.3823
 1340SOL    HW215657   4.554   1.555   6.697  0.6769  0.0879 -1.6355
 1341SOL     OW15658   4.627   1.627  16.142 -0.0101  0.2289 -0.4795
 1341SOL    HW115659   4.680   1.707  16.137 -1.0023  0.7921 -2.0651
 1341SOL    HW215660   4.592   1.630  16.231  0.4373  0.5778 -0.3115
 1342SOL     OW15661   0.808   2.925  17.036 -0.0186  0.1889  0.4998
 1342SOL    HW115662   0.867   2.850  17.047  0.9495  1.2449  2.5077
 1342SOL    HW215663   0.861   3.000  17.062  0.0395  0.7554 -1.2551
 1343SOL     OW15664   0.040   1.989   1.790  0.0518  0.1623 -0.1692
 1343SOL    HW115665   4.700   1.959   1.749 -0.5605 -0.7564  1.7249
 1343SOL    HW215666   0.102   1.938   1.738 -2.0702 -0.5893 -1.9733
 1344SOL     OW15667   3.385   2.649  15.329  0.0863  0.3045 -0.6281
 1344SOL    HW115668   3.359   2.565  15.290 -1.4808  0.4430  0.1507
 1344SOL    HW215669   3.312   2.674  15.384  1.1958  0.2228  0.8683
 1345SOL     OW15670   0.856   4.523   4.660  0.5755 -0.0720  0.0209
 1345SOL    HW115671   0.771   4.565   4.650  0.9861 -0.0258 -3.1829
 1345SOL    HW215672   0.918   4.585   4.621  0.9995  0.2992  1.2925
 1346SOL     OW15673   1.679   0.190   8.846 -0.0631 -0.5133 -0.3392
 1346SOL    HW115674   1.737   0.260   8.873  0.1594 -0.9381  0.2754
 1346SOL    HW215675   1.680   0.141   8.928  0.1567 -1.4180 -0.8860
 1347SOL     OW15676   3.849   2.962  15.841  0.0115 -0.1721 -0.4452
 1347SOL    HW115677   3.837   3.051  15.874 -0.0349  0.9726 -3.5866
 1347SOL    HW215678   3.790   2.972  15.766  0.7298 -0.4872 -1.0541
 1348SOL     OW15679   2.638   3.140   6.926 -0.2516 -0.0720  0.2061
 1348SOL    HW115680   2.659   3.048   6.944 -0.1833  0.0038  0.5028
 1348SOL    HW215681   2.646   3.179   7.013  1.1803 -1.4242  0.6889
 1349SOL     OW15682   0.916   2.878   5.997  0.1423 -0.3095 -0.0138
 1349SOL    HW115683   0.997   2.924   6.019 -0.7423  0.9170  0.7051
 1349SOL    HW215684   0.884   2.849   6.083 -1.0854 -1.1733 -0.7783
 1350SOL     OW15685   1.821   2.809  16.920  0.3382  0.1717  0.0565
 1350SOL    HW115686   1.769   2.733  16.890  0.0732  0.4505 -0.1940
 1350SOL    HW215687   1.875   2.817  16.841 -1.7171 -1.9749 -1.5846
 1351SOL     OW15688   0.513   4.070   8.698  0.2428  0.1570 -0.1139
 1351SOL    HW115689   0.576   4.078   8.769  1.0005 -1.0961 -0.6572
 1351SOL    HW215690   0.464   4.151   8.713 -0.6516 -0.6369  1.1834
 1352SOL     OW15691   0.873   4.317   5.493  0.5308 -0.0116  0.2208
 1352SOL    HW115692   0.849   4.392   5.438 -1.9716  0.1651  1.5397
 1352SOL    HW215693   0.967   4.311   5.478  0.6953 -0.4207  1.4374
 1353SOL     OW15694   3.401   4.699   2.669 -0.1859  0.2148 -0.0949
 1353SOL    HW115695   3.403   4.644   2.747 -0.0329  1.5078  0.8178
 1353SOL    HW215696   3.308   4.697   2.646  1.0346  0.3799 -5.0439
 1354SOL     OW15697   2.314   3.894   3.722 -0.5669  0.1457  0.1808
 1354SOL    HW115698   2.251   3.852   3.662 -1.5449  1.6536  0.1672
 1354SOL    HW215699   2.373   3.932   3.657  0.2402 -1.9724 -0.3423
 1355SOL     OW15700   2.032   1.059   3.583 -0.1865 -0.5648  0.4644
 1355SOL    HW115701   1.978   1.029   3.656  1.2373 -1.6610  1.0810
 1355SOL    HW215702   1.986   1.111   3.518  1.6907  1.7318  0.9359
 1356SOL     OW15703   0.772   1.746  10.123 -0.0581  0.0854 -0.0696
 1356SOL    HW115704   0.739   1.707  10.204  2.2126 -1.5106  0.0950
 1356SOL    HW215705   0.787   1.834  10.159 -0.9563 -0.0535  0.6340
 1357SOL     OW15706   0.551   0.291  11.952 -0.0891  0.7977  0.0121
 1357SOL    HW115707   0.514   0.368  11.995 -0.1825  1.6185 -1.5462
 1357SOL    HW215708   0.476   0.233  11.960 -1.0770  2.0034 -0.4503
 1358SOL     OW15709   0.238   3.322   3.756 -0.1098 -0.4115 -0.3626
 1358SOL    HW115710   0.227   3.227   3.759  1.7866 -0.5141  2.9330
 1358SOL    HW215711   0.182   3.354   3.826  0.0537  2.4477 -1.5667
 1359SOL     OW15712   2.620   4.204  13.325 -0.6853  0.1466 -0.3214
 1359SOL    HW115713   2.622   4.223  13.418  1.9871 -0.7448 -0.1907
 1359SOL    HW215714   2.528   4.184  13.311  0.2009 -4.6361  0.7741
 1360SOL     OW15715   4.703   2.505   4.343  0.0902 -0.2345 -0.1333
 1360SOL    HW115716   4.678   2.590   4.306 -0.6596 -0.8685 -1.1105
 1360SOL    HW215717   0.049   2.530   4.374 -0.4782  0.2747  1.0110
 1361SOL     OW15718   1.099   2.279   8.883 -0.0694  0.1479 -0.0401
 1361SOL    HW115719   1.118   2.372   8.872  2.4047 -0.7308 -3.0172
 1361SOL    HW215720   1.003   2.285   8.887 -0.0334  0.1994  0.7890
 1362SOL     OW15721   4.152   1.828   7.436  0.1804 -0.2663 -0.4261
 1362SOL    HW115722   4.117   1.764   7.374 -2.9179  0.0668  0.9641
 1362SOL    HW215723   4.232   1.785   7.465 -2.4512 -1.7881  4.6126
 1363SOL     OW15724   2.368   0.106   3.396 -0.7853  0.1401  0.5458
 1363SOL    HW115725   2.418   0.178   3.435 -1.6974 -0.0284  2.0368
 1363SOL    HW215726   2.438   0.042   3.394  1.4447  2.4550  3.9007
 1364SOL     OW15727   3.285   2.804   8.063  0.3430 -0.4275 -0.3195
 1364SOL    HW115728   3.323   2.803   7.975  1.5448  0.5878  0.1729
 1364SOL    HW215729   3.308   2.715   8.088  3.2326  0.4679  0.2264
 1365SOL     OW15730   1.382   3.237  11.023 -0.1407 -0.1543  0.3927
 1365SOL    HW115731   1.373   3.324  11.062  1.5628  0.9839 -1.7772
 1365SOL    HW215732   1.462   3.251  10.973 -0.3634  1.0994  0.3821
 1366SOL     OW15733   4.221   3.816  16.017 -0.4111 -0.1633  0.0110
 1366SOL    HW115734   4.185   3.896  16.054  1.5742  0.5373  0.4329
 1366SOL    HW215735   4.290   3.849  15.959  0.3679 -1.4002  0.2558
 1367SOL     OW15736   4.064   3.755   2.549 -0.3892 -0.2749  0.4456
 1367SOL    HW115737   4.132   3.688   2.561 -1.2677 -1.9805 -4.2829
 1367SOL    HW215738   3.986   3.706   2.575 -1.3122  0.5097 -0.8183
 1368SOL     OW15739   2.123   0.516  15.245 -0.0634  0.6080 -0.0079
 1368SOL    HW115740   2.082   0.582  15.301  1.4314  1.4183  0.1558
 1368SOL    HW215741   2.149   0.457  15.316  0.6209 -0.5043 -1.1718
 1369SOL     OW15742   2.127   2.006   0.899  0.5543 -0.5473 -0.1625
 1369SOL    HW115743   2.115   2.101   0.898  1.6792 -0.4290 -2.4568
 1369SOL    HW215744   2.206   1.990   0.950 -1.4734 -3.1764  2.1373
 1370SOL     OW15745   2.451   4.077   5.494 -0.2860  0.0382 -0.6223
 1370SOL    HW115746   2.539   4.058   5.524 -0.3143  0.7349 -0.1212
 1370SOL    HW215747   2.443   4.169   5.519  3.1576  0.7965 -2.2996
 1371SOL     OW15748   4.132   2.895   8.508 -0.2149  0.1009  0.4162
 1371SOL    HW115749   4.042   2.861   8.508 -0.5597  0.9873  1.8394
 1371SOL    HW215750   4.141   2.912   8.414 -0.2630  0.2592  0.4396
 1372SOL     OW15751   4.578   4.001  15.584  0.2881 -0.2087  0.7927
 1372SOL    HW115752   4.622   3.957  15.511 -0.3593  0.7321 -0.1537
 1372SOL    HW215753   4.530   4.069  15.537 -0.5867 -0.4262  1.3809
 1373SOL     OW15754   0.170   1.717   3.956 -0.3627  0.0007 -0.3847
 1373SOL    HW115755   0.192   1.760   4.038 -1.7057  0.8356 -0.4609
 1373SOL    HW215756   0.126   1.792   3.915  0.3459  1.5568  1.7006
 1374SOL     OW15757   4.266   0.818   2.992 -0.0634  0.0344  1.0324
 1374SOL    HW115758   4.185   0.768   3.000 -0.4042  0.3760 -0.1889
 1374SOL    HW215759   4.303   0.791   3.075  2.7796 -0.0195 -0.2464
 1375SOL     OW15760   2.474   1.868   3.560 -0.3510 -0.3316  0.6955
 1375SOL    HW115761   2.543   1.921   3.521  1.0663 -2.5242  0.2308
 1375SOL    HW215762   2.412   1.865   3.487  0.3363  0.3486  0.0812
 1376SOL     OW15763   4.682   4.643   9.381 -0.0729 -0.2695  0.5954
 1376SOL    HW115764   0.003   4.575   9.407 -0.2330 -0.6922 -0.1348
 1376SOL    HW215765   4.608   4.592   9.349 -0.3064 -0.4413  1.4037
 1377SOL     OW15766   1.388   4.233  12.834 -0.2995  0.1761 -0.3560
 1377SOL    HW115767   1.362   4.159  12.779  0.5126 -0.0458 -0.4435
 1377SOL    HW215768   1.306   4.282  12.838 -0.1852  0.3729 -0.4352
 1378SOL     OW15769   1.752   3.784   4.769 -0.1869  0.5998 -0.4307
 1378SOL    HW115770   1.835   3.792   4.722  0.4266  0.2774  0.6072
 1378SOL    HW215771   1.706   3.860   4.734 -0.3329  0.6053 -0.2256
 1379SOL     OW15772   3.001   1.539  14.485  0.2913 -0.2445 -0.7938
 1379SOL    HW115773   2.953   1.457  14.494  0.6246 -0.3402  0.1008
 1379SOL    HW215774   2.990   1.547  14.390  1.6388 -2.0518 -1.1093
 1380SOL     OW15775   1.906   4.073   8.328  0.1119  0.0437  0.1604
 1380SOL    HW115776   1.958   4.127   8.387 -1.0998 -1.2448  2.4028
 1380SOL    HW215777   1.845   4.036   8.392  0.0383 -2.3290 -1.3006
 1381SOL     OW15778   1.279   4.191   9.086  0.3196 -0.2008  0.4193
 1381SOL    HW115779   1.246   4.103   9.069 -1.2652  0.3189  0.7348
 1381SOL    HW215780   1.325   4.172   9.168  1.7766  0.9486 -0.1235
 1382SOL     OW15781   4.629   2.335   9.263  0.2771  0.7491  0.4510
 1382SOL    HW115782   4.688   2.397   9.305 -3.9061  3.8024  1.7447
 1382SOL    HW215783   4.589   2.390   9.196 -2.3065 -0.9353  0.5884
 1383SOL     OW15784   4.431   1.677  13.566 -0.5620 -0.5010  0.2452
 1383SOL    HW115785   4.437   1.716  13.654 -0.8927  1.6136 -0.6639
 1383SOL    HW215786   4.350   1.628  13.577 -1.4177  1.0894  1.0613
 1384SOL     OW15787   3.981   4.616   2.040  0.2458  0.7135 -0.1181
 1384SOL    HW115788   3.909   4.554   2.028  1.7229 -1.0827  0.3115
 1384SOL    HW215789   3.943   4.676   2.105 -0.5249 -1.1426  1.1252
 1385SOL     OW15790   0.241   0.986   2.516  0.1872  0.5803  0.2987
 1385SOL    HW115791   0.304   0.934   2.467 -1.6782  0.1981 -1.6740
 1385SOL    HW215792   0.159   0.975   2.469 -0.9443  2.0056  1.9347
 1386SOL     OW15793   2.696   1.189   6.163  0.3238  0.2518 -0.2049
 1386SOL    HW115794   2.753   1.265   6.156 -1.0899  1.2014 -1.2150
 1386SOL    HW215795   2.639   1.201   6.239  2.5275 -1.1603  1.7159
 1387SOL     OW15796   1.457   4.673   2.392 -0.2420  0.5875  0.2960
 1387SOL    HW115797   1.496   4.733   2.456 -0.0202  0.6495  0.1035
 1387SOL    HW215798   1.364   4.675   2.413 -0.4176 -1.1732 -0.3315
 1388SOL     OW15799   1.022   3.077  17.147  0.6994 -0.4502 -0.0598
 1388SOL    HW115800   1.108   3.042  17.123  0.8836 -0.8926  1.2409
 1388SOL    HW215801   1.036   3.158  17.098 -0.4516  0.3013  0.8467
 1389SOL     OW15802   0.548   3.739   8.438  0.3524  0.2403  0.5002
 1389SOL    HW115803   0.547   3.828   8.401 -0.9963  0.4791  1.1483
 1389SOL    HW215804   0.531   3.750   8.531  1.2852  1.1981  0.5643
 1390SOL     OW15805   3.757   4.651  10.532 -0.1643  0.0177 -0.6115
 1390SOL    HW115806   3.850   4.670  10.518  0.5777 -1.4469  2.2206
 1390SOL    HW215807   3.767   4.556  10.525 -0.4110 -0.0743  0.3043
 1391SOL     OW15808   0.220   0.094  12.223 -0.2964 -0.2276 -0.2636
 1391SOL    HW115809   0.167   0.014  12.218 -0.5735 -0.0977  0.6193
 1391SOL    HW215810   0.162   0.153  12.174 -0.1278  0.9171  0.9295
 1392SOL     OW15811   0.055   1.793   8.512 -0.3044 -0.8227 -0.3195
 1392SOL    HW115812   0.067   1.754   8.426 -0.9486 -0.6892 -0.4682
 1392SOL    HW215813   0.123   1.860   8.522 -2.1926  1.2207 -1.2444
 1393SOL     OW15814   1.021   0.662  16.764 -0.3513 -0.4376  0.1726
 1393SOL    HW115815   1.013   0.746  16.810  2.3594  0.0393 -0.2061
 1393SOL    HW215816   1.081   0.609  16.817 -1.1508 -2.5447 -1.0096
 1394SOL     OW15817   4.066   3.122  11.942 -0.2711 -0.4246  0.2967
 1394SOL    HW115818   4.020   3.138  12.024 -0.3238 -3.3100  0.8292
 1394SOL    HW215819   4.098   3.210  11.922  3.0836 -1.4513  1.0983
 1395SOL     OW15820   2.747   4.686   0.775  0.3020  0.0224  0.6954
 1395SOL    HW115821   2.720   0.001   0.848 -0.9606 -2.6386  2.2613
 1395SOL    HW215822   2.666   4.686   0.724  0.2364  0.5466  0.8013
 1396SOL     OW15823   1.420   1.550  14.295  0.1668 -0.4333 -0.8612
 1396SOL    HW115824   1.461   1.533  14.210 -0.0375 -1.6324 -0.7307
 1396SOL    HW215825   1.458   1.492  14.360  1.3359  0.6079 -0.6349
 1397SOL     OW15826   0.217   2.364  11.068 -0.0831 -0.6659  0.2801
 1397SOL    HW115827   0.236   2.271  11.078  5.1203  0.3515 -0.2035
 1397SOL    HW215828   0.297   2.393  11.024  1.8413 -1.6948  3.1125
 1398SOL     OW15829   2.900   1.926   8.197 -0.0069 -0.4264  0.0608
 1398SOL    HW115830   2.868   1.862   8.133 -0.2391 -1.2128  0.9671
 1398SOL    HW215831   2.946   1.991   8.142  2.2071 -0.7893  1.4870
 1399SOL     OW15832   0.445   4.480   4.270 -0.3072 -0.0664  0.6678
 1399SOL    HW115833   0.366   4.526   4.298  0.2957 -0.3054  2.7954
 1399SOL    HW215834   0.431   4.449   4.181  2.3304  0.5380  0.0284
 1400SOL     OW15835   4.346   1.497   0.361  0.0606  0.4878 -0.3121
 1400SOL    HW115836   4.295   1.577   0.352 -0.9634 -0.2854 -1.3453
 1400SOL    HW215837   4.372   1.504   0.453  0.6602 -0.9982 -0.3633
 1401SOL     OW15838   2.017   3.449   8.826 -0.0564 -0.0148  0.0400
 1401SOL    HW115839   1.925   3.450   8.799  0.7040  0.1046 -2.5083
 1401SOL    HW215840   2.013   3.418   8.917  1.1859 -1.4867 -0.4120
 1402SOL     OW15841   4.159   1.952   6.724 -0.2387  0.4710 -0.4544
 1402SOL    HW115842   4.068   1.948   6.694 -1.1118  0.7749  2.1462
 1402SOL    HW215843   4.196   1.880   6.673  1.0505  1.8872 -1.5153
 1403SOL     OW15844   0.111   2.756  15.331 -0.6771 -0.5341 -0.2241
 1403SOL    HW115845   0.151   2.826  15.281  3.8112 -0.7777  3.0508
 1403SOL    HW215846   0.188   2.703  15.350  1.1797  0.7684 -4.0767
 1404SOL     OW15847   3.775   0.465  13.027 -0.3683  0.1676 -0.2084
 1404SOL    HW115848   3.838   0.538  13.025 -0.0772 -0.1712 -2.6725
 1404SOL    HW215849   3.735   0.485  13.112 -0.3654  1.3136 -0.4713
 1405SOL     OW15850   1.078   1.883   6.514 -0.4803  0.1086 -0.2166
 1405SOL    HW115851   1.108   1.849   6.430  0.3465 -1.5337  0.7486
 1405SOL    HW215852   0.985   1.861   6.515 -0.2554 -0.9152 -2.6599
 1406SOL     OW15853   3.398   1.402   7.698  0.0636 -0.0206  0.2086
 1406SOL    HW115854   3.378   1.495   7.704  1.0151  0.1967 -0.0014
 1406SOL    HW215855   3.459   1.406   7.625  1.4543 -0.3153  1.3460
 1407SOL     OW15856   4.174   2.345   5.121  0.7202 -0.3942 -0.7019
 1407SOL    HW115857   4.211   2.275   5.174 -0.7274 -0.9478 -0.4306
 1407SOL    HW215858   4.175   2.411   5.191 -3.3521  1.6060 -2.5080
 1408SOL     OW15859   2.428   0.206   8.697 -0.3374  0.4002  0.5591
 1408SOL    HW115860   2.352   0.256   8.666 -0.3216  0.3754  0.4818
 1408SOL    HW215861   2.403   0.188   8.788 -0.8063 -2.2068 -0.0997
 1409SOL     OW15862   0.866   0.787   9.720  0.3985 -0.2919  0.4751
 1409SOL    HW115863   0.871   0.776   9.626  3.0851 -1.4959  0.7775
 1409SOL    HW215864   0.895   0.877   9.731 -0.6439  0.0707  0.2720
 1410SOL     OW15865   4.701   1.225   3.578 -0.1744 -0.2149  0.2665
 1410SOL    HW115866   4.720   1.264   3.663  1.0770  0.8323 -0.4963
 1410SOL    HW215867   0.024   1.154   3.581 -3.1168 -2.8086  1.4621
 1411SOL     OW15868   1.378   2.766  15.625 -0.2653  0.0706  0.1152
 1411SOL    HW115869   1.341   2.852  15.646 -2.1315 -0.6566 -0.2573
 1411SOL    HW215870   1.311   2.725  15.571 -0.9409 -0.1769  1.1520
 1412SOL     OW15871   3.902   2.636  15.749  0.3877  0.3236 -0.0369
 1412SOL    HW115872   3.985   2.627  15.702  0.2118  0.8575 -0.4448
 1412SOL    HW215873   3.856   2.715  15.722  0.3691 -0.2688 -1.7270
 1413SOL     OW15874   0.186   0.149  14.891  0.4771 -0.3653  0.3514
 1413SOL    HW115875   0.262   0.122  14.943  0.1448 -0.8917  0.5624
 1413SOL    HW215876   0.143   0.210  14.951  2.4191 -0.5797  1.9894
 1414SOL     OW15877   3.366   3.325   0.634 -0.0900 -0.2079 -0.1986
 1414SOL    HW115878   3.373   3.406   0.685 -0.3904 -0.1144 -0.3023
 1414SOL    HW215879   3.450   3.292   0.665  0.3678  0.0875 -1.1548
 1415SOL     OW15880   4.594   4.706   5.628  0.7757  0.2355 -0.1704
 1415SOL    HW115881   4.569   4.711   5.536 -1.3647 -1.2923  0.3477
 1415SOL    HW215882   4.686   4.679   5.622  1.2002  0.8410  3.4593
 1416SOL     OW15883   3.471   1.870   7.825  0.2201  0.9078  0.1030
 1416SOL    HW115884   3.546   1.918   7.862 -0.0602  2.2475 -1.0786
 1416SOL    HW215885   3.426   1.943   7.784  0.8946  0.5579 -1.2564
 1417SOL     OW15886   0.125   3.562   3.561 -0.2354  0.0313  0.1214
 1417SOL    HW115887   0.170   3.481   3.538  3.5759  1.7255  1.4636
 1417SOL    HW215888   0.168   3.584   3.644 -0.3829 -2.9486  0.9889
 1418SOL     OW15889   4.025   0.582  11.056  0.1993 -0.1009  0.3106
 1418SOL    HW115890   4.081   0.539  10.991 -2.4833 -3.2847  0.0693
 1418SOL    HW215891   4.094   0.615  11.113 -0.7249 -1.7256  2.3454
 1419SOL     OW15892   1.192   2.632   8.242 -0.2455 -0.2427  0.2989
 1419SOL    HW115893   1.246   2.614   8.165 -2.0949  1.5236 -1.4342
 1419SOL    HW215894   1.112   2.583   8.223  0.4641 -1.3665  0.2637
 1420SOL     OW15895   0.435   1.482   8.375 -0.3321  0.1486  0.5300
 1420SOL    HW115896   0.490   1.539   8.321  0.6379 -2.7628 -1.5698
 1420SOL    HW215897   0.457   1.501   8.466 -0.6553  0.0539  0.6253
 1421SOL     OW15898   3.317   0.560   4.600 -0.1161  0.1003 -0.3135
 1421SOL    HW115899   3.242   0.613   4.626  2.0704  2.0851  1.9693
 1421SOL    HW215900   3.388   0.616   4.633  0.2007 -1.8358  2.2884
 1422SOL     OW15901   2.746   2.066   4.316 -0.9603  0.1635  0.2604
 1422SOL    HW115902   2.688   2.121   4.263 -0.4919 -0.5959 -1.0351
 1422SOL    HW215903   2.749   2.109   4.402 -3.3942 -2.1280  1.4795
 1423SOL     OW15904   2.343   4.082   5.865  0.0357  0.1873  0.0393
 1423SOL    HW115905   2.393   4.001   5.874  0.2469 -0.1201 -3.8389
 1423SOL    HW215906   2.409   4.150   5.881  2.7046 -2.3629 -0.2064
 1424SOL     OW15907   3.528   1.785   4.208  0.0483  0.2955  0.7948
 1424SOL    HW115908   3.486   1.782   4.122  1.0578 -0.2079  0.3244
 1424SOL    HW215909   3.496   1.708   4.255 -1.0798  0.6761  0.6663
 1425SOL     OW15910   3.613   3.400   9.486 -0.0877 -0.2308 -0.0420
 1425SOL    HW115911   3.531   3.366   9.523 -0.0704 -0.7358 -0.4636
 1425SOL    HW215912   3.608   3.352   9.404  2.1319 -2.4532  1.1071
 1426SOL     OW15913   0.440   2.214   9.594 -0.3613  0.0087  0.4861
 1426SOL    HW115914   0.451   2.303   9.562  1.7818  0.0197  1.2223
 1426SOL    HW215915   0.465   2.228   9.685 -0.9425  1.3024  0.4427
 1427SOL     OW15916   1.744   1.315   5.189  0.3801 -0.0215  0.0362
 1427SOL    HW115917   1.716   1.226   5.210 -3.1040  0.6182 -1.8901
 1427SOL    HW215918   1.748   1.308   5.093  1.8127  0.2091  0.0662
 1428SOL     OW15919   0.313   3.945  16.295 -0.1096 -0.3069  0.4274
 1428SOL    HW115920   0.324   3.882  16.224  0.0840  1.0772 -0.7731
 1428SOL    HW215921   0.234   3.900  16.325  0.9548 -1.4323  1.5590
 1429SOL     OW15922   3.713   1.385   6.330  0.5917  0.1406 -0.4371
 1429SOL    HW115923   3.781   1.319   6.316 -0.8494 -1.1087 -1.4527
 1429SOL    HW215924   3.634   1.334   6.345  1.2254 -0.1601  1.9833
 1430SOL     OW15925   4.366   3.117   4.908  0.3153 -0.3189 -0.6833
 1430SOL    HW115926   4.451   3.107   4.864  0.8648  0.3748  0.2080
 1430SOL    HW215927   4.362   3.053   4.979  2.0309  2.1140  1.6482
 1431SOL     OW15928   3.746   1.743  12.841 -0.3736  0.2233  0.6829
 1431SOL    HW115929   3.683   1.673  12.860  0.2900 -0.4295  0.4539
 1431SOL    HW215930   3.710   1.812  12.896 -0.6181  0.9838 -0.4319
 1432SOL     OW15931   4.547   1.217   1.962 -0.4145 -0.3101 -0.2150
 1432SOL    HW115932   4.453   1.231   1.949 -0.9146  0.2473  3.8863
 1432SOL    HW215933   4.539   1.210   2.058 -1.1120 -0.1064 -0.2532
 1433SOL     OW15934   0.074   2.649  12.404 -0.5160  0.3442 -0.5802
 1433SOL    HW115935   0.013   2.597  12.351  0.6948 -0.3818 -1.2489
 1433SOL    HW215936   0.059   2.608  12.489  2.6299 -2.4541 -1.4111
 1434SOL     OW15937   1.717   4.164   5.537  0.2549  0.6879  0.4047
 1434SOL    HW115938   1.710   4.204   5.624 -0.7270  1.8297 -0.1831
 1434SOL    HW215939   1.671   4.081   5.551  1.5772 -0.1633 -0.3785
 1435SOL     OW15940   4.007   1.590   4.835 -0.2975  0.0172 -0.4564
 1435SOL    HW115941   3.924   1.605   4.881 -0.7063 -2.0486 -0.5227
 1435SOL    HW215942   3.980   1.544   4.755 -1.3850 -0.6784  0.3102
 1436SOL     OW15943   2.723   0.277   3.321  0.4694  0.2526 -0.2540
 1436SOL    HW115944   2.693   0.366   3.302 -1.0939 -0.0978  0.6085
 1436SOL    HW215945   2.658   0.248   3.385  1.2922 -2.8010 -0.7909
 1437SOL     OW15946   1.843   3.121   2.662 -0.2376 -0.5271 -0.3640
 1437SOL    HW115947   1.917   3.181   2.653 -0.8199  0.4724  1.5834
 1437SOL    HW215948   1.862   3.069   2.583  5.5489  0.2454  0.5290
 1438SOL     OW15949   4.302   2.677   1.108  0.3813 -0.4360 -0.0490
 1438SOL    HW115950   4.241   2.618   1.063 -0.3098  0.9233 -0.8640
 1438SOL    HW215951   4.377   2.623   1.133 -0.8699 -2.0586  0.2562
 1439SOL     OW15952   4.023   2.649   2.981  0.3759  0.1706  0.2134
 1439SOL    HW115953   4.019   2.598   3.061  2.0940 -0.3242 -0.0097
 1439SOL    HW215954   4.029   2.582   2.913  1.7263 -0.7469  1.2271
 1440SOL     OW15955   0.412   1.938   8.557  0.4849 -0.0425  0.1614
 1440SOL    HW115956   0.422   1.902   8.469  0.3905  1.0828 -0.3143
 1440SOL    HW215957   0.490   1.910   8.604  0.2662  0.2469  0.6937
 1441SOL     OW15958   0.634   0.228   6.641  0.0205  0.1854 -0.4194
 1441SOL    HW115959   0.576   0.163   6.599  2.0932 -0.2169 -2.6441
 1441SOL    HW215960   0.650   0.290   6.570  0.3920  0.5147 -0.0458
 1442SOL     OW15961   2.005   2.834  15.211  0.0729 -0.0949  0.4865
 1442SOL    HW115962   1.957   2.832  15.294 -2.6346 -0.4751 -1.0872
 1442SOL    HW215963   2.089   2.794  15.234  1.4730  2.6132  0.1819
 1443SOL     OW15964   2.112   4.299   2.374 -0.3336 -0.4078  0.0465
 1443SOL    HW115965   2.032   4.286   2.425 -0.3181 -3.0985 -0.6412
 1443SOL    HW215966   2.077   4.310   2.285 -1.9746  1.7508  0.9478
 1444SOL     OW15967   4.670   3.614   8.980 -0.3158 -0.1758  0.4235
 1444SOL    HW115968   4.739   3.576   9.034  0.0984  1.6081  1.1651
 1444SOL    HW215969   4.718   3.683   8.933  1.7549 -2.3623 -0.6468
 1445SOL     OW15970   3.867   0.265   9.610  0.2034 -0.5080  0.3381
 1445SOL    HW115971   3.904   0.205   9.545 -0.7709 -1.9399  1.0886
 1445SOL    HW215972   3.939   0.278   9.672  0.6520  0.9261 -0.4941
 1446SOL     OW15973   3.173   2.237   5.016 -0.2529  0.5919 -0.4120
 1446SOL    HW115974   3.269   2.232   5.008 -0.0445  2.8563  0.6699
 1446SOL    HW215975   3.165   2.331   5.033 -1.5438  0.5568 -0.9053
 1447SOL     OW15976   2.914   1.960  15.263  0.3429  0.7423  0.5517
 1447SOL    HW115977   2.992   1.911  15.291  1.2511  2.6028  1.2894
 1447SOL    HW215978   2.866   1.933  15.342 -2.2267 -0.1796 -1.3436
 1448SOL     OW15979   0.331   2.381   3.934  0.0834  0.2815 -0.6884
 1448SOL    HW115980   0.361   2.460   3.889  1.2347 -0.1813 -0.7359
 1448SOL    HW215981   0.414   2.354   3.973 -0.7892 -0.1712  0.8323
 1449SOL     OW15982   1.049   1.676  10.136 -0.5489  0.3253  0.1728
 1449SOL    HW115983   0.963   1.652  10.099  0.0661  0.7851 -1.5562
 1449SOL    HW215984   1.019   1.696  10.225  2.7158 -1.9247  1.7662
 1450SOL     OW15985   4.365   0.165  12.140  0.1931 -0.7641 -0.2858
 1450SOL    HW115986   4.312   0.166  12.060  0.4344  1.0546 -0.4396
 1450SOL    HW215987   4.315   0.225  12.196  0.0418 -1.1830  0.0219
 1451SOL     OW15988   2.793   2.387   5.854  0.0025 -0.2286 -0.3214
 1451SOL    HW115989   2.718   2.415   5.802 -0.8426 -0.9529  0.5030
 1451SOL    HW215990   2.773   2.429   5.938 -0.3973 -2.4052  0.6838
 1452SOL     OW15991   4.399   3.000   6.939 -0.1343 -0.5425  0.3025
 1452SOL    HW115992   4.304   3.007   6.953 -0.2741  1.2681 -1.3628
 1452SOL    HW215993   4.435   3.019   7.025 -1.9850 -0.0453  0.9808
 1453SOL     OW15994   1.248   3.208   5.465 -0.2448 -0.0333 -0.4718
 1453SOL    HW115995   1.323   3.169   5.510  0.0466  0.4951 -0.4907
 1453SOL    HW215996   1.199   3.257   5.531  1.1953 -0.5771  0.9913
 1454SOL     OW15997   2.592   1.198   2.633 -0.0073  0.0154 -0.1141
 1454SOL    HW115998   2.568   1.136   2.702 -1.2964  0.0481 -0.5232
 1454SOL    HW215999   2.545   1.279   2.651  0.0061  0.1150 -0.5250
 1455SOL     OW16000   4.155   1.137   3.454  0.4570  0.2786 -0.4649
 1455SOL    HW116001   4.065   1.136   3.488  0.9487 -0.0102  0.8083
 1455SOL    HW216002   4.190   1.220   3.487  0.6302 -0.1809  0.4973
 1456SOL     OW16003   4.543   0.272  13.038  0.2610 -0.0452 -0.2244
 1456SOL    HW116004   4.589   0.228  12.967  3.8961 -0.2203  2.2348
 1456SOL    HW216005   4.609   0.324  13.084  0.6345 -0.9622  0.2784
 1457SOL     OW16006   0.281   0.996   7.582  0.2148  0.3332  0.2165
 1457SOL    HW116007   0.198   0.954   7.603  1.0020 -1.7545 -0.8241
 1457SOL    HW216008   0.263   1.090   7.581  3.4607  0.9305 -2.0438
 1458SOL     OW16009   4.240   2.608   8.601 -0.2171 -0.0259  0.0726
 1458SOL    HW116010   4.196   2.683   8.562 -0.1424  0.5533  1.0991
 1458SOL    HW216011   4.178   2.540   8.574  0.1786 -0.5389  0.4419
 1459SOL     OW16012   1.674   3.916   5.669 -0.6018  0.5510  0.6067
 1459SOL    HW116013   1.686   3.823   5.647  1.3295  1.3627 -1.7350
 1459SOL    HW216014   1.764   3.929   5.700 -1.7327  1.4622  3.5748
 1460SOL     OW16015   3.067   4.267  13.048  0.1220  0.2507 -0.4705
 1460SOL    HW116016   3.010   4.297  12.977  0.1390  2.1657  0.3255
 1460SOL    HW216017   3.075   4.351  13.093  2.1023 -0.1721 -0.0375
 1461SOL     OW16018   3.077   0.277   5.483 -0.0597 -0.4350  0.6616
 1461SOL    HW116019   3.049   0.366   5.507 -0.2311 -0.0405 -0.9413
 1461SOL    HW216020   3.030   0.229   5.551 -0.3737 -1.6684 -0.4227
 1462SOL     OW16021   2.337   3.095   6.984  0.1931  0.4235 -0.6572
 1462SOL    HW116022   2.401   3.039   7.027 -0.2317  0.6146  0.2170
 1462SOL    HW216023   2.265   3.084   7.046  1.7155  2.3369  1.4713
 1463SOL     OW16024   3.469   3.175   4.659  0.4501  0.3237 -0.1748
 1463SOL    HW116025   3.511   3.164   4.574  0.2692  1.2693 -0.3879
 1463SOL    HW216026   3.395   3.231   4.637  0.6114  1.4163  2.0625
 1464SOL     OW16027   1.012   2.822  15.417  0.4690 -0.3688 -0.7006
 1464SOL    HW116028   1.038   2.729  15.422  3.0413  0.4008  0.2688
 1464SOL    HW216029   0.993   2.840  15.509 -0.4200  1.1694 -1.1970
 1465SOL     OW16030   0.625   0.965   8.309 -0.3878  0.2215  0.1861
 1465SOL    HW116031   0.593   1.002   8.391  0.7953 -2.3105  1.7875
 1465SOL    HW216032   0.556   0.993   8.248  0.1948 -0.3873 -0.7611
 1466SOL     OW16033   3.096   4.642   8.937  0.1971  0.3338 -0.3094
 1466SOL    HW116034   3.134   4.727   8.959  1.4579  0.5179 -3.1406
 1466SOL    HW216035   3.025   4.677   8.883 -1.3572 -0.4423  1.2233
 1467SOL     OW16036   0.985   1.867   2.954  0.2847  0.3809 -0.3563
 1467SOL    HW116037   0.901   1.868   3.000  0.2679  0.0806 -0.3806
 1467SOL    HW216038   0.948   1.862   2.866 -0.0123  1.2643 -0.2755
 1468SOL     OW16039   0.720   1.442   0.871 -0.4153 -0.1425 -0.1167
 1468SOL    HW116040   0.628   1.448   0.846 -0.2636  2.0874 -0.1932
 1468SOL    HW216041   0.757   1.507   0.811  2.4935 -1.3967  0.3067
 1469SOL     OW16042   4.733   2.348   0.587  0.4268  0.1449  0.1437
 1469SOL    HW116043   0.085   2.328   0.581  0.4470  0.1925  0.3020
 1469SOL    HW216044   4.720   2.426   0.532 -1.1719  1.1468  1.9367
 1470SOL     OW16045   0.489   1.005   9.164  0.7753  0.4729  0.6176
 1470SOL    HW116046   0.515   1.070   9.099 -2.3493  0.7938 -0.3180
 1470SOL    HW216047   0.406   0.968   9.133  1.6214  0.0725 -1.1593
 1471SOL     OW16048   3.024   4.079   6.737  0.1755 -0.0495 -0.3722
 1471SOL    HW116049   3.076   4.030   6.800  0.1441  0.4161  0.0143
 1471SOL    HW216050   3.087   4.144   6.707  1.1308 -0.1954  1.3335
 1472SOL     OW16051   0.392   1.557   3.939  0.0621  0.1150  0.4036
 1472SOL    HW116052   0.435   1.583   4.021  3.1668  1.2454 -1.6125
 1472SOL    HW216053   0.307   1.602   3.941  0.5064  0.9460  0.5098
 1473SOL     OW16054   0.758   2.749   5.795 -0.9197 -0.1580  0.9464
 1473SOL    HW116055   0.793   2.660   5.802 -1.4551 -0.4585 -0.3302
 1473SOL    HW216056   0.791   2.781   5.879  0.0428 -1.1898  0.9589
 1474SOL     OW16057   0.378   0.510   8.356 -0.1636 -0.4109  0.7532
 1474SOL    HW116058   0.323   0.544   8.427  1.5716  1.9900  0.9476
 1474SOL    HW216059   0.469   0.525   8.382  0.1898  1.2154 -1.4921
 1475SOL     OW16060   2.619   0.617   0.781 -0.2904  0.4660 -0.0342
 1475SOL    HW116061   2.614   0.651   0.870 -1.2488 -0.7786  0.3807
 1475SOL    HW216062   2.688   0.553   0.793 -0.9604 -0.0107  1.2132
 1476SOL     OW16063   2.722   1.099  10.035  0.8569 -0.8850  0.0287
 1476SOL    HW116064   2.695   1.031   9.974 -0.4030  0.7490 -1.2292
 1476SOL    HW216065   2.817   1.100  10.020  0.7309  0.1734 -0.7396
 1477SOL     OW16066   2.969   1.292   6.250  0.3581 -0.3098  0.0018
 1477SOL    HW116067   2.948   1.379   6.216  0.7116 -0.3431 -0.2981
 1477SOL    HW216068   2.934   1.285   6.339 -1.4105 -0.6392 -0.7104
 1478SOL     OW16069   4.093   0.509   1.651  0.1511  0.2248  0.1329
 1478SOL    HW116070   4.051   0.592   1.627  1.4517  0.9231  0.2940
 1478SOL    HW216071   4.022   0.452   1.620  0.2364 -0.1025  0.5467
 1479SOL     OW16072   0.503   1.361   1.767  0.4077  0.3811  0.2046
 1479SOL    HW116073   0.553   1.390   1.690  1.6209  1.8544  1.5418
 1479SOL    HW216074   0.553   1.285   1.797 -0.6413  0.8860  3.2071
 1480SOL     OW16075   3.144   4.641   2.095 -0.0078  0.7612  0.1763
 1480SOL    HW116076   3.064   4.592   2.075  0.9723 -0.4569 -0.7384
 1480SOL    HW216077   3.189   4.656   2.012  0.4456  0.0870  0.3063
 1481SOL     OW16078   0.196   1.326  10.268  0.4019 -0.0501 -0.3298
 1481SOL    HW116079   0.235   1.404  10.307  1.4869 -1.4046  1.3338
 1481SOL    HW216080   0.228   1.335  10.178  1.1063  1.4096  0.0686
 1482SOL     OW16081   2.615   4.329   2.990 -0.2456  0.0229 -0.5396
 1482SOL    HW116082   2.588   4.382   2.915 -0.8195 -1.4952 -1.4000
 1482SOL    HW216083   2.601   4.387   3.066 -0.9132  1.4345 -1.7301
 1483SOL     OW16084   1.851   1.670   3.925 -0.5163  0.1814  0.4569
 1483SOL    HW116085   1.838   1.609   3.853 -0.3094  0.6096  0.0630
 1483SOL    HW216086   1.776   1.647   3.980  0.1810 -0.2584  1.2222
 1484SOL     OW16087   0.565   2.145   6.671 -0.1730  0.0022  0.2513
 1484SOL    HW116088   0.577   2.216   6.734 -0.0202  0.9122 -0.8196
 1484SOL    HW216089   0.551   2.198   6.593 -0.9660  0.0498  0.4196
 1485SOL     OW16090   2.325   3.257   3.576  0.6169  0.2752  0.4223
 1485SOL    HW116091   2.348   3.342   3.538  3.0944  0.8672  3.2609
 1485SOL    HW216092   2.233   3.271   3.600  0.4083 -1.3995  0.6118
 1486SOL     OW16093   3.057   3.195   4.759  0.1777  0.3541  0.1119
 1486SOL    HW116094   3.058   3.286   4.731  0.5333  1.4250  3.7193
 1486SOL    HW216095   2.989   3.155   4.704 -0.7645 -0.7857  2.1250
 1487SOL     OW16096   1.325   0.658   2.388 -0.0951 -0.5302  0.5230
 1487SOL    HW116097   1.379   0.653   2.467 -1.3840 -0.0259  1.4417
 1487SOL    HW216098   1.388   0.672   2.317  1.9126 -0.7804  2.2273
 1488SOL     OW16099   2.037   0.167   6.726 -0.3749 -0.7219  0.1440
 1488SOL    HW116100   2.009   0.078   6.748  0.5667 -0.7405  1.2801
 1488SOL    HW216101   2.012   0.222   6.800 -1.2093 -3.0172  1.5714
 1489SOL     OW16102   0.534   3.229   5.231  0.3964 -0.3588 -0.5393
 1489SOL    HW116103   0.600   3.294   5.209 -0.4218  1.1346  1.4382
 1489SOL    HW216104   0.502   3.248   5.319  0.6563  2.4747 -1.0611
 1490SOL     OW16105   4.606   4.610   1.461 -0.0166  0.0703 -0.2589
 1490SOL    HW116106   4.521   4.634   1.425  0.5269 -2.1218 -2.9923
 1490SOL    HW216107   4.588   4.521   1.492 -1.3714 -0.2835 -2.0918
 1491SOL     OW16108   0.662   4.682  13.970 -0.2727  0.2298 -0.9844
 1491SOL    HW116109   0.636   4.592  13.989 -2.4935  0.9128 -0.8535
 1491SOL    HW216110   0.699   4.720  14.050 -0.8506 -1.3449  0.0190
 1492SOL     OW16111   2.666   1.520  13.699 -0.3195  0.5355 -0.4980
 1492SOL    HW116112   2.686   1.576  13.624  0.2243  1.7282  0.5211
 1492SOL    HW216113   2.596   1.459  13.677 -0.6084  0.1175  1.5948
 1493SOL     OW16114   3.710   3.361   9.921 -0.0902 -0.3496 -0.0281
 1493SOL    HW116115   3.726   3.449   9.887 -3.0908  0.0364 -0.4479
 1493SOL    HW216116   3.661   3.381  10.000  0.7225 -3.0140  1.1388
 1494SOL     OW16117   1.078   3.030   4.341  0.5883  0.0879  0.6928
 1494SOL    HW116118   1.070   3.121   4.370  1.0526 -0.6436  3.1575
 1494SOL    HW216119   1.146   3.043   4.275  0.6076 -0.5677  0.5903
 1495SOL     OW16120   1.851   3.612   1.738  0.1790  0.5215 -0.0176
 1495SOL    HW116121   1.928   3.665   1.760  0.1398  1.1584 -1.4099
 1495SOL    HW216122   1.786   3.682   1.738 -4.1536 -3.5121  2.3990
 1496SOL     OW16123   1.676   2.255   8.478 -0.0374 -0.0401 -0.0694
 1496SOL    HW116124   1.633   2.339   8.463  0.9258  0.4745  0.0359
 1496SOL    HW216125   1.736   2.270   8.551  1.5198 -0.9643 -1.1493
 1497SOL     OW16126   1.341   0.230   4.263 -0.4091 -0.3115  0.0705
 1497SOL    HW116127   1.374   0.144   4.237  0.6287  0.5548 -1.4839
 1497SOL    HW216128   1.410   0.294   4.244 -0.6677 -0.6676 -2.0294
 1498SOL     OW16129   4.437   2.849   1.536 -0.3955  0.3018 -0.0703
 1498SOL    HW116130   4.397   2.920   1.486 -0.3604  1.9398  2.2477
 1498SOL    HW216131   4.498   2.805   1.476 -0.5939 -0.6294  0.4183
 1499SOL     OW16132   2.182   4.542   5.979 -0.1127  0.1380  0.7071
 1499SOL    HW116133   2.135   4.536   5.896  0.8018  0.1572  0.1949
 1499SOL    HW216134   2.234   4.620   5.962  1.9385 -1.6980 -1.3848
 1500SOL     OW16135   0.908   4.615   1.526 -0.0216 -0.1050 -0.4275
 1500SOL    HW116136   0.937   4.651   1.442  0.2955 -0.8351 -0.6344
 1500SOL    HW216137   0.991   4.614   1.575 -0.4602  1.7198  0.3480
 1501SOL     OW16138   0.446   4.378   5.993  0.6062  0.1236 -0.3217
 1501SOL    HW116139   0.514   4.361   5.928  0.3413  0.0391 -0.5766
 1501SOL    HW216140   0.494   4.334   6.063  0.8893  0.8041 -0.0889
 1502SOL     OW16141   2.798   2.763  15.209 -0.0325  0.0686  0.1985
 1502SOL    HW116142   2.885   2.776  15.248  0.2982 -0.3468 -0.4048
 1502SOL    HW216143   2.794   2.833  15.144 -0.3038 -0.7769 -0.6902
 1503SOL     OW16144   0.628   1.046   5.307  0.2800  0.4127 -0.1571
 1503SOL    HW116145   0.569   1.046   5.383  0.4692 -0.6488 -0.0007
 1503SOL    HW216146   0.588   0.981   5.249  1.8891 -1.9235  1.3348
 1504SOL     OW16147   2.087   2.625   2.551 -0.6298  0.9396  0.1468
 1504SOL    HW116148   2.011   2.598   2.500  0.3034 -1.0007 -0.1906
 1504SOL    HW216149   2.108   2.545   2.599 -4.0100  0.2791  0.5159
 1505SOL     OW16150   0.669   0.473   8.926 -0.1661  0.0928  0.2473
 1505SOL    HW116151   0.710   0.415   8.990  0.9313  0.2562 -0.3185
 1505SOL    HW216152   0.599   0.519   8.972 -0.2953  0.6537 -0.4989
 1506SOL     OW16153   3.493   4.265  14.161  0.1907  0.1962  0.1385
 1506SOL    HW116154   3.588   4.250  14.166 -0.0425 -0.6410  2.2172
 1506SOL    HW216155   3.468   4.214  14.238 -1.6140 -1.7949 -1.7486
 1507SOL     OW16156   3.468   3.920   8.050 -0.8225 -0.1009 -0.6095
 1507SOL    HW116157   3.473   3.853   7.981 -0.6999  0.1918 -0.8880
 1507SOL    HW216158   3.525   3.987   8.013  0.3407 -1.8015 -1.9354
 1508SOL     OW16159   1.928   2.791  10.310 -0.3827 -0.2245  0.1688
 1508SOL    HW116160   1.971   2.805  10.395  0.7762 -1.4047 -0.2211
 1508SOL    HW216161   1.959   2.701  10.297 -0.4064 -0.5305  2.1293
 1509SOL     OW16162   3.451   3.678   8.937 -0.1453  0.5600  0.2078
 1509SOL    HW116163   3.474   3.585   8.938  1.8331  1.0539  1.2761
 1509SOL    HW216164   3.399   3.678   8.857 -0.0379  2.2329  0.1440
 1510SOL     OW16165   1.877   3.179   6.529  0.3569  0.0472  0.2523
 1510SOL    HW116166   1.861   3.245   6.596  1.7603  3.0551 -2.3599
 1510SOL    HW216167   1.795   3.167   6.483  0.2616 -1.2576  0.7606
 1511SOL     OW16168   2.238   2.067   9.119 -0.5604 -0.7867  0.1892
 1511SOL    HW116169   2.192   2.044   9.199 -0.5589 -1.0137  0.1232
 1511SOL    HW216170   2.300   1.996   9.108 -0.3609 -0.2800 -1.9970
 1512SOL     OW16171   1.615   4.349   5.348  0.3113  0.5504 -0.3562
 1512SOL    HW116172   1.564   4.294   5.287  1.7636 -0.9489 -0.2098
 1512SOL    HW216173   1.653   4.279   5.401  0.0215 -0.2367 -1.1817
 1513SOL     OW16174   0.314   1.219  11.277  0.4951 -0.1954 -0.5447
 1513SOL    HW116175   0.367   1.185  11.349 -1.3869 -3.2373 -0.5870
 1513SOL    HW216176   0.240   1.254  11.327  2.5633 -0.2693  2.5923
 1514SOL     OW16177   3.722   3.189   3.108 -0.1742 -0.3332  0.1973
 1514SOL    HW116178   3.643   3.243   3.103 -1.0509 -1.4541  2.0218
 1514SOL    HW216179   3.707   3.132   3.032 -0.4685 -1.9217  1.4414
 1515SOL     OW16180   0.651   4.394   3.074  0.5808  0.7810 -0.0020
 1515SOL    HW116181   0.668   4.488   3.087  1.4825  0.7809 -1.2099
 1515SOL    HW216182   0.585   4.374   3.141 -0.9291  0.5798 -1.5521
 1516SOL     OW16183   1.707   3.718  17.492  0.3893  0.6719  0.1793
 1516SOL    HW116184   1.676   3.754  17.409  0.2268  0.7731  0.2829
 1516SOL    HW216185   1.761   3.646  17.462  0.2791  0.4118  0.6110
 1517SOL     OW16186   3.324   1.078  13.865 -0.1715  0.0899 -0.0845
 1517SOL    HW116187   3.318   1.161  13.912 -0.0013  1.3010 -2.1950
 1517SOL    HW216188   3.238   1.074  13.823 -0.2642 -0.3954  0.1521
 1518SOL     OW16189   1.979   2.745   6.403 -0.0480 -0.7228  0.3159
 1518SOL    HW116190   1.992   2.662   6.358  1.6925  0.0759 -0.6529
 1518SOL    HW216191   2.007   2.720   6.491  0.5463  2.0135  0.9291
 1519SOL     OW16192   4.324   3.330   2.122 -0.1988  0.1038 -0.2907
 1519SOL    HW116193   4.320   3.248   2.073  1.1876 -1.4720  2.2062
 1519SOL    HW216194   4.229   3.333   2.137 -0.2027  0.2564 -0.3488
 1520SOL     OW16195   2.574   1.836   4.989 -0.0915 -0.0861 -1.0125
 1520SOL    HW116196   2.601   1.912   4.937  2.3754 -0.3499 -0.1047
 1520SOL    HW216197   2.648   1.780   4.968 -0.6519 -0.5590 -1.7107
 1521SOL     OW16198   0.201   4.085   7.158 -0.2377 -0.0532  0.6772
 1521SOL    HW116199   0.242   4.012   7.204  0.1404  0.3201  0.9255
 1521SOL    HW216200   0.251   4.157   7.195 -2.0751  0.8843  1.3282
 1522SOL     OW16201   3.915   3.694  15.242  0.4959 -1.0693 -0.7462
 1522SOL    HW116202   3.837   3.639  15.233  0.6005 -1.2427 -0.5923
 1522SOL    HW216203   3.901   3.755  15.170  1.5959 -1.2747 -1.1438
 1523SOL     OW16204   1.704   0.749  13.308 -0.4199  0.1704 -0.3153
 1523SOL    HW116205   1.690   0.770  13.400 -0.4705 -0.8790 -0.0770
 1523SOL    HW216206   1.616   0.773  13.279 -0.7383  0.4520  0.8745
 1524SOL     OW16207   2.218   3.371  12.578 -0.1436  0.0287 -0.0931
 1524SOL    HW116208   2.216   3.276  12.569 -0.3355 -0.0112  0.3501
 1524SOL    HW216209   2.123   3.386  12.574 -0.0552  0.5679 -0.1330
 1525SOL     OW16210   2.671   3.753   2.579 -0.4798 -0.4726 -0.5083
 1525SOL    HW116211   2.718   3.781   2.500 -0.7717  0.7931 -0.2424
 1525SOL    HW216212   2.675   3.834   2.630  0.3901  0.2424 -1.7015
 1526SOL     OW16213   3.712   0.650   6.577  0.4242 -0.1601 -0.3706
 1526SOL    HW116214   3.790   0.692   6.613  0.1569 -0.3129  0.3825
 1526SOL    HW216215   3.740   0.559   6.570 -0.5439 -0.3340 -1.8307
 1527SOL     OW16216   3.854   4.515  17.424 -0.0176 -1.1678 -0.1878
 1527SOL    HW116217   3.813   4.444  17.375 -0.2693 -1.4565  0.4430
 1527SOL    HW216218   3.774   4.561  17.450  2.3340  2.1401  1.1903
 1528SOL     OW16219   4.200   4.532   0.813 -0.0820 -0.2387 -0.2836
 1528SOL    HW116220   4.252   4.481   0.751  0.3581 -0.1099 -0.0146
 1528SOL    HW216221   4.175   4.611   0.764  1.9767 -1.7733 -3.7871
 1529SOL     OW16222   4.402   3.530   9.194  0.3972 -0.4425 -0.0997
 1529SOL    HW116223   4.452   3.454   9.166  1.0766 -0.9010  2.3212
 1529SOL    HW216224   4.346   3.484   9.257  2.6557 -1.3492  1.2589
 1530SOL     OW16225   3.097   4.708   8.288 -0.5651  0.0778  0.5991
 1530SOL    HW116226   3.174   4.663   8.254 -0.0204  1.9782 -0.6949
 1530SOL    HW216227   3.123   0.054   8.318 -1.7042  1.4226 -2.2986
 1531SOL     OW16228   3.281   3.627   3.598 -0.4374 -0.2036 -0.4351
 1531SOL    HW116229   3.247   3.574   3.526 -0.2257  0.6973 -1.1969
 1531SOL    HW216230   3.361   3.657   3.555  0.3286  1.0822  1.9214
 1532SOL     OW16231   1.557   2.929   4.806 -0.2364 -0.2099 -0.2645
 1532SOL    HW116232   1.543   2.930   4.901  0.2354 -1.2463 -0.1818
 1532SOL    HW216233   1.547   3.022   4.786 -1.3614  0.3692  3.0143
 1533SOL     OW16234   4.265   1.883   8.775 -0.0029  0.1789 -0.0915
 1533SOL    HW116235   4.173   1.866   8.796  0.3857 -0.9039  0.7494
 1533SOL    HW216236   4.306   1.808   8.818  0.6300  0.0430 -0.9250
 1534SOL     OW16237   1.692   3.266   5.527 -0.6561  0.1443  0.1107
 1534SOL    HW116238   1.735   3.299   5.448 -0.0739 -2.0348 -0.4828
 1534SOL    HW216239   1.766   3.214   5.558  0.2791  1.8964  0.7817
 1535SOL     OW16240   2.935   1.006  10.772  0.1991 -0.0530  0.3668
 1535SOL    HW116241   2.988   0.931  10.800  2.0612  1.7315  1.6640
 1535SOL    HW216242   2.858   0.951  10.761 -1.1271  1.8636 -0.0681
 1536SOL     OW16243   1.538   2.851   4.344 -0.8138 -0.2954  0.8387
 1536SOL    HW116244   1.493   2.786   4.399 -0.3219  0.1646  1.7794
 1536SOL    HW216245   1.623   2.847   4.387 -0.9965  1.1448  1.3268
 1537SOL     OW16246   0.151   2.474   6.132  0.7676 -0.2902  0.6254
 1537SOL    HW116247   0.222   2.533   6.110  0.3693 -0.5091 -1.3107
 1537SOL    HW216248   0.111   2.532   6.196  0.0755 -0.1059  0.0236
 1538SOL     OW16249   3.236   0.763   5.973  0.3132 -0.1752 -0.1395
 1538SOL    HW116250   3.154   0.812   5.975  0.3274 -0.2073  1.2735
 1538SOL    HW216251   3.199   0.680   6.004  0.7033 -0.4873 -0.5238
 1539SOL     OW16252   1.025   1.435  11.349  0.2672  0.4505  0.6304
 1539SOL    HW116253   1.089   1.403  11.413  0.6313 -2.0343 -0.9727
 1539SOL    HW216254   0.946   1.449  11.401 -1.1006 -0.0095 -1.3132
 1540SOL     OW16255   4.732   3.911   4.365 -0.3922  0.4011 -0.3241
 1540SOL    HW116256   4.673   3.889   4.293 -2.3951  0.3972  1.3130
 1540SOL    HW216257   0.027   3.824   4.384 -3.7692 -0.7923  0.5338
 1541SOL     OW16258   0.176   0.360   6.497 -0.0386  0.4849  0.1368
 1541SOL    HW116259   0.185   0.395   6.585 -0.6880  2.8356 -0.7365
 1541SOL    HW216260   0.094   0.313   6.513 -0.0823  0.7350  0.6243
 1542SOL     OW16261   4.077   4.127   3.574  0.3782 -0.2566  0.1015
 1542SOL    HW116262   3.988   4.123   3.610  0.2410  0.8745 -0.0951
 1542SOL    HW216263   4.076   4.193   3.504 -1.1332  0.8160  1.1279
 1543SOL     OW16264   4.544   4.617   3.292  0.0744  0.8148 -0.1364
 1543SOL    HW116265   4.615   4.599   3.230 -1.9269 -1.8672 -1.6886
 1543SOL    HW216266   4.566   4.709   3.306  0.4336  0.6529  0.3564
 1544SOL     OW16267   0.421   3.721   6.728  0.2431  0.0563  0.3693
 1544SOL    HW116268   0.353   3.681   6.781  2.3297 -0.8128  2.3580
 1544SOL    HW216269   0.474   3.764   6.795  2.0687 -1.3487 -0.1638
 1545SOL     OW16270   4.494   4.300   4.225 -0.1182 -0.3181 -0.4515
 1545SOL    HW116271   4.422   4.266   4.278  1.0116 -0.0001  1.2981
 1545SOL    HW216272   4.562   4.264   4.283 -1.6529  0.1667  1.6780
 1546SOL     OW16273   4.289   0.250  16.959 -0.2096  0.0685 -0.3520
 1546SOL    HW116274   4.352   0.179  16.954  0.6203  0.6960  1.0896
 1546SOL    HW216275   4.291   0.280  16.868  0.0300 -0.8924 -0.6603
 1547SOL     OW16276   4.592   4.721   7.716  0.7372 -0.9873  0.5432
 1547SOL    HW116277   4.535   4.646   7.699 -0.3009 -0.0293 -0.1927
 1547SOL    HW216278   4.668   4.695   7.663  1.3046  2.5214 -0.3695
 1548SOL     OW16279   0.132   2.819  10.916 -0.1772  0.4181  0.1912
 1548SOL    HW116280   0.195   2.772  10.971  0.5218  1.1464  0.0112
 1548SOL    HW216281   0.160   2.910  10.929  1.0703  0.0582  0.0207
 1549SOL     OW16282   2.212   0.135   6.987  0.2683 -0.4392  0.6732
 1549SOL    HW116283   2.269   0.142   6.910  0.1192  1.0345  0.7002
 1549SOL    HW216284   2.154   0.209   6.967  2.1681  0.3764 -1.8391
 1550SOL     OW16285   1.190   2.795   5.302  0.0132  0.5886 -0.0576
 1550SOL    HW116286   1.263   2.849   5.333 -0.5719  1.9671 -1.0493
 1550SOL    HW216287   1.191   2.734   5.375 -0.1718  2.3479  1.4157
 1551SOL     OW16288   1.212   1.358  11.536  0.5576  0.1465  0.6696
 1551SOL    HW116289   1.252   1.384  11.619 -0.1579  0.0059  1.0638
 1551SOL    HW216290   1.270   1.284  11.518  0.1521  0.5736 -2.2873
 1552SOL     OW16291   0.277   3.822   4.861  0.4168  0.2015 -0.1381
 1552SOL    HW116292   0.289   3.823   4.766  1.9372  1.9116  0.0822
 1552SOL    HW216293   0.240   3.909   4.875  1.7112  0.7514 -0.2048
 1553SOL     OW16294   1.934   0.120   0.280 -0.2026 -0.5639 -0.2992
 1553SOL    HW116295   1.929   0.065   0.358  3.6907 -0.5014 -0.0171
 1553SOL    HW216296   1.968   0.065   0.209 -0.8292 -0.9243 -0.3229
 1554SOL     OW16297   1.441   1.202  15.297 -0.5203 -0.1458 -0.1944
 1554SOL    HW116298   1.473   1.146  15.226  1.9234  0.3659  0.5008
 1554SOL    HW216299   1.380   1.259  15.250 -0.2044 -1.2247 -1.9261
 1555SOL     OW16300   1.601   0.184  11.489 -0.3434  0.0105 -0.0669
 1555SOL    HW116301   1.692   0.170  11.462  0.2463  0.5134  1.6520
 1555SOL    HW216302   1.606   0.279  11.492 -1.3948  0.1315 -2.2537
 1556SOL     OW16303   2.941   3.165  15.267 -0.7469  0.3422  0.3650
 1556SOL    HW116304   2.955   3.204  15.353  0.2654  0.1710  0.2793
 1556SOL    HW216305   2.848   3.143  15.275 -0.4101 -1.4324 -0.7192
 1557SOL     OW16306   3.280   0.455   2.118  0.4843  0.1069 -0.1037
 1557SOL    HW116307   3.253   0.479   2.207 -1.4521  0.5250 -0.7821
 1557SOL    HW216308   3.375   0.458   2.121  0.3636  4.5842 -0.7027
 1558SOL     OW16309   3.455   0.813   4.687  0.4745 -0.0347 -0.3851
 1558SOL    HW116310   3.406   0.895   4.679  0.1539 -0.1511  0.3492
 1558SOL    HW216311   3.490   0.805   4.776 -1.4020  0.0519  0.3445
 1559SOL     OW16312   3.542   2.733   3.971  0.6549  0.5514  0.2640
 1559SOL    HW116313   3.474   2.766   3.913 -0.3287  0.3468  1.3083
 1559SOL    HW216314   3.560   2.815   4.018  1.9130 -0.4500  1.5028
 1560SOL     OW16315   4.443   3.101   4.519  0.5750 -0.0912  0.7447
 1560SOL    HW116316   4.512   3.080   4.582 -0.0223 -0.5106  1.2518
 1560SOL    HW216317   4.436   3.194   4.542 -1.7917  0.2300 -1.2613
 1561SOL     OW16318   3.481   2.916  12.333 -0.0544 -0.2166 -0.5524
 1561SOL    HW116319   3.572   2.888  12.332  0.5174  1.5846 -0.0698
 1561SOL    HW216320   3.472   2.948  12.423 -0.0201  0.0753 -0.6521
 1562SOL     OW16321   1.889   1.656   9.360  0.0056  0.3724 -0.3380
 1562SOL    HW116322   1.980   1.660   9.333 -0.2174 -2.4658 -1.4773
 1562SOL    HW216323   1.835   1.659   9.281  2.2080  1.6283 -1.7903
 1563SOL     OW16324   4.173   3.710  17.202 -0.1288 -0.0045  0.0417
 1563SOL    HW116325   4.267   3.728  17.199  0.2084 -1.2345  3.3767
 1563SOL    HW216326   4.178   3.614  17.201 -1.4290 -0.1065  3.0626
 1564SOL     OW16327   1.379   1.947   1.965  0.3369  0.2148  0.1848
 1564SOL    HW116328   1.385   1.939   2.060 -1.6746  0.7555  0.3557
 1564SOL    HW216329   1.459   1.904   1.935 -0.1775 -0.3688 -0.3589
 1565SOL     OW16330   1.934   0.911   1.856 -0.6500 -0.0588 -0.1134
 1565SOL    HW116331   1.947   0.889   1.763 -0.7017  0.1558 -0.1713
 1565SOL    HW216332   1.995   0.855   1.903  0.5215  0.2741 -1.2256
 1566SOL     OW16333   3.799   3.181   2.106  0.4242  0.1915  0.0703
 1566SOL    HW116334   3.708   3.153   2.112  0.7875 -1.3951 -1.7922
 1566SOL    HW216335   3.794   3.227   2.022  2.0778  3.3320  1.7115
 1567SOL     OW16336   0.202   0.274   2.914 -0.3602 -0.0287  0.1861
 1567SOL    HW116337   0.294   0.284   2.889  0.4752  0.9100  3.5929
 1567SOL    HW216338   0.161   0.357   2.889  0.7888  0.6641  0.6192
 1568SOL     OW16339   2.373   0.631   5.160 -0.4158 -0.3040  0.1381
 1568SOL    HW116340   2.362   0.726   5.164 -0.0575 -0.2109 -1.1764
 1568SOL    HW216341   2.459   0.620   5.198 -0.5455  0.2796  0.5887
 1569SOL     OW16342   3.560   0.181   8.474  0.3993  0.3063 -0.1582
 1569SOL    HW116343   3.467   0.193   8.496  0.1220 -1.1352 -0.5279
 1569SOL    HW216344   3.599   0.213   8.555  1.8566 -2.7571  0.3376
 1570SOL     OW16345   1.167   3.060   1.754 -0.5891  0.5143 -0.0991
 1570SOL    HW116346   1.201   2.971   1.741 -1.1960  0.3175 -0.3330
 1570SOL    HW216347   1.202   3.111   1.681 -0.6464  0.7590  0.0456
 1571SOL     OW16348   0.009   2.220   1.367 -0.5408 -0.2669 -0.0329
 1571SOL    HW116349   4.728   2.311   1.387 -3.4389 -0.6228 -1.5978
 1571SOL    HW216350   4.739   2.219   1.272  1.3132  3.7284 -0.2744
 1572SOL     OW16351   3.256   2.435   6.318 -0.2852  0.5180 -0.0047
 1572SOL    HW116352   3.196   2.383   6.264 -1.0593 -0.2124  1.5382
 1572SOL    HW216353   3.321   2.366   6.332 -0.7378  0.1758  0.3970
 1573SOL     OW16354   2.060   0.277   4.686 -0.1388 -0.2031  0.0543
 1573SOL    HW116355   2.077   0.241   4.773  1.5492 -0.5950 -0.4398
 1573SOL    HW216356   1.993   0.218   4.653  0.2758 -1.2912  1.1627
 1574SOL     OW16357   4.164   4.714   5.291 -0.0932 -0.2348 -0.2778
 1574SOL    HW116358   4.223   4.682   5.359  0.0405 -0.4333 -0.4887
 1574SOL    HW216359   4.078   4.686   5.320 -0.3706 -0.0497 -0.9225
 1575SOL     OW16360   2.148   0.716   9.352 -0.3584 -0.2912  0.7202
 1575SOL    HW116361   2.065   0.673   9.369 -0.5447  0.4051  1.5772
 1575SOL    HW216362   2.127   0.796   9.304 -1.0363 -1.0792 -0.2814
 1576SOL     OW16363   1.734   3.691  15.145 -0.0827  0.1363  0.6722
 1576SOL    HW116364   1.770   3.652  15.225  1.2184 -0.7852 -0.3641
 1576SOL    HW216365   1.668   3.743  15.190  0.2259  0.6014  0.5837
 1577SOL     OW16366   3.418   1.157   5.035  0.1157 -0.4486  0.3210
 1577SOL    HW116367   3.420   1.190   5.125 -0.3317  0.9404 -0.1684
 1577SOL    HW216368   3.424   1.242   4.990  1.6552  0.1577  1.6721
 1578SOL     OW16369   3.614   2.611  17.454 -0.1635 -0.2154 -0.7381
 1578SOL    HW116370   3.699   2.588  17.492 -0.0905 -1.5405 -1.7129
 1578SOL    HW216371   3.552   2.568  17.513 -0.0733 -1.8530 -1.8157
 1579SOL     OW16372   0.862   4.297   1.781 -0.6197  0.3578  0.1072
 1579SOL    HW116373   0.869   4.241   1.704 -1.6026  1.1086 -0.5299
 1579SOL    HW216374   0.836   4.222   1.835 -0.6090  1.2405  1.3363
 1580SOL     OW16375   4.257   4.045  12.865 -0.1580 -0.1379 -0.2943
 1580SOL    HW116376   4.188   3.992  12.824 -1.9048  0.6454  1.6311
 1580SOL    HW216377   4.305   4.087  12.794 -0.7454  1.9628  0.5487
 1581SOL     OW16378   1.587   2.907   2.294  0.3310 -0.3309 -0.2110
 1581SOL    HW116379   1.554   2.990   2.328 -0.2499 -1.5164  2.1151
 1581SOL    HW216380   1.546   2.900   2.208  0.4161 -0.2348 -0.2598
 1582SOL     OW16381   0.520   1.670  17.499  0.0245 -0.2919 -0.1937
 1582SOL    HW116382   0.449   1.709  17.448  1.3478 -0.3364 -2.0754
 1582SOL    HW216383   0.485   1.639  17.582 -1.2282 -1.7810 -1.2769
 1583SOL     OW16384   0.112   2.445   1.076 -0.2159  0.7298 -0.1858
 1583SOL    HW116385   0.123   2.461   0.983 -1.2751 -0.8797 -0.5896
 1583SOL    HW216386   0.194   2.397   1.091  0.0150  0.9876 -0.6462
 1584SOL     OW16387   0.157   0.316   8.955 -0.4668  0.4305  0.5187
 1584SOL    HW116388   0.102   0.378   8.907  2.0858  1.6674 -0.8287
 1584SOL    HW216389   0.148   0.330   9.049  0.2871  0.4019  0.5982
 1585SOL     OW16390   2.482   2.710   7.642 -0.0793  0.2997 -0.2545
 1585SOL    HW116391   2.548   2.671   7.699  0.1904  2.0251  0.6131
 1585SOL    HW216392   2.537   2.777   7.603 -0.4838 -0.2378 -1.7321
 1586SOL     OW16393   3.649   3.641   9.871  0.0398 -0.0442  0.0589
 1586SOL    HW116394   3.617   3.632   9.782  0.0806 -1.2887  0.1772
 1586SOL    HW216395   3.661   3.736   9.875 -0.9133  0.1590 -2.4136
 1587SOL     OW16396   1.573   2.439   1.163 -0.3252  0.6186  0.0312
 1587SOL    HW116397   1.617   2.356   1.180 -0.9163 -0.1579 -2.1840
 1587SOL    HW216398   1.486   2.409   1.138 -0.3595  0.8343 -0.1078
 1588SOL     OW16399   3.231   2.559  12.191  0.0917 -0.7163 -0.3222
 1588SOL    HW116400   3.221   2.598  12.278 -0.5206 -1.0374 -0.2430
 1588SOL    HW216401   3.259   2.627  12.131  1.2410 -1.3284 -0.4825
 1589SOL     OW16402   1.089   4.097   2.134  0.7926 -0.1762  0.0179
 1589SOL    HW116403   1.111   4.151   2.209  1.0243 -1.9023  1.1905
 1589SOL    HW216404   1.167   4.094   2.079  0.5566 -0.7157 -0.2864
 1590SOL     OW16405   0.108   2.086   4.252 -0.0227 -0.1548 -0.2295
 1590SOL    HW116406   0.110   2.134   4.169 -1.1999  0.3929  0.0614
 1590SOL    HW216407   0.148   2.004   4.223  0.6916  1.5045 -3.9745
 1591SOL     OW16408   4.686   1.997   7.841  0.1382 -0.4056  0.1115
 1591SOL    HW116409   4.729   2.081   7.861 -3.3466  1.4492 -0.2483
 1591SOL    HW216410   4.605   2.015   7.888  0.2756  0.0900  0.1597
 1592SOL     OW16411   4.714   4.626   5.166  0.0826 -0.2024 -0.2433
 1592SOL    HW116412   0.021   4.551   5.129  0.9758  0.5668 -0.6707
 1592SOL    HW216413   0.030   4.697   5.136 -1.0230 -0.0486 -1.9735
 1593SOL     OW16414   4.147   3.358   8.310  0.0217  0.1529 -0.0737
 1593SOL    HW116415   4.183   3.444   8.288  2.5094 -1.4821 -2.3632
 1593SOL    HW216416   4.082   3.378   8.378  1.4807 -0.2298  1.4465
 1594SOL     OW16417   4.735   2.256   7.934  0.1013 -0.4510  0.0797
 1594SOL    HW116418   4.702   2.299   8.013 -1.5714 -1.2977 -0.1623
 1594SOL    HW216419   0.088   2.258   7.953  0.6272 -0.9029 -2.4143
 1595SOL     OW16420   0.276   3.563   9.757  0.3515  0.0733 -0.1886
 1595SOL    HW116421   0.286   3.596   9.846  0.0409 -0.4391  0.0379
 1595SOL    HW216422   0.186   3.587   9.734  0.0642 -0.2385  0.6418
 1596SOL     OW16423   3.051   0.776  10.833  0.4537  0.0671 -0.0272
 1596SOL    HW116424   3.085   0.697  10.792  0.1613 -0.5959  0.9943
 1596SOL    HW216425   3.105   0.781  10.912  0.7654  0.3711 -0.2596
 1597SOL     OW16426   3.940   4.626   2.887  0.1453  0.4666  0.3219
 1597SOL    HW116427   4.029   4.609   2.857  0.8018 -0.6269  2.8599
 1597SOL    HW216428   3.937   4.717   2.856  2.8948  1.1643  2.0566
 1598SOL     OW16429   3.169   0.651  11.353  0.0415 -0.2674 -0.1380
 1598SOL    HW116430   3.242   0.633  11.294 -0.3339 -0.0054 -0.6750
 1598SOL    HW216431   3.177   0.576  11.412  2.1241 -0.2798 -0.4252
 1599SOL     OW16432   1.118   1.596  15.912  0.9794  0.2487  0.8174
 1599SOL    HW116433   1.049   1.630  15.854  2.9427 -1.2194 -2.3909
 1599SOL    HW216434   1.157   1.539  15.846  1.6256  2.9543 -1.1106
 1600SOL     OW16435   3.540   3.090   9.049  0.3789 -1.0228  0.1231
 1600SOL    HW116436   3.450   3.087   9.018 -0.6482  0.5513  2.9430
 1600SOL    HW216437   3.568   3.009   9.006 -0.6723 -1.2982 -0.0425
 1601SOL     OW16438   3.409   1.258   9.267  0.3815  0.4631 -0.3077
 1601SOL    HW116439   3.484   1.317   9.275  0.1232  0.6454  0.7598
 1601SOL    HW216440   3.337   1.311   9.302  1.0700  0.3331  1.2941
 1602SOL     OW16441   2.738   4.571  10.881  0.2977 -0.3125 -0.6687
 1602SOL    HW116442   2.763   4.484  10.912  1.3425  0.2866  0.1695
 1602SOL    HW216443   2.678   4.604  10.947  2.0818  1.6177 -0.0132
 1603SOL     OW16444   2.396   1.657   0.536 -0.0397  0.3549  0.0582
 1603SOL    HW116445   2.321   1.647   0.476 -1.1881 -1.4927  1.7935
 1603SOL    HW216446   2.425   1.566   0.539  0.1182  0.3981 -0.1533
 1604SOL     OW16447   0.372   0.233  16.243 -0.2491 -0.6561  0.1599
 1604SOL    HW116448   0.439   0.165  16.241  1.2157  0.7452  1.8532
 1604SOL    HW216449   0.377   0.253  16.336  1.4987  0.7043 -0.2381
 1605SOL     OW16450   4.689   1.053   5.867  0.0026  0.0627  0.1676
 1605SOL    HW116451   4.643   0.995   5.806 -1.8824 -2.1503  3.6903
 1605SOL    HW216452   4.619   1.085   5.923  1.3812  2.3788  0.5808
 1606SOL     OW16453   1.652   1.032   4.663 -0.4663  0.0952  0.7373
 1606SOL    HW116454   1.611   1.112   4.630 -0.9641  0.5718  2.4731
 1606SOL    HW216455   1.742   1.059   4.681 -0.6302 -0.3977  2.2837
 1607SOL     OW16456   0.715   2.924   7.994 -0.5403 -0.1388 -0.7324
 1607SOL    HW116457   0.694   2.831   7.991 -0.0184 -0.2046 -2.4485
 1607SOL    HW216458   0.810   2.920   7.985 -0.4414  2.2980 -0.7971
 1608SOL     OW16459   0.405   2.723   4.180 -0.6074 -0.5808 -0.7657
 1608SOL    HW116460   0.415   2.676   4.097  1.2796 -0.9380 -0.3551
 1608SOL    HW216461   0.497   2.731   4.207 -1.7599 -0.7065  3.1325
 1609SOL     OW16462   2.728   0.485   7.846  0.1056 -0.4932  0.4127
 1609SOL    HW116463   2.710   0.577   7.866 -1.9268 -0.3699 -1.9019
 1609SOL    HW216464   2.758   0.493   7.755  1.1830  0.4812  0.8653
 1610SOL     OW16465   2.018   4.068   4.561 -0.4342 -0.1920 -0.8322
 1610SOL    HW116466   1.959   4.059   4.486  0.0018  2.3973 -1.5151
 1610SOL    HW216467   1.997   4.155   4.594  0.9173  0.2005 -0.9986
 1611SOL     OW16468   3.150   0.758   7.753 -0.0877 -0.3323  0.4527
 1611SOL    HW116469   3.125   0.688   7.693 -0.6317 -0.5781  0.9612
 1611SOL    HW216470   3.101   0.837   7.728  1.3643  0.1709 -0.7657
 1612SOL     OW16471   0.197   1.344   8.685 -0.6396 -0.0888 -0.0551
 1612SOL    HW116472   0.237   1.331   8.598  0.0848  1.9058 -0.0140
 1612SOL    HW216473   0.159   1.432   8.681  0.6106  0.5125  1.5981
 1613SOL     OW16474   3.364   4.547   7.311 -0.1356 -0.4538  0.0037
 1613SOL    HW116475   3.298   4.563   7.243  0.8358  0.8931 -0.6032
 1613SOL    HW216476   3.297   4.544   7.380  0.8492 -2.3595  0.8775
 1614SOL     OW16477   1.771   0.218   8.383 -0.6148  0.5222  0.5043
 1614SOL    HW116478   1.813   0.280   8.442  1.6700 -0.4332 -0.1252
 1614SOL    HW216479   1.731   0.155   8.444 -0.1814 -0.4556 -0.2175
 1615SOL     OW16480   4.028   3.777   1.788  0.1226  0.3587 -0.0842
 1615SOL    HW116481   3.996   3.750   1.702 -1.4992 -0.3155  0.7311
 1615SOL    HW216482   3.971   3.724   1.842  1.2846 -2.1357 -1.3114
 1616SOL     OW16483   1.311   2.779   7.997  0.0021 -0.5111 -0.3370
 1616SOL    HW116484   1.387   2.817   7.954 -1.0770  3.0659  0.9413
 1616SOL    HW216485   1.344   2.694   8.026  0.1040 -0.3685 -0.0396
 1617SOL     OW16486   3.919   0.001   8.716 -0.1593  0.2740 -0.5855
 1617SOL    HW116487   3.851   4.738   8.783  1.4741 -2.0194  0.9387
 1617SOL    HW216488   3.878   4.711   8.635 -0.2775 -1.4016  0.1121
 1618SOL     OW16489   0.940   3.707   8.488  0.2412  0.6109  0.5519
 1618SOL    HW116490   0.907   3.716   8.399 -0.4671  1.0902  0.8664
 1618SOL    HW216491   1.031   3.679   8.487  0.4241  1.2124  0.8291
 1619SOL     OW16492   1.848   2.609  17.155 -0.8876  0.4260 -0.4555
 1619SOL    HW116493   1.925   2.632  17.208 -2.2323  0.0705  1.6583
 1619SOL    HW216494   1.856   2.666  17.079  1.8444 -1.5513 -1.6447
 1620SOL     OW16495   4.044   1.857   0.948 -0.0716  0.1767  0.0183
 1620SOL    HW116496   4.041   1.917   0.873 -0.3010 -2.0630 -1.7726
 1620SOL    HW216497   3.984   1.904   1.006 -1.3474 -0.3843 -0.8457
 1621SOL     OW16498   0.586   0.797   8.890 -0.0434  0.0086  0.3697
 1621SOL    HW116499   0.658   0.759   8.840  0.1370 -0.2254  0.8138
 1621SOL    HW216500   0.553   0.728   8.947 -0.2419  1.1558  1.6372
 1622SOL     OW16501   1.005   0.894   0.596  0.7970  0.5983 -0.4625
 1622SOL    HW116502   0.987   0.806   0.627 -0.9600  0.2935 -2.3468
 1622SOL    HW216503   1.004   0.880   0.501  0.4116  0.2348 -0.4039
 1623SOL     OW16504   4.447   0.622   5.552 -0.0394 -0.3722  0.0701
 1623SOL    HW116505   4.537   0.632   5.581 -0.6999 -0.2020  2.0901
 1623SOL    HW216506   4.452   0.579   5.467 -1.6853  0.0747 -0.2595
 1624SOL     OW16507   2.361   0.342   4.610  0.0129  0.2331  0.2171
 1624SOL    HW116508   2.315   0.402   4.668 -0.6385  0.3811 -0.4508
 1624SOL    HW216509   2.288   0.315   4.555 -1.1173 -0.9330  2.2724
 1625SOL     OW16510   2.164   4.704   8.751  0.5069  0.4702  0.1254
 1625SOL    HW116511   2.190   0.003   8.668 -3.0491  1.8124 -0.3137
 1625SOL    HW216512   2.146   0.044   8.798  2.1358  0.1183  1.3771
 1626SOL     OW16513   1.197   3.219   6.851  0.2770  0.4540 -0.0894
 1626SOL    HW116514   1.127   3.209   6.915 -1.4221  2.6375 -1.5838
 1626SOL    HW216515   1.190   3.313   6.834  0.8539  1.0449  2.8699
 1627SOL     OW16516   0.380   2.261   1.792 -0.4836 -0.4971  0.1351
 1627SOL    HW116517   0.327   2.206   1.735  0.1401 -1.2976  0.3255
 1627SOL    HW216518   0.456   2.287   1.739 -0.0640 -1.5608  0.2278
 1628SOL     OW16519   3.560   1.076   4.437 -0.0479 -0.1216 -0.3823
 1628SOL    HW116520   3.630   1.071   4.501 -0.4122  0.7766  0.0825
 1628SOL    HW216521   3.487   1.063   4.497 -0.2384  0.9954 -0.3757
 1629SOL     OW16522   4.415   1.725   5.780  0.2629  0.1436 -0.1987
 1629SOL    HW116523   4.352   1.654   5.768 -0.5868  0.9238 -0.3290
 1629SOL    HW216524   4.493   1.671   5.796  0.3416  0.1360 -0.6077
 1630SOL     OW16525   1.604   2.874   6.884  0.3884 -0.1875 -0.7121
 1630SOL    HW116526   1.621   2.858   6.791 -0.9918 -1.2418 -0.7929
 1630SOL    HW216527   1.647   2.957   6.902 -0.6097 -0.3988  2.6019
 1631SOL     OW16528   3.571   2.253  17.036  0.3618 -0.2169  0.5916
 1631SOL    HW116529   3.581   2.260  16.941 -0.2757  1.8903  0.6821
 1631SOL    HW216530   3.583   2.345  17.061 -1.2441 -0.2871  1.5922
 1632SOL     OW16531   4.113   3.423   2.862 -0.1887 -0.0057 -0.0067
 1632SOL    HW116532   4.060   3.374   2.924  0.1200 -1.7779 -1.1282
 1632SOL    HW216533   4.176   3.355   2.840  0.3113 -0.0876  1.6884
 1633SOL     OW16534   3.369   3.076   3.315  0.4668 -0.6013 -0.0603
 1633SOL    HW116535   3.391   3.008   3.251 -0.1894 -0.3298 -0.5646
 1633SOL    HW216536   3.448   3.130   3.309 -0.0044  0.3118  1.7780
 1634SOL     OW16537   1.274   2.948   7.323  0.3702 -0.6633 -0.1724
 1634SOL    HW116538   1.298   2.983   7.237 -1.3907 -1.2149 -0.8776
 1634SOL    HW216539   1.319   3.010   7.382 -0.2716  1.2357 -1.6809
 1635SOL     OW16540   4.515   3.834  14.548 -0.4198 -0.1693 -0.5563
 1635SOL    HW116541   4.516   3.914  14.600  0.3323 -0.6934  0.2225
 1635SOL    HW216542   4.485   3.868  14.463  0.4379 -0.3353 -0.9215
 1636SOL     OW16543   2.753   3.568  16.233  0.7238  0.2291  0.2354
 1636SOL    HW116544   2.798   3.490  16.200 -2.7342 -1.4555 -0.5349
 1636SOL    HW216545   2.802   3.593  16.311  3.2894 -2.0464 -0.6348
 1637SOL     OW16546   1.171   4.382   0.790  0.0501  0.0079  0.5434
 1637SOL    HW116547   1.091   4.432   0.803 -0.0729  0.2794 -1.2706
 1637SOL    HW216548   1.157   4.350   0.701  0.4900  1.3102  0.0029
 1638SOL     OW16549   3.151   2.883  16.688 -0.8135 -0.5567 -0.2623
 1638SOL    HW116550   3.074   2.939  16.684 -0.3797  0.0030 -0.8650
 1638SOL    HW216551   3.203   2.924  16.758 -1.8722 -0.2862  0.3730
 1639SOL     OW16552   0.254   1.008  11.733 -0.3834 -0.7189 -0.4552
 1639SOL    HW116553   0.196   1.071  11.776 -1.0667 -1.6982  0.0878
 1639SOL    HW216554   0.196   1.000  11.657  0.9219 -1.1454 -1.4129
 1640SOL     OW16555   0.069   1.756   7.893  0.3114 -0.1519  0.0167
 1640SOL    HW116556   0.008   1.829   7.889 -0.9887 -1.2350  0.0608
 1640SOL    HW216557   0.065   1.726   7.802 -1.8795 -1.4232  0.5318
 1641SOL     OW16558   1.048   1.647   7.700  0.2726 -0.0170 -0.2922
 1641SOL    HW116559   0.985   1.575   7.696  1.0283 -0.7631  1.4652
 1641SOL    HW216560   1.012   1.692   7.776  1.4493  1.0809 -0.3844
 1642SOL     OW16561   0.784   4.171   4.410  0.0304  0.2404 -0.2738
 1642SOL    HW116562   0.818   4.113   4.479 -1.5714 -1.3845 -0.8359
 1642SOL    HW216563   0.746   4.107   4.350  0.4474  0.9999 -1.3426
 1643SOL     OW16564   2.116   3.071   1.815 -0.4388 -0.2846  0.0940
 1643SOL    HW116565   2.105   2.980   1.791 -1.4487 -0.2657  0.4876
 1643SOL    HW216566   2.027   3.106   1.817  0.8893  3.1483 -0.3736
 1644SOL     OW16567   1.409   3.516   4.327 -0.3914  0.5876 -0.0810
 1644SOL    HW116568   1.416   3.452   4.397  1.9735  1.2096  0.2368
 1644SOL    HW216569   1.434   3.463   4.252  2.9790  0.3955  1.1942
 1645SOL     OW16570   3.496   3.453  15.349  0.0215 -0.2805 -0.3794
 1645SOL    HW116571   3.523   3.545  15.340  0.7473 -0.3467  1.1504
 1645SOL    HW216572   3.494   3.430  15.442 -1.3233  1.4069  0.0106
 1646SOL     OW16573   0.114   1.499   9.258  0.3165 -0.0863  0.2891
 1646SOL    HW116574   0.161   1.569   9.303  0.8622 -1.4678  1.8770
 1646SOL    HW216575   0.178   1.429   9.275  2.1071  1.8432  1.4163
 1647SOL     OW16576   2.083   1.513   5.159  0.0655  0.1849  0.3589
 1647SOL    HW116577   1.995   1.547   5.149  0.4341  1.4757  1.4549
 1647SOL    HW216578   2.054   1.431   5.199  1.7490 -0.7374 -0.2983
 1648SOL     OW16579   1.197   2.230  12.327 -0.2585  0.3491  0.5714
 1648SOL    HW116580   1.118   2.190  12.364 -0.4976 -1.8870 -2.3092
 1648SOL    HW216581   1.257   2.156  12.336 -2.0534 -1.1862  0.0426
 1649SOL     OW16582   1.127   1.703   5.840  0.0727 -0.0662  0.5044
 1649SOL    HW116583   1.191   1.665   5.780  1.1433  2.0500  0.2840
 1649SOL    HW216584   1.052   1.662   5.798  0.8001 -0.5729 -0.2818
 1650SOL     OW16585   2.021   0.980   8.698 -0.4003 -0.2457 -0.5768
 1650SOL    HW116586   2.100   0.982   8.645 -0.0856 -1.0611 -0.1235
 1650SOL    HW216587   1.971   0.904   8.668  1.1374 -1.5060  0.0967
 1651SOL     OW16588   1.687   3.637   6.635  0.3983  0.0074 -0.4706
 1651SOL    HW116589   1.624   3.597   6.575 -1.1376  1.3735  0.2089
 1651SOL    HW216590   1.679   3.725   6.597 -5.5856 -0.8168 -1.1023
 1652SOL     OW16591   0.161   4.366   9.992  0.2901 -0.3412 -0.0558
 1652SOL    HW116592   0.081   4.400   9.953  1.2733 -0.0830 -1.8711
 1652SOL    HW216593   0.172   4.296   9.927 -1.3123 -0.0217 -0.6782
 1653SOL     OW16594   2.844   0.408  13.502  0.4219 -0.8842 -0.3372
 1653SOL    HW116595   2.931   0.390  13.537  0.0722 -1.3754  0.2861
 1653SOL    HW216596   2.791   0.362  13.568 -3.1383  2.2131 -1.0033
 1654SOL     OW16597   4.707   0.271   7.739  0.7729 -0.2511  0.2209
 1654SOL    HW116598   0.041   0.217   7.764  0.2673 -1.4106 -0.7839
 1654SOL    HW216599   4.659   0.200   7.696  0.3629 -0.5001  1.0898
 1655SOL     OW16600   1.790   4.350  14.026  0.1407 -0.3139 -0.3022
 1655SOL    HW116601   1.877   4.390  14.020  1.4445 -3.1536 -0.0749
 1655SOL    HW216602   1.793   4.289  14.099  1.0159 -0.3873 -0.3951
 1656SOL     OW16603   2.639   4.418  13.050 -0.4475 -0.1373  0.2260
 1656SOL    HW116604   2.699   4.357  13.008 -2.1028  0.0595 -2.3899
 1656SOL    HW216605   2.668   4.427  13.141  2.3682 -0.1514 -0.6833
 1657SOL     OW16606   0.743   3.318   5.518 -0.2889 -0.0358 -0.5113
 1657SOL    HW116607   0.718   3.337   5.608 -1.0456 -0.8943 -0.5460
 1657SOL    HW216608   0.746   3.222   5.520  0.4136  0.0398  1.7910
 1658SOL     OW16609   0.659   2.988   5.244  0.0201  0.0714 -0.7028
 1658SOL    HW116610   0.693   2.973   5.332 -2.0729  1.1404  0.2910
 1658SOL    HW216611   0.615   3.073   5.245 -0.2614 -0.1222  2.4319
 1659SOL     OW16612   3.938   0.310   5.673 -0.4267 -0.1841 -0.2892
 1659SOL    HW116613   3.926   0.228   5.626 -1.3081 -0.7658  0.9766
 1659SOL    HW216614   3.971   0.275   5.755 -2.4334 -0.9368  0.2095
 1660SOL     OW16615   3.872   0.118   4.971  0.2837 -0.3447  0.1332
 1660SOL    HW116616   3.915   0.147   5.051 -0.1666  0.6639  0.0137
 1660SOL    HW216617   3.900   0.190   4.914  0.8940 -1.3250 -0.8129
 1661SOL     OW16618   3.882   1.850   7.498  0.0922  0.0500 -0.0856
 1661SOL    HW116619   3.862   1.898   7.418 -1.6945 -0.9494 -0.2459
 1661SOL    HW216620   3.976   1.834   7.497  0.2374  0.9438 -0.7250
 1662SOL     OW16621   3.332   3.757   4.673  0.2020 -0.5457 -0.4970
 1662SOL    HW116622   3.306   3.844   4.643 -0.1838 -0.9581 -1.3511
 1662SOL    HW216623   3.424   3.766   4.699  0.0465 -1.6814  0.4811
 1663SOL     OW16624   0.029   0.836   7.596  0.0665 -0.1142  0.6821
 1663SOL    HW116625   4.740   0.768   7.657 -0.1334  0.0801  0.8020
 1663SOL    HW216626   4.702   0.903   7.604 -0.3418 -0.3613 -0.6436
 1664SOL     OW16627   0.411   2.983  17.088  0.4521 -0.1142 -0.2713
 1664SOL    HW116628   0.435   2.927  17.014 -2.4991 -1.3278 -0.3367
 1664SOL    HW216629   0.476   2.951  17.150  0.3168 -1.1967 -0.6930
 1665SOL     OW16630   1.765   4.485   9.045 -0.4405  0.4871  0.1462
 1665SOL    HW116631   1.830   4.501   8.976 -0.5158 -0.8654 -0.2427
 1665SOL    HW216632   1.817   4.476   9.125 -1.1803  0.8801  0.6774
 1666SOL     OW16633   0.875   0.025  14.983 -0.5772  0.5559 -0.4470
 1666SOL    HW116634   0.894   0.084  14.910  3.0826  0.5258  0.4695
 1666SOL    HW216635   0.928   4.689  14.960 -1.5527 -0.1473 -0.3435
 1667SOL     OW16636   2.961   0.780   4.905 -0.3915 -0.2175  0.3073
 1667SOL    HW116637   2.969   0.828   4.822 -0.2753 -0.1724  0.3445
 1667SOL    HW216638   3.045   0.738   4.924 -1.1103 -1.4212  0.8201
 1668SOL     OW16639   3.411   1.164  10.925 -0.5094  0.1149 -0.0363
 1668SOL    HW116640   3.380   1.220  10.853 -0.6055  0.7146  0.4699
 1668SOL    HW216641   3.502   1.163  10.895 -0.7348 -1.0182 -0.6948
 1669SOL     OW16642   3.032   3.706   2.756 -0.6101 -0.5821  0.1365
 1669SOL    HW116643   3.033   3.788   2.805  1.5229 -0.2490 -0.4465
 1669SOL    HW216644   2.974   3.654   2.812 -1.9380  0.0532 -0.6715
 1670SOL     OW16645   0.729   0.593   7.645  0.9802  0.1359  0.0183
 1670SOL    HW116646   0.745   0.599   7.739  3.4456  0.0050 -0.3821
 1670SOL    HW216647   0.670   0.519   7.641  4.1876 -2.5123  2.1102
 1671SOL     OW16648   1.306   4.469   9.046 -0.2823 -0.2448 -0.3572
 1671SOL    HW116649   1.315   4.387   9.095 -2.1862  1.5379  2.9769
 1671SOL    HW216650   1.389   4.510   9.070 -0.1239  0.1703 -1.6171
 1672SOL     OW16651   4.499   4.134   6.362 -0.0368 -0.0238  0.6635
 1672SOL    HW116652   4.570   4.128   6.299  0.2175 -1.3168  1.0811
 1672SOL    HW216653   4.544   4.166   6.440  1.1149  1.7732 -0.7336
 1673SOL     OW16654   2.457   1.191   8.073 -0.4703 -0.6134 -0.5215
 1673SOL    HW116655   2.453   1.096   8.076  0.6843 -0.5649  3.0793
 1673SOL    HW216656   2.434   1.209   8.164 -0.8243  2.9399 -1.2914
 1674SOL     OW16657   2.544   1.281  12.249 -0.3778  0.1705 -0.2573
 1674SOL    HW116658   2.544   1.198  12.201 -1.0871  0.5530 -0.9122
 1674SOL    HW216659   2.604   1.330  12.192  1.7479 -1.5556  0.4868
 1675SOL     OW16660   4.379   4.649   2.584  0.6324  0.1623 -0.5235
 1675SOL    HW116661   4.364   4.560   2.554  2.5809 -0.0542 -0.8368
 1675SOL    HW216662   4.415   4.687   2.504 -2.2953 -1.5275 -2.6429
 1676SOL     OW16663   1.021   2.425   5.758 -0.1572 -0.6552 -0.2500
 1676SOL    HW116664   1.014   2.478   5.678  0.8045  2.4381  1.7137
 1676SOL    HW216665   0.964   2.468   5.822  0.4885  0.5440 -0.4653
 1677SOL     OW16666   4.737   4.582   3.482 -0.0643 -0.2503  0.3355
 1677SOL    HW116667   4.725   4.513   3.547 -0.9551 -1.2339 -0.8763
 1677SOL    HW216668   4.700   4.529   3.412 -0.3698  1.1395 -0.5587
 1678SOL     OW16669   1.171   0.339   8.188 -0.5379  0.1906 -0.7929
 1678SOL    HW116670   1.126   0.355   8.270 -0.2013 -0.2177 -0.5269
 1678SOL    HW216671   1.157   0.244   8.182  1.2189 -0.1971  1.1906
 1679SOL     OW16672   4.057   4.041   2.573  0.2780 -0.4864 -0.8199
 1679SOL    HW116673   4.058   3.950   2.544  2.0089 -1.3723  2.0846
 1679SOL    HW216674   4.025   4.036   2.663  1.6525  1.1163 -0.2514
 1680SOL     OW16675   2.289   1.548   9.467  1.0154  0.1474 -0.4795
 1680SOL    HW116676   2.228   1.612   9.503  0.6473  0.0504 -0.9295
 1680SOL    HW216677   2.242   1.465   9.476 -0.3218  1.0324  0.6428
 1681SOL     OW16678   2.770   2.258   1.392  0.0549  0.2712  0.4079
 1681SOL    HW116679   2.850   2.206   1.383 -0.9668 -1.0785 -1.0144
 1681SOL    HW216680   2.724   2.209   1.460 -0.2754  0.4012  0.2818
 1682SOL     OW16681   3.471   3.773   8.290  0.0311 -0.1424 -0.0709
 1682SOL    HW116682   3.444   3.843   8.348  0.4642  0.4506 -0.5893
 1682SOL    HW216683   3.496   3.829   8.216  2.4657 -0.9107  0.1564
 1683SOL     OW16684   3.216   0.627   9.401  0.5918  0.3002  0.3010
 1683SOL    HW116685   3.156   0.661   9.468  0.4392 -1.2514  0.9561
 1683SOL    HW216686   3.290   0.592   9.450  1.2637  0.4998 -0.5719
 1684SOL     OW16687   3.579   0.313  15.130  0.2152 -0.8252 -0.4313
 1684SOL    HW116688   3.508   0.255  15.158  0.6108 -0.5106  1.2263
 1684SOL    HW216689   3.655   0.256  15.146  0.1546  0.2837  3.6271
 1685SOL     OW16690   0.091   1.640  11.525 -0.2791  0.7010 -0.0812
 1685SOL    HW116691   0.094   1.727  11.486  0.4705  0.5549 -0.3633
 1685SOL    HW216692   0.121   1.658  11.614  2.2422 -0.2421 -0.7440
 1686SOL     OW16693   4.639   0.194  12.779 -0.0530 -0.1201 -0.3825
 1686SOL    HW116694   4.648   0.103  12.807  1.7321 -0.1321 -1.0632
 1686SOL    HW216695   4.625   0.184  12.685  0.5675 -1.1589 -0.3625
 1687SOL     OW16696   2.055   2.372   1.687 -0.4514 -0.0704  0.3723
 1687SOL    HW116697   2.134   2.425   1.678 -2.5121  2.7387 -1.1775
 1687SOL    HW216698   2.081   2.320   1.763  0.6173  0.9148  0.6846
 1688SOL     OW16699   1.162   1.638   3.527  0.5046 -0.3328  0.0182
 1688SOL    HW116700   1.077   1.657   3.565  1.1855  0.7195  1.0061
 1688SOL    HW216701   1.197   1.593   3.604 -1.1594  1.2826  1.6990
 1689SOL     OW16702   4.122   0.490   4.211 -0.2115 -0.3868 -0.1869
 1689SOL    HW116703   4.149   0.408   4.171 -1.3800 -0.5188 -0.7265
 1689SOL    HW216704   4.052   0.510   4.149 -0.7495 -2.1518 -0.1508
 1690SOL     OW16705   3.422   0.691   9.233 -0.1583  0.1601  0.5315
 1690SOL    HW116706   3.438   0.785   9.228  0.0486  0.1217  0.5069
 1690SOL    HW216707   3.336   0.693   9.276 -1.0707 -1.7607 -1.1797
 1691SOL     OW16708   3.694   0.298   3.017 -0.1983  0.1609 -0.1476
 1691SOL    HW116709   3.749   0.232   3.058 -0.7691  0.1676  0.6257
 1691SOL    HW216710   3.725   0.369   3.073 -0.4483  0.7225 -0.7112
 1692SOL     OW16711   2.414   3.779  14.761  0.0689 -0.2314 -0.3239
 1692SOL    HW116712   2.510   3.773  14.757  0.0259 -1.6577  0.7899
 1692SOL    HW216713   2.389   3.720  14.690 -0.9305  0.7684 -0.8028
 1693SOL     OW16714   2.129   4.313   2.081 -0.1386  0.3700 -0.5432
 1693SOL    HW116715   2.199   4.286   2.022 -1.5928 -1.3869 -1.4449
 1693SOL    HW216716   2.174   4.387   2.123 -0.2543  1.0738 -1.6646
 1694SOL     OW16717   3.890   1.658   8.621  0.2181  0.1211 -0.3315
 1694SOL    HW116718   3.873   1.675   8.528 -0.3910 -0.4092 -0.3162
 1694SOL    HW216719   3.824   1.589   8.630  0.3752  0.0775  0.4592
 1695SOL     OW16720   0.208   3.747   8.004 -0.9570 -0.1264  0.5141
 1695SOL    HW116721   0.303   3.755   8.011 -0.9875 -0.9593  2.0197
 1695SOL    HW216722   0.186   3.689   8.077  5.2913 -2.7256  0.3294
 1696SOL     OW16723   0.436   2.808  12.392 -0.1087 -0.0835 -0.5900
 1696SOL    HW116724   0.394   2.829  12.309 -1.0804 -1.1616 -0.3687
 1696SOL    HW216725   0.495   2.741  12.359  1.6739  1.0352  0.3044
 1697SOL     OW16726   3.859   2.804   7.471 -0.0616  0.4783 -0.2150
 1697SOL    HW116727   3.800   2.846   7.533 -0.3642  0.1709 -0.2992
 1697SOL    HW216728   3.931   2.784   7.532  0.6099 -0.5828 -1.3619
 1698SOL     OW16729   0.560   1.247   8.102 -0.3011  0.3842 -0.3732
 1698SOL    HW116730   0.506   1.305   8.049  0.0471  0.6743 -0.4123
 1698SOL    HW216731   0.517   1.164   8.082 -1.0456  0.5089  0.7138
 1699SOL     OW16732   3.293   3.725   2.707 -0.2839 -0.0168 -0.3686
 1699SOL    HW116733   3.205   3.688   2.699  0.6497 -1.8663 -1.8273
 1699SOL    HW216734   3.313   3.753   2.618  1.0052 -1.2323 -0.4664
 1700SOL     OW16735   0.588   1.030   9.667  0.4280  0.0170 -0.4687
 1700SOL    HW116736   0.585   0.949   9.616  1.3524  0.4163 -1.1616
 1700SOL    HW216737   0.637   1.088   9.608 -0.1539  1.5722  0.5598
 1701SOL     OW16738   1.866   4.548  14.840 -0.4416  0.5144 -0.3510
 1701SOL    HW116739   1.825   4.616  14.786  0.4560 -0.1100 -1.8214
 1701SOL    HW216740   1.922   4.596  14.901  2.8439 -0.2251 -2.7783
 1702SOL     OW16741   0.015   3.779  14.970 -0.3875 -0.2870  0.1173
 1702SOL    HW116742   0.107   3.804  14.980 -0.7698  0.7774  0.9589
 1702SOL    HW216743   4.735   3.777  15.063 -0.9160  1.8066  0.0486
 1703SOL     OW16744   4.081   2.291   8.444 -0.1909 -0.0531  0.4275
 1703SOL    HW116745   4.071   2.302   8.539  0.8797  0.6007  0.4702
 1703SOL    HW216746   4.053   2.380   8.423 -0.0897  0.3193  1.8485
 1704SOL     OW16747   0.129   3.375  12.571  0.5066  0.4876 -0.3091
 1704SOL    HW116748   0.160   3.298  12.523 -0.8883  0.7660 -1.6606
 1704SOL    HW216749   0.213   3.406  12.605  0.4737 -1.0522  1.1797
 1705SOL     OW16750   1.411   0.380   8.759  0.2235  0.0652 -1.2141
 1705SOL    HW116751   1.353   0.304   8.754  2.0985 -1.4853  0.3532
 1705SOL    HW216752   1.484   0.334   8.800  0.7749  0.9319 -1.2491
 1706SOL     OW16753   4.448   4.189  15.849 -0.4482  0.3410  0.0772
 1706SOL    HW116754   4.454   4.105  15.805  0.0816 -0.2882  1.3530
 1706SOL    HW216755   4.478   4.247  15.779  0.7693 -1.0315 -0.5450
 1707SOL     OW16756   0.575   3.590   3.555  0.1550  0.2789  0.0114
 1707SOL    HW116757   0.549   3.632   3.637 -1.3047  0.3305 -0.4786
 1707SOL    HW216758   0.669   3.578   3.571  0.2432 -2.0253 -2.0525
 1708SOL     OW16759   0.107   1.093   8.828 -0.2679  0.0913 -0.2926
 1708SOL    HW116760   0.132   1.059   8.914 -1.3687 -0.8699 -0.3653
 1708SOL    HW216761   0.095   1.184   8.858  0.9777  0.1744 -0.0189
 1709SOL     OW16762   4.142   4.551   8.203  0.2227 -0.3504 -0.3591
 1709SOL    HW116763   4.132   4.493   8.278 -1.1710  1.6383  1.0026
 1709SOL    HW216764   4.050   4.559   8.179  0.1162  1.7015  0.6425
 1710SOL     OW16765   2.864   0.871   3.365 -0.0698  0.3364  0.8265
 1710SOL    HW116766   2.881   0.777   3.371  0.6351  0.3396 -0.9347
 1710SOL    HW216767   2.797   0.879   3.297  0.6995 -0.4806 -0.0263
 1711SOL     OW16768   4.289   1.662   6.741 -0.5022  0.5355 -0.6602
 1711SOL    HW116769   4.285   1.706   6.656  1.3308 -0.4249 -1.2378
 1711SOL    HW216770   4.373   1.616   6.736 -1.0571 -0.4121 -1.2442
 1712SOL     OW16771   3.011   3.387   6.904  0.1099 -0.0002 -0.2830
 1712SOL    HW116772   2.921   3.364   6.882 -0.8752  1.5280  2.1643
 1712SOL    HW216773   3.034   3.429   6.821 -0.1859 -0.6691 -0.7060
 1713SOL     OW16774   3.416   2.506   6.083  0.5167  0.0040 -0.1072
 1713SOL    HW116775   3.476   2.438   6.053  1.5919  1.4101 -1.1085
 1713SOL    HW216776   3.352   2.465   6.141 -1.2167 -2.0067 -3.4396
 1714SOL     OW16777   0.651   2.725   8.446 -0.2370  0.1077  0.0586
 1714SOL    HW116778   0.696   2.809   8.438  1.1568 -0.9346 -2.9322
 1714SOL    HW216779   0.562   2.748   8.473 -0.8885 -0.1698 -1.8522
 1715SOL     OW16780   4.719   1.682  13.661 -0.5440 -0.2374 -0.0577
 1715SOL    HW116781   4.725   1.695  13.566 -0.3972  0.3366  0.0289
 1715SOL    HW216782   4.626   1.663  13.670 -0.8356  1.4500  0.5069
 1716SOL     OW16783   0.444   0.043   6.545  0.0108  0.4082  0.5420
 1716SOL    HW116784   0.415   0.090   6.466  0.2635  1.6756  1.2185
 1716SOL    HW216785   0.364   0.031   6.597  0.0124  0.6743  0.6058
 1717SOL     OW16786   3.766   4.357   9.542 -0.4456 -0.4159  0.4031
 1717SOL    HW116787   3.696   4.308   9.585 -0.4408 -1.3247 -0.6186
 1717SOL    HW216788   3.729   4.340   9.455 -0.2452 -1.2627  0.4859
 1718SOL     OW16789   4.338   4.243   8.681 -0.1664  0.4140 -0.3921
 1718SOL    HW116790   4.344   4.223   8.774 -1.6004  0.7571 -0.2359
 1718SOL    HW216791   4.357   4.336   8.671  0.8712  0.2531  0.0207
 1719SOL     OW16792   3.924   1.358   9.381  1.1877  0.5869 -0.6683
 1719SOL    HW116793   4.014   1.325   9.373  0.9916 -0.9702  3.3632
 1719SOL    HW216794   3.936   1.418   9.454 -0.8154  0.6387 -0.3706
 1720SOL     OW16795   4.153   0.876   3.991 -0.3024  0.2410  0.0062
 1720SOL    HW116796   4.137   0.901   3.899  0.7668 -0.3309 -0.3322
 1720SOL    HW216797   4.083   0.911   4.046 -0.5167 -0.7141  0.3325
 1721SOL     OW16798   0.625   2.837   7.729 -0.1194  0.0457 -0.5266
 1721SOL    HW116799   0.682   2.899   7.775 -0.8665 -0.2859  0.8669
 1721SOL    HW216800   0.637   2.760   7.785  0.2490  0.0972 -0.5385
 1722SOL     OW16801   1.946   3.091   4.745 -0.5331  0.0221 -0.1971
 1722SOL    HW116802   1.996   3.153   4.692  0.5176 -0.7320 -0.0916
 1722SOL    HW216803   1.867   3.136   4.775  2.0414  2.7838  2.3739
 1723SOL     OW16804   4.717   0.019   3.695 -0.6551 -0.1425  0.0834
 1723SOL    HW116805   0.003   4.685   3.641 -0.1355 -0.5058  0.8472
 1723SOL    HW216806   0.061   0.060   3.713 -0.3107 -1.1825  0.8327
 1724SOL     OW16807   1.260   1.938   7.452  0.2226  0.0725  0.0662
 1724SOL    HW116808   1.311   1.897   7.522  0.2955  2.1032  1.2132
 1724SOL    HW216809   1.203   1.865   7.428 -0.8524  0.4190  1.5150
 1725SOL     OW16810   1.386   3.943   4.952  0.3580  0.3119  0.8386
 1725SOL    HW116811   1.347   3.955   5.039  0.1546 -0.6346  0.8733
 1725SOL    HW216812   1.468   3.992   4.959 -0.4736  1.5626  2.0472
 1726SOL     OW16813   3.775   3.934   6.485  0.1689 -0.0942 -0.1060
 1726SOL    HW116814   3.808   3.855   6.528 -1.5531 -0.2651  0.8893
 1726SOL    HW216815   3.684   3.904   6.482 -0.6765  2.5441 -0.5228
 1727SOL     OW16816   4.409   3.064   1.358  0.6596 -0.1650 -0.3349
 1727SOL    HW116817   4.432   3.065   1.265 -1.3912 -0.5950 -0.8529
 1727SOL    HW216818   4.314   3.072   1.349  0.7326 -0.7751 -1.6514
 1728SOL     OW16819   2.813   2.691  12.302  0.3638  1.3673 -0.1887
 1728SOL    HW116820   2.719   2.701  12.316  0.1076 -0.4441 -0.5101
 1728SOL    HW216821   2.833   2.783  12.316 -2.3372  2.2719 -2.1868
 1729SOL     OW16822   1.569   3.923   2.728 -1.5157 -0.0180  0.3651
 1729SOL    HW116823   1.559   3.840   2.682 -2.6784  0.2690  0.0826
 1729SOL    HW216824   1.664   3.929   2.723 -1.6869  1.7809 -0.7170
 1730SOL     OW16825   0.541   4.686   1.770  0.4198 -0.4155 -0.1988
 1730SOL    HW116826   0.620   4.632   1.777  0.2791 -0.4731  1.0455
 1730SOL    HW216827   0.535   4.729   1.855 -1.6232 -2.2255  0.5855
 1731SOL     OW16828   0.267   4.452   5.831 -0.6107  0.2827 -0.3839
 1731SOL    HW116829   0.327   4.526   5.820  2.4525 -2.5834 -2.9448
 1731SOL    HW216830   0.313   4.391   5.889 -1.8430  0.2577  0.5623
 1732SOL     OW16831   4.006   2.752   0.804  0.3613 -0.0531  0.8460
 1732SOL    HW116832   4.012   2.681   0.868 -1.0451  0.0228  1.0745
 1732SOL    HW216833   4.087   2.737   0.756 -2.1414 -0.5315 -3.2285
 1733SOL     OW16834   2.144   0.669  12.574  0.4667 -0.1113  0.0750
 1733SOL    HW116835   2.155   0.699  12.484  1.6194  0.3278  0.3681
 1733SOL    HW216836   2.095   0.587  12.570  0.4045  0.0155 -1.6834
 1734SOL     OW16837   2.407   1.875  15.474  0.0824  0.0974  0.1214
 1734SOL    HW116838   2.473   1.892  15.406  0.6677  0.3922  0.7581
 1734SOL    HW216839   2.358   1.958  15.471 -0.0713 -0.0086 -0.3838
 1735SOL     OW16840   0.819   2.300  15.610  0.1665 -0.0976  0.2613
 1735SOL    HW116841   0.724   2.301  15.614  0.1402 -1.1046 -0.0986
 1735SOL    HW216842   0.837   2.389  15.643  2.6433 -0.1143 -1.0065
 1736SOL     OW16843   2.489   4.410   2.384 -0.5409 -0.8053  0.0158
 1736SOL    HW116844   2.474   4.408   2.478  2.6290 -0.3771  0.5208
 1736SOL    HW216845   2.579   4.444   2.383 -1.6980  2.2698  1.2474
 1737SOL     OW16846   3.541   2.293   4.469 -0.4524  0.3443  0.7288
 1737SOL    HW116847   3.621   2.344   4.484 -1.0455  1.6152 -0.4425
 1737SOL    HW216848   3.572   2.207   4.498  0.2463  0.8210  1.4023
 1738SOL     OW16849   0.090   0.489   2.796 -0.0496 -0.0391 -0.0280
 1738SOL    HW116850   0.038   0.556   2.841 -0.3194 -0.1561 -0.1669
 1738SOL    HW216851   0.072   0.508   2.704  2.8348  0.4902 -0.4851
 1739SOL     OW16852   0.133   2.474  15.229  0.0933 -0.4483  0.2142
 1739SOL    HW116853   0.080   2.543  15.191 -0.4715  0.2468  2.2289
 1739SOL    HW216854   0.160   2.431  15.148  3.1306  0.5139  0.7195
 1740SOL     OW16855   3.961   2.819   8.795 -0.7245  0.0314  0.4768
 1740SOL    HW116856   3.885   2.871   8.823  0.0700  0.5561  1.6466
 1740SOL    HW216857   4.039   2.865   8.825  0.5355 -2.2066  0.5959
 1741SOL     OW16858   4.718   2.443  16.321 -0.0564  0.3849  0.2377
 1741SOL    HW116859   0.034   2.499  16.374 -0.5911 -0.7200  1.9869
 1741SOL    HW216860   4.643   2.446  16.380 -1.2439  2.6404 -1.3782
 1742SOL     OW16861   0.123   0.973   4.466  0.2417 -0.1083  0.0262
 1742SOL    HW116862   0.141   1.067   4.465 -2.5381  0.3874 -2.2402
 1742SOL    HW216863   0.133   0.957   4.372 -1.6671  2.4514 -0.6201
 1743SOL     OW16864   1.575   1.170   8.741  0.2671  0.2715  0.2817
 1743SOL    HW116865   1.571   1.161   8.836 -1.9396  1.8207  0.3267
 1743SOL    HW216866   1.671   1.170   8.734  0.3487 -2.4887  1.1723
 1744SOL     OW16867   0.618   3.505   0.752  0.3171  0.3288 -0.0353
 1744SOL    HW116868   0.580   3.496   0.665 -1.1815  0.8827  0.5466
 1744SOL    HW216869   0.708   3.481   0.734 -0.8839 -3.6353 -0.7250
 1745SOL     OW16870   2.647   2.074   5.944  0.1531  0.3502 -0.5895
 1745SOL    HW116871   2.648   1.979   5.956 -0.2980  0.4575  0.2839
 1745SOL    HW216872   2.626   2.085   5.851  2.6400 -1.2578 -1.3241
 1746SOL     OW16873   0.396   0.869   3.267  0.2428 -0.6607  0.0001
 1746SOL    HW116874   0.435   0.858   3.180 -1.0767 -2.3661 -0.3722
 1746SOL    HW216875   0.433   0.954   3.291  0.7120 -0.7121 -0.5524
 1747SOL     OW16876   1.727   0.828   6.920 -0.0792  0.6101 -0.1178
 1747SOL    HW116877   1.653   0.881   6.950 -0.0668 -0.1800  1.3280
 1747SOL    HW216878   1.750   0.877   6.842  0.8491 -1.5795 -1.2307
 1748SOL     OW16879   0.860   3.447  12.077 -0.2991 -0.0715 -0.0436
 1748SOL    HW116880   0.945   3.483  12.052  1.0396 -3.8799 -0.9906
 1748SOL    HW216881   0.891   3.414  12.161  0.6153 -1.3244 -0.8718
 1749SOL     OW16882   3.387   3.137   9.925  0.8027 -0.4059 -0.2621
 1749SOL    HW116883   3.416   3.158  10.013  2.8431  0.4865 -1.1424
 1749SOL    HW216884   3.299   3.174   9.923  1.0780  0.1937 -1.7519
 1750SOL     OW16885   3.690   2.984   3.312 -0.0963  0.3229 -0.2009
 1750SOL    HW116886   3.694   2.898   3.269  0.9847  0.5954 -0.6339
 1750SOL    HW216887   3.695   3.043   3.238 -1.6261  0.1378 -0.4549
 1751SOL     OW16888   4.403   4.232   3.246  0.4798 -0.0778  0.0325
 1751SOL    HW116889   4.319   4.278   3.242 -0.7610 -2.5136 -2.4453
 1751SOL    HW216890   4.456   4.293   3.195 -1.4393 -0.1573 -2.1125
 1752SOL     OW16891   3.363   2.469   5.338 -0.1982 -0.1109  0.2623
 1752SOL    HW116892   3.419   2.545   5.351  4.6088 -3.7743  1.0123
 1752SOL    HW216893   3.280   2.517   5.331 -0.3241 -0.3736 -0.0732
 1753SOL     OW16894   2.561   1.241   3.816 -0.5309  0.3037 -0.1601
 1753SOL    HW116895   2.487   1.295   3.842 -0.1448 -0.4675  2.5071
 1753SOL    HW216896   2.530   1.152   3.831  1.0334 -0.6476 -2.5817
 1754SOL     OW16897   1.791   0.998  16.170  0.5925  0.0786  0.3504
 1754SOL    HW116898   1.816   1.021  16.259 -0.9319  0.7562  0.5935
 1754SOL    HW216899   1.751   1.081  16.144 -1.0089 -0.8530 -0.1691
 1755SOL     OW16900   1.702   0.568   4.023  0.8671  0.2870  0.0482
 1755SOL    HW116901   1.710   0.483   3.980 -1.7552 -0.2838  0.6488
 1755SOL    HW216902   1.632   0.612   3.974 -0.1227  0.2412  1.4221
 1756SOL     OW16903   4.530   1.895   7.007 -0.0524  0.6838 -0.1846
 1756SOL    HW116904   4.581   1.969   7.041  1.2249  0.4737 -1.6292
 1756SOL    HW216905   4.460   1.941   6.960 -0.9792 -0.4578  0.0690
 1757SOL     OW16906   2.379   4.485  13.071 -0.1410  0.5992  0.3422
 1757SOL    HW116907   2.469   4.457  13.059  0.1972  2.6111 -1.9384
 1757SOL    HW216908   2.374   4.508  13.164 -2.2795 -0.7237  0.5517
 1758SOL     OW16909   4.427   1.531   6.068 -0.3113  0.4125  0.2293
 1758SOL    HW116910   4.516   1.499   6.079  0.2878  1.8579 -0.3989
 1758SOL    HW216911   4.429   1.600   6.134  0.8970 -1.1396  1.8141
 1759SOL     OW16912   1.833   2.596   5.974  0.1627 -0.0806 -0.2754
 1759SOL    HW116913   1.811   2.678   6.019  1.5132  0.8040 -1.2216
 1759SOL    HW216914   1.779   2.546   6.036  0.0075 -0.3231 -0.6085
 1760SOL     OW16915   1.368   1.676   2.471 -0.2391 -0.0347 -0.2428
 1760SOL    HW116916   1.343   1.760   2.509  0.6787  0.2411 -0.2326
 1760SOL    HW216917   1.313   1.608   2.508  3.5813 -1.9194  1.9154
 1761SOL     OW16918   4.422   3.096  15.216  0.0288 -0.3920 -0.1481
 1761SOL    HW116919   4.418   3.110  15.121 -3.6057  1.1418  0.2601
 1761SOL    HW216920   4.461   3.174  15.255 -1.7313 -0.2655  1.3485
 1762SOL     OW16921   4.617   4.608  10.170 -0.0226  0.1390 -0.3327
 1762SOL    HW116922   4.704   4.648  10.174 -0.1202  0.2688  0.4949
 1762SOL    HW216923   4.603   4.585  10.262  0.4660  2.9185  0.4343
 1763SOL     OW16924   1.812   0.622   1.384 -0.0929  0.0339 -0.5785
 1763SOL    HW116925   1.822   0.530   1.408 -3.0011  0.5313  2.4852
 1763SOL    HW216926   1.888   0.637   1.328 -0.1991  0.8200 -0.5196
 1764SOL     OW16927   4.731   0.815   5.316  0.1415  0.5039  0.5149
 1764SOL    HW116928   4.703   0.873   5.245  2.4744  2.0405  0.8641
 1764SOL    HW216929   0.072   0.847   5.355  0.8287 -1.9582  1.1232
 1765SOL     OW16930   1.168   2.047   6.799 -0.4013 -0.7246  0.5298
 1765SOL    HW116931   1.089   2.095   6.823  0.8592  1.7870 -0.2970
 1765SOL    HW216932   1.189   2.095   6.719  0.5452  0.8473  1.7178
 1766SOL     OW16933   1.158   3.882   2.669 -0.4583  0.0334  0.2762
 1766SOL    HW116934   1.210   3.862   2.592 -0.3013  0.5958  0.2330
 1766SOL    HW216935   1.223   3.881   2.739  2.7242 -0.4815 -2.6972
 1767SOL     OW16936   0.690   0.479   3.269  0.1774  0.2008  0.4712
 1767SOL    HW116937   0.667   0.565   3.304 -2.6080 -0.2961 -0.1386
 1767SOL    HW216938   0.720   0.498   3.180 -0.8964 -0.3787 -0.0184
 1768SOL     OW16939   2.748   3.683   8.387 -0.6875 -0.2555  0.3013
 1768SOL    HW116940   2.796   3.750   8.436 -1.4293  0.7087 -0.2743
 1768SOL    HW216941   2.815   3.670   8.320  2.0798  1.0469  2.8133
 1769SOL     OW16942   2.028   0.038   3.008 -0.5206  0.2874  0.5203
 1769SOL    HW116943   2.123   0.044   3.004 -0.5901  0.3636 -0.8082
 1769SOL    HW216944   2.008   4.728   2.930 -2.1607  1.5540  0.1177
 1770SOL     OW16945   0.683   4.314   6.641 -0.1086  0.5661  0.0387
 1770SOL    HW116946   0.762   4.329   6.588  1.0644 -0.8083  1.4097
 1770SOL    HW216947   0.635   4.394   6.621 -1.4405  0.0161  1.0404
 1771SOL     OW16948   4.672   4.423   9.842  0.5350  0.0063 -0.1301
 1771SOL    HW116949   4.633   4.504   9.808 -1.9147 -0.4553  1.5965
 1771SOL    HW216950   4.622   4.358   9.793  1.7487 -1.2386  0.2947
 1772SOL     OW16951   0.065   4.412  10.874 -0.0566  0.5046 -0.0743
 1772SOL    HW116952   0.153   4.426  10.907 -0.2782 -2.2094  1.6255
 1772SOL    HW216953   0.024   4.473  10.935 -0.1794 -1.1344  1.4668
 1773SOL     OW16954   4.032   1.900   9.117  0.1026  0.2341  0.1037
 1773SOL    HW116955   4.017   1.811   9.085 -1.5625 -0.0413  1.6758
 1773SOL    HW216956   4.120   1.888   9.151 -0.1810 -1.5983  0.1804
 1774SOL     OW16957   0.204   0.044   1.909 -0.0682 -0.4931 -0.1208
 1774SOL    HW116958   0.182   0.086   1.825  1.2309  0.1004 -0.1541
 1774SOL    HW216959   0.201   4.694   1.877  1.5338 -0.7301  0.4313
 1775SOL     OW16960   2.652   1.216   9.372 -0.0164  0.3870 -0.4333
 1775SOL    HW116961   2.610   1.297   9.402 -2.0606 -0.7469 -0.2364
 1775SOL    HW216962   2.731   1.249   9.329 -1.5989  0.4867 -3.2582
 1776SOL     OW16963   2.088   2.717  16.060 -0.0232  0.3691 -0.8901
 1776SOL    HW116964   2.149   2.745  16.129 -2.0040  0.5899  0.7781
 1776SOL    HW216965   2.119   2.629  16.041 -0.2210  0.1710 -0.3043
 1777SOL     OW16966   2.814   1.579   4.067  0.3146 -0.1817 -0.0486
 1777SOL    HW116967   2.908   1.565   4.058  0.4882  0.2326  1.1179
 1777SOL    HW216968   2.779   1.492   4.046 -2.3774  0.8209  0.2743
 1778SOL     OW16969   4.121   0.184   8.676 -0.4791 -0.0997 -0.4900
 1778SOL    HW116970   4.163   0.172   8.761  0.3223  1.4336 -0.6751
 1778SOL    HW216971   4.044   0.130   8.693 -0.0990  0.0447  1.6314
 1779SOL     OW16972   4.146   1.090   3.760  0.0379 -0.3044 -0.7759
 1779SOL    HW116973   4.179   1.073   3.672  1.1264 -2.9601  0.1467
 1779SOL    HW216974   4.096   1.171   3.752 -0.5381 -0.5747  0.0332
 1780SOL     OW16975   2.010   1.864   1.816  0.2443 -0.2182 -0.0858
 1780SOL    HW116976   1.949   1.799   1.851 -1.4434  1.3898 -0.0361
 1780SOL    HW216977   2.054   1.896   1.895 -0.6341 -0.1672  0.3931
 1781SOL     OW16978   1.252   3.342   3.088 -0.1455 -0.1162  0.4060
 1781SOL    HW116979   1.212   3.309   3.008  0.8092  0.8680 -0.4724
 1781SOL    HW216980   1.328   3.283   3.086 -0.3001 -0.3102  0.1547
 1782SOL     OW16981   4.591   2.113  12.795  0.1385 -0.1342 -0.2917
 1782SOL    HW116982   4.628   2.201  12.791 -0.7941  0.3171  0.7729
 1782SOL    HW216983   4.608   2.090  12.704 -0.6461 -0.5343 -0.3339
 1783SOL     OW16984   4.316   1.373   3.629  0.2924 -0.5802  0.6869
 1783SOL    HW116985   4.320   1.340   3.719  0.9938 -0.1111  0.8271
 1783SOL    HW216986   4.242   1.433   3.636 -0.7363 -1.8955  1.1301
 1784SOL     OW16987   1.477   1.310   4.912  0.1030 -0.5197 -0.2842
 1784SOL    HW116988   1.403   1.315   4.852 -0.6723 -1.8508  0.5501
 1784SOL    HW216989   1.469   1.216   4.933 -2.2929  0.0934  1.6192
 1785SOL     OW16990   3.898   1.164   6.271  0.4377  0.7109  0.0399
 1785SOL    HW116991   3.958   1.149   6.344  0.9583  0.7364 -0.3883
 1785SOL    HW216992   3.953   1.131   6.201 -0.7158 -0.9624 -0.0780
 1786SOL     OW16993   2.464   3.995   9.596 -0.2901 -0.1173 -0.0433
 1786SOL    HW116994   2.468   3.960   9.685  1.7485 -1.0840 -0.5023
 1786SOL    HW216995   2.407   4.072   9.597  1.0670  0.8873 -0.3162
 1787SOL     OW16996   2.406   1.006   8.944  0.5730  0.0349 -0.3311
 1787SOL    HW116997   2.469   1.073   8.970  0.9727 -0.7511  0.7468
 1787SOL    HW216998   2.408   0.952   9.023  0.0796 -0.4962 -0.6872
 1788SOL     OW16999   0.040   3.547   2.846 -0.4481 -0.4277  0.0523
 1788SOL    HW117000   0.040   3.458   2.810 -2.4525 -0.5741  0.4457
 1788SOL    HW217001   0.054   3.527   2.939 -1.2189 -1.9871 -0.1681
 1789SOL     OW17002   3.707   3.235  15.555  0.2012  0.2498 -0.1905
 1789SOL    HW117003   3.742   3.241  15.466 -1.9199  0.6670 -0.9900
 1789SOL    HW217004   3.612   3.229  15.547  0.2847  0.9128 -1.5865
 1790SOL     OW17005   2.525   3.168  15.051  0.0194 -0.0460  0.0319
 1790SOL    HW117006   2.468   3.112  14.998 -0.3991  0.0836  0.3444
 1790SOL    HW217007   2.600   3.113  15.074  1.3645  1.1550 -1.4873
 1791SOL     OW17008   4.095   1.310   5.240  0.7372 -0.1661 -0.2353
 1791SOL    HW117009   4.152   1.387   5.250 -0.0180  0.1526  1.6282
 1791SOL    HW217010   4.162   1.251   5.273 -0.6792 -1.4860  0.2561
 1792SOL     OW17011   2.204   4.194  14.836  0.3841 -0.1576 -0.0716
 1792SOL    HW117012   2.112   4.215  14.819  0.5966  0.9056  0.0560
 1792SOL    HW217013   2.231   4.254  14.906  0.9928 -0.9067  0.3384
 1793SOL     OW17014   0.501   2.510   1.601  0.3374  0.1896  0.7785
 1793SOL    HW117015   0.407   2.524   1.594  0.4461  0.7239  0.4376
 1793SOL    HW217016   0.530   2.587   1.650 -2.0906  1.8737 -0.4694
 1794SOL     OW17017   0.695   1.187   1.940  0.3797 -0.5068 -0.0515
 1794SOL    HW117018   0.746   1.228   1.870 -0.1252  1.6080  0.8219
 1794SOL    HW217019   0.691   1.265   1.996 -1.1843 -0.9885  0.5189
 1795SOL     OW17020   2.535   4.157   6.488  0.2563  0.2177  0.3435
 1795SOL    HW117021   2.629   4.141   6.493  0.3252  1.0117  1.4657
 1795SOL    HW217022   2.507   4.078   6.535  1.4154 -1.0735 -1.0991
 1796SOL     OW17023   0.867   0.548   5.134  0.0104  0.6184 -0.5087
 1796SOL    HW117024   0.859   0.619   5.198 -0.8836 -0.3021  0.4116
 1796SOL    HW217025   0.904   0.594   5.059  2.1573  0.6152  0.5539
 1797SOL     OW17026   3.104   1.874   1.881 -0.2383  0.5623 -0.2037
 1797SOL    HW117027   3.040   1.804   1.896  0.7568  0.0548  1.6124
 1797SOL    HW217028   3.145   1.837   1.803 -0.5477  0.6906 -0.4314
 1798SOL     OW17029   2.975   1.038   2.754  0.2658 -0.8330  0.7472
 1798SOL    HW117030   2.949   1.121   2.795  0.4855  0.5990 -2.0216
 1798SOL    HW217031   2.960   0.980   2.829  0.0638 -0.8888  0.6638
 1799SOL     OW17032   0.982   0.620   3.317  0.2836  0.3491 -0.0596
 1799SOL    HW117033   0.997   0.609   3.411  0.3972 -0.5033 -0.1818
 1799SOL    HW217034   0.887   0.634   3.307  0.1025 -2.6656 -2.4277
 1800SOL     OW17035   3.089   3.236   3.696 -0.1296  0.4874  0.4462
 1800SOL    HW117036   3.026   3.283   3.641  0.3502 -1.4943 -1.7796
 1800SOL    HW217037   3.163   3.272   3.646  0.0713  1.3961  1.4036
 1801SOL     OW17038   0.179   1.095   0.961 -0.0070  0.6279 -0.4804
 1801SOL    HW117039   0.240   1.050   0.903  0.5965  1.8271 -0.7760
 1801SOL    HW217040   0.234   1.112   1.037 -2.0914 -1.2775  1.4389
 1802SOL     OW17041   0.015   3.857   3.701 -0.3863  0.2151 -0.0754
 1802SOL    HW117042   4.678   3.829   3.749  0.4689  0.9074  1.7239
 1802SOL    HW217043   0.076   3.794   3.738 -1.9084 -3.2134 -3.3985
 1803SOL     OW17044   0.126   1.237  11.824 -0.1446  0.6621 -0.0882
 1803SOL    HW117045   0.195   1.291  11.785  0.2280  1.1258  1.2287
 1803SOL    HW217046   0.138   1.257  11.916 -2.1892 -2.5258  0.8813
 1804SOL     OW17047   1.300   4.509   3.475  0.2776 -0.3089  0.5046
 1804SOL    HW117048   1.283   4.518   3.381 -0.3714 -2.6200  0.4104
 1804SOL    HW217049   1.387   4.468   3.474  0.1344 -0.6197  1.0731
 1805SOL     OW17050   1.442   2.675   4.745 -0.7442 -0.4688  0.3210
 1805SOL    HW117051   1.435   2.657   4.651  0.6284  0.9278 -0.0514
 1805SOL    HW217052   1.459   2.769   4.749  0.0535 -0.5106 -2.0151
 1806SOL     OW17053   3.463   0.587   2.425 -0.0926  0.3282  0.3939
 1806SOL    HW117054   3.513   0.546   2.496  1.9426 -0.3382 -1.4625
 1806SOL    HW217055   3.493   0.536   2.350  0.3715 -2.0416  2.1668
 1807SOL     OW17056   2.502   0.922   5.591  0.2349 -0.0717  0.0116
 1807SOL    HW117057   2.468   0.988   5.651  0.1665  1.1023 -1.3041
 1807SOL    HW217058   2.598   0.923   5.598  0.1582 -0.3925  1.0115
 1808SOL     OW17059   4.635   2.922   7.529  0.1023 -0.3460  0.5556
 1808SOL    HW117060   4.627   3.016   7.510  4.5936 -0.0825 -0.0072
 1808SOL    HW217061   4.603   2.928   7.619 -1.5567  1.1630 -0.1161
 1809SOL     OW17062   1.262   4.190   5.169 -0.5159  1.0729 -0.7943
 1809SOL    HW117063   1.357   4.194   5.159 -0.2819  0.3986  1.1569
 1809SOL    HW217064   1.239   4.098   5.178 -0.4123  1.4024  2.7464
 1810SOL     OW17065   1.053   3.362  12.223  0.3633 -0.0085  0.6442
 1810SOL    HW117066   1.098   3.292  12.175 -1.0352 -0.9734  0.7429
 1810SOL    HW217067   1.110   3.373  12.299 -2.2798  0.4136  2.5574
 1811SOL     OW17068   0.177   3.073  17.207  0.2884  0.1692 -0.0178
 1811SOL    HW117069   0.251   3.062  17.147  0.1974  2.3671 -0.5560
 1811SOL    HW217070   0.221   3.067  17.292 -0.1965  0.0614  0.2255
 1812SOL     OW17071   0.125   2.495   0.808 -0.0958  0.0437  0.2997
 1812SOL    HW117072   0.043   2.492   0.760  0.7028  0.7125 -1.1008
 1812SOL    HW217073   0.167   2.420   0.766  1.0067  0.6110  0.3684
 1813SOL     OW17074   1.422   0.370   3.755  0.4571 -0.5309 -0.1748
 1813SOL    HW117075   1.438   0.319   3.676  0.7320 -0.8406  0.0787
 1813SOL    HW217076   1.343   0.336   3.797  1.3947 -1.1162  1.1083
 1814SOL     OW17077   0.768   1.385  14.691 -0.4745 -0.0714  0.1822
 1814SOL    HW117078   0.789   1.460  14.636  2.1855 -0.5947  0.4582
 1814SOL    HW217079   0.766   1.418  14.781 -1.7298 -0.0685  0.1483
 1815SOL     OW17080   2.589   3.929  17.336 -0.4125  0.4889  0.2517
 1815SOL    HW117081   2.498   3.919  17.307 -0.2443 -2.1061  0.6776
 1815SOL    HW217082   2.627   3.872  17.269  0.0853  0.5426  0.4925
 1816SOL     OW17083   1.904   3.304   4.103  0.3675 -0.3252 -0.6030
 1816SOL    HW117084   1.839   3.332   4.038 -0.1272  1.0406  0.4981
 1816SOL    HW217085   1.918   3.383   4.155  4.2144 -0.7560 -0.9867
 1817SOL     OW17086   4.334   0.240   8.463  0.2350 -0.3873  0.1132
 1817SOL    HW117087   4.337   0.152   8.427 -1.5158 -0.2295 -0.4683
 1817SOL    HW217088   4.264   0.237   8.529  0.0070 -0.6864 -0.1449
 1818SOL     OW17089   4.189   3.712  12.150 -0.6805  0.0513  0.2958
 1818SOL    HW117090   4.231   3.715  12.064 -0.0692 -1.8731  0.5337
 1818SOL    HW217091   4.258   3.729  12.215  1.8399 -0.8615 -2.1300
 1819SOL     OW17092   0.261   1.217   7.046 -0.2924  0.5474 -0.0096
 1819SOL    HW117093   0.290   1.136   7.003 -2.2489  0.1957 -0.6870
 1819SOL    HW217094   0.285   1.201   7.137  1.8838 -2.6299 -1.1574
 1820SOL     OW17095   3.614   1.945   3.366  0.2699  0.6697  0.5251
 1820SOL    HW117096   3.710   1.938   3.365  0.1749 -0.5385 -1.5611
 1820SOL    HW217097   3.610   2.021   3.307  0.3539  2.3550  2.7225
 1821SOL     OW17098   3.658   4.688   4.090  0.2650 -0.9606 -0.0632
 1821SOL    HW117099   3.681   0.018   4.029  1.4845 -1.1487  0.1688
 1821SOL    HW217100   3.599   4.725   4.155  0.1607 -0.8359 -0.2310
 1822SOL     OW17101   0.402   3.749  11.090  0.2975  0.0311 -0.4180
 1822SOL    HW117102   0.332   3.763  11.155  0.8797  0.7012  0.0731
 1822SOL    HW217103   0.463   3.699  11.145  0.2618  1.4907  0.9567
 1823SOL     OW17104   2.779   1.238   4.894  0.7461  0.2748 -0.3125
 1823SOL    HW117105   2.711   1.201   4.951 -0.2433  2.3592 -0.1185
 1823SOL    HW217106   2.817   1.166   4.845  1.4112 -0.2866  1.0136
 1824SOL     OW17107   2.159   2.012   8.462 -0.1002  0.5161  0.3931
 1824SOL    HW117108   2.125   1.947   8.525  2.1860  0.9696  2.0912
 1824SOL    HW217109   2.219   2.063   8.515  1.2259  0.4604 -1.0704
 1825SOL     OW17110   2.338   3.675   2.160 -0.3038  0.6106 -0.3674
 1825SOL    HW117111   2.306   3.643   2.076  1.9815  1.3907 -1.5022
 1825SOL    HW217112   2.377   3.757   2.131  0.8368  0.2170  0.0420
 1826SOL     OW17113   1.434   2.561  11.592 -0.3913  0.3633 -0.1435
 1826SOL    HW117114   1.510   2.541  11.646 -0.8006  0.5625  0.5004
 1826SOL    HW217115   1.373   2.564  11.666 -0.9975  0.0056 -0.6260
 1827SOL     OW17116   2.454   0.558   4.381 -0.5876 -0.2593  0.0287
 1827SOL    HW117117   2.402   0.572   4.460 -1.0767 -0.3917 -0.2670
 1827SOL    HW217118   2.400   0.482   4.360  1.8269 -1.7487 -0.8465
 1828SOL     OW17119   2.981   3.272   6.177  0.3962  0.1520  0.4279
 1828SOL    HW117120   2.933   3.329   6.117  1.5801  0.3422 -0.3559
 1828SOL    HW217121   2.976   3.183   6.144  1.7526  0.5000 -0.7372
 1829SOL     OW17122   3.595   4.706   8.300 -0.3242  0.2598 -0.3239
 1829SOL    HW117123   3.557   4.632   8.347 -0.2988  0.1602 -0.4581
 1829SOL    HW217124   3.562   0.042   8.345 -0.3313  0.0828 -0.0257
 1830SOL     OW17125   0.113   1.330   9.008 -0.5987  0.0486  0.4237
 1830SOL    HW117126   0.178   1.301   9.072  2.3320  1.5823 -1.8574
 1830SOL    HW217127   0.087   1.403   9.064  3.4751  0.0099  2.3521
 1831SOL     OW17128   4.721   3.129   5.668 -0.2727 -0.2853 -0.1693
 1831SOL    HW117129   4.711   3.054   5.610 -0.2490  0.8259 -1.6168
 1831SOL    HW217130   4.631   3.132   5.700  0.2064  1.0887  1.0968
 1832SOL     OW17131   1.410   4.478   3.918 -0.1285  0.2704 -0.1382
 1832SOL    HW117132   1.322   4.440   3.913  0.8272 -1.8587 -0.7231
 1832SOL    HW217133   1.462   4.407   3.956 -0.7684 -0.4278 -0.5709
 1833SOL     OW17134   3.057   0.027   9.292 -0.0558  0.8767 -0.7626
 1833SOL    HW117135   2.999   4.697   9.264 -0.7360  1.3960 -0.6750
 1833SOL    HW217136   2.990   0.095   9.292 -0.9563  0.0005  0.2789
 1834SOL     OW17137   3.793   0.172   7.002  0.0325  0.2559  0.2613
 1834SOL    HW117138   3.880   0.189   7.039  0.6913  1.9435 -2.1117
 1834SOL    HW217139   3.741   0.246   7.034 -0.4012 -1.1745  2.8858
 1835SOL     OW17140   3.744   3.705  13.501  0.0652  0.1224 -0.0283
 1835SOL    HW117141   3.692   3.785  13.496 -1.2962 -1.0636 -4.1430
 1835SOL    HW217142   3.769   3.698  13.409  0.5603  2.2619 -0.0515
 1836SOL     OW17143   2.853   1.785  16.853 -0.2851  0.2838 -0.0710
 1836SOL    HW117144   2.848   1.881  16.858 -2.0039  0.1584  0.6477
 1836SOL    HW217145   2.924   1.778  16.916  0.5015  0.4281 -0.9392
 1837SOL     OW17146   1.636   0.966   1.665  0.0901  0.5232  0.5121
 1837SOL    HW117147   1.719   0.969   1.617  0.7473  0.3166  1.6595
 1837SOL    HW217148   1.636   0.892   1.725 -1.5288 -0.9752 -1.3383
 1838SOL     OW17149   3.305   1.356   2.719  0.2808  0.0062  0.1111
 1838SOL    HW117150   3.216   1.367   2.688 -0.0647 -0.5667  0.8715
 1838SOL    HW217151   3.354   1.332   2.640 -1.9430  0.1916 -1.3078
 1839SOL     OW17152   3.638   2.818   9.251  0.2711  0.2153  0.0701
 1839SOL    HW117153   3.605   2.886   9.191 -1.0022 -1.8333 -1.5781
 1839SOL    HW217154   3.704   2.777   9.196  0.0056 -0.8199  0.5203
 1840SOL     OW17155   1.856   1.854   0.483  0.2407  0.5687  0.2225
 1840SOL    HW117156   1.793   1.784   0.465 -1.0926  2.0394 -0.8008
 1840SOL    HW217157   1.796   1.926   0.500 -0.5095  0.1005 -0.4206
 1841SOL     OW17158   3.017   3.514   7.714  0.3616 -0.1690 -0.6747
 1841SOL    HW117159   3.089   3.574   7.734  1.8220 -2.2740  0.4131
 1841SOL    HW217160   3.010   3.502   7.619  4.9591 -0.3705 -1.0000
 1842SOL     OW17161   0.360   0.057  10.366 -0.5192  0.1403  0.4127
 1842SOL    HW117162   0.320   0.134  10.324 -0.0722  0.3539  0.3752
 1842SOL    HW217163   0.309   4.721  10.342 -1.2001  0.3499  1.1719
 1843SOL     OW17164   3.162   4.320   4.333 -0.3141  0.6855 -0.0411
 1843SOL    HW117165   3.150   4.412   4.309 -0.7894  0.4917 -0.5326
 1843SOL    HW217166   3.252   4.324   4.364 -0.2529 -0.8234 -0.0336
 1844SOL     OW17167   1.751   3.306  14.751  0.2433 -0.2524 -0.8655
 1844SOL    HW117168   1.741   3.367  14.677  2.6635  1.1117 -0.0859
 1844SOL    HW217169   1.835   3.337  14.785  2.7001 -2.9255 -4.4509
 1845SOL     OW17170   1.530   2.306  16.459  0.2065  0.1014 -0.1226
 1845SOL    HW117171   1.514   2.378  16.520 -1.0081 -0.4357  0.1910
 1845SOL    HW217172   1.624   2.293  16.457 -0.1086 -2.0222 -1.2141
 1846SOL     OW17173   3.636   1.240   7.457  0.1958 -0.6650  0.1170
 1846SOL    HW117174   3.727   1.210   7.466  0.1715 -0.8519 -0.2708
 1846SOL    HW217175   3.652   1.335   7.456 -0.4664 -0.5470  1.1521
 1847SOL     OW17176   3.905   3.045   4.670 -0.1485 -0.6338 -0.4710
 1847SOL    HW117177   3.956   3.125   4.679  1.0055 -1.5681  1.2416
 1847SOL    HW217178   3.887   3.011   4.758 -2.6422  1.6062 -0.1182
 1848SOL     OW17179   0.152   1.909   6.555  0.0530 -0.5435  0.3466
 1848SOL    HW117180   0.180   2.001   6.558 -1.5472 -0.0691  0.6755
 1848SOL    HW217181   0.114   1.884   6.639 -0.4915  0.3131  0.3607
 1849SOL     OW17182   1.513   2.460   5.132  0.0800 -0.2718 -0.1239
 1849SOL    HW117183   1.548   2.463   5.043 -1.2137  0.8176 -0.5998
 1849SOL    HW217184   1.418   2.466   5.122 -0.0899 -1.5130  0.7474
 1850SOL     OW17185   1.241   0.186   9.432  0.1005 -0.0722  0.3008
 1850SOL    HW117186   1.152   0.210   9.404  0.7855  0.7949 -1.1545
 1850SOL    HW217187   1.282   0.270   9.454  0.1619 -0.1299  0.4016
 1851SOL     OW17188   4.718   2.197   6.846  0.0559 -0.0879  0.4241
 1851SOL    HW117189   4.663   2.171   6.920  0.2606 -1.7391  0.0034
 1851SOL    HW217190   0.056   2.152   6.877 -1.5244 -1.3367  2.6797
 1852SOL     OW17191   1.836   4.220   1.588  0.2561 -0.7625  0.3592
 1852SOL    HW117192   1.886   4.251   1.512  2.5955  0.2446  2.3340
 1852SOL    HW217193   1.859   4.127   1.597  0.2750 -0.5821  2.0658
 1853SOL     OW17194   0.382   1.407  10.516 -0.1526 -0.6480 -0.1360
 1853SOL    HW117195   0.457   1.452  10.554 -1.3293  1.5462 -0.4306
 1853SOL    HW217196   0.413   1.316  10.516  0.3471 -0.4644 -3.8389
 1854SOL     OW17197   4.258   0.596   8.766  0.2105  0.0016 -0.7531
 1854SOL    HW117198   4.352   0.606   8.781  0.8065 -4.1250 -1.8632
 1854SOL    HW217199   4.236   0.523   8.825  0.7193  1.1295  0.8477
 1855SOL     OW17200   2.305   2.436   5.948 -0.5582  0.3091 -0.7752
 1855SOL    HW117201   2.257   2.442   6.031 -3.2279 -3.1125 -2.0862
 1855SOL    HW217202   2.263   2.364   5.901 -0.8514 -0.5638  0.8345
 1856SOL     OW17203   4.305   1.530  16.431 -0.1784 -0.2170 -0.1349
 1856SOL    HW117204   4.387   1.580  16.432 -2.2826  3.2856 -0.6176
 1856SOL    HW217205   4.335   1.440  16.441  2.7103  0.6023 -1.3948
 1857SOL     OW17206   3.806   4.142   3.662  0.4950  0.4950 -0.7942
 1857SOL    HW117207   3.736   4.090   3.702  2.7100 -0.3968  1.9299
 1857SOL    HW217208   3.813   4.220   3.717 -1.5720 -0.1301  0.3657
 1858SOL     OW17209   4.454   3.175   6.706  0.3498  0.4793 -0.3294
 1858SOL    HW117210   4.520   3.227   6.752 -0.4953  0.0556  1.3480
 1858SOL    HW217211   4.424   3.111   6.771 -0.1100  0.4500 -0.5665
 1859SOL     OW17212   2.688   4.464   7.890  0.3968 -0.1787  0.3588
 1859SOL    HW117213   2.717   4.404   7.958 -0.8188  0.9080  1.8429
 1859SOL    HW217214   2.633   4.516   7.949 -1.8572  0.0681 -1.9328
 1860SOL     OW17215   1.472   2.211  10.663 -0.0608  0.0478  0.0508
 1860SOL    HW117216   1.447   2.190  10.753 -0.0038 -1.2427 -0.2390
 1860SOL    HW217217   1.416   2.280  10.626 -0.6941 -0.6397 -0.2744
 1861SOL     OW17218   0.242   1.151   5.215 -0.2669 -0.4815 -0.3896
 1861SOL    HW117219   0.183   1.225   5.230  2.3602  1.1501  2.0199
 1861SOL    HW217220   0.205   1.120   5.133  0.2444  0.9018 -1.1434
 1862SOL     OW17221   0.492   1.576  10.087 -0.2377  0.1433  0.0826
 1862SOL    HW117222   0.412   1.573  10.034  0.2198  0.4760 -0.6119
 1862SOL    HW217223   0.508   1.670  10.084 -0.2440  0.1520  0.2822
 1863SOL     OW17224   1.855   0.707   9.207  0.0662 -0.0113 -0.4066
 1863SOL    HW117225   1.847   0.647   9.281  0.3171 -1.7953 -1.8021
 1863SOL    HW217226   1.786   0.769   9.228 -0.7993 -1.4621  0.9942
 1864SOL     OW17227   3.548   4.180   2.049 -0.0230 -0.1424  0.1901
 1864SOL    HW117228   3.482   4.216   2.108 -1.2979 -0.5911 -0.9768
 1864SOL    HW217229   3.514   4.092   2.031  0.8706 -0.2478 -1.0173
 1865SOL     OW17230   2.885   2.606  13.628  0.2470 -0.1223  0.0463
 1865SOL    HW117231   2.860   2.514  13.622 -0.6366  0.1154  0.0445
 1865SOL    HW217232   2.925   2.605  13.715 -1.7067  0.1768  0.9470
 1866SOL     OW17233   1.165   4.163   3.204  0.8570  0.2808  0.2062
 1866SOL    HW117234   1.164   4.221   3.128  2.9173  0.2566  0.1732
 1866SOL    HW217235   1.117   4.222   3.263 -2.1131 -0.5577 -1.3416
 1867SOL     OW17236   3.929   3.387   8.540  0.6971  0.4794  0.0106
 1867SOL    HW117237   3.838   3.397   8.513  0.4103 -1.3990  0.3033
 1867SOL    HW217238   3.929   3.427   8.627 -0.0723  0.5660 -0.0314
 1868SOL     OW17239   0.816   1.528   6.470 -0.6739  0.5291 -1.0854
 1868SOL    HW117240   0.777   1.614   6.483 -1.6593 -0.5154  2.6414
 1868SOL    HW217241   0.855   1.549   6.385  0.3459 -3.0161 -1.4702
 1869SOL     OW17242   4.237   2.367   0.643  0.3908  0.0685  0.3293
 1869SOL    HW117243   4.196   2.324   0.718 -0.1071 -2.3412 -1.3135
 1869SOL    HW217244   4.302   2.298   0.629  1.3265  0.8172  0.9683
 1870SOL     OW17245   2.616   0.462   2.045  0.1477 -0.2438 -0.4918
 1870SOL    HW117246   2.624   0.374   2.082 -0.7185 -0.4607 -0.8284
 1870SOL    HW217247   2.665   0.518   2.105 -0.9307 -0.1075  0.2619
 1871SOL     OW17248   0.442   3.606   0.516 -0.6302  0.0870  0.4624
 1871SOL    HW117249   0.438   3.663   0.593 -1.8897  0.6772 -0.0441
 1871SOL    HW217250   0.428   3.674   0.450  1.3119 -0.9696 -1.0617
 1872SOL     OW17251   3.526   2.613   9.406 -0.3922 -0.0404  0.3978
 1872SOL    HW117252   3.439   2.651   9.408 -0.3762  0.0630 -0.8348
 1872SOL    HW217253   3.563   2.680   9.350  1.7463  0.3365  2.2314
 1873SOL     OW17254   4.687   3.417   4.487  0.4074  0.7395  0.5668
 1873SOL    HW117255   4.736   3.364   4.550  0.6177  1.5639  1.1070
 1873SOL    HW217256   4.725   3.390   4.403 -1.0763  0.0588  0.1214
 1874SOL     OW17257   0.078   4.400   7.371  0.0949 -0.2426  0.3705
 1874SOL    HW117258   0.025   4.397   7.292 -0.1105  1.8897  0.4443
 1874SOL    HW217259   0.070   4.309   7.401  0.2212  0.0574  1.3082
 1875SOL     OW17260   3.988   3.163   4.357 -0.6135 -0.0820 -0.8085
 1875SOL    HW117261   3.990   3.190   4.266  0.3327 -2.0163 -1.3568
 1875SOL    HW217262   4.082   3.169   4.374 -0.3136 -0.7338 -2.2653
 1876SOL     OW17263   3.697   3.896   1.199 -0.0074  0.1601  0.6365
 1876SOL    HW117264   3.606   3.915   1.176 -0.5299 -1.4738  1.3581
 1876SOL    HW217265   3.738   3.892   1.112 -0.4757  1.5482  0.3451
 1877SOL     OW17266   4.675   3.314   6.881 -0.1570 -0.3542 -0.1423
 1877SOL    HW117267   4.719   3.294   6.964 -0.8114 -2.2500 -0.2688
 1877SOL    HW217268   4.739   3.336   6.813  0.3773  0.5905  0.6580
 1878SOL     OW17269   0.579   0.221  15.972  0.1894 -0.2206 -0.1552
 1878SOL    HW117270   0.633   0.164  15.918 -0.5540  0.3543 -1.5338
 1878SOL    HW217271   0.538   0.156  16.028 -0.8778 -1.6610 -2.5885
 1879SOL     OW17272   1.743   2.918   1.071  0.0815 -0.3540 -0.0108
 1879SOL    HW117273   1.813   2.906   1.007  0.8731  1.7536  0.4911
 1879SOL    HW217274   1.721   2.824   1.070  0.7055 -0.4990  0.0998
 1880SOL     OW17275   3.285   3.586  10.341  0.1939 -0.3560  0.5123
 1880SOL    HW117276   3.245   3.659  10.294  0.8596  1.7481  3.1515
 1880SOL    HW217277   3.334   3.543  10.272 -0.0004 -1.7997  1.2813
 1881SOL     OW17278   1.999   1.366  12.555  0.0701 -0.4829 -0.2502
 1881SOL    HW117279   2.077   1.316  12.581  1.3846  1.7617  0.1454
 1881SOL    HW217280   2.023   1.458  12.570 -0.8088 -0.2587 -0.1979
 1882SOL     OW17281   0.418   1.538   5.352  0.1979  0.1030 -0.5157
 1882SOL    HW117282   0.402   1.474   5.422  0.7233 -1.9925 -2.3369
 1882SOL    HW217283   0.334   1.580   5.374  1.6265  1.5027  2.2907
 1883SOL     OW17284   2.821   2.654   2.159  0.2699 -0.4742  0.3819
 1883SOL    HW117285   2.829   2.742   2.124 -1.9955  0.3174  1.8575
 1883SOL    HW217286   2.735   2.667   2.198  0.5672  1.2626  0.4249
 1884SOL     OW17287   2.248   3.782   3.097 -0.1843 -0.4135  0.2439
 1884SOL    HW117288   2.158   3.783   3.066  0.3627  0.1438 -1.3327
 1884SOL    HW217289   2.289   3.743   3.019  1.0468  0.8464  0.2513
 1885SOL     OW17290   3.543   2.630  10.765 -0.1454 -0.1785  0.1558
 1885SOL    HW117291   3.524   2.723  10.761  0.1537 -0.0892  0.9386
 1885SOL    HW217292   3.614   2.632  10.829 -0.0774 -1.5271  0.1225
 1886SOL     OW17293   0.991   2.039   7.487 -0.1585 -0.9036 -0.0792
 1886SOL    HW117294   1.085   2.053   7.487 -0.1599 -0.8847  0.2007
 1886SOL    HW217295   0.982   1.944   7.487 -0.5906 -0.8654 -0.4159
 1887SOL     OW17296   0.665   4.544   4.366 -0.5487 -0.0976 -0.4824
 1887SOL    HW117297   0.583   4.520   4.322 -0.3984  0.1268 -0.8916
 1887SOL    HW217298   0.722   4.474   4.333 -1.4048 -0.5710 -0.9826
 1888SOL     OW17299   2.696   1.499   7.071  0.2630 -0.3544  0.1091
 1888SOL    HW117300   2.763   1.480   7.137  1.3366  1.8194 -0.3774
 1888SOL    HW217301   2.736   1.447   7.002  1.0862  0.6772 -0.1919
 1889SOL     OW17302   3.318   0.511   7.017 -0.4696  0.1944  0.3689
 1889SOL    HW117303   3.335   0.450   7.089 -0.4030 -0.2071  0.0086
 1889SOL    HW217304   3.243   0.545   7.065 -2.4451 -1.0648 -1.8525
 1890SOL     OW17305   4.001   2.589   7.658 -0.1829 -0.4536  0.0716
 1890SOL    HW117306   4.079   2.535   7.666  1.0774  1.3239 -0.1664
 1890SOL    HW217307   3.940   2.553   7.722  0.9492  0.3893  1.6111
 1891SOL     OW17308   2.039   0.004   4.535  0.3446 -0.1539  0.9373
 1891SOL    HW117309   2.126   0.014   4.494 -2.1798  2.5927 -3.7727
 1891SOL    HW217310   2.059   4.677   4.600 -0.8402 -1.1777  0.2265
 1892SOL     OW17311   2.018   3.478   9.959 -0.2739 -0.0147 -0.1098
 1892SOL    HW117312   1.992   3.394   9.996  3.5112 -0.1696  2.3304
 1892SOL    HW217313   2.017   3.519  10.046 -2.4214  0.0241 -0.1572
 1893SOL     OW17314   4.185   3.341   7.244  0.2335 -0.8352  0.0003
 1893SOL    HW117315   4.120   3.411   7.233  0.2386 -0.9461 -0.7065
 1893SOL    HW217316   4.153   3.289   7.318  2.0843 -0.4485  1.0795
 1894SOL     OW17317   0.345   2.066  16.559 -0.1531 -0.2486  0.0297
 1894SOL    HW117318   0.422   2.013  16.581  0.0624 -0.4857 -1.2934
 1894SOL    HW217319   0.344   2.058  16.464  1.3330 -0.1522 -0.0026
 1895SOL     OW17320   1.748   0.295   5.548  0.6689  0.2612  0.5034
 1895SOL    HW117321   1.778   0.376   5.589 -1.2370 -0.9411  4.3086
 1895SOL    HW217322   1.824   0.292   5.490  0.0852  1.6184 -0.3169
 1896SOL     OW17323   4.579   1.714   6.758 -0.2902  0.5317  0.6173
 1896SOL    HW117324   4.538   1.736   6.841  0.2029  0.6911  0.8169
 1896SOL    HW217325   4.657   1.770   6.763  0.3275 -0.1571 -1.3013
 1897SOL     OW17326   2.107   1.965   0.480 -0.1364 -0.1697 -0.5466
 1897SOL    HW117327   2.079   2.056   0.491  0.8732 -0.0899  1.3129
 1897SOL    HW217328   2.020   1.927   0.467  0.8512 -2.0372 -1.7380
 1898SOL     OW17329   3.081   3.402   3.469  0.6651  0.2689 -0.0511
 1898SOL    HW117330   3.158   3.420   3.414  0.5119  2.0031  0.3058
 1898SOL    HW217331   3.023   3.472   3.439  0.0114 -1.2704 -2.4263
 1899SOL     OW17332   2.741   2.575   2.949  0.2206 -0.1523  0.1899
 1899SOL    HW117333   2.817   2.603   2.999 -0.2499 -2.3449  2.1679
 1899SOL    HW217334   2.676   2.640   2.975 -1.3610 -0.7998 -2.1033
 1900SOL     OW17335   0.913   1.403   7.696 -0.8612  0.0296 -0.1162
 1900SOL    HW117336   0.860   1.328   7.668  1.8878 -1.5286 -1.1106
 1900SOL    HW217337   0.962   1.355   7.763  1.9941  1.8157 -0.9411
 1901SOL     OW17338   2.395   3.229   8.754 -0.5326  0.3157  0.3429
 1901SOL    HW117339   2.337   3.273   8.691 -1.1266  0.4152  0.9577
 1901SOL    HW217340   2.479   3.229   8.709 -0.3185 -2.1321  0.7669
 1902SOL     OW17341   1.128   2.547   3.958  1.0472  0.2762  0.0427
 1902SOL    HW117342   1.103   2.616   4.019 -0.4837 -2.5462  2.5999
 1902SOL    HW217343   1.207   2.519   4.005 -0.5554  0.1907  2.6555
 1903SOL     OW17344   1.445   1.749   1.021  0.6165  0.1898  0.1624
 1903SOL    HW117345   1.490   1.791   0.947 -1.0725 -1.4919 -1.7949
 1903SOL    HW217346   1.352   1.769   1.011  0.8357  0.1615 -2.0913
 1904SOL     OW17347   0.259   0.020   6.730 -0.0927 -0.0396 -0.3007
 1904SOL    HW117348   0.219   4.724   6.808  0.4188  1.7452  0.7994
 1904SOL    HW217349   0.174   0.015   6.686 -1.0607  2.0008  1.3373
 1905SOL     OW17350   2.185   1.331   4.725 -0.1744 -0.0245  0.1879
 1905SOL    HW117351   2.189   1.322   4.820  0.8027  2.0357  0.3452
 1905SOL    HW217352   2.197   1.238   4.703 -0.6398  0.1452 -0.7940
 1906SOL     OW17353   1.029   1.355  15.003 -0.5393 -0.3684  0.7802
 1906SOL    HW117354   1.061   1.413  14.934  1.0521 -0.6417  1.3035
 1906SOL    HW217355   0.935   1.374  15.009 -0.3212  0.5551  1.2344
 1907SOL     OW17356   1.436   2.152   9.163  0.1207 -0.6366  0.0917
 1907SOL    HW117357   1.360   2.101   9.135  1.4186 -1.6998 -1.5093
 1907SOL    HW217358   1.391   2.228   9.200 -0.1017  0.2236 -1.9506
 1908SOL     OW17359   2.670   0.256  13.290 -0.1153  0.8717  0.4009
 1908SOL    HW117360   2.722   0.321  13.335 -0.9249  1.5918  0.3093
 1908SOL    HW217361   2.619   0.300  13.221 -0.1406 -0.1362 -0.2281
 1909SOL     OW17362   2.922   2.540  10.217 -0.5153  0.5171 -0.3587
 1909SOL    HW117363   2.939   2.627  10.181  1.6808  0.6474  0.9340
 1909SOL    HW217364   2.998   2.535  10.276  0.9635  1.4431 -2.1708
 1910SOL     OW17365   2.613   1.130   8.555  0.0589 -0.2640 -0.3217
 1910SOL    HW117366   2.569   1.114   8.472 -0.4014 -0.4827 -0.0397
 1910SOL    HW217367   2.540   1.176   8.597  0.2794 -0.7387  0.5756
 1911SOL     OW17368   0.503   2.011  17.374  0.3782 -0.4692 -0.5722
 1911SOL    HW117369   0.436   2.073  17.345 -1.4145 -1.4350  1.5716
 1911SOL    HW217370   0.449   1.933  17.365  0.1425 -0.5739  1.6253
 1912SOL     OW17371   2.446   2.470   8.484 -0.6129  0.0775 -0.3147
 1912SOL    HW117372   2.373   2.531   8.476 -0.1658  0.2683 -2.8940
 1912SOL    HW217373   2.403   2.399   8.436  1.3125  0.6289 -2.8671
 1913SOL     OW17374   1.561   1.380   6.032 -0.0946  0.5234  0.4374
 1913SOL    HW117375   1.586   1.438   5.961  0.1970  0.7137  0.6908
 1913SOL    HW217376   1.621   1.306   6.017  0.4522  1.1162 -0.2514
 1914SOL     OW17377   1.019   1.149  13.719 -0.7541 -0.5756 -0.4961
 1914SOL    HW117378   0.970   1.159  13.800  0.0722 -0.2341 -0.0376
 1914SOL    HW217379   1.038   1.056  13.729 -0.0618 -0.5399 -1.4966
 1915SOL     OW17380   4.671   1.565   5.865 -0.3268  0.4388  0.2062
 1915SOL    HW117381   4.637   1.525   5.945  0.2055  0.9750  0.7018
 1915SOL    HW217382   0.024   1.571   5.884 -0.2566 -1.9189  0.6062
 1916SOL     OW17383   2.139   1.595   9.242 -0.0144  0.0454  0.5305
 1916SOL    HW117384   2.166   1.577   9.152 -0.7375  2.1549 -0.1101
 1916SOL    HW217385   2.222   1.578   9.285 -0.4140 -2.4752  0.2959
 1917SOL     OW17386   4.361   3.986   4.029  0.1248 -0.3898 -0.0039
 1917SOL    HW117387   4.355   4.070   3.984 -0.7722  0.1791  1.1625
 1917SOL    HW217388   4.276   3.952   4.001 -1.1100  1.0073  2.1040
 1918SOL     OW17389   2.668   4.261   5.236  0.9283 -0.8431  0.0254
 1918SOL    HW117390   2.703   4.310   5.161 -2.0073  0.3974 -0.5377
 1918SOL    HW217391   2.617   4.191   5.195 -0.2109  0.7548 -1.2823
 1919SOL     OW17392   0.367   1.634  15.112 -0.6669  0.0895 -0.0424
 1919SOL    HW117393   0.457   1.643  15.083 -0.9554 -0.8421 -1.2044
 1919SOL    HW217394   0.309   1.633  15.036 -0.3661  0.7267 -0.2782
 1920SOL     OW17395   0.487   2.394   6.772 -0.1179 -0.2573 -0.2082
 1920SOL    HW117396   0.530   2.432   6.695  0.9033 -2.3615 -0.6540
 1920SOL    HW217397   0.397   2.427   6.768 -0.9646 -2.4950  0.7260
 1921SOL     OW17398   1.779   0.048  14.716  0.5718 -0.6310 -0.3934
 1921SOL    HW117399   1.849   0.111  14.703  1.4702 -1.4981  0.2194
 1921SOL    HW217400   1.705   0.099  14.682 -0.4804  0.1254  2.9972
 1922SOL     OW17401   1.644   0.280   4.677 -0.0579  0.2660  0.1125
 1922SOL    HW117402   1.710   0.248   4.616 -0.0317 -2.2381  1.4318
 1922SOL    HW217403   1.570   0.237   4.635  1.3228 -1.3850 -0.6588
 1923SOL     OW17404   2.789   3.616   4.251 -0.3353  0.0454 -0.0963
 1923SOL    HW117405   2.863   3.556   4.252  0.9037  1.5998  0.4862
 1923SOL    HW217406   2.833   3.701   4.256  1.5739 -0.9490 -0.0654
 1924SOL     OW17407   3.812   1.171  10.614  0.5888  0.2363  0.2174
 1924SOL    HW117408   3.888   1.143  10.664 -0.9989  1.8305  3.4849
 1924SOL    HW217409   3.836   1.134  10.529 -0.1852  1.3475 -0.4961
 1925SOL     OW17410   1.066   1.497  11.946  0.3501 -0.3672  0.9574
 1925SOL    HW117411   1.001   1.511  12.015  0.1075 -1.0098  0.8588
 1925SOL    HW217412   1.087   1.404  11.958 -0.0329 -0.6354 -0.4296
 1926SOL     OW17413   3.363   0.355   6.807 -1.0181  0.2425 -0.2993
 1926SOL    HW117414   3.313   0.298   6.865 -1.0488 -0.0754 -0.6343
 1926SOL    HW217415   3.367   0.438   6.855  0.0261 -0.0464  0.1194
 1927SOL     OW17416   3.968   3.936  10.721 -0.6385 -0.6231  0.6875
 1927SOL    HW117417   3.914   3.863  10.749 -0.5010 -1.2890 -0.7693
 1927SOL    HW217418   4.026   3.945  10.797  0.1472 -1.0636  0.1403
 1928SOL     OW17419   4.716   1.340   2.720  0.1442 -0.2262  0.4001
 1928SOL    HW117420   4.629   1.358   2.754 -0.7270 -1.6478 -1.0445
 1928SOL    HW217421   4.725   1.248   2.743 -0.4589 -0.4389 -0.2223
 1929SOL     OW17422   3.323   1.549   8.213 -0.2462  0.0617  0.4888
 1929SOL    HW117423   3.381   1.554   8.137  0.8837  1.0662  1.4118
 1929SOL    HW217424   3.261   1.485   8.179 -0.5154  0.1138  0.8830
 1930SOL     OW17425   3.438   1.232   5.307 -0.3616  0.4359  0.3813
 1930SOL    HW117426   3.400   1.190   5.384 -0.7239  1.3642  0.7076
 1930SOL    HW217427   3.518   1.184   5.285 -1.1302 -0.6280 -0.1139
 1931SOL     OW17428   2.094   0.226   0.981  0.0778  0.1431  0.2671
 1931SOL    HW117429   2.025   0.166   0.952 -2.1107  2.6283  0.3157
 1931SOL    HW217430   2.129   0.171   1.050 -1.5737  0.5989  1.4748
 1932SOL     OW17431   3.623   0.234  11.630  0.1365  0.4800  0.0827
 1932SOL    HW117432   3.564   0.299  11.668  0.5795  0.8569  0.1269
 1932SOL    HW217433   3.567   0.179  11.576  1.7674 -1.9414  0.8734
 1933SOL     OW17434   3.634   1.649   9.155 -0.3996 -0.1225 -0.0032
 1933SOL    HW117435   3.622   1.580   9.090  1.8402 -1.0391  0.5431
 1933SOL    HW217436   3.613   1.733   9.114  2.5878  0.1011 -1.0857
 1934SOL     OW17437   1.174   1.897   3.188  0.1969  0.2901 -0.1820
 1934SOL    HW117438   1.224   1.960   3.135 -0.3682  1.0298  0.1690
 1934SOL    HW217439   1.086   1.904   3.151  0.1137 -1.9404 -0.4149
 1935SOL     OW17440   2.678   0.782  16.438  0.2863  0.1427 -0.4449
 1935SOL    HW117441   2.672   0.799  16.344 -0.4922 -1.0946 -0.6286
 1935SOL    HW217442   2.597   0.833  16.451  0.6365  0.5033  0.3236
 1936SOL     OW17443   2.784   4.373   1.967  0.3745  0.7110 -0.3443
 1936SOL    HW117444   2.724   4.367   2.041 -0.5549  2.5145 -0.9571
 1936SOL    HW217445   2.759   4.298   1.913 -0.8302  0.7635  0.1374
 1937SOL     OW17446   3.087   0.069  14.975  0.4642  0.5832 -0.0075
 1937SOL    HW117447   3.134   0.014  15.038 -2.0070 -1.4324  0.0587
 1937SOL    HW217448   3.058   4.739  14.917 -0.0799  0.1622  0.7764
 1938SOL     OW17449   0.273   2.059  10.161  0.1198  0.1982  0.0124
 1938SOL    HW117450   0.238   2.049  10.250 -1.1763 -1.5947 -0.6874
 1938SOL    HW217451   0.356   2.012  10.171 -0.2051 -0.4617 -0.3594
 1939SOL     OW17452   0.213   2.610   2.181  0.3199 -0.4260  0.0537
 1939SOL    HW117453   0.269   2.687   2.196  1.7294 -1.3994 -0.2628
 1939SOL    HW217454   0.134   2.647   2.141  0.5025 -1.7047 -1.4808
 1940SOL     OW17455   2.112   0.162   5.670  0.0707  0.0339  0.0544
 1940SOL    HW117456   2.075   0.250   5.677  0.9895  0.3980  0.2845
 1940SOL    HW217457   2.098   0.131   5.760 -0.7760 -1.6029 -0.6435
 1941SOL     OW17458   3.830   2.713   9.078  0.0839 -0.5575 -0.0602
 1941SOL    HW117459   3.906   2.767   9.097 -0.1460 -0.4460  0.5637
 1941SOL    HW217460   3.858   2.662   9.002 -0.9432 -1.0995 -0.0749
 1942SOL     OW17461   0.329   1.558   9.864 -0.2071 -0.2124  0.0153
 1942SOL    HW117462   0.319   1.634   9.806  2.3600  0.4243  0.4127
 1942SOL    HW217463   0.360   1.487   9.808  0.0942 -0.6229  0.6960
 1943SOL     OW17464   3.883   1.871   2.656  0.3979  0.3190  0.9404
 1943SOL    HW117465   3.957   1.861   2.595 -0.4041 -2.1712  0.3488
 1943SOL    HW217466   3.818   1.808   2.623 -0.9754  1.3068  1.7820
 1944SOL     OW17467   1.747   1.771   9.584  0.4609  0.7286  0.4846
 1944SOL    HW117468   1.790   1.705   9.529 -0.1676  0.3810  0.4053
 1944SOL    HW217469   1.759   1.726   9.667  1.5583  1.3125  0.6321
 1945SOL     OW17470   0.581   4.169  12.514 -0.2110  0.1332  0.2551
 1945SOL    HW117471   0.571   4.234  12.444 -0.5786 -0.7969 -0.5507
 1945SOL    HW217472   0.621   4.095  12.469  1.8121  2.1091 -1.1924
 1946SOL     OW17473   0.593   0.969   2.814  0.5561  0.3346  0.0971
 1946SOL    HW117474   0.499   0.980   2.799  0.4904  0.9967  0.9473
 1946SOL    HW217475   0.617   1.062   2.823  1.2207  0.2161 -0.5170
 1947SOL     OW17476   3.176   3.666   3.840  0.2840  0.1704 -0.2279
 1947SOL    HW117477   3.247   3.725   3.867 -0.4271  0.1531  1.6722
 1947SOL    HW217478   3.209   3.644   3.753  1.1953  0.0925  0.1349
 1948SOL     OW17479   1.873   0.692  13.095  0.5479 -0.1703  0.1129
 1948SOL    HW117480   1.856   0.739  13.013  0.8721 -1.4410 -0.6867
 1948SOL    HW217481   1.809   0.714  13.163  1.8098  2.9576  0.2783
 1949SOL     OW17482   0.229   0.578  16.212 -0.6089  0.3052  0.6758
 1949SOL    HW117483   0.318   0.601  16.239 -0.7501 -0.5621  1.9183
 1949SOL    HW217484   0.243   0.531  16.130  0.5895  0.6692  0.6710
 1950SOL     OW17485   0.897   3.300  12.475  0.3347  0.0514 -0.7526
 1950SOL    HW117486   0.928   3.346  12.554  0.0015 -4.3635  1.9483
 1950SOL    HW217487   0.946   3.348  12.409 -0.0907  1.9505  0.2961
 1951SOL     OW17488   4.266   2.200  15.762 -0.2661  0.0057  0.6121
 1951SOL    HW117489   4.330   2.268  15.744 -0.6075  0.4647  1.1236
 1951SOL    HW217490   4.317   2.156  15.830 -3.1718 -1.4419  1.8469
 1952SOL     OW17491   0.989   1.134  11.434  0.2898 -0.2125 -0.4535
 1952SOL    HW117492   1.063   1.118  11.492  0.2197  1.7816  0.1882
 1952SOL    HW217493   1.023   1.107  11.348  2.1954 -1.4209  0.6893
 1953SOL     OW17494   2.387   1.295   6.919 -0.4239  0.2987 -0.1679
 1953SOL    HW117495   2.453   1.311   6.852  0.9658 -2.1963  0.6142
 1953SOL    HW217496   2.312   1.260   6.872 -1.0177 -1.1203  1.8432
 1954SOL     OW17497   0.551   4.174   3.988  0.4362  0.0842 -0.4657
 1954SOL    HW117498   0.566   4.116   4.063 -1.7785  0.1913  0.0453
 1954SOL    HW217499   0.502   4.111   3.935 -0.1250  0.2489 -0.1459
 1955SOL     OW17500   0.253   0.043   2.183 -0.0962 -0.4072  0.4730
 1955SOL    HW117501   0.221   0.068   2.096 -2.0079  1.3952  1.6965
 1955SOL    HW217502   0.209   0.104   2.242 -1.5454 -0.6078 -0.4124
 1956SOL     OW17503   1.224   2.099   1.800  0.1052 -0.1521  0.5568
 1956SOL    HW117504   1.255   2.032   1.861  2.8453 -0.6057 -1.3065
 1956SOL    HW217505   1.193   2.175   1.849  1.9223  0.4353  0.8041
 1957SOL     OW17506   4.269   2.416   3.513  0.0386  0.7121  0.0062
 1957SOL    HW117507   4.288   2.497   3.466  0.7599  0.6501  0.1976
 1957SOL    HW217508   4.339   2.420   3.577  1.0433 -2.4971 -0.9046
 1958SOL     OW17509   2.899   1.821   7.140  0.6399 -0.6014  0.1390
 1958SOL    HW117510   2.853   1.773   7.210 -1.4647 -0.7375 -1.3465
 1958SOL    HW217511   2.908   1.753   7.073  0.2803  0.7515 -1.2832
 1959SOL     OW17512   3.368   4.478  14.016  0.4807  0.3877 -0.4692
 1959SOL    HW117513   3.424   4.415  14.062  1.4183  0.5879 -1.3436
 1959SOL    HW217514   3.349   4.539  14.088 -1.7891 -0.4814 -0.3323
 1960SOL     OW17515   2.776   3.941   3.055 -0.4616  0.0824  0.0706
 1960SOL    HW117516   2.790   4.034   3.037 -2.7551  0.3863 -0.2535
 1960SOL    HW217517   2.838   3.910   2.989  0.0012  0.2211  0.4400
 1961SOL     OW17518   0.560   2.944   3.640  0.4049 -0.2111  0.1318
 1961SOL    HW117519   0.547   2.853   3.611  0.5218  0.1296 -1.0076
 1961SOL    HW217520   0.640   2.969   3.594  1.1971  0.9367  2.1744
 1962SOL     OW17521   3.580   2.652   1.496 -0.1859  1.2828 -0.1486
 1962SOL    HW117522   3.537   2.735   1.515 -1.0610  0.4989  1.2733
 1962SOL    HW217523   3.539   2.637   1.411  0.0373  0.9500 -0.2008
 1963SOL     OW17524   0.114   2.073   4.715  0.5663 -0.4855 -0.7650
 1963SOL    HW117525   0.163   1.995   4.740  2.3970  0.3380 -1.8215
 1963SOL    HW217526   0.033   2.043   4.757  0.6842  0.5080  0.1712
 1964SOL     OW17527   2.412   2.965  14.255  0.3292 -0.5237 -0.2906
 1964SOL    HW117528   2.439   2.962  14.164  0.2966  0.9396 -0.3509
 1964SOL    HW217529   2.448   3.051  14.278 -2.1535  0.5208 -0.2714
 1965SOL     OW17530   0.133   2.214  10.429  0.3986 -0.3752 -0.3209
 1965SOL    HW117531   0.173   2.277  10.369  1.8622  1.1809  2.2972
 1965SOL    HW217532   0.093   2.274  10.492 -2.0827 -2.5291  0.1623
 1966SOL     OW17533   0.520   2.005   9.428 -0.1196  0.4278  0.2624
 1966SOL    HW117534   0.426   1.987   9.425 -0.0834  0.5479 -1.4576
 1966SOL    HW217535   0.530   2.059   9.506 -0.7706  0.3360  0.4061
 1967SOL     OW17536   3.547   0.303   5.536 -0.8956 -0.2402  0.5803
 1967SOL    HW117537   3.576   0.237   5.474  0.7223  1.7480 -0.7866
 1967SOL    HW217538   3.551   0.257   5.620  0.0135  0.4783  0.9255
 1968SOL     OW17539   4.501   1.230   2.218 -0.2785  0.3823 -0.1043
 1968SOL    HW117540   4.567   1.245   2.284  2.3445 -1.1496 -2.3789
 1968SOL    HW217541   4.469   1.144   2.244  0.2605  0.4074  0.6221
 1969SOL     OW17542   2.938   1.853   7.689 -0.0034  0.7794  0.2237
 1969SOL    HW117543   3.014   1.804   7.720  1.4937  2.6400 -0.4958
 1969SOL    HW217544   2.878   1.867   7.762  1.4608 -1.0325  1.7466
 1970SOL     OW17545   4.329   2.500  14.129  0.2083  0.1950 -0.3441
 1970SOL    HW117546   4.338   2.595  14.130 -0.0183  0.1833  2.6786
 1970SOL    HW217547   4.294   2.483  14.041  0.9258  2.0677 -0.9895
 1971SOL     OW17548   2.422   0.588   4.902 -0.5232  0.1144  0.2682
 1971SOL    HW117549   2.331   0.605   4.875 -0.5616 -1.2721 -0.4686
 1971SOL    HW217550   2.414   0.599   4.997 -0.6873 -0.6540  0.3415
 1972SOL     OW17551   1.511   1.504   5.121 -0.4473  0.2911 -0.1986
 1972SOL    HW117552   1.605   1.495   5.138 -0.4084  1.7137  0.3685
 1972SOL    HW217553   1.506   1.444   5.047  3.5754  0.0689 -0.2790
 1973SOL     OW17554   3.167   2.645  11.157  0.1613  0.0947 -0.3819
 1973SOL    HW117555   3.135   2.557  11.175  2.3659 -0.4693  0.7922
 1973SOL    HW217556   3.128   2.662  11.071  1.0136  1.2160 -0.5413
 1974SOL     OW17557   4.702   3.062   8.859 -0.3621  0.0196 -0.0033
 1974SOL    HW117558   4.676   3.089   8.947 -0.5935 -0.6012  0.1184
 1974SOL    HW217559   4.660   2.976   8.864  2.3849 -1.3325  0.0900
 1975SOL     OW17560   0.766   2.368   8.069  0.3530  0.5987  0.1084
 1975SOL    HW117561   0.678   2.378   8.105  1.0358 -3.1672  2.7984
 1975SOL    HW217562   0.758   2.379   7.974 -2.5088  1.8880  0.5172
 1976SOL     OW17563   1.604   3.111  14.631  0.2789  0.1090  0.3380
 1976SOL    HW117564   1.614   3.146  14.543 -0.8290  0.7557  0.4741
 1976SOL    HW217565   1.672   3.165  14.669  1.7862 -1.2364 -0.4450
 1977SOL     OW17566   0.694   2.199  12.426  0.3534  0.3355 -0.1835
 1977SOL    HW117567   0.662   2.237  12.508 -0.9463 -1.0959 -0.0364
 1977SOL    HW217568   0.644   2.239  12.355 -2.9701 -0.0706  1.9486
 1978SOL     OW17569   4.225   2.572  16.290 -0.1734 -0.3447  0.5853
 1978SOL    HW117570   4.132   2.556  16.273  0.0393 -1.6193  0.6178
 1978SOL    HW217571   4.246   2.616  16.208  4.1036 -3.3677  0.0605
 1979SOL     OW17572   3.137   2.226   1.028  0.8540 -0.0413  0.6965
 1979SOL    HW117573   3.206   2.255   0.969  0.9322 -1.2767  0.1892
 1979SOL    HW217574   3.155   2.270   1.111 -1.8541  0.9056  0.7861
 1980SOL     OW17575   1.485   1.595   3.027 -0.4568  0.4452  0.1556
 1980SOL    HW117576   1.561   1.576   3.081  0.0056  1.4607 -0.1422
 1980SOL    HW217577   1.461   1.506   2.998  0.9787 -0.1751  0.8813
 1981SOL     OW17578   3.696   1.915   5.434 -0.3205 -0.0627  0.2595
 1981SOL    HW117579   3.759   1.844   5.448 -0.1476  0.3949  1.8593
 1981SOL    HW217580   3.747   1.983   5.391 -3.3114  2.0232  0.0558
 1982SOL     OW17581   1.229   2.794   3.126 -0.0069  0.2379 -0.6022
 1982SOL    HW117582   1.215   2.708   3.166  2.4339 -0.8806 -2.1656
 1982SOL    HW217583   1.176   2.801   3.047  0.1556  0.4057 -0.6939
 1983SOL     OW17584   0.318   4.060   0.382  0.0035  0.7377 -0.1365
 1983SOL    HW117585   0.347   4.151   0.386  1.0336  0.5504 -3.2015
 1983SOL    HW217586   0.354   4.042   0.468 -1.2363  2.9586  0.8560
 1984SOL     OW17587   4.440   4.609   5.131 -0.0093 -0.7935  0.1954
 1984SOL    HW117588   4.420   4.701   5.145 -0.1906 -0.7849 -0.1207
 1984SOL    HW217589   4.533   4.611   5.152  0.2194  0.3175 -0.9386
 1985SOL     OW17590   2.958   2.176   5.844 -0.2538 -0.4317 -1.3075
 1985SOL    HW117591   2.922   2.140   5.764  0.4862  0.8853 -2.2331
 1985SOL    HW217592   2.920   2.264   5.848  0.9981  0.1010 -1.0907
 1986SOL     OW17593   0.569   4.511  12.989 -0.0708  0.0831  0.4279
 1986SOL    HW117594   0.656   4.536  13.018 -0.9400 -0.3409  3.4082
 1986SOL    HW217595   0.580   4.419  13.011  0.3999 -0.8143 -3.5432
 1987SOL     OW17596   0.867   0.725  11.517 -0.6692  0.2195 -0.1879
 1987SOL    HW117597   0.864   0.630  11.507 -1.5760  0.2452 -0.1989
 1987SOL    HW217598   0.816   0.734  11.597  0.6012  0.0984  0.6330
 1988SOL     OW17599   1.671   3.531  15.429 -0.1007 -0.5434 -0.1797
 1988SOL    HW117600   1.765   3.529  15.448 -0.0759 -0.8100 -0.3225
 1988SOL    HW217601   1.681   3.469  15.357 -1.3280 -0.2032 -0.6366
 1989SOL     OW17602   1.662   1.894   7.324  0.1840  0.0775  0.1483
 1989SOL    HW117603   1.718   1.851   7.388 -1.9390 -2.1409  0.5270
 1989SOL    HW217604   1.668   1.989   7.329  0.4538  0.0221  0.7944
 1990SOL     OW17605   3.088   3.519  10.661  0.5722  0.1658 -0.0337
 1990SOL    HW117606   3.011   3.494  10.610  0.8655 -0.6220 -0.0951
 1990SOL    HW217607   3.053   3.584  10.722 -0.3160  0.6023 -1.0135
 1991SOL     OW17608   3.486   1.886   5.596 -0.1449 -0.1059 -0.2955
 1991SOL    HW117609   3.482   1.791   5.601  0.1076 -0.0662  0.8777
 1991SOL    HW217610   3.548   1.891   5.523 -0.3302  1.4099 -0.3623
 1992SOL     OW17611   2.021   3.983   7.772  0.0598  0.4343 -0.2551
 1992SOL    HW117612   2.083   4.056   7.767  1.6522 -0.8244  0.8630
 1992SOL    HW217613   2.083   3.911   7.762  0.4878  0.8195 -0.3784
 1993SOL     OW17614   2.282   2.079   9.508 -0.3844  0.0492  0.3546
 1993SOL    HW117615   2.268   2.171   9.531 -1.0090 -0.5563  2.4284
 1993SOL    HW217616   2.361   2.071   9.561 -0.0840  1.4757  0.1214
 1994SOL     OW17617   3.130   3.603   4.839 -0.1587 -0.2634 -0.6028
 1994SOL    HW117618   3.102   3.631   4.927 -0.2080  2.8583 -1.6165
 1994SOL    HW217619   3.210   3.654   4.826  1.0970 -2.6695 -2.3439
 1995SOL     OW17620   3.790   4.596   8.544 -0.0876  0.2321  0.1630
 1995SOL    HW117621   3.800   4.503   8.527  0.4073  0.2463  0.3680
 1995SOL    HW217622   3.702   4.603   8.579 -0.3490  2.7745 -0.9267
 1996SOL     OW17623   4.010   1.665  12.773 -0.0581 -0.0474  0.2342
 1996SOL    HW117624   3.915   1.665  12.765 -0.2043  0.2587  1.9964
 1996SOL    HW217625   4.026   1.695  12.862 -0.5575  2.0180 -0.3730
 1997SOL     OW17626   2.440   3.931   9.880 -0.0066 -0.1809  0.1816
 1997SOL    HW117627   2.397   4.013   9.907  0.8221 -0.1503  1.4014
 1997SOL    HW217628   2.483   3.907   9.962  0.0778  1.5515  0.6489
 1998SOL     OW17629   4.522   1.416   6.944 -0.1119 -0.1212 -0.0805
 1998SOL    HW117630   4.581   1.478   6.987  0.8565 -1.8167  1.0387
 1998SOL    HW217631   4.481   1.382   7.024 -0.9702  1.5452  0.1839
 1999SOL     OW17632   1.588   4.166   7.475  0.8547  0.4884 -0.1215
 1999SOL    HW117633   1.596   4.113   7.555 -0.1002  2.5073  1.3102
 1999SOL    HW217634   1.502   4.205   7.489 -0.4198 -1.7318 -1.7625
 2000SOL     OW17635   2.459   0.070   7.158 -0.3927  0.5279  0.3872
 2000SOL    HW117636   2.400   0.096   7.087  2.1979  0.6489 -1.7152
 2000SOL    HW217637   2.422   0.115   7.234 -0.0025 -0.4567  1.1597
 2001SOL     OW17638   1.221   1.669  13.162 -0.0289 -0.8154  0.3033
 2001SOL    HW117639   1.252   1.727  13.231  0.2332 -0.5534 -0.0366
 2001SOL    HW217640   1.157   1.724  13.117 -0.3627 -1.6042 -0.1905
 2002SOL     OW17641   3.884   3.365   6.011 -0.1261  0.2681 -0.2079
 2002SOL    HW117642   3.915   3.277   6.034 -3.0323 -0.4235  1.1338
 2002SOL    HW217643   3.790   3.347   5.998  0.3877 -2.0523 -0.7095
 2003SOL     OW17644   2.264   2.242   3.432 -0.3451  0.0299  0.3984
 2003SOL    HW117645   2.310   2.203   3.506 -1.1742  1.3483  1.6038
 2003SOL    HW217646   2.264   2.336   3.448 -1.1944  0.5827 -2.7822
 2004SOL     OW17647   4.361   4.335   1.363  0.6036  0.1077  0.6023
 2004SOL    HW117648   4.270   4.306   1.359  0.0677  1.7134  0.9671
 2004SOL    HW217649   4.396   4.260   1.412  2.8494  0.8998  0.2028
 2005SOL     OW17650   2.103   3.428  13.106  0.0676 -0.0680 -0.1813
 2005SOL    HW117651   2.165   3.465  13.044  0.0263  1.1866  0.5235
 2005SOL    HW217652   2.102   3.338  13.074  3.4830  0.4838 -1.8349
 2006SOL     OW17653   1.353   0.630   2.864 -0.0415  0.2971 -0.5768
 2006SOL    HW117654   1.327   0.540   2.885  3.3466 -0.4360  0.5984
 2006SOL    HW217655   1.347   0.660   2.955 -2.0071  0.6782 -0.8435
 2007SOL     OW17656   1.900   2.526   7.215  0.2940 -0.1060  0.3943
 2007SOL    HW117657   1.847   2.564   7.144  2.0663 -0.8577 -1.3340
 2007SOL    HW217658   1.831   2.508   7.279 -0.3417  0.9791  0.0049
 2008SOL     OW17659   0.957   0.141   2.348 -0.2450 -0.4459 -0.0465
 2008SOL    HW117660   0.951   0.188   2.264  1.2899 -1.5351 -0.7718
 2008SOL    HW217661   0.864   0.134   2.365  0.0026 -1.9371  0.6864
 2009SOL     OW17662   1.864   2.026   8.994  0.1869  0.1235 -0.4357
 2009SOL    HW117663   1.859   1.966   8.919  0.4719 -1.2478  0.6573
 2009SOL    HW217664   1.938   1.987   9.041  0.4493 -0.9358 -1.7061
 2010SOL     OW17665   3.015   2.451   9.201  0.4489  0.2174 -0.3299
 2010SOL    HW117666   3.104   2.480   9.221  0.9987 -1.8616  0.2284
 2010SOL    HW217667   2.998   2.386   9.270  0.9873  0.0320 -0.3687
 2011SOL     OW17668   4.678   3.180   9.129  0.6810  0.0632  0.1382
 2011SOL    HW117669   4.680   3.127   9.208  2.1306  0.5043  0.4010
 2011SOL    HW217670   4.585   3.203   9.127  1.0710  1.5898 -0.1294
 2012SOL     OW17671   2.816   4.616  10.644  0.6196  0.2603 -0.1937
 2012SOL    HW117672   2.729   4.634  10.609  0.7770 -0.8445 -1.1560
 2012SOL    HW217673   2.793   4.599  10.736 -0.5636  2.6890 -0.0511
 2013SOL     OW17674   4.091   0.869   2.379  0.4928  0.1634 -0.3099
 2013SOL    HW117675   4.134   0.874   2.294  1.7934 -0.1927  0.3079
 2013SOL    HW217676   4.026   0.803   2.357  0.2225  0.3663 -0.1169
 2014SOL     OW17677   1.213   3.188   8.620 -0.3386 -0.4509 -0.3424
 2014SOL    HW117678   1.232   3.160   8.710  0.2852  0.0039 -0.3324
 2014SOL    HW217679   1.127   3.230   8.627  0.8430  2.1928 -1.7044
 2015SOL     OW17680   1.731   2.132  11.394  0.9087 -0.7103  0.3460
 2015SOL    HW117681   1.662   2.157  11.456  0.8347 -0.6902  0.2555
 2015SOL    HW217682   1.733   2.197  11.324  3.6949 -0.2998  0.8158
 2016SOL     OW17683   1.828   1.981  15.189 -0.2135 -0.2994 -0.4008
 2016SOL    HW117684   1.839   2.042  15.117 -0.0900  0.5440  0.3259
 2016SOL    HW217685   1.833   1.897  15.144  1.2217 -1.5153  1.9845
 2017SOL     OW17686   1.839   3.607   7.044 -0.4364 -0.5417 -0.2430
 2017SOL    HW117687   1.843   3.589   7.138  0.0983  0.0449 -0.1606
 2017SOL    HW217688   1.895   3.537   7.011 -1.4732 -1.2758 -0.4595
 2018SOL     OW17689   1.193   0.295   7.504 -0.4175  0.2696 -0.8052
 2018SOL    HW117690   1.209   0.383   7.470 -2.7940  0.5136 -1.3055
 2018SOL    HW217691   1.161   0.314   7.592  2.0007  1.4077 -0.1590
 2019SOL     OW17692   1.494   1.635  17.593  0.1952  0.1520 -0.2155
 2019SOL    HW117693   1.502   1.578  17.516  0.2567  0.5971 -0.5368
 2019SOL    HW217694   1.419   1.590  17.631  0.8372 -0.0212  0.8219
 2020SOL     OW17695   1.977   4.537   3.554 -0.0708  0.4530 -0.2427
 2020SOL    HW117696   1.906   4.542   3.617 -0.9168 -0.2476 -1.1519
 2020SOL    HW217697   2.011   4.627   3.554  0.0024  0.4239  2.9633
 2021SOL     OW17698   4.533   2.993   7.791 -0.0422 -0.8348  0.4294
 2021SOL    HW117699   4.568   2.905   7.806 -0.3211 -1.5027 -2.7650
 2021SOL    HW217700   4.442   2.983   7.819  0.9546 -1.7009  3.2825
 2022SOL     OW17701   3.711   1.659   5.189  0.0450 -0.5380 -0.4784
 2022SOL    HW117702   3.640   1.669   5.253  0.7812 -1.2273  0.4400
 2022SOL    HW217703   3.787   1.669   5.245  1.0902 -0.8007 -1.8611
 2023SOL     OW17704   2.932   2.914  11.871  0.3562 -0.8806 -0.3962
 2023SOL    HW117705   2.874   2.891  11.943 -0.2326 -2.7756 -1.5021
 2023SOL    HW217706   2.889   2.995  11.844 -1.0108 -1.3011  0.5220
 2024SOL     OW17707   4.570   0.347  15.550 -0.1272  0.1922  0.1122
 2024SOL    HW117708   4.565   0.435  15.513 -0.2813 -0.2477 -0.9411
 2024SOL    HW217709   4.493   0.342  15.608 -1.3078 -0.4169 -1.4848
 2025SOL     OW17710   4.499   3.695  10.798 -0.0883 -0.3218  0.0881
 2025SOL    HW117711   4.500   3.752  10.722  1.7515  0.7354  0.8973
 2025SOL    HW217712   4.546   3.741  10.868  2.1945 -1.3810 -0.7350
 2026SOL     OW17713   4.716   3.637   5.097  0.0506  0.3946  0.1682
 2026SOL    HW117714   0.067   3.611   5.100 -0.0172  0.0301 -0.9182
 2026SOL    HW217715   4.717   3.729   5.070  0.1372  0.3484  0.0184
 2027SOL     OW17716   3.388   3.439   7.740  0.0353 -0.0117 -0.3575
 2027SOL    HW117717   3.461   3.459   7.680  0.1669 -1.4360 -0.6837
 2027SOL    HW217718   3.327   3.389   7.685 -0.7754 -0.3454  0.8424
 2028SOL     OW17719   1.606   0.770   6.225 -0.1037 -0.2846 -0.0413
 2028SOL    HW117720   1.591   0.770   6.320 -0.4754  1.1315 -0.1043
 2028SOL    HW217721   1.592   0.677   6.209 -1.2513  0.1008 -1.2677
 2029SOL     OW17722   4.516   1.561  13.349 -0.4682 -0.2985  0.2192
 2029SOL    HW117723   4.483   1.594  13.432  0.1397  2.1290 -0.5136
 2029SOL    HW217724   4.574   1.631  13.320  1.1902 -1.6792  0.2006
 2030SOL     OW17725   1.319   1.212   9.433 -0.3502 -0.1415  0.5138
 2030SOL    HW117726   1.242   1.214   9.376 -0.7887 -1.4296  1.0746
 2030SOL    HW217727   1.341   1.305   9.443 -0.0510  0.0741 -2.1872
 2031SOL     OW17728   4.106   2.253   6.212  0.2615  0.5397  0.1236
 2031SOL    HW117729   4.132   2.179   6.267  1.1875  1.5708  1.0794
 2031SOL    HW217730   4.178   2.256   6.150  2.9809 -3.0402  3.0415
 2032SOL     OW17731   0.119   4.034   3.918  0.0152 -0.1219  0.1946
 2032SOL    HW117732   0.088   4.095   3.985  0.3543 -1.5906  1.6777
 2032SOL    HW217733   0.041   3.980   3.909  0.0855  0.0563 -1.4864
 2033SOL     OW17734   1.592   4.073   4.196  0.0538 -0.3126  0.1562
 2033SOL    HW117735   1.590   4.016   4.119  0.2803 -0.1411  0.0216
 2033SOL    HW217736   1.513   4.045   4.242 -0.6650  0.9058 -0.3111
 2034SOL     OW17737   1.820   2.422   4.786 -0.3267  0.3092  0.1780
 2034SOL    HW117738   1.862   2.352   4.834  2.1850  1.0213 -0.9661
 2034SOL    HW217739   1.730   2.420   4.820 -0.2526  1.8651  0.4949
 2035SOL     OW17740   4.636   1.984   4.883 -0.5902  0.5329  0.3718
 2035SOL    HW117741   4.566   1.920   4.872  0.1519  0.1313 -1.9871
 2035SOL    HW217742   4.599   2.072   4.874 -1.9116 -0.0214  0.4566
 2036SOL     OW17743   0.198   0.324  15.140  0.1733  0.5675  0.1711
 2036SOL    HW117744   0.234   0.367  15.063  0.8854  1.1932  0.8540
 2036SOL    HW217745   0.208   0.380  15.217 -2.9437  0.6255  0.5456
 2037SOL     OW17746   4.322   2.838   6.047 -0.3705 -0.2010  0.2895
 2037SOL    HW117747   4.231   2.839   6.017  0.0659  2.8711 -0.8857
 2037SOL    HW217748   4.385   2.833   5.975 -1.9801 -0.2274 -1.1022
 2038SOL     OW17749   4.321   0.537   6.230  0.4092  0.2593  0.5387
 2038SOL    HW117750   4.314   0.605   6.297  0.7801 -1.0490  1.8954
 2038SOL    HW217751   4.335   0.588   6.151 -2.5767  1.5797  0.8509
 2039SOL     OW17752   4.287   3.028  11.267  0.2523  0.3717 -0.0550
 2039SOL    HW117753   4.322   3.041  11.355 -2.1746  1.0466  0.8030
 2039SOL    HW217754   4.227   2.954  11.276  1.7440 -0.6669  1.1382
 2040SOL     OW17755   0.638   0.247   5.906 -0.7132 -0.0789 -0.4599
 2040SOL    HW117756   0.570   0.209   5.962  0.1457  0.8953  1.2613
 2040SOL    HW217757   0.699   0.173   5.899 -0.3358  0.3198 -1.3732
 2041SOL     OW17758   1.269   1.904   0.658 -0.1043  0.3281  0.5147
 2041SOL    HW117759   1.256   1.811   0.639  1.2268  0.4700 -1.0273
 2041SOL    HW217760   1.354   1.928   0.621 -0.2738 -0.8254 -0.6358
 2042SOL     OW17761   4.574   2.675   6.018 -0.1490 -0.5799  0.6185
 2042SOL    HW117762   4.574   2.612   6.090  0.0915 -0.1471  0.9972
 2042SOL    HW217763   4.661   2.715   6.015  0.4900 -1.9536  0.9750
 2043SOL     OW17764   0.234   1.860   4.178  0.5997 -0.3185  0.8780
 2043SOL    HW117765   0.263   1.781   4.225 -0.0737 -0.2101  1.4789
 2043SOL    HW217766   0.313   1.914   4.176  0.8148 -0.6676 -0.0029
 2044SOL     OW17767   3.711   2.309   7.484 -0.0499 -0.2723  0.6117
 2044SOL    HW117768   3.758   2.258   7.551 -0.2407  0.1897  1.0964
 2044SOL    HW217769   3.758   2.286   7.404  1.2777  1.2248  0.9600
 2045SOL     OW17770   4.360   2.664   3.418  0.6974 -0.0017 -0.8101
 2045SOL    HW117771   4.302   2.720   3.365 -0.9626  0.3146  1.3560
 2045SOL    HW217772   4.438   2.673   3.364 -0.7688  0.6852 -2.8313
 2046SOL     OW17773   3.968   4.697   6.669  0.2285  0.8882  0.5635
 2046SOL    HW117774   4.049   4.693   6.619  0.6710  0.6505  1.2900
 2046SOL    HW217775   3.903   4.720   6.603  0.3648  1.5324  0.6505
 2047SOL     OW17776   2.958   2.155   9.645  0.6699  0.4025  0.7152
 2047SOL    HW117777   3.015   2.149   9.722  1.9756  0.1261 -0.2705
 2047SOL    HW217778   2.876   2.120   9.680  0.5439 -0.2200 -0.2097
 2048SOL     OW17779   3.162   3.284   6.397 -0.1825  0.4491 -0.1299
 2048SOL    HW117780   3.091   3.260   6.337  1.0452  0.4254 -1.5645
 2048SOL    HW217781   3.130   3.368   6.430 -0.4628  0.6443 -0.8909
 2049SOL     OW17782   0.521   1.047   8.881 -0.2060  0.6299  0.5120
 2049SOL    HW117783   0.562   0.961   8.874 -1.2501  0.1929 -0.3773
 2049SOL    HW217784   0.427   1.029   8.878 -0.2011  0.8418 -1.3899
 2050SOL     OW17785   3.730   4.127   4.379 -0.1406  0.2703 -0.2999
 2050SOL    HW117786   3.742   4.112   4.286  2.0133  3.2992 -0.5209
 2050SOL    HW217787   3.706   4.219   4.388  2.4941  0.6135  3.7178
 2051SOL     OW17788   2.081   2.999   2.251 -0.1941  0.5922 -0.2799
 2051SOL    HW117789   2.161   3.043   2.279  0.1694 -1.4051  1.8491
 2051SOL    HW217790   2.039   3.070   2.203  1.1449  0.2113 -2.0274
 2052SOL     OW17791   1.469   3.941   4.514  0.2944  0.4381  0.0360
 2052SOL    HW117792   1.405   3.879   4.549 -1.7844  1.5461 -1.7683
 2052SOL    HW217793   1.454   3.925   4.421  0.9077  1.2375 -0.2050
 2053SOL     OW17794   0.283   2.146   3.824 -0.4088 -0.0966 -0.0171
 2053SOL    HW117795   0.269   2.235   3.858  1.8900  0.5480 -0.7551
 2053SOL    HW217796   0.371   2.161   3.790 -0.5192  1.7764  0.5222
 2054SOL     OW17797   0.972   1.885   9.243 -0.1883 -0.2954  0.3483
 2054SOL    HW117798   0.913   1.952   9.277  0.5562  0.0533  0.9656
 2054SOL    HW217799   1.020   1.863   9.323  0.2571 -0.2127  0.1073
 2055SOL     OW17800   3.004   2.188  14.420  0.2411  0.1063  0.3296
 2055SOL    HW117801   2.974   2.164  14.333 -0.3971  4.2159 -0.6117
 2055SOL    HW217802   3.050   2.271  14.406  2.1419 -1.2951 -1.7779
 2056SOL     OW17803   3.731   1.844   0.408 -0.2186  0.1547  0.1043
 2056SOL    HW117804   3.657   1.860   0.467  0.5792 -1.2928  1.5027
 2056SOL    HW217805   3.697   1.882   0.327  0.6101 -0.4348 -0.5154
 2057SOL     OW17806   4.472   3.001  11.079  0.3247  0.6200  0.1916
 2057SOL    HW117807   4.490   2.915  11.117 -1.9313  0.4970  0.9544
 2057SOL    HW217808   4.396   3.029  11.129  0.7629  2.9782 -0.4097
 2058SOL     OW17809   2.820   1.197   9.058  0.2949 -0.2521  0.9679
 2058SOL    HW117810   2.866   1.279   9.040 -0.9182  0.1254 -0.4651
 2058SOL    HW217811   2.849   1.132   8.994  1.1946  2.3812 -1.2573
 2059SOL     OW17812   2.846   2.759   1.734 -0.5758 -0.1149  0.0886
 2059SOL    HW117813   2.831   2.820   1.661 -1.6982 -0.7551 -0.2144
 2059SOL    HW217814   2.753   2.738   1.744 -0.3975 -1.6428 -1.4158
 2060SOL     OW17815   0.228   3.690   3.768 -0.2587  0.4516 -0.1905
 2060SOL    HW117816   0.244   3.630   3.840  1.0480  2.2247  0.9807
 2060SOL    HW217817   0.314   3.721   3.740 -0.0616 -0.9909 -1.1852
 2061SOL     OW17818   3.585   2.845   2.548 -0.0301 -0.1819  0.0663
 2061SOL    HW117819   3.652   2.912   2.535  0.5095 -0.1458  2.9858
 2061SOL    HW217820   3.638   2.794   2.609 -0.9986 -0.0169  1.0512
 2062SOL     OW17821   3.717   3.089   5.851  0.0753  0.2486  0.3309
 2062SOL    HW117822   3.737   3.150   5.780 -3.7199  0.6570 -0.3894
 2062SOL    HW217823   3.647   3.141   5.890 -1.0093  0.2426 -1.6287
 2063SOL     OW17824   4.454   3.345   4.023 -0.2278 -0.0808  0.5711
 2063SOL    HW117825   4.453   3.382   4.111 -0.6494 -0.1161  0.5791
 2063SOL    HW217826   4.512   3.269   4.036 -1.1941 -0.6986  1.2623
 2064SOL     OW17827   3.957   2.855   4.170 -0.2005 -0.9453 -0.3411
 2064SOL    HW117828   3.964   2.759   4.172  0.1992 -0.8820  1.5859
 2064SOL    HW217829   3.883   2.881   4.116  0.5477  1.4006 -0.2181
 2065SOL     OW17830   0.276   2.609   3.069 -0.2058 -0.6393 -0.3491
 2065SOL    HW117831   0.358   2.561   3.080 -0.0585 -0.2786  0.1593
 2065SOL    HW217832   0.307   2.695   3.039  0.0450 -1.2860 -1.9652
 2066SOL     OW17833   1.485   4.311   4.820  0.2682  0.6660  0.4816
 2066SOL    HW117834   1.534   4.362   4.885 -1.9514  1.9245  1.1762
 2066SOL    HW217835   1.396   4.324   4.853 -0.4505  0.3424 -1.3344
 2067SOL     OW17836   3.402   4.341  13.223 -0.5598  0.3614 -0.4749
 2067SOL    HW117837   3.463   4.412  13.206 -1.6995  1.6492  0.7857
 2067SOL    HW217838   3.462   4.267  13.211  0.6985  1.1817  0.6647
 2068SOL     OW17839   3.173   0.223   8.969  0.1867 -0.0683 -0.1277
 2068SOL    HW117840   3.136   0.267   8.892 -0.4100  2.2099  1.4396
 2068SOL    HW217841   3.262   0.254   8.955  0.3179 -0.3295  0.1296
 2069SOL     OW17842   2.010   0.454   8.747 -0.0594  0.4736  0.2148
 2069SOL    HW117843   1.961   0.483   8.824 -1.3077 -0.9560 -0.0338
 2069SOL    HW217844   2.081   0.518   8.752  0.3694  0.1817 -1.9842
 2070SOL     OW17845   3.453   1.676   6.708  0.0051  0.1879  0.7400
 2070SOL    HW117846   3.415   1.633   6.632  0.1641  0.8986  0.2612
 2070SOL    HW217847   3.538   1.713   6.687  1.0533 -1.4750  2.0024
 2071SOL     OW17848   0.779   1.505   3.724 -1.0330  0.5340  0.3795
 2071SOL    HW117849   0.690   1.526   3.698 -1.8090 -0.4256  2.2861
 2071SOL    HW217850   0.774   1.478   3.816 -0.8000 -0.2625  0.1594
 2072SOL     OW17851   0.824   2.480   3.272 -0.4696 -0.4145  0.0128
 2072SOL    HW117852   0.749   2.533   3.246 -1.0780  0.4429  3.4162
 2072SOL    HW217853   0.813   2.403   3.216  4.2515 -0.7049 -0.5262
 2073SOL     OW17854   0.360   3.575  10.911 -0.6325 -0.2401  0.7882
 2073SOL    HW117855   0.339   3.656  10.957 -0.0066  1.0496 -1.2594
 2073SOL    HW217856   0.431   3.544  10.967 -0.8041 -0.4076  0.9135
 2074SOL     OW17857   3.199   4.510   3.989  0.5317 -0.1109  0.3386
 2074SOL    HW117858   3.239   4.477   3.909  0.8976 -1.1334  0.9521
 2074SOL    HW217859   3.239   4.596   4.001  0.0712  0.2832 -0.9344
 2075SOL     OW17860   1.875   1.094   8.416  0.2014 -0.0418 -0.2843
 2075SOL    HW117861   1.950   1.147   8.443  1.6601 -1.5153 -1.4314
 2075SOL    HW217862   1.915   1.032   8.355  1.3522 -1.0779  1.5337
 2076SOL     OW17863   1.301   0.698   7.920  0.3473 -0.5979  1.2075
 2076SOL    HW117864   1.265   0.652   7.996 -1.4544 -1.0855  0.0576
 2076SOL    HW217865   1.358   0.757   7.969  1.5533 -0.7991  0.0415
 2077SOL     OW17866   4.157   0.681   4.908  0.5048  0.0089  0.4070
 2077SOL    HW117867   4.152   0.716   4.996 -1.6839 -1.7925  1.0040
 2077SOL    HW217868   4.209   0.601   4.916  1.9799  1.0416  1.1356
 2078SOL     OW17869   0.216   3.517   6.517 -0.2235 -0.1073  0.2513
 2078SOL    HW117870   0.300   3.555   6.540 -0.5333 -0.0928  1.3803
 2078SOL    HW217871   0.153   3.538   6.586 -2.2819 -1.6516 -1.1403
 2079SOL     OW17872   2.538   3.478   7.739  0.5017  0.2213  0.7886
 2079SOL    HW117873   2.469   3.481   7.673  2.3925  1.3869 -1.1959
 2079SOL    HW217874   2.548   3.386   7.761 -1.6284 -0.1205  0.2463
 2080SOL     OW17875   3.508   3.138   8.694 -0.0284 -0.2056 -0.4960
 2080SOL    HW117876   3.434   3.123   8.753 -0.6923  1.3026 -0.9382
 2080SOL    HW217877   3.479   3.110   8.608 -0.8832  2.6734 -1.1552
 2081SOL     OW17878   2.715   0.886   2.603  0.3015 -0.6155  0.5783
 2081SOL    HW117879   2.795   0.923   2.640  0.2171  0.5692 -0.4291
 2081SOL    HW217880   2.731   0.894   2.509  1.2523 -0.2141  0.7772
 2082SOL     OW17881   1.853   3.406   3.749 -0.2130  0.2412  0.2367
 2082SOL    HW117882   1.823   3.497   3.740 -0.3956  0.3520  1.9398
 2082SOL    HW217883   1.771   3.364   3.775  0.0957 -1.0316 -0.8906
 2083SOL     OW17884   1.443   4.296   4.524 -0.1795 -0.4803 -0.1633
 2083SOL    HW117885   1.423   4.205   4.501 -1.6695 -0.8379  2.5157
 2083SOL    HW217886   1.457   4.286   4.618 -1.6791  4.9748  0.6406
 2084SOL     OW17887   1.150   1.858   2.563 -0.7616  0.4531 -0.1054
 2084SOL    HW117888   1.169   1.783   2.619  3.2686  0.8387 -0.9296
 2084SOL    HW217889   1.058   1.866   2.585 -0.9849 -2.6953  0.0754
 2085SOL     OW17890   0.624   0.150   3.570  0.0991 -0.0140  0.2339
 2085SOL    HW117891   0.569   0.188   3.639 -1.3516  1.9414 -1.9986
 2085SOL    HW217892   0.586   0.063   3.561 -0.5304  0.3290 -0.3534
 2086SOL     OW17893   1.808   0.145   4.504 -0.1674  0.1634  0.1236
 2086SOL    HW117894   1.883   0.086   4.513  0.0285  0.2240 -1.1903
 2086SOL    HW217895   1.793   0.138   4.410 -1.0973  0.2159  0.2699
 2087SOL     OW17896   3.251   0.132   3.743 -0.1968 -0.0081  0.5252
 2087SOL    HW117897   3.200   0.176   3.812  0.7280  0.4958  0.8952
 2087SOL    HW217898   3.312   0.086   3.801 -0.9219 -0.0031  1.3048
 2088SOL     OW17899   4.691   0.488   3.397  0.8718  0.2740 -0.3658
 2088SOL    HW117900   0.009   0.563   3.398 -1.1660  1.8752 -2.8490
 2088SOL    HW217901   4.728   0.439   3.324 -1.8962 -0.1484 -1.4612
 2089SOL     OW17902   2.137   2.619  11.390  0.2772 -0.3667 -0.0968
 2089SOL    HW117903   2.116   2.694  11.333 -0.9729 -1.9414 -1.7005
 2089SOL    HW217904   2.182   2.658  11.465 -2.6690  1.2036  0.8504
 2090SOL     OW17905   2.047   3.192  10.844  0.0346 -1.0168 -0.0402
 2090SOL    HW117906   2.065   3.128  10.913 -1.3833 -1.7178 -0.2980
 2090SOL    HW217907   2.004   3.139  10.777  2.0376 -2.6629 -0.0411
 2091SOL     OW17908   2.800   2.499   4.686  0.0713 -0.2893 -0.3528
 2091SOL    HW117909   2.788   2.580   4.736 -0.8148  1.3202 -3.1693
 2091SOL    HW217910   2.834   2.526   4.600  0.2717 -2.4662 -0.9428
 2092SOL     OW17911   0.117   2.799   7.018  0.1236  0.3412  0.3247
 2092SOL    HW117912   0.091   2.841   7.101  0.1402  0.1979  0.4022
 2092SOL    HW217913   0.157   2.872   6.969 -2.3969  2.6619  1.7104
 2093SOL     OW17914   1.185   1.502  13.902 -0.1703 -0.1387 -0.0205
 2093SOL    HW117915   1.221   1.449  13.974  0.6067 -1.8654 -1.6862
 2093SOL    HW217916   1.098   1.512  13.940  0.2867 -0.5060  1.1240
 2094SOL     OW17917   4.492   1.043   9.301 -0.3584  0.4696  0.1458
 2094SOL    HW117918   4.440   1.094   9.239 -1.5073 -0.7458  0.1305
 2094SOL    HW217919   4.583   1.075   9.302  0.0410 -0.6342 -0.8698
 2095SOL     OW17920   3.067   0.626   6.777  0.4363  0.1765 -0.1023
 2095SOL    HW117921   3.161   0.633   6.792  0.7307 -1.9943 -0.8624
 2095SOL    HW217922   3.044   0.702   6.723 -0.1000 -0.1290 -0.3088
 2096SOL     OW17923   4.316   0.683   6.916 -0.0457  0.0224  0.7205
 2096SOL    HW117924   4.293   0.591   6.910  1.3917 -0.2847 -0.0248
 2096SOL    HW217925   4.372   0.697   6.992  0.6011  0.6871  0.1200
 2097SOL     OW17926   0.194   0.650   8.938 -0.0024  0.0688  0.2403
 2097SOL    HW117927   0.182   0.683   8.849  0.2689  2.2378  1.0054
 2097SOL    HW217928   0.115   0.600   8.959 -0.0782  0.6572  1.3650
 2098SOL     OW17929   4.468   3.875   7.097 -0.6684 -0.1608 -0.8706
 2098SOL    HW117930   4.561   3.866   7.119 -1.2125 -0.2540  1.3635
 2098SOL    HW217931   4.434   3.788   7.118 -2.5413  1.2770  2.0430
 2099SOL     OW17932   1.200   4.728   5.142 -0.1880 -0.0904  0.2388
 2099SOL    HW117933   1.266   0.023   5.202 -0.5074 -0.1080  0.5982
 2099SOL    HW217934   1.253   4.699   5.067 -0.6538  0.2507 -0.2214
 2100SOL     OW17935   4.682   1.463   5.609  0.2717  0.1416 -0.6690
 2100SOL    HW117936   4.638   1.380   5.628 -2.0973  0.8084 -3.2326
 2100SOL    HW217937   4.678   1.507   5.694 -1.7380 -0.2996 -0.5488
 2101SOL     OW17938   0.528   2.059   5.548  0.5362 -0.3231  0.0667
 2101SOL    HW117939   0.501   2.061   5.456 -0.2986 -2.0487  0.2787
 2101SOL    HW217940   0.595   1.990   5.548 -1.2376 -2.0321  2.5189
 2102SOL     OW17941   1.409   2.276   0.187  0.2358  0.2568 -0.7470
 2102SOL    HW117942   1.363   2.260   0.104 -0.6667  0.8032 -0.3567
 2102SOL    HW217943   1.395   2.195   0.235 -0.8773  1.2820  0.6385
 2103SOL     OW17944   4.080   4.056   2.224 -0.2210  0.5299  1.0013
 2103SOL    HW117945   4.169   4.021   2.232  0.0899  0.7107 -1.4435
 2103SOL    HW217946   4.056   3.989   2.159  2.4643 -0.0796  0.6291
 2104SOL     OW17947   0.981   0.239   2.074  0.5907 -0.3903  0.2598
 2104SOL    HW117948   1.024   0.312   2.118  1.4188 -0.2667 -0.7522
 2104SOL    HW217949   1.050   0.191   2.028 -1.3946 -2.5536 -0.4432
 2105SOL     OW17950   1.113   3.464  14.953  0.3017  0.4730 -0.4225
 2105SOL    HW117951   1.197   3.419  14.945  0.5117  0.8596 -0.4176
 2105SOL    HW217952   1.046   3.406  14.915  1.9079 -2.8268  1.8270
 2106SOL     OW17953   3.103   3.183   7.046  0.3078 -0.1283  0.8219
 2106SOL    HW117954   3.064   3.252   6.992  2.4853  0.8035  0.4204
 2106SOL    HW217955   3.197   3.192   7.027  0.7548 -0.7339  2.8333
 2107SOL     OW17956   0.596   0.091  11.495 -0.1700 -0.2375  0.3555
 2107SOL    HW117957   0.523   0.054  11.446 -0.2723 -0.3800  0.6185
 2107SOL    HW217958   0.581   0.185  11.485 -1.0204 -0.1477  2.4803
 2108SOL     OW17959   2.030   2.273   5.032  0.7167  0.4840  0.4365
 2108SOL    HW117960   2.082   2.227   5.098  1.3862  1.7834  0.8211
 2108SOL    HW217961   2.057   2.220   4.957  3.2439  2.2682  0.0840
 2109SOL     OW17962   2.602   4.029   3.883  0.0168 -0.8626 -0.0533
 2109SOL    HW117963   2.590   4.062   3.971 -2.4366 -0.1918 -0.6430
 2109SOL    HW217964   2.605   3.933   3.888 -0.1797 -0.8513  0.2315
 2110SOL     OW17965   0.552   2.608  12.260 -0.2156 -0.0006  0.7155
 2110SOL    HW117966   0.527   2.545  12.192  0.6803  1.4960 -1.0070
 2110SOL    HW217967   0.645   2.592  12.277  0.0823  1.9386  0.9100
 2111SOL     OW17968   0.479   0.033  13.019  0.1845  0.6259 -1.0626
 2111SOL    HW117969   0.572   0.044  13.040 -0.0405  2.6743 -1.1491
 2111SOL    HW217970   0.474   4.682  12.992  1.6703  0.1368  0.3733
 2112SOL     OW17971   3.070   3.551   9.319  0.3023  0.2491  0.1267
 2112SOL    HW117972   3.082   3.641   9.349 -2.0639  0.6963 -0.2216
 2112SOL    HW217973   3.159   3.518   9.316  0.2222 -0.0147  0.7272
 2113SOL     OW17974   2.023   1.430   3.571 -0.4211  0.7160  0.1960
 2113SOL    HW117975   2.086   1.494   3.604 -0.3433  0.4410  0.5856
 2113SOL    HW217976   2.001   1.381   3.650 -0.2987 -2.4976 -1.7678
 2114SOL     OW17977   2.804   0.890   6.972  0.3330  0.4904 -0.3661
 2114SOL    HW117978   2.833   0.832   6.902 -1.3508 -1.3942  0.5275
 2114SOL    HW217979   2.795   0.973   6.924 -0.1996  0.4610 -0.3115
 2115SOL     OW17980   4.134   2.346  12.253  0.5126  0.0835  0.0261
 2115SOL    HW117981   4.170   2.427  12.216 -1.9618  1.3175  0.2591
 2115SOL    HW217982   4.048   2.373  12.286  0.0012 -0.0229 -1.2093
 2116SOL     OW17983   1.139   2.089   4.925 -0.4831 -0.2512 -0.0808
 2116SOL    HW117984   1.146   1.994   4.915  2.0108 -0.1578  0.8585
 2116SOL    HW217985   1.229   2.117   4.941 -0.9323 -0.5323  2.8548
 2117SOL     OW17986   0.648   3.601   8.992 -0.0513 -0.6882  0.4541
 2117SOL    HW117987   0.659   3.578   9.084  1.2750 -2.4781 -0.1354
 2117SOL    HW217988   0.568   3.558   8.961 -0.2155  0.2421 -0.3859
 2118SOL     OW17989   4.638   0.554   3.694 -0.0574  0.6883  0.4125
 2118SOL    HW117990   4.701   0.625   3.695  3.4132 -2.3267 -4.3404
 2118SOL    HW217991   4.701   0.487   3.722  0.9197  1.4952  0.0972
 2119SOL     OW17992   2.035   3.028   7.503 -0.2471 -0.4861  0.1497
 2119SOL    HW117993   2.078   3.008   7.420 -0.3973 -0.1800 -0.0011
 2119SOL    HW217994   2.108   3.075   7.542  0.2206 -0.0285 -1.2786
 2120SOL     OW17995   3.406   1.098   1.961 -0.3775  0.0074  0.7753
 2120SOL    HW117996   3.473   1.051   2.011  2.2131  1.3984 -1.4212
 2120SOL    HW217997   3.439   1.089   1.871  2.7195 -2.1690  2.1150
 2121SOL     OW17998   0.335   2.306  17.726 -0.2679 -0.4001 -0.4441
 2121SOL    HW117999   0.341   2.228   0.020 -2.6012 -0.0089  0.3931
 2121SOL    HW218000   0.402   2.286  17.661 -0.0515  0.4319 -0.4798
 2122SOL     OW18001   4.355   4.733   9.319  0.4429  0.3717 -0.2668
 2122SOL    HW118002   4.345   0.033   9.405 -2.3963 -0.8302 -0.0050
 2122SOL    HW218003   4.311   0.054   9.260 -1.9430 -1.6941 -0.6389
 2123SOL     OW18004   3.877   3.324  10.519 -0.4857 -0.0649  0.5750
 2123SOL    HW118005   3.970   3.309  10.534 -0.2995 -0.6512 -1.0691
 2123SOL    HW218006   3.857   3.262  10.448 -0.2694  1.0635 -0.4756
 2124SOL     OW18007   0.321   1.504  11.374  0.0653  0.0261 -0.1188
 2124SOL    HW118008   0.229   1.516  11.398  0.3243  0.5534  0.6030
 2124SOL    HW218009   0.342   1.412  11.392  1.7653  0.2026 -1.2146
 2125SOL     OW18010   3.359   3.060   2.822  0.4263 -0.0993  0.0825
 2125SOL    HW118011   3.446   3.049   2.860  0.6141  1.9087  0.2258
 2125SOL    HW218012   3.367   3.156   2.821  0.5550 -0.1329 -1.9962
 2126SOL     OW18013   3.730   2.404   9.448  0.5517  0.0087  0.0515
 2126SOL    HW118014   3.791   2.379   9.379  0.6450 -0.5504  0.3397
 2126SOL    HW218015   3.659   2.454   9.408  0.4866  0.3226  0.5530
 2127SOL     OW18016   4.335   0.444   9.441  0.2556 -0.3401 -0.0658
 2127SOL    HW118017   4.315   0.453   9.534 -3.4794 -2.2391 -0.6775
 2127SOL    HW218018   4.255   0.418   9.394 -0.0909 -0.8067  0.7811
 2128SOL     OW18019   3.143   2.640   6.602 -0.4440 -0.2545 -0.6791
 2128SOL    HW118020   3.064   2.590   6.623 -0.9609  2.6160  4.0020
 2128SOL    HW218021   3.102   2.720   6.570 -1.7665  0.1483  2.0322
 2129SOL     OW18022   2.922   4.067   9.793 -0.0636  0.0951  0.7727
 2129SOL    HW118023   2.927   3.997   9.728 -0.8530  0.4118  0.3614
 2129SOL    HW218024   2.984   4.131   9.759  1.5499 -0.8816  1.8922
 2130SOL     OW18025   1.022   4.260  15.760 -0.2278 -0.2067  0.4089
 2130SOL    HW118026   0.945   4.287  15.709 -1.4675  0.3569  2.6108
 2130SOL    HW218027   0.989   4.219  15.840  0.7088  1.0584  1.4324
 2131SOL     OW18028   1.085   3.429   7.906 -0.4474  0.1828  0.3416
 2131SOL    HW118029   1.134   3.401   7.984  1.1095 -0.1388 -0.7468
 2131SOL    HW218030   1.054   3.343   7.879  0.2282 -0.7399  2.4465
 2132SOL     OW18031   3.046   0.291   8.734  0.0796  0.2254  0.5910
 2132SOL    HW118032   3.109   0.361   8.726 -1.6177  1.9234  2.0823
 2132SOL    HW218033   3.000   0.304   8.651  3.1048  0.5119 -1.0312
 2133SOL     OW18034   0.437   2.756   8.845  0.0041 -0.4391 -0.1269
 2133SOL    HW118035   0.421   2.850   8.854 -0.9920 -0.5883 -0.3300
 2133SOL    HW218036   0.396   2.710   8.918  0.0689 -0.2896  0.0056
 2134SOL     OW18037   3.642   3.586   4.840 -0.6738 -0.1462  0.4767
 2134SOL    HW118038   3.569   3.540   4.800 -1.2822 -0.3847  1.8557
 2134SOL    HW218039   3.617   3.675   4.861  0.0579 -0.0892  1.1643
 2135SOL     OW18040   1.192   2.862  17.601 -0.3813  0.1233 -0.4736
 2135SOL    HW118041   1.169   2.946  17.642 -3.3074  0.0502 -1.9484
 2135SOL    HW218042   1.110   2.813  17.592 -0.5431  0.4221 -0.6566
 2136SOL     OW18043   0.345   3.766  12.375 -0.2848 -0.0824 -0.0881
 2136SOL    HW118044   0.428   3.804  12.404 -1.0433  0.7757  0.9594
 2136SOL    HW218045   0.368   3.679  12.342 -2.0638 -0.5334 -0.1249
 2137SOL     OW18046   4.136   4.137   5.076 -0.1836 -0.4414  0.0982
 2137SOL    HW118047   4.190   4.179   5.009 -2.5262 -0.1626 -1.6133
 2137SOL    HW218048   4.208   4.079   5.104 -0.0258 -0.3278 -0.0699
 2138SOL     OW18049   4.494   2.766   4.349  0.1110 -0.7348  0.0846
 2138SOL    HW118050   4.438   2.837   4.320  0.1148 -0.4307  0.8195
 2138SOL    HW218051   4.439   2.712   4.406  1.4434 -2.0998  0.0981
 2139SOL     OW18052   1.386   0.247   5.076 -0.2128 -0.3616  0.1743
 2139SOL    HW118053   1.447   0.184   5.115 -0.6061  0.0956  1.5232
 2139SOL    HW218054   1.418   0.327   5.116  0.7258 -1.9500  2.5959
 2140SOL     OW18055   2.303   2.521   0.234 -0.7219  0.4304  0.5919
 2140SOL    HW118056   2.397   2.506   0.237 -0.7990 -0.0966  0.4285
 2140SOL    HW218057   2.267   2.432   0.234 -0.9801  0.5337  1.1557
 2141SOL     OW18058   3.960   3.067   0.572  0.0196  0.5761 -0.2495
 2141SOL    HW118059   3.978   2.987   0.524 -2.0678 -0.5852  0.8882
 2141SOL    HW218060   3.924   3.028   0.652  0.4293  2.1505  0.6985
 2142SOL     OW18061   3.452   0.763  11.482 -0.0869 -0.0854 -0.2675
 2142SOL    HW118062   3.368   0.722  11.460 -1.1303  1.0127  1.7412
 2142SOL    HW218063   3.494   0.747  11.397  0.1356  1.7906 -0.5133
 2143SOL     OW18064   1.632   2.229   3.893 -0.2812 -0.3809 -0.2159
 2143SOL    HW118065   1.636   2.133   3.896 -0.5202 -0.3721  0.2091
 2143SOL    HW218066   1.616   2.221   3.799 -0.7746  0.1103 -0.1732
 2144SOL     OW18067   1.903   1.752  15.059  0.4301 -0.0603 -0.1245
 2144SOL    HW118068   1.914   1.697  15.137  1.7943  0.6568  0.1901
 2144SOL    HW218069   1.966   1.706  15.004 -0.1233  0.6794 -1.3684
 2145SOL     OW18070   4.107   1.622  16.641 -0.1094 -0.2719  0.1389
 2145SOL    HW118071   4.200   1.625  16.620 -0.5334 -0.1476 -1.6481
 2145SOL    HW218072   4.066   1.595  16.559 -0.8837 -2.5672  1.2822
 2146SOL     OW18073   0.818   4.537   8.790  0.1617  0.2345 -0.1674
 2146SOL    HW118074   0.912   4.526   8.783  0.3644  1.6102  0.3276
 2146SOL    HW218075   0.796   4.459   8.842  1.1858 -0.0228 -0.1354
 2147SOL     OW18076   0.659   4.387  12.333 -0.2104  0.1159  0.3079
 2147SOL    HW118077   0.748   4.376  12.367  0.0511 -2.8411 -1.4087
 2147SOL    HW218078   0.675   4.401  12.240  0.5980 -0.8487  0.3024
 2148SOL     OW18079   0.118   2.580   7.222  0.3930  0.1188  0.0152
 2148SOL    HW118080   0.141   2.626   7.303 -3.9072 -0.0929  1.3236
 2148SOL    HW218081   0.138   2.636   7.147  1.0121  0.5776  0.5214
 2149SOL     OW18082   1.649   2.061   4.821  0.3077 -0.1204  0.2896
 2149SOL    HW118083   1.610   2.041   4.736  0.6495  0.0542  0.0924
 2149SOL    HW218084   1.706   1.989   4.848 -0.8802 -1.4969 -0.8361
 2150SOL     OW18085   3.844   4.349   5.379  0.2369  0.0593 -0.1498
 2150SOL    HW118086   3.760   4.308   5.397  0.3368  0.5123  1.3771
 2150SOL    HW218087   3.891   4.266   5.372 -0.3422 -0.3559  0.8609
 2151SOL     OW18088   4.447   2.087  11.205  0.0867 -0.2222  0.1418
 2151SOL    HW118089   4.443   2.029  11.128 -2.1760  1.3476 -0.9425
 2151SOL    HW218090   4.370   2.140  11.183 -0.0489 -0.8455 -0.9447
 2152SOL     OW18091   1.470   3.549  17.682 -0.2250 -0.3327 -0.0627
 2152SOL    HW118092   1.405   3.481  17.672  0.4552 -0.7776 -1.5045
 2152SOL    HW218093   1.521   3.519  17.607  0.1461 -0.8249  0.3775
 2153SOL     OW18094   3.458   1.181   8.120 -0.2837  0.1620 -0.3918
 2153SOL    HW118095   3.377   1.135   8.099  0.9784 -2.3679  0.2595
 2153SOL    HW218096   3.488   1.214   8.035  2.2430  0.6503  0.6786
 2154SOL     OW18097   4.042   3.482   5.826 -0.0129  0.3606  0.6349
 2154SOL    HW118098   3.972   3.478   5.761 -0.1251 -0.5965  0.8179
 2154SOL    HW218099   3.990   3.457   5.902  0.6197 -1.7066  0.3831
 2155SOL     OW18100   3.792   3.350   4.790 -0.3493  0.4985  0.2625
 2155SOL    HW118101   3.877   3.310   4.771 -0.7183  0.0553 -0.4685
 2155SOL    HW218102   3.797   3.442   4.764  0.5254  0.2940 -0.2625
 2156SOL     OW18103   3.310   3.507   3.330 -0.6644  0.0972 -0.3525
 2156SOL    HW118104   3.384   3.520   3.271  0.9332  0.8962  1.8401
 2156SOL    HW218105   3.261   3.575   3.285 -0.1494  1.7433  1.5654
 2157SOL     OW18106   2.371   4.677   9.351  0.5012 -0.1545  0.2597
 2157SOL    HW118107   2.312   0.007   9.378 -0.0147 -0.3779 -0.2780
 2157SOL    HW218108   2.345   4.667   9.260 -1.7140 -0.2503  0.8899
 2158SOL     OW18109   0.431   1.873   0.456 -0.4279 -0.0840  0.5182
 2158SOL    HW118110   0.482   1.799   0.423 -1.0216 -0.3331  0.1712
 2158SOL    HW218111   0.384   1.844   0.534  0.5263 -1.2233  0.6717
 2159SOL     OW18112   0.701   1.962   9.725  0.2456  0.2701  0.0338
 2159SOL    HW118113   0.663   1.923   9.647 -0.0265 -0.6837  0.6398
 2159SOL    HW218114   0.781   2.001   9.691  0.7312 -1.2407 -0.5629
 2160SOL     OW18115   3.055   2.835   4.255  0.6678 -0.0069  0.9957
 2160SOL    HW118116   3.095   2.921   4.266 -0.2264  0.3755  1.2666
 2160SOL    HW218117   3.134   2.783   4.272  1.0548 -0.1204 -1.1183
 2161SOL     OW18118   0.870   1.378   4.760 -0.6643  0.1747  0.3706
 2161SOL    HW118119   0.886   1.294   4.717 -1.6775 -0.1628  0.6357
 2161SOL    HW218120   0.827   1.350   4.841  1.0361  0.4725  1.3658
 2162SOL     OW18121   2.987   1.808   5.678  0.2495 -0.2976  0.3713
 2162SOL    HW118122   3.035   1.854   5.746  0.2240 -0.3806  0.4446
 2162SOL    HW218123   3.004   1.874   5.610 -1.0613  2.0094  2.2804
 2163SOL     OW18124   0.697   1.316  16.905  0.4675  0.4138 -0.0207
 2163SOL    HW118125   0.740   1.385  16.957 -0.0189 -0.5657  1.6610
 2163SOL    HW218126   0.609   1.353  16.899  0.1730  0.0661  2.1346
 2164SOL     OW18127   2.650   0.702   2.924  0.0790  0.2786 -0.2084
 2164SOL    HW118128   2.559   0.675   2.924  0.3194 -0.5273 -2.8143
 2164SOL    HW218129   2.683   0.613   2.938 -1.6729 -0.4636 -0.8876
 2165SOL     OW18130   2.901   2.153   2.086 -0.6304  0.0106  0.2210
 2165SOL    HW118131   2.870   2.223   2.144 -0.3874 -0.0443  0.4148
 2165SOL    HW218132   2.820   2.106   2.065 -0.4632  0.2047 -0.8630
 2166SOL     OW18133   0.081   2.135   3.620  0.3054  0.3308 -0.0706
 2166SOL    HW118134   0.006   2.117   3.676  0.1413  1.9292  0.2239
 2166SOL    HW218135   0.146   2.164   3.684  1.1851 -0.1530 -0.7276
 2167SOL     OW18136   1.618   2.079   4.282 -0.4627  0.2353  0.2228
 2167SOL    HW118137   1.591   2.010   4.221  0.8011  0.2471 -0.3567
 2167SOL    HW218138   1.701   2.039   4.308 -0.6496  0.0788  0.5804
 2168SOL     OW18139   0.644   1.234   3.917  0.1679  0.1941  0.8865
 2168SOL    HW118140   0.574   1.225   3.852  0.7537 -2.4372  0.6431
 2168SOL    HW218141   0.626   1.323   3.949 -2.1337  0.6154 -1.5686
 2169SOL     OW18142   3.171   1.611   6.249  0.0513 -0.3927 -0.6798
 2169SOL    HW118143   3.174   1.526   6.294 -2.3336  0.5655  1.2843
 2169SOL    HW218144   3.077   1.630   6.247  0.6022  1.9711 -2.5819
 2170SOL     OW18145   0.972   2.523   5.517 -0.0915  0.3423  0.5961
 2170SOL    HW118146   0.877   2.510   5.509  0.0328 -1.8635  2.6910
 2170SOL    HW218147   1.002   2.458   5.453  0.1773  0.8746  0.1735
 2171SOL     OW18148   3.407   2.729  12.673  0.0971 -0.4692 -0.5043
 2171SOL    HW118149   3.484   2.776  12.642  0.6075 -0.4649  0.7689
 2171SOL    HW218150   3.457   2.655  12.707  1.7473  0.6320 -0.5312
 2172SOL     OW18151   4.276   0.770   3.641  0.2607 -0.6205  0.5919
 2172SOL    HW118152   4.313   0.736   3.560 -1.5818 -0.6594 -0.2409
 2172SOL    HW218153   4.190   0.795   3.607  1.1178  0.4925 -0.7233
 2173SOL     OW18154   0.421   0.078   5.071  0.3516 -0.1312  0.0882
 2173SOL    HW118155   0.404   0.037   4.985 -0.4602  1.3275 -0.4402
 2173SOL    HW218156   0.497   0.023   5.089  0.0705 -0.4372  0.3495
 2174SOL     OW18157   0.423   4.706   8.468 -0.3803  0.1239 -0.8233
 2174SOL    HW118158   0.512   4.720   8.500 -0.3687  0.2109 -0.8941
 2174SOL    HW218159   0.377   4.692   8.551  1.7571 -1.2103  0.1505
 2175SOL     OW18160   4.641   2.533   4.858  0.1732 -0.4460  0.0061
 2175SOL    HW118161   4.574   2.545   4.792  0.0813  1.1647  0.4005
 2175SOL    HW218162   4.714   2.519   4.798  1.9213  1.0189  1.8089
 2176SOL     OW18163   1.043   3.645   6.345 -0.4746  0.3995  0.9161
 2176SOL    HW118164   1.024   3.698   6.268  1.2575  0.7192  0.7050
 2176SOL    HW218165   1.054   3.560   6.302 -0.4805  0.3904  0.9325
 2177SOL     OW18166   2.112   3.495   7.324  0.3748 -0.0844  0.4436
 2177SOL    HW118167   2.119   3.443   7.244  1.7743 -1.7125  1.6084
 2177SOL    HW218168   2.169   3.447   7.384  0.7837 -0.1456  0.0013
 2178SOL     OW18169   0.165   2.396   2.881 -0.3744  0.2009  0.2218
 2178SOL    HW118170   0.152   2.473   2.825 -0.9878 -0.9267 -1.1956
 2178SOL    HW218171   0.187   2.443   2.961  0.7276 -0.4388  0.3018
 2179SOL     OW18172   1.625   3.957   9.262  1.0081  0.9302 -0.3315
 2179SOL    HW118173   1.678   3.894   9.213 -0.7440 -1.3219  0.6761
 2179SOL    HW218174   1.536   3.937   9.233  1.5824 -2.9478  0.6782
 2180SOL     OW18175   3.791   3.196   3.497  0.2640 -0.0447 -0.5956
 2180SOL    HW118176   3.881   3.165   3.496 -0.7879 -3.0689 -2.5593
 2180SOL    HW218177   3.740   3.122   3.464 -0.7295  1.7249 -2.9521
 2181SOL     OW18178   3.487   1.338   5.731 -0.1217 -0.0688  0.3355
 2181SOL    HW118179   3.548   1.265   5.725 -1.5394 -1.4364  2.5778
 2181SOL    HW218180   3.433   1.301   5.800  0.4949 -1.5628  0.0189
 2182SOL     OW18181   0.229   3.841  10.440 -0.5230 -0.2848 -0.7147
 2182SOL    HW118182   0.206   3.879  10.525 -1.2986  2.1832 -2.0534
 2182SOL    HW218183   0.261   3.756  10.471 -1.4761 -0.0963  0.8133
 2183SOL     OW18184   0.250   3.889   7.359 -0.0060 -0.1284 -0.1872
 2183SOL    HW118185   0.199   3.874   7.438 -0.1009  0.1948 -0.1858
 2183SOL    HW218186   0.300   3.960   7.398  2.2822 -2.4331  1.0331
 2184SOL     OW18187   2.075   0.467   2.048  0.5037  0.1609  0.1439
 2184SOL    HW118188   2.035   0.416   1.977 -1.1656 -0.3272  1.4497
 2184SOL    HW218189   2.001   0.521   2.076  0.3953  0.2017 -0.2119
 2185SOL     OW18190   0.719   1.027   7.045 -0.1586 -0.4143  0.2653
 2185SOL    HW118191   0.651   1.000   6.983  0.0737  0.2771 -0.2924
 2185SOL    HW218192   0.797   1.053   6.996 -1.0726  0.1855 -0.8856
 2186SOL     OW18193   0.256   0.442   4.299  0.1186 -0.0603  0.3977
 2186SOL    HW118194   0.302   0.359   4.282  1.1267  0.2123  1.7912
 2186SOL    HW218195   0.199   0.417   4.373 -1.4298  1.9388 -0.1224
 2187SOL     OW18196   3.649   3.773   2.476 -0.4700 -0.4120 -0.3208
 2187SOL    HW118197   3.682   3.767   2.566  0.7556  0.5205 -0.7075
 2187SOL    HW218198   3.709   3.832   2.430 -0.3511 -0.3666 -0.1073
 2188SOL     OW18199   2.412   3.565   2.919  0.0074 -0.0855  0.8036
 2188SOL    HW118200   2.486   3.535   2.867 -1.3726 -2.0379 -0.0028
 2188SOL    HW218201   2.342   3.551   2.856  0.5644 -0.5993  0.3125
 2189SOL     OW18202   3.693   3.780   7.419  0.0736 -0.1690  0.0016
 2189SOL    HW118203   3.601   3.788   7.394 -0.7514 -1.5716  2.6981
 2189SOL    HW218204   3.729   3.745   7.337 -2.3341  0.4066 -1.3293
 2190SOL     OW18205   1.531   3.426   2.319 -0.4742  0.5143 -0.3814
 2190SOL    HW118206   1.536   3.515   2.354  1.5665 -1.2991  3.8746
 2190SOL    HW218207   1.611   3.421   2.268 -1.9471 -1.2035 -2.5008
 2191SOL     OW18208   1.659   3.928   3.223  0.3394  0.1274  0.1791
 2191SOL    HW118209   1.569   3.910   3.197  0.5240  0.2241 -0.5252
 2191SOL    HW218210   1.662   4.023   3.232  0.4595  0.1717 -0.2960
 2192SOL     OW18211   4.401   3.637  10.528  0.1728  0.6577  0.2558
 2192SOL    HW118212   4.483   3.662  10.571  0.1803  0.7849  0.1699
 2192SOL    HW218213   4.429   3.573  10.462 -0.2138 -0.0355  0.7726
 2193SOL     OW18214   3.628   3.312   6.029  0.3065  0.3220  0.0521
 2193SOL    HW118215   3.574   3.276   6.100 -0.5934 -0.3238 -0.9667
 2193SOL    HW218216   3.604   3.404   6.024 -2.3202 -0.1656  3.4584
 2194SOL     OW18217   3.434   1.515   4.254 -0.4185 -0.4798 -0.2032
 2194SOL    HW118218   3.350   1.561   4.257 -0.1489  0.0487 -0.8050
 2194SOL    HW218219   3.421   1.450   4.323 -0.0200 -1.5707 -1.1499
 2195SOL     OW18220   4.275   1.706   2.453 -0.0759  0.3409 -0.1593
 2195SOL    HW118221   4.265   1.699   2.358  0.8042  0.7127 -0.2742
 2195SOL    HW218222   4.290   1.613   2.471  2.9029  1.0009  0.6622
 2196SOL     OW18223   3.365   4.051   6.554 -0.0442 -0.1717 -0.5922
 2196SOL    HW118224   3.398   4.097   6.476  2.6119 -0.7941  0.1506
 2196SOL    HW218225   3.317   4.122   6.596 -0.7791 -0.4382 -0.9756
 2197SOL     OW18226   4.201   4.417   0.295 -0.0347 -0.0363  0.2035
 2197SOL    HW118227   4.160   4.331   0.306 -0.9617  0.4818  0.7501
 2197SOL    HW218228   4.289   4.401   0.331 -0.2796 -0.7661  0.4846
 2198SOL     OW18229   0.647   4.039   5.107  0.4143 -0.0205  0.5241
 2198SOL    HW118230   0.625   3.989   5.028  1.6801  2.0607 -1.1753
 2198SOL    HW218231   0.608   4.126   5.096 -1.2930 -1.0932 -1.9162
 2199SOL     OW18232   4.300   2.771  11.442 -0.0551  0.3997 -0.3689
 2199SOL    HW118233   4.278   2.773  11.535  2.3201  0.1718  0.1876
 2199SOL    HW218234   4.221   2.795  11.394 -0.4910 -0.9037 -0.2920
 2200SOL     OW18235   4.679   0.252  16.991 -0.4255 -0.3726  0.3157
 2200SOL    HW118236   4.700   0.162  16.967  0.0193  0.6569 -3.1120
 2200SOL    HW218237   4.615   0.238  17.061 -0.7520 -2.7405 -0.4621
 2201SOL     OW18238   2.207   1.476   2.106  0.2474  0.3020 -0.6853
 2201SOL    HW118239   2.130   1.524   2.077 -0.7491 -0.4964  0.6528
 2201SOL    HW218240   2.194   1.410   2.038  0.2580 -1.2929  0.8552
 2202SOL     OW18241   1.938   2.548  14.084 -0.3843 -0.2202  0.3700
 2202SOL    HW118242   1.933   2.642  14.067  1.5716 -0.6677 -2.7976
 2202SOL    HW218243   2.030   2.550  14.112  0.1736 -0.7244 -1.4063
 2203SOL     OW18244   2.812   1.442   3.559  0.7333 -0.4236  0.3293
 2203SOL    HW118245   2.800   1.528   3.521 -0.4408 -0.8998 -0.3721
 2203SOL    HW218246   2.852   1.478   3.638  2.0025 -0.0565 -0.4870
 2204SOL     OW18247   0.346   3.322  16.116  0.0620 -0.2622  0.2432
 2204SOL    HW118248   0.285   3.277  16.057  0.9327 -1.4606  0.2512
 2204SOL    HW218249   0.305   3.408  16.104  0.2036 -0.1138  0.8420
 2205SOL     OW18250   3.531   2.293   7.054 -0.2501 -0.2954  0.5045
 2205SOL    HW118251   3.481   2.229   7.004 -0.4688 -0.1282  0.5151
 2205SOL    HW218252   3.572   2.341   6.982  0.5467 -1.5324  0.1261
 2206SOL     OW18253   4.667   2.878  14.620  0.0557  0.3707 -0.3262
 2206SOL    HW118254   4.591   2.914  14.573  0.3723 -0.5804 -1.5502
 2206SOL    HW218255   4.670   2.788  14.588  1.7243  0.4526 -0.3842
 2207SOL     OW18256   3.042   0.938   5.992  0.0845 -0.5173 -0.3988
 2207SOL    HW118257   3.051   1.033   5.980  2.4109 -0.3021  2.8781
 2207SOL    HW218258   2.971   0.928   6.055  1.0446  0.5220  0.8537
 2208SOL     OW18259   0.037   0.029   6.540 -0.1707  0.4557  0.7323
 2208SOL    HW118260   0.022   0.083   6.462 -1.8933 -0.0093  0.7328
 2208SOL    HW218261   0.027   4.683   6.502 -0.0750  0.5725  0.4408
 2209SOL     OW18262   1.433   3.462   5.582 -0.1347  0.1180  0.1912
 2209SOL    HW118263   1.403   3.400   5.515  0.7929 -1.4851  1.2716
 2209SOL    HW218264   1.432   3.407   5.660 -0.1088 -0.9029 -0.5249
 2210SOL     OW18265   3.115   0.276   3.935 -0.6623 -0.6552  0.1112
 2210SOL    HW118266   3.132   0.280   4.029  2.4644  0.1854 -0.5077
 2210SOL    HW218267   3.053   0.347   3.920  2.9179  3.2413  3.9030
 2211SOL     OW18268   0.565   3.283  14.970 -0.1716  0.2164  0.0705
 2211SOL    HW118269   0.632   3.217  14.987 -0.2472  0.3290  0.8003
 2211SOL    HW218270   0.592   3.311  14.882  0.5247 -0.4907  0.0615
 2212SOL     OW18271   3.361   4.471   0.387  0.0254  0.1126  0.4533
 2212SOL    HW118272   3.273   4.485   0.351  0.1023 -1.4914 -0.3320
 2212SOL    HW218273   3.376   4.547   0.444 -0.5989 -0.0198  0.7990
 2213SOL     OW18274   4.557   2.165   8.187 -0.1262 -0.2783 -0.1995
 2213SOL    HW118275   4.515   2.125   8.111 -0.3731 -2.6135  1.1541
 2213SOL    HW218276   4.491   2.159   8.257  1.0882  1.0905  1.0656
 2214SOL     OW18277   0.470   0.840   1.919  0.3547  0.9942  0.3162
 2214SOL    HW118278   0.377   0.847   1.941  0.7352 -0.9025  2.4836
 2214SOL    HW218279   0.499   0.790   1.995  1.5577 -0.5860 -1.1769
 2215SOL     OW18280   0.222   4.176   9.351 -0.2609 -0.8993  0.4869
 2215SOL    HW118281   0.275   4.152   9.426  0.5874  2.3779  0.9300
 2215SOL    HW218282   0.147   4.209   9.401  0.3305  3.0509 -1.2701
 2216SOL     OW18283   4.577   2.813   6.787 -0.3975 -0.0067 -0.4332
 2216SOL    HW118284   4.669   2.835   6.800 -0.2004 -1.1939  0.1799
 2216SOL    HW218285   4.538   2.873   6.850 -0.0876 -0.3113  0.0453
 2217SOL     OW18286   2.947   1.981   6.929 -0.1819 -0.3617 -0.2370
 2217SOL    HW118287   2.925   1.949   7.017 -0.9153  0.2105 -0.2081
 2217SOL    HW218288   2.999   2.059   6.952  0.9986 -2.3117  3.8267
 2218SOL     OW18289   0.851   0.988   6.270 -0.3262  0.5349 -0.2845
 2218SOL    HW118290   0.918   0.994   6.202  1.1345  1.1007  1.2191
 2218SOL    HW218291   0.775   0.963   6.216  0.7741 -1.1019 -1.0884
 2219SOL     OW18292   0.731   1.298   5.584 -0.0464  0.1709 -0.6483
 2219SOL    HW118293   0.682   1.348   5.649  2.3771  1.1556  0.3971
 2219SOL    HW218294   0.755   1.215   5.624  0.8823  0.5693 -0.3909
 2220SOL     OW18295   4.071   0.995   7.295  0.5036  0.1911 -0.0407
 2220SOL    HW118296   4.042   1.033   7.212  0.9369  2.6082  0.9266
 2220SOL    HW218297   4.012   0.921   7.305  1.6356 -0.6571  0.3198
 2221SOL     OW18298   2.635   2.796  13.366 -0.0199  0.5434 -0.3063
 2221SOL    HW118299   2.581   2.749  13.303 -0.3372  1.3944 -0.6711
 2221SOL    HW218300   2.720   2.757  13.345 -0.2667  0.0051 -0.3049
 2222SOL     OW18301   2.240   1.645  15.400  0.0950 -0.1323  0.2162
 2222SOL    HW118302   2.183   1.608  15.468 -0.7135 -0.2478 -0.5274
 2222SOL    HW218303   2.214   1.736  15.413  0.9875 -0.4018  4.0978
 2223SOL     OW18304   3.296   2.549   8.139  0.0612 -0.4152 -0.1868
 2223SOL    HW118305   3.292   2.512   8.051  0.5735  0.4170 -0.5607
 2223SOL    HW218306   3.207   2.519   8.161  0.5929 -1.2665  0.7826
 2224SOL     OW18307   2.512   1.337   2.994  0.2304  0.2944  0.1661
 2224SOL    HW118308   2.530   1.248   2.963  2.2189  1.2086 -1.2344
 2224SOL    HW218309   2.485   1.378   2.912 -1.4190 -1.5513 -0.2103
 2225SOL     OW18310   1.801   0.040   1.826  0.4181 -0.7419  0.2292
 2225SOL    HW118311   1.887   0.047   1.868 -0.6369  1.5185  2.0174
 2225SOL    HW218312   1.791   4.687   1.812  0.7563 -0.8752  0.8872
 2226SOL     OW18313   3.729   1.487   5.890 -0.1910  0.2511  0.0319
 2226SOL    HW118314   3.635   1.487   5.911 -0.2301 -2.0678 -0.1213
 2226SOL    HW218315   3.738   1.467   5.796 -3.2427 -0.0038 -0.2137
 2227SOL     OW18316   1.261   3.569  16.957 -0.0695 -0.2583 -0.3158
 2227SOL    HW118317   1.323   3.637  16.984  0.8007 -1.0172 -0.4115
 2227SOL    HW218318   1.322   3.496  16.948  1.5328  1.1034 -0.4036
 2228SOL     OW18319   3.243   0.469   8.780  0.2734 -0.2301 -0.2920
 2228SOL    HW118320   3.302   0.506   8.715  0.2326  1.7773  0.8163
 2228SOL    HW218321   3.271   0.510   8.862  2.4671 -1.4770 -0.4208
 2229SOL     OW18322   0.093   0.937  14.839  0.5573  0.4388  0.1706
 2229SOL    HW118323   0.185   0.935  14.864  1.3255  2.3797 -2.5063
 2229SOL    HW218324   0.059   0.863  14.890 -1.3324 -0.2078 -2.0267
 2230SOL     OW18325   2.321   0.065   5.485 -0.3944  0.1274  0.2054
 2230SOL    HW118326   2.399   0.056   5.540 -0.4476  2.3600  0.6436
 2230SOL    HW218327   2.252   0.064   5.551 -1.8751  1.4879 -1.3257
 2231SOL     OW18328   0.540   2.628  10.247  0.0220 -0.2677  0.0672
 2231SOL    HW118329   0.462   2.683  10.246 -1.0899 -1.8591 -0.0054
 2231SOL    HW218330   0.616   2.686  10.246  0.6152 -1.0264  1.4532
 2232SOL     OW18331   3.563   3.047  17.341  0.0772 -0.5207 -0.6783
 2232SOL    HW118332   3.584   2.957  17.313 -1.3562 -0.2125 -2.8010
 2232SOL    HW218333   3.478   3.027  17.381  1.6801 -4.7999  0.6349
 2233SOL     OW18334   3.749   1.663  16.318  0.2959  0.0303  0.4968
 2233SOL    HW118335   3.786   1.739  16.272 -1.0808  0.6982  0.4827
 2233SOL    HW218336   3.765   1.683  16.410 -0.0630 -0.9382  0.7620
 2234SOL     OW18337   1.784   0.420  15.154  0.2027 -0.1430  0.7097
 2234SOL    HW118338   1.710   0.481  15.163 -1.1254 -1.9924  2.1791
 2234SOL    HW218339   1.810   0.406  15.245  0.7909  0.1826  0.5923
 2235SOL     OW18340   3.570   4.126   2.400  0.0557 -0.0955 -0.9309
 2235SOL    HW118341   3.641   4.151   2.341 -0.3064  2.3800 -0.3059
 2235SOL    HW218342   3.495   4.121   2.341 -1.4955  1.6815  0.8668
 2236SOL     OW18343   1.928   1.373   9.200  0.2461 -0.5621  0.1166
 2236SOL    HW118344   1.966   1.448   9.245 -0.2168  0.1273 -0.6407
 2236SOL    HW218345   1.841   1.372   9.241  0.2078  0.9386  0.0853
 2237SOL     OW18346   0.809   3.828   1.817 -0.3425 -0.9315 -0.0905
 2237SOL    HW118347   0.768   3.843   1.901 -0.9151 -3.1874  0.0218
 2237SOL    HW218348   0.878   3.894   1.820  0.7444 -2.0930  0.5803
 2238SOL     OW18349   4.242   4.716   5.977  0.0274 -0.0482 -0.5551
 2238SOL    HW118350   4.312   0.018   5.929  0.6131 -1.1179 -0.6699
 2238SOL    HW218351   4.268   4.726   6.069 -1.8764  2.1190 -0.2594
 2239SOL     OW18352   4.721   0.713   7.872 -0.3251 -0.0618 -0.6166
 2239SOL    HW118353   4.644   0.667   7.837 -2.3864  1.1662  2.2985
 2239SOL    HW218354   0.029   0.633   7.893 -3.0039 -1.5618  0.0353
 2240SOL     OW18355   0.070   0.727  10.229 -0.2975  0.5485  0.1218
 2240SOL    HW118356   0.011   0.731  10.304  0.1250 -1.0309  0.5355
 2240SOL    HW218357   0.007   0.759  10.163  0.7023 -3.6924 -2.9134
 2241SOL     OW18358   2.198   0.914   2.919  0.4009  0.6694 -0.1580
 2241SOL    HW118359   2.174   0.919   2.827 -2.0107  0.9540  0.4985
 2241SOL    HW218360   2.221   0.822   2.926 -0.5047  0.2058 -3.2461
 2242SOL     OW18361   3.639   2.146  17.335  0.3408  0.3643  0.5058
 2242SOL    HW118362   3.658   2.124  17.243 -0.6193 -2.3010  0.9431
 2242SOL    HW218363   3.619   2.066  17.383 -2.1238  1.0281  0.6119
 2243SOL     OW18364   3.904   0.449  15.129  0.2919 -0.0546  0.1028
 2243SOL    HW118365   3.978   0.449  15.069 -1.1245 -1.2995 -1.6641
 2243SOL    HW218366   3.840   0.500  15.079  0.7817  0.1117 -0.3479
 2244SOL     OW18367   2.598   0.567  15.006 -0.4459  0.2625  0.1622
 2244SOL    HW118368   2.630   0.575  14.917 -0.5726  2.4814  0.3319
 2244SOL    HW218369   2.555   0.481  15.012 -2.3618  1.2854  1.1317
 2245SOL     OW18370   0.462   0.634   2.107  0.6641  0.1798 -0.1130
 2245SOL    HW118371   0.373   0.605   2.086  0.6084  1.4214 -1.6062
 2245SOL    HW218372   0.473   0.610   2.199 -0.8708  0.9081  0.2616
 2246SOL     OW18373   2.776   3.569   5.933 -0.8998 -0.1943 -0.6690
 2246SOL    HW118374   2.843   3.594   5.997 -0.4962 -1.3735 -0.6210
 2246SOL    HW218375   2.816   3.503   5.876  0.4442 -1.4216  1.6904
 2247SOL     OW18376   3.238   2.181   2.516  0.0369 -0.2643 -0.0413
 2247SOL    HW118377   3.261   2.149   2.429  0.3308 -3.7462  1.3152
 2247SOL    HW218378   3.316   2.155   2.565 -0.0372  0.0360  0.2406
 2248SOL     OW18379   0.898   1.916  12.122 -0.5224 -0.2949  0.1441
 2248SOL    HW118380   0.856   1.831  12.112  0.8185 -0.7618 -1.5814
 2248SOL    HW218381   0.966   1.909  12.054 -0.3376 -1.3374  0.4490
 2249SOL     OW18382   4.511   1.391   9.476 -0.9219 -0.5401 -0.0251
 2249SOL    HW118383   4.502   1.482   9.506  0.5524  0.0183 -1.2762
 2249SOL    HW218384   4.456   1.341   9.536 -1.6257  1.1752  0.7861
 2250SOL     OW18385   2.506   1.280  11.912 -0.0677 -0.1343 -0.1922
 2250SOL    HW118386   2.534   1.194  11.880 -1.8360 -1.0267  0.6788
 2250SOL    HW218387   2.573   1.297  11.978  0.4328 -0.7012 -0.5533
 2251SOL     OW18388   1.764   2.248   2.818 -0.4391 -0.2344 -0.0305
 2251SOL    HW118389   1.796   2.184   2.755  1.6603  0.4444  0.3403
 2251SOL    HW218390   1.686   2.282   2.774  1.1346  0.5041 -2.2548
 2252SOL     OW18391   0.751   0.075  13.091 -0.0496 -0.2636  0.5514
 2252SOL    HW118392   0.807   0.071  13.013  2.8628  1.5389  2.5258
 2252SOL    HW218393   0.768   4.724  13.111 -1.8599 -0.4819  1.0846
 2253SOL     OW18394   0.818   2.288  10.610  0.3052 -0.1937  0.0776
 2253SOL    HW118395   0.780   2.253  10.529 -1.4070  1.2118  0.2656
 2253SOL    HW218396   0.802   2.210  10.664 -0.1267  2.2644  3.4444
 2254SOL     OW18397   1.948   0.063   7.772  0.0614  0.2048 -0.4553
 2254SOL    HW118398   2.029   0.084   7.726  0.2552  2.1309  0.7459
 2254SOL    HW218399   1.882   0.038   7.707 -1.3396 -0.2075  1.1244
 2255SOL     OW18400   1.123   1.318   4.908 -0.2812  0.3512 -0.3458
 2255SOL    HW118401   1.055   1.374   4.869 -0.9141 -0.1409  0.0363
 2255SOL    HW218402   1.169   1.286   4.831 -1.0208  0.3867 -0.8084
 2256SOL     OW18403   1.453   1.477   3.818 -0.0565 -0.4852 -0.4332
 2256SOL    HW118404   1.525   1.495   3.879 -2.2064  0.3594  1.8503
 2256SOL    HW218405   1.418   1.402   3.865  0.0580 -1.0408 -1.2356
 2257SOL     OW18406   0.541   2.559   8.151 -0.0304 -0.2400 -0.2175
 2257SOL    HW118407   0.463   2.509   8.127 -1.8602  2.2520  0.5021
 2257SOL    HW218408   0.500   2.645   8.146  2.9209  1.0756 -1.5523
 2258SOL     OW18409   1.385   3.905   1.507 -0.0469 -0.2218 -0.5340
 2258SOL    HW118410   1.394   3.847   1.431  2.1916  1.0200 -1.2500
 2258SOL    HW218411   1.441   3.980   1.484 -0.9706  0.3562 -0.8939
 2259SOL     OW18412   3.874   2.038   3.323 -0.1222 -0.3677  0.3041
 2259SOL    HW118413   3.962   2.072   3.306 -0.4844  0.3638 -0.1064
 2259SOL    HW218414   3.816   2.111   3.300 -2.4432 -2.1503  0.5366
 2260SOL     OW18415   2.695   2.513   0.139 -0.0248 -0.2562  0.2160
 2260SOL    HW118416   2.656   2.540   0.222  1.4973  2.6500 -0.0211
 2260SOL    HW218417   2.650   2.431   0.121  3.3100 -1.8959 -0.5205
 2261SOL     OW18418   3.106   4.181  12.413  0.9542  0.2855 -0.3513
 2261SOL    HW118419   3.022   4.135  12.422  1.6255 -0.6660  1.1375
 2261SOL    HW218420   3.166   4.110  12.390 -0.0227 -0.6196 -0.1166
 2262SOL     OW18421   3.269   3.578   9.607 -0.0235  0.1032  0.0001
 2262SOL    HW118422   3.313   3.503   9.567 -0.3070 -0.1636  0.1917
 2262SOL    HW218423   3.347   3.623   9.639  0.4260 -1.8447  1.5832
 2263SOL     OW18424   3.073   3.181   3.229  0.0726 -0.2369 -0.1436
 2263SOL    HW118425   3.149   3.126   3.248 -0.9606 -1.5681  0.1304
 2263SOL    HW218426   3.057   3.135   3.146  3.1658  1.8673 -1.9130
 2264SOL     OW18427   0.608   0.439   6.436  0.4993  0.2564  0.3436
 2264SOL    HW118428   0.564   0.369   6.388  1.6317 -1.8369  2.3244
 2264SOL    HW218429   0.551   0.513   6.418 -0.8874 -0.6973  0.7701
 2265SOL     OW18430   3.857   1.694   5.463 -0.2439  0.1485  0.4220
 2265SOL    HW118431   3.945   1.724   5.483 -0.8461  1.5330  1.0099
 2265SOL    HW218432   3.847   1.618   5.520  1.4309 -0.9661 -0.7773
 2266SOL     OW18433   1.378   0.936  10.303  0.3351 -0.2486 -0.0292
 2266SOL    HW118434   1.371   0.866  10.239  0.8478  0.2569 -0.6387
 2266SOL    HW218435   1.440   0.897  10.365 -1.2518 -1.2872  0.8980
 2267SOL     OW18436   3.750   2.235   7.218 -0.2166  0.3646 -0.1162
 2267SOL    HW118437   3.666   2.230   7.173  0.0267  0.8933 -0.6249
 2267SOL    HW218438   3.789   2.305   7.166 -0.8606 -0.3851 -1.5971
 2268SOL     OW18439   1.824   3.871   7.975 -0.1225 -0.2091 -0.2483
 2268SOL    HW118440   1.900   3.895   7.921  1.5186  0.0226  2.2051
 2268SOL    HW218441   1.793   3.956   8.006 -0.3986  0.1917 -1.6071
 2269SOL     OW18442   3.457   4.361   7.581  0.0998 -0.6041  0.1022
 2269SOL    HW118443   3.419   4.359   7.493  0.4962 -0.8898 -0.0636
 2269SOL    HW218444   3.388   4.315   7.629  0.0703  1.0139  1.5979
 2270SOL     OW18445   3.149   4.434   5.089  0.0476 -0.3500  0.1131
 2270SOL    HW118446   3.171   4.524   5.063  0.1580 -0.1456  0.9277
 2270SOL    HW218447   3.062   4.429   5.048  0.5746 -0.0277 -1.0535
 2271SOL     OW18448   1.174   2.232   9.349 -0.3000 -0.1279 -0.2558
 2271SOL    HW118449   1.081   2.248   9.329 -0.2317 -0.9680 -1.2431
 2271SOL    HW218450   1.198   2.313   9.392 -1.7636 -0.3882  1.0569
 2272SOL     OW18451   4.169   3.413  13.324  0.3701  0.2939 -0.1280
 2272SOL    HW118452   4.152   3.502  13.354 -0.1704 -0.3035  1.3499
 2272SOL    HW218453   4.110   3.414  13.249  1.2775  0.3126 -0.8412
 2273SOL     OW18454   1.388   4.456  13.841 -0.3396  0.2906 -0.3366
 2273SOL    HW118455   1.347   4.473  13.926 -1.3886 -0.1979 -0.7368
 2273SOL    HW218456   1.395   4.361  13.849  0.6767  0.5142  1.3566
 2274SOL     OW18457   2.419   2.692  14.022 -0.5026 -0.1666 -0.0197
 2274SOL    HW118458   2.488   2.748  14.057 -0.4239 -0.9167  1.0160
 2274SOL    HW218459   2.482   2.625  13.997 -1.2987 -0.9264  0.0069
 2275SOL     OW18460   2.707   3.290   3.520 -0.4870  0.4085 -0.3408
 2275SOL    HW118461   2.735   3.353   3.586 -1.3482 -1.2562  1.6086
 2275SOL    HW218462   2.655   3.342   3.457 -1.0771  0.2017 -0.0235
 2276SOL     OW18463   2.076   0.553   8.268  0.0612 -0.2210  0.5399
 2276SOL    HW118464   2.132   0.490   8.224 -1.1929 -2.1347  1.6852
 2276SOL    HW218465   1.994   0.503   8.275  1.3180 -2.2109  0.9644
 2277SOL     OW18466   4.015   0.302   6.137  0.2509 -0.1478  0.1491
 2277SOL    HW118467   3.981   0.264   6.057  0.9300  0.6024 -0.4957
 2277SOL    HW218468   3.965   0.241   6.192  2.0832 -1.6044  0.1989
 2278SOL     OW18469   1.212   1.496   6.355 -0.0453  0.1944  0.4195
 2278SOL    HW118470   1.220   1.497   6.260 -0.6531  0.8370  0.3713
 2278SOL    HW218471   1.272   1.569   6.370  1.5022 -1.5222  2.5710
 2279SOL     OW18472   3.254   3.209   6.120  0.4611  0.8575  0.5363
 2279SOL    HW118473   3.267   3.207   6.025  0.0634  1.7851  0.4713
 2279SOL    HW218474   3.233   3.301   6.132 -0.5953  0.8229 -1.0550
 2280SOL     OW18475   1.703   2.513   3.760  0.5402 -0.2102  0.5540
 2280SOL    HW118476   1.778   2.455   3.772 -1.7033 -3.1526  0.4214
 2280SOL    HW218477   1.641   2.478   3.825 -0.4882  1.7876  0.6501
 2281SOL     OW18478   3.044   1.527   5.381  0.6759 -0.2057 -0.5943
 2281SOL    HW118479   3.025   1.436   5.357 -0.6641 -0.2318  0.5532
 2281SOL    HW218480   2.967   1.569   5.341  0.0130  1.8439  2.8466
 2282SOL     OW18481   2.549   1.476   9.317  0.3640 -0.4756  0.3026
 2282SOL    HW118482   2.535   1.570   9.326  1.9433 -0.1419 -0.6830
 2282SOL    HW218483   2.505   1.465   9.233  2.0602  2.1459 -0.9039
 2283SOL     OW18484   3.255   1.832   8.611 -0.5234  0.6308 -0.3178
 2283SOL    HW118485   3.272   1.801   8.522 -1.5136  1.4380 -0.7839
 2283SOL    HW218486   3.333   1.839   8.666 -0.4907  1.9071 -0.5241
 2284SOL     OW18487   2.838   0.133   6.120 -0.2098  0.5592 -0.5438
 2284SOL    HW118488   2.788   0.155   6.199 -2.0092 -0.7163 -1.3057
 2284SOL    HW218489   2.789   0.056   6.090 -0.3094  0.0335  0.9208
 2285SOL     OW18490   2.605   2.967   8.032  0.1853  0.4675 -0.3377
 2285SOL    HW118491   2.628   2.940   7.944  0.0674 -2.4117  0.5342
 2285SOL    HW218492   2.519   2.924   8.035 -0.7091  2.0896 -2.3811
 2286SOL     OW18493   1.067   3.600  11.053 -0.5543  0.2428  0.0436
 2286SOL    HW118494   1.107   3.655  10.985 -1.0093 -1.1138 -1.3134
 2286SOL    HW218495   1.116   3.623  11.132  1.5285  0.9560 -1.4373
 2287SOL     OW18496   1.131   0.852   6.643 -0.4549 -0.3778 -0.2775
 2287SOL    HW118497   1.193   0.781   6.658  0.2122  0.1514 -0.5077
 2287SOL    HW218498   1.181   0.931   6.665 -0.5768 -0.2961 -0.2888
 2288SOL     OW18499   0.067   4.650   2.564 -0.2234 -0.0277 -0.6113
 2288SOL    HW118500   0.084   4.665   2.657 -1.0812  0.3245 -0.5037
 2288SOL    HW218501   0.137   4.597   2.526 -0.4930 -1.6570  1.1646
 2289SOL     OW18502   0.030   2.893   9.904 -0.9775 -0.5265 -0.1867
 2289SOL    HW118503   0.036   2.972   9.957 -0.3488  1.6769 -3.5323
 2289SOL    HW218504   0.071   2.920   9.822 -0.0061 -2.3811 -0.3030
 2290SOL     OW18505   3.508   4.201   3.946 -0.0294  0.2720 -0.2875
 2290SOL    HW118506   3.421   4.208   3.985  0.6804 -2.7950  1.8246
 2290SOL    HW218507   3.490   4.163   3.860  3.3588 -4.3629  1.0781
 2291SOL     OW18508   2.941   0.958   9.409  1.0874 -0.2628  0.3272
 2291SOL    HW118509   2.924   0.996   9.495  0.2451  1.8237 -0.7384
 2291SOL    HW218510   2.949   1.034   9.351 -1.2050  1.8400  2.7818
 2292SOL     OW18511   0.401   1.289  12.801 -0.0202 -0.0615  0.1849
 2292SOL    HW118512   0.490   1.283  12.837 -0.3886 -1.6371  0.8002
 2292SOL    HW218513   0.369   1.350  12.867 -1.0824 -0.8718  0.4142
 2293SOL     OW18514   1.711   0.368   3.366  0.1453 -0.4614  0.4073
 2293SOL    HW118515   1.773   0.395   3.433 -1.6172 -1.5865  2.4843
 2293SOL    HW218516   1.657   0.446   3.349  2.9878  0.9115 -2.3317
 2294SOL     OW18517   1.242   0.116  10.224 -0.3702 -0.1078  0.0715
 2294SOL    HW118518   1.309   0.181  10.204 -0.3954 -0.4892 -1.2557
 2294SOL    HW218519   1.169   0.177  10.237 -0.0034  0.3197  0.1133
 2295SOL     OW18520   0.418   3.231   2.980 -0.5061  0.1285 -0.0270
 2295SOL    HW118521   0.421   3.314   2.932  0.6746  0.1890  0.1455
 2295SOL    HW218522   0.441   3.255   3.069 -0.4169 -1.7434  0.4494
 2296SOL     OW18523   1.265   2.086   8.262  0.9467 -0.0253 -0.0139
 2296SOL    HW118524   1.246   1.992   8.267 -0.3881  0.2724  0.3239
 2296SOL    HW218525   1.279   2.085   8.167 -0.9374  1.0841 -0.2976
 2297SOL     OW18526   3.836   3.740  11.809  0.5031 -0.0459  0.5252
 2297SOL    HW118527   3.824   3.646  11.799 -1.8626  0.1124  1.6732
 2297SOL    HW218528   3.743   3.761  11.798  0.2921 -1.7129 -0.8042
 2298SOL     OW18529   2.662   2.878   7.535 -0.4617 -0.5890  0.5882
 2298SOL    HW118530   2.744   2.843   7.500 -1.6615 -0.8281 -1.9838
 2298SOL    HW218531   2.705   2.955   7.573  0.6282 -0.5151 -0.7843
 2299SOL     OW18532   0.115   1.529   6.749  0.0090 -0.2057  0.2965
 2299SOL    HW118533   0.055   1.546   6.822 -0.9409 -0.5452 -0.4028
 2299SOL    HW218534   0.124   1.434   6.762  3.3663  0.2395  1.1133
 2300SOL     OW18535   2.711   4.664  11.286 -0.5120  0.6530 -0.3938
 2300SOL    HW118536   2.723   4.575  11.251  0.6537 -0.4927  2.9285
 2300SOL    HW218537   2.682   4.715  11.210 -3.3532 -2.5145 -1.4810
 2301SOL     OW18538   3.791   3.092  12.959  0.0838 -0.2112  0.2252
 2301SOL    HW118539   3.830   3.027  13.017  1.3742  1.5651  1.3502
 2301SOL    HW218540   3.738   3.047  12.892 -1.2431 -0.1658  1.2358
 2302SOL     OW18541   0.409   4.412   9.006  0.3637 -0.4553  0.7207
 2302SOL    HW118542   0.415   4.343   9.072  1.2483 -0.3573  0.7434
 2302SOL    HW218543   0.319   4.439   9.025  0.6241  1.8889 -1.2308
 2303SOL     OW18544   3.422   4.107   3.189  0.7660  0.0815 -0.3281
 2303SOL    HW118545   3.447   4.194   3.221  1.0580 -0.1464  0.0820
 2303SOL    HW218546   3.505   4.059   3.186  0.1774 -0.9328 -0.3745
 2304SOL     OW18547   4.507   0.537   7.432 -0.0236 -0.2672 -0.7618
 2304SOL    HW118548   4.438   0.489   7.477 -0.7166  1.7896  0.3698
 2304SOL    HW218549   4.587   0.504   7.473 -0.6938 -1.0585 -0.1045
 2305SOL     OW18550   4.148   3.076   1.263  0.3316  0.2250 -0.2826
 2305SOL    HW118551   4.140   2.982   1.276  0.5005  0.4724  1.6430
 2305SOL    HW218552   4.082   3.107   1.325 -0.0059 -2.4945  0.7006
 2306SOL     OW18553   0.080   3.704   0.569  0.3753 -0.4660  0.2112
 2306SOL    HW118554   0.054   3.787   0.609 -2.2213 -1.6211  0.9005
 2306SOL    HW218555   0.151   3.674   0.626  0.3005  1.2436  1.2274
 2307SOL     OW18556   1.626   0.581   8.035 -0.0252  0.3129  0.4005
 2307SOL    HW118557   1.561   0.552   8.099  2.0637 -1.8602  1.5507
 2307SOL    HW218558   1.612   0.509   7.972  2.0219 -0.6316  1.0139
 2308SOL     OW18559   0.396   0.482   7.172  0.3873  0.0791  0.2668
 2308SOL    HW118560   0.427   0.437   7.093  0.1123 -2.8348  1.7990
 2308SOL    HW218561   0.360   0.559   7.128  1.4197  0.6540  0.4233
 2309SOL     OW18562   3.365   0.697   6.351  0.0103  0.6475 -0.2532
 2309SOL    HW118563   3.406   0.613   6.373 -0.2742  0.5702 -0.0182
 2309SOL    HW218564   3.441   0.751   6.372 -1.3508  2.2470  0.4885
 2310SOL     OW18565   4.054   3.052   7.862 -0.0103  0.6348 -0.4017
 2310SOL    HW118566   4.099   3.093   7.788 -1.7507  0.7632 -1.3721
 2310SOL    HW218567   4.059   3.127   7.923  2.3904  0.0585  0.1058
 2311SOL     OW18568   0.046   1.059   2.322 -0.3894  0.2141 -0.9297
 2311SOL    HW118569   0.068   1.087   2.233  1.1575  0.5394 -0.4590
 2311SOL    HW218570   0.062   1.141   2.369 -1.1077 -0.3377  0.2698
 2312SOL     OW18571   4.030   2.548   2.270 -0.9383  0.2142 -0.6423
 2312SOL    HW118572   3.968   2.599   2.322  0.7150 -0.7223  2.2260
 2312SOL    HW218573   4.100   2.614   2.268  1.4442 -2.3065 -0.5285
 2313SOL     OW18574   3.637   1.984   8.657 -0.4162 -0.1109  0.1306
 2313SOL    HW118575   3.700   2.017   8.593 -1.0154  0.9921  0.1079
 2313SOL    HW218576   3.654   2.049   8.725  1.0288 -0.5650  0.2140
 2314SOL     OW18577   4.044   4.405  17.079 -0.0737  0.0430 -0.4744
 2314SOL    HW118578   4.065   4.314  17.058  2.4628  0.6906 -0.7948
 2314SOL    HW218579   4.064   4.413  17.172 -2.4049  0.7827 -0.0336
 2315SOL     OW18580   2.790   3.452   7.122 -0.4632 -0.3633  0.0214
 2315SOL    HW118581   2.797   3.475   7.214  0.5045 -0.7504  0.0399
 2315SOL    HW218582   2.866   3.496   7.085 -0.2193  0.5286  1.6117
 2316SOL     OW18583   1.460   4.293   1.961  0.4999 -0.4446 -0.5682
 2316SOL    HW118584   1.483   4.375   2.004  0.6271 -1.0205  0.4521
 2316SOL    HW218585   1.548   4.268   1.932  0.8879  0.5036 -0.2041
 2317SOL     OW18586   0.941   4.617   3.118 -0.1529 -0.2541 -0.2735
 2317SOL    HW118587   0.992   4.693   3.146 -0.6427 -0.1982  0.4664
 2317SOL    HW218588   0.944   4.567   3.199  0.3981 -0.9339 -0.7134
 2318SOL     OW18589   1.114   0.111  15.117 -0.0518  0.4618  0.3968
 2318SOL    HW118590   1.035   0.123  15.064 -1.4917 -1.1041  2.2021
 2318SOL    HW218591   1.080   0.105  15.206 -0.3360  1.1190  0.3393
 2319SOL     OW18592   4.031   2.640   4.599  0.9451 -0.4292 -0.0276
 2319SOL    HW118593   3.993   2.706   4.540  1.3328  0.0949  0.3037
 2319SOL    HW218594   4.099   2.600   4.546 -0.4427 -0.8557 -1.4759
 2320SOL     OW18595   1.199   0.534   7.366 -0.0071 -0.2012  0.6835
 2320SOL    HW118596   1.107   0.529   7.391 -0.4887  1.8238 -0.7109
 2320SOL    HW218597   1.202   0.613   7.313  0.5466  0.6211  1.9356
 2321SOL     OW18598   2.840   1.845   7.443 -0.4349  0.1073  0.4596
 2321SOL    HW118599   2.859   1.912   7.377  1.5893 -2.0574 -1.1687
 2321SOL    HW218600   2.898   1.883   7.508  0.6500  1.9560 -1.5651
 2322SOL     OW18601   2.549   3.757   3.885  0.6788  0.4941  0.3607
 2322SOL    HW118602   2.551   3.699   3.809 -0.8615  0.1408  0.5875
 2322SOL    HW218603   2.458   3.743   3.914  1.4229 -1.9834  1.5544
 2323SOL     OW18604   0.557   0.053  16.460  0.0918 -0.0714 -0.4070
 2323SOL    HW118605   0.499   0.116  16.503  0.5359  0.5850 -0.7598
 2323SOL    HW218606   0.500   4.717  16.458 -0.3616  0.2989 -1.9729
 2324SOL     OW18607   1.616   0.845   9.290  0.2217  0.1280  0.2178
 2324SOL    HW118608   1.545   0.786   9.267  0.7957 -1.4140  2.3809
 2324SOL    HW218609   1.583   0.935   9.288  0.2808  0.1883  1.4857
 2325SOL     OW18610   3.832   1.620   7.635  0.2851 -1.0179 -0.1608
 2325SOL    HW118611   3.857   1.704   7.598 -1.1534 -1.3451 -1.8799
 2325SOL    HW218612   3.857   1.629   7.728  0.1512  0.0485 -0.2264
 2326SOL     OW18613   3.965   1.268  10.347  0.2068 -0.2998  0.3271
 2326SOL    HW118614   4.003   1.241  10.430  1.4642 -0.2052 -0.2088
 2326SOL    HW218615   4.024   1.238  10.277 -0.9480 -2.2742  0.1919
 2327SOL     OW18616   3.384   2.297  12.921 -0.2680  0.4860 -0.3529
 2327SOL    HW118617   3.308   2.339  12.961 -0.5215 -0.1533 -0.1570
 2327SOL    HW218618   3.399   2.349  12.843 -0.8769  2.2105  0.6799
 2328SOL     OW18619   0.969   0.439  17.023  0.2109 -0.5456  0.0402
 2328SOL    HW118620   0.952   0.367  17.084 -0.2973 -2.2168 -2.1167
 2328SOL    HW218621   0.958   0.512  17.084  0.4840 -1.9688  1.7873
 2329SOL     OW18622   2.264   3.289  17.631  0.6280  0.2136  0.3362
 2329SOL    HW118623   2.347   3.310  17.589  0.0943 -1.2862 -1.4862
 2329SOL    HW218624   2.238   3.208  17.586 -0.8455 -0.2768  2.0507
 2330SOL     OW18625   4.546   2.414  16.548 -0.1280 -0.5129  0.1316
 2330SOL    HW118626   4.453   2.392  16.546 -0.6930  1.8753 -0.0447
 2330SOL    HW218627   4.568   2.476  16.618 -2.1412 -0.3978  0.6708
 2331SOL     OW18628   1.965   2.833   8.411 -0.2506 -0.1706 -0.9098
 2331SOL    HW118629   1.928   2.854   8.325 -0.6501  1.7323 -0.2675
 2331SOL    HW218630   1.899   2.771   8.444 -0.5880 -0.2535 -1.7421
 2332SOL     OW18631   1.205   0.023   6.343  0.0147 -0.2905 -0.1959
 2332SOL    HW118632   1.244   0.021   6.430 -0.2252 -0.3522 -0.0922
 2332SOL    HW218633   1.220   0.117   6.328  3.2973 -0.8128 -0.2351
 2333SOL     OW18634   3.325   3.288   3.568 -0.9123 -0.1298  0.3899
 2333SOL    HW118635   3.304   3.329   3.484  2.6053 -2.2667 -1.4934
 2333SOL    HW218636   3.418   3.306   3.573 -1.1193  1.5472 -1.5782
 2334SOL     OW18637   4.244   1.411  11.266  0.4316 -0.6442 -0.1949
 2334SOL    HW118638   4.295   1.384  11.343 -0.0433 -1.1171 -0.0447
 2334SOL    HW218639   4.174   1.466  11.301  0.0051 -0.7147 -0.9608
 2335SOL     OW18640   0.457   1.781   7.772  0.1308  0.1141 -0.2606
 2335SOL    HW118641   0.405   1.861   7.773  1.3039  0.9010 -1.5312
 2335SOL    HW218642   0.542   1.826   7.766  0.6921 -1.0846 -1.3768
 2336SOL     OW18643   4.025   3.774   4.877 -0.0025  0.2816  0.0484
 2336SOL    HW118644   4.120   3.766   4.884 -0.0205 -0.0938 -0.1204
 2336SOL    HW218645   3.994   3.721   4.951 -0.8990  0.2395 -0.3581
 2337SOL     OW18646   2.114   3.943   8.619 -0.1027 -0.0708 -0.2905
 2337SOL    HW118647   2.109   3.863   8.670  1.2628 -0.7836 -1.2910
 2337SOL    HW218648   2.086   3.905   8.536 -0.7332  1.2537 -0.6913
 2338SOL     OW18649   3.193   2.367   2.174 -0.0728 -0.3641 -0.5774
 2338SOL    HW118650   3.236   2.439   2.128 -0.8003 -0.2602 -1.1041
 2338SOL    HW218651   3.120   2.418   2.209  1.0226  1.5249 -1.0831
 2339SOL     OW18652   2.943   3.972   5.427  0.4689  0.0305 -0.4630
 2339SOL    HW118653   2.987   4.040   5.376 -0.3532 -0.1825 -1.4755
 2339SOL    HW218654   2.880   3.942   5.361 -0.8765  1.3564  0.2035
 2340SOL     OW18655   3.616   2.547   8.879  0.6585  0.3633 -0.0323
 2340SOL    HW118656   3.613   2.470   8.822  0.9480  0.8379 -0.6839
 2340SOL    HW218657   3.711   2.562   8.885  0.0823  2.2887  4.6955
 2341SOL     OW18658   0.165   1.995   0.280 -0.2988  0.0190  0.2947
 2341SOL    HW118659   0.170   1.935   0.354 -0.0259 -0.8092 -0.4053
 2341SOL    HW218660   0.071   2.008   0.271 -0.2137  1.2057  1.0699
 2342SOL     OW18661   1.512   2.011  17.389  0.5520 -0.0853  0.0912
 2342SOL    HW118662   1.423   1.981  17.401  1.1975 -1.4989  1.2231
 2342SOL    HW218663   1.508   2.065  17.310 -1.0106 -0.1034  0.1726
 2343SOL     OW18664   2.015   3.602  16.967 -0.0288  0.4331  0.0139
 2343SOL    HW118665   2.098   3.632  17.003 -0.3772 -1.2491  2.2648
 2343SOL    HW218666   2.055   3.557  16.893  1.1462 -0.1416  1.0085
 2344SOL     OW18667   1.769   1.239   6.296  0.3000  0.4006  0.3567
 2344SOL    HW118668   1.791   1.225   6.203 -1.1055  0.7415 -0.0306
 2344SOL    HW218669   1.831   1.308   6.317  1.3894 -0.4374 -0.0716
 2345SOL     OW18670   2.640   2.297   4.576  0.1588 -0.3474 -0.7382
 2345SOL    HW118671   2.573   2.299   4.644 -1.0060  0.6881 -1.9502
 2345SOL    HW218672   2.709   2.356   4.607 -0.5547  0.7374 -1.2275
 2346SOL     OW18673   3.770   1.736   3.147 -0.2304  0.3940 -0.2195
 2346SOL    HW118674   3.728   1.706   3.067  0.3743 -1.9718  0.3456
 2346SOL    HW218675   3.820   1.809   3.111  2.5501 -1.2250  0.3230
 2347SOL     OW18676   1.640   3.197  14.390 -0.2884 -0.0262  0.0589
 2347SOL    HW118677   1.578   3.245  14.335  1.2074 -1.3591 -2.7548
 2347SOL    HW218678   1.706   3.159  14.333  0.3399 -0.0510  0.8041
 2348SOL     OW18679   1.436   3.937   5.763  0.3238  0.0093 -0.4992
 2348SOL    HW118680   1.392   3.867   5.714 -0.7327  0.5468 -0.3134
 2348SOL    HW218681   1.526   3.944   5.731  0.3241  0.3611 -0.4122
 2349SOL     OW18682   0.417   2.025  14.418  0.1823  0.2096 -0.3030
 2349SOL    HW118683   0.387   2.053  14.332 -1.8581  0.8532  0.6073
 2349SOL    HW218684   0.345   1.981  14.464  2.9029 -2.9373  0.9301
 2350SOL     OW18685   2.212   4.621   0.247 -0.3475 -0.8657  0.2493
 2350SOL    HW118686   2.274   4.621   0.173  2.8608 -2.0618  2.9287
 2350SOL    HW218687   2.137   4.584   0.200  0.1537 -1.3779 -0.1440
 2351SOL     OW18688   4.234   2.914   6.722 -0.1674 -0.3929 -0.2787
 2351SOL    HW118689   4.240   2.865   6.640  2.3257 -0.2691 -0.1678
 2351SOL    HW218690   4.261   2.849   6.787  3.0903  0.5866 -0.6722
 2352SOL     OW18691   1.751   1.705   6.248 -0.1355 -0.3886  0.0019
 2352SOL    HW118692   1.664   1.670   6.228 -0.4430  0.2724  0.1604
 2352SOL    HW218693   1.738   1.761   6.325  1.4293 -0.0809  0.0284
 2353SOL     OW18694   0.740   0.596   7.292 -0.5131 -0.3763  0.0360
 2353SOL    HW118695   0.658   0.644   7.301 -1.4067 -1.9788  0.6029
 2353SOL    HW218696   0.793   0.674   7.281 -1.1688 -0.2136 -1.9122
 2354SOL     OW18697   1.284   1.785  14.234 -0.8143  0.5829  0.0514
 2354SOL    HW118698   1.294   1.772  14.139 -1.3019 -0.2636  0.1151
 2354SOL    HW218699   1.312   1.699  14.265 -0.3615  0.7350  0.0580
 2355SOL     OW18700   0.348   0.825   8.455 -0.1762 -0.0364 -0.3786
 2355SOL    HW118701   0.323   0.893   8.518 -0.3937  0.4085 -0.9517
 2355SOL    HW218702   0.366   0.747   8.508  0.4772  0.6333  0.3949
 2356SOL     OW18703   1.954   2.212   9.519 -0.6037  0.0552  0.0812
 2356SOL    HW118704   1.909   2.216   9.604  0.5815 -0.2463  0.7340
 2356SOL    HW218705   1.899   2.143   9.483  0.0217  0.5560 -1.7954
 2357SOL     OW18706   0.221   1.937  10.407  0.2618  0.4057 -0.3380
 2357SOL    HW118707   0.187   2.023  10.428 -0.0839  0.4614 -1.0991
 2357SOL    HW218708   0.150   1.885  10.444  1.5113 -0.5831  0.6418
 2358SOL     OW18709   0.521   0.789   0.819  0.1533 -0.0047  0.0886
 2358SOL    HW118710   0.472   0.871   0.817 -0.1605 -0.1506  2.1463
 2358SOL    HW218711   0.453   0.731   0.852 -1.9188  2.8927  0.8868
 2359SOL     OW18712   4.085   4.346   3.385 -0.3155  0.2508 -0.1977
 2359SOL    HW118713   4.056   4.390   3.305 -1.9811 -1.3921 -0.4952
 2359SOL    HW218714   4.169   4.389   3.401  1.0496 -2.0087 -1.3270
 2360SOL     OW18715   3.707   1.671   2.905  0.1276 -0.0031 -0.1263
 2360SOL    HW118716   3.617   1.641   2.918 -0.4215  1.3098 -0.9103
 2360SOL    HW218717   3.709   1.689   2.811 -0.0476 -2.5189 -0.6054
 2361SOL     OW18718   4.682   2.395   7.507 -0.1244 -0.1185 -0.2269
 2361SOL    HW118719   4.608   2.343   7.538  0.5039 -0.6901  0.3093
 2361SOL    HW218720   4.734   2.328   7.463  0.1412 -0.8731  1.2318
 2362SOL     OW18721   3.927   3.796  12.987  0.1602 -0.3176  0.2191
 2362SOL    HW118722   3.860   3.755  12.932  0.6981 -1.4681  0.4125
 2362SOL    HW218723   3.953   3.868  12.929  0.2548 -1.3244 -0.9809
 2363SOL     OW18724   0.552   1.381   7.362  0.1343  0.3664  0.1854
 2363SOL    HW118725   0.582   1.404   7.275 -1.3320 -0.5362 -0.5721
 2363SOL    HW218726   0.535   1.472   7.388 -0.1192  1.3717 -3.4665
 2364SOL     OW18727   0.044   3.586  10.438  0.0536 -0.3097  0.5282
 2364SOL    HW118728   0.099   3.510  10.419  1.7809  1.1481 -0.2198
 2364SOL    HW218729   0.065   3.641  10.363  0.8611 -2.1951 -0.6379
 2365SOL     OW18730   2.521   0.475  14.725  0.1245  0.0404 -0.0204
 2365SOL    HW118731   2.542   0.400  14.782 -0.3563  0.2885  0.4769
 2365SOL    HW218732   2.486   0.425  14.651 -1.4151 -0.1522  0.8357
 2366SOL     OW18733   2.348   1.782   7.334  0.2168  0.3908  0.1553
 2366SOL    HW118734   2.434   1.749   7.308  0.9467  2.0650  0.4786
 2366SOL    HW218735   2.368   1.875   7.323 -1.8445  0.7453 -0.6008
 2367SOL     OW18736   1.747   3.746   5.051  0.0681  0.6724  0.7456
 2367SOL    HW118737   1.787   3.767   4.967 -0.9785 -0.5861 -0.0471
 2367SOL    HW218738   1.671   3.695   5.023  0.9793 -0.2471 -0.0365
 2368SOL     OW18739   4.060   1.003   3.067  0.1904 -0.6263  0.0594
 2368SOL    HW118740   4.091   1.078   3.015  0.6581 -0.1720  0.9935
 2368SOL    HW218741   4.021   0.958   2.992  0.4688 -0.3472 -0.2577
 2369SOL     OW18742   0.797   3.268   7.974  0.4408  0.4145  0.4912
 2369SOL    HW118743   0.844   3.189   7.951  1.5190  0.4964  2.4130
 2369SOL    HW218744   0.742   3.242   8.049 -0.6222  0.0792 -0.3985
 2370SOL     OW18745   1.048   3.412   7.090  0.4487  0.2551  0.3403
 2370SOL    HW118746   1.125   3.469   7.099  0.1795  0.5838  0.6136
 2370SOL    HW218747   0.989   3.462   7.147 -0.5191 -0.2671 -0.2239
 2371SOL     OW18748   0.118   3.254   6.213 -0.3293  0.0539  0.3589
 2371SOL    HW118749   0.158   3.193   6.275 -0.8226 -0.1338  0.4902
 2371SOL    HW218750   0.040   3.279   6.262  1.5012  2.6444  1.9532
 2372SOL     OW18751   4.565   2.517   0.766 -0.6440  0.4188  0.1167
 2372SOL    HW118752   4.500   2.459   0.806  1.6793 -3.3300 -1.5372
 2372SOL    HW218753   4.589   2.448   0.705 -0.2602  1.1383 -0.5500
 2373SOL     OW18754   1.773   1.506   6.557 -0.1776  0.2035  0.1009
 2373SOL    HW118755   1.721   1.559   6.617 -1.6676 -2.8431  1.5120
 2373SOL    HW218756   1.699   1.472   6.507  0.2254  0.9943 -1.0343
 2374SOL     OW18757   2.105   4.445  10.295  0.0322  0.0385  0.5676
 2374SOL    HW118758   2.192   4.404  10.291  0.7035  1.4849  0.4152
 2374SOL    HW218759   2.120   4.527  10.247  0.1589 -0.3471 -0.0564
 2375SOL     OW18760   2.528   2.294   6.061 -0.4614 -0.0260  0.0131
 2375SOL    HW118761   2.479   2.332   5.988  1.0395  2.5066  0.3430
 2375SOL    HW218762   2.575   2.223   6.017 -1.8675  0.3586 -2.1314
 2376SOL     OW18763   0.638   3.131   3.817  0.4816  0.0531 -0.2214
 2376SOL    HW118764   0.636   3.053   3.762 -3.6137 -0.7640  1.0812
 2376SOL    HW218765   0.621   3.194   3.747  1.6137  0.3769 -0.2024
 2377SOL     OW18766   3.960   1.498   6.234  0.6909 -0.0594 -0.5420
 2377SOL    HW118767   3.876   1.463   6.263  0.7045  1.6318  1.5533
 2377SOL    HW218768   4.035   1.446   6.263  0.2907 -1.1218 -1.4349
 2378SOL     OW18769   1.872   3.436  16.288 -0.4951 -0.2473 -0.5323
 2378SOL    HW118770   1.779   3.435  16.311  0.1323  1.4202  1.9915
 2378SOL    HW218771   1.865   3.516  16.236  2.3601 -0.6979 -1.6305
 2379SOL     OW18772   1.228   3.903  11.132 -0.2162 -0.7198 -0.0347
 2379SOL    HW118773   1.207   3.945  11.048  0.2583 -1.6686 -0.6251
 2379SOL    HW218774   1.156   3.947  11.177  0.3764  1.5470 -1.2986
 2380SOL     OW18775   3.416   3.473   4.767  0.0425 -0.2043  0.3667
 2380SOL    HW118776   3.354   3.469   4.693  1.2325  0.7138 -0.6759
 2380SOL    HW218777   3.365   3.423   4.831 -0.5142  0.0252  0.1098
 2381SOL     OW18778   1.426   0.186   7.920 -0.1453 -0.0673  0.3955
 2381SOL    HW118779   1.337   0.154   7.933 -0.1991 -0.0186  0.1528
 2381SOL    HW218780   1.471   0.120   7.867 -0.9957 -0.6057  0.3432
 2382SOL     OW18781   0.664   2.206   2.877  0.1373  0.2520  0.3673
 2382SOL    HW118782   0.572   2.208   2.902 -0.0774 -0.7213 -0.3447
 2382SOL    HW218783   0.704   2.273   2.932 -0.6464  0.2851  0.8961
 2383SOL     OW18784   0.154   2.352   8.162 -0.0542 -0.0347 -0.0402
 2383SOL    HW118785   0.242   2.348   8.198 -0.2598  0.7793  0.5505
 2383SOL    HW218786   0.100   2.330   8.239 -0.4293 -1.1701 -0.6261
 2384SOL     OW18787   3.535   0.014   2.427  0.0999 -0.2339  0.1830
 2384SOL    HW118788   3.506   4.720   2.342 -0.6936  0.4644  0.1712
 2384SOL    HW218789   3.479   4.714   2.493  0.9451 -0.1285  0.9542
 2385SOL     OW18790   3.680   2.801   8.470 -0.1020 -0.1391  0.0864
 2385SOL    HW118791   3.662   2.810   8.376 -1.2245 -2.9706  0.0224
 2385SOL    HW218792   3.647   2.889   8.491 -0.7728 -0.4107  0.1507
 2386SOL     OW18793   4.564   3.398   2.222 -0.5158  0.0788 -0.3255
 2386SOL    HW118794   4.491   3.356   2.176  1.7023 -2.0551 -1.8823
 2386SOL    HW218795   4.598   3.451   2.149  0.5185 -0.2732 -0.0865
 2387SOL     OW18796   0.852   0.590  16.215 -0.3703 -0.3415  0.0024
 2387SOL    HW118797   0.819   0.519  16.159 -1.9486 -0.1531  0.6781
 2387SOL    HW218798   0.946   0.586  16.201 -0.1613 -0.6170  1.4984
 2388SOL     OW18799   2.581   0.735   3.783 -0.0334 -0.1637 -0.4973
 2388SOL    HW118800   2.528   0.700   3.712  0.1421  1.8593 -1.6076
 2388SOL    HW218801   2.632   0.800   3.734 -0.2432 -0.2014 -0.7621
 2389SOL     OW18802   2.086   2.724   6.059  0.4003 -0.0045 -0.4532
 2389SOL    HW118803   2.080   2.735   5.964 -2.4464 -1.5324 -0.4614
 2389SOL    HW218804   2.018   2.659   6.076  0.5575 -0.0624 -0.0585
 2390SOL     OW18805   3.854   3.934   3.989 -0.0467 -0.2711  0.3209
 2390SOL    HW118806   3.774   3.883   3.979 -0.6266  0.9135 -1.0549
 2390SOL    HW218807   3.823   4.024   4.004  2.0391  0.4600  0.2614
 2391SOL     OW18808   0.317   2.708  11.065 -0.4196 -0.4001 -0.2225
 2391SOL    HW118809   0.282   2.679  11.149 -0.2879 -1.8178 -0.6582
 2391SOL    HW218810   0.411   2.692  11.068 -0.3447 -0.2537 -2.0829
 2392SOL     OW18811   1.897   3.777   6.809  0.2337 -0.5007  0.1927
 2392SOL    HW118812   1.863   3.729   6.733 -1.6571 -0.8906  1.2987
 2392SOL    HW218813   1.882   3.711   6.877 -1.4839 -0.3319 -0.0125
 2393SOL     OW18814   0.176   1.976   8.691 -0.6139 -0.3540 -0.2737
 2393SOL    HW118815   0.240   1.998   8.624 -0.7369  0.8889  0.0054
 2393SOL    HW218816   0.211   1.905   8.745  0.9954 -0.4749 -1.5080
 2394SOL     OW18817   1.314   2.521   3.383 -0.0719 -0.8049  0.3890
 2394SOL    HW118818   1.252   2.533   3.311 -0.1433 -1.7583  0.2822
 2394SOL    HW218819   1.393   2.486   3.342  1.1256  0.6174  1.4893
 2395SOL     OW18820   3.130   4.666   0.069 -0.6577 -0.6565  0.4476
 2395SOL    HW118821   3.103   4.609   0.141 -2.9447 -1.6585 -1.2236
 2395SOL    HW218822   3.057   4.655   0.008  0.8350  2.0650 -1.8398
 2396SOL     OW18823   3.674   1.169   0.230  0.4147  0.0988 -0.0667
 2396SOL    HW118824   3.647   1.175   0.139  1.6629 -2.3380 -0.6102
 2396SOL    HW218825   3.732   1.244   0.221 -1.5139  1.4874 -0.8047
 2397SOL     OW18826   1.022   4.150  10.736  0.3510 -0.2556 -0.4847
 2397SOL    HW118827   0.985   4.062  10.743  1.0851 -0.4948  0.3491
 2397SOL    HW218828   1.069   4.165  10.818 -0.6811 -0.6127  0.1693
 2398SOL     OW18829   3.823   1.600   3.572 -0.0013  0.0850 -0.2248
 2398SOL    HW118830   3.853   1.666   3.509  1.0335  0.0596  0.2436
 2398SOL    HW218831   3.785   1.534   3.514 -1.6633  0.6781  0.1869
 2399SOL     OW18832   1.479   0.562   7.171 -0.1255 -0.5993 -0.2278
 2399SOL    HW118833   1.550   0.626   7.169 -0.4401 -0.2596 -0.4804
 2399SOL    HW218834   1.412   0.598   7.229  0.6860  0.7582 -0.1367
 2400SOL     OW18835   1.956   3.345   3.325 -0.9980 -0.0113  0.0534
 2400SOL    HW118836   2.034   3.349   3.269  0.3322 -1.0681  1.8548
 2400SOL    HW218837   1.917   3.258   3.325 -0.4886 -0.2377 -0.4819
 2401SOL     OW18838   4.485   4.708   6.782  0.0972 -0.0085  0.0442
 2401SOL    HW118839   4.408   4.733   6.732 -0.8393  1.3320  2.1282
 2401SOL    HW218840   4.446   4.629   6.819  1.0425 -0.0949  0.8584
 2402SOL     OW18841   3.361   2.116   1.783  0.7670  0.7878  0.4023
 2402SOL    HW118842   3.403   2.195   1.747  1.6992 -0.1667 -0.5828
 2402SOL    HW218843   3.371   2.055   1.710 -0.8447  0.4849  0.4499
 2403SOL     OW18844   1.704   4.243   3.698 -0.2334 -0.2811 -0.3550
 2403SOL    HW118845   1.653   4.175   3.654 -0.0080 -0.2275 -0.6955
 2403SOL    HW218846   1.790   4.202   3.703 -0.1799 -0.2781 -1.1908
 2404SOL     OW18847   0.460   4.199   9.197  0.0866 -0.5281  0.2571
 2404SOL    HW118848   0.380   4.197   9.250 -0.2475  0.2693 -0.2138
 2404SOL    HW218849   0.525   4.242   9.252 -1.6948  1.3000  0.9231
 2405SOL     OW18850   1.307   0.742  16.264  0.0097 -0.1810  0.1883
 2405SOL    HW118851   1.310   0.771  16.355  1.1373  0.8872 -0.1966
 2405SOL    HW218852   1.357   0.812  16.224 -1.0078  0.2205 -0.3803
 2406SOL     OW18853   3.140   4.717   1.107 -0.1532  0.1534  0.9523
 2406SOL    HW118854   3.049   0.000   1.128 -0.8884  0.7063 -2.6765
 2406SOL    HW218855   3.119   4.649   1.042 -0.8036 -0.6932  2.0579
 2407SOL     OW18856   2.227   1.203  13.685 -0.1108 -0.5390  0.0753
 2407SOL    HW118857   2.191   1.133  13.631 -0.3732  0.3565 -0.9114
 2407SOL    HW218858   2.237   1.158  13.769 -1.1142 -0.9895 -0.0432
 2408SOL     OW18859   3.672   1.064   5.302 -1.2364  0.0206  0.3023
 2408SOL    HW118860   3.740   1.129   5.286 -0.6635 -0.7367 -0.3211
 2408SOL    HW218861   3.728   0.991   5.275 -0.4049  1.3630 -1.5233
 2409SOL     OW18862   4.161   0.281  12.358  0.1433  0.2691 -0.1335
 2409SOL    HW118863   4.234   0.282  12.419  1.3786  1.1789 -1.6231
 2409SOL    HW218864   4.088   0.301  12.417  0.0394 -1.6609  0.3827
 2410SOL     OW18865   0.985   4.020   6.147 -0.0892 -0.2984 -0.8771
 2410SOL    HW118866   1.000   4.003   6.240  0.5206  2.7533 -0.4339
 2410SOL    HW218867   0.955   3.933   6.121 -0.0630 -0.6050  0.1156
 2411SOL     OW18868   1.185   0.734   5.045  0.5155  0.3030 -0.8141
 2411SOL    HW118869   1.186   0.818   5.092 -1.3887  1.4267 -2.8345
 2411SOL    HW218870   1.238   0.673   5.097 -1.0176 -0.0970  0.2654
 2412SOL     OW18871   4.455   1.209   7.834 -0.1109  0.2025 -0.1057
 2412SOL    HW118872   4.392   1.167   7.776  0.0678 -0.3312  0.0884
 2412SOL    HW218873   4.452   1.143   7.903  1.1486 -0.2251 -0.4553
 2413SOL     OW18874   4.324   4.143   5.316 -0.0542  0.0303  0.4250
 2413SOL    HW118875   4.319   4.228   5.273  0.9078 -0.5263 -0.7609
 2413SOL    HW218876   4.332   4.172   5.407  0.0993 -2.5001  1.2336
 2414SOL     OW18877   3.454   1.118  12.460  0.0143  0.3885  0.1179
 2414SOL    HW118878   3.467   1.082  12.548  0.8511 -1.5107 -0.7753
 2414SOL    HW218879   3.359   1.131  12.451 -0.1242 -1.3091 -0.9205
 2415SOL     OW18880   0.181   0.152  12.612 -0.2514 -0.3021 -0.1394
 2415SOL    HW118881   0.254   0.091  12.623  0.9172  0.9036 -1.1541
 2415SOL    HW218882   0.117   0.124  12.677 -0.5875  0.9712  0.0905
 2416SOL     OW18883   2.579   0.054  13.079  0.3114  0.0723 -0.7284
 2416SOL    HW118884   2.486   0.051  13.060  0.3610 -0.6939 -0.8489
 2416SOL    HW218885   2.594   0.131  13.133  1.0847 -0.8655  0.4032
 2417SOL     OW18886   3.104   0.448   8.138  0.1833 -0.5903  0.2741
 2417SOL    HW118887   3.101   0.465   8.043  2.0742 -1.3795  0.0709
 2417SOL    HW218888   3.012   0.458   8.164 -0.1614 -0.8500 -0.8030
 2418SOL     OW18889   1.614   4.245   8.578 -0.1347 -0.0175  0.0515
 2418SOL    HW118890   1.621   4.213   8.668 -0.8936 -1.5162 -0.4165
 2418SOL    HW218891   1.520   4.261   8.575  0.2270  2.0092 -0.4462
 2419SOL     OW18892   4.635   3.265  12.744  0.6101 -0.5770 -0.0044
 2419SOL    HW118893   4.693   3.339  12.724 -0.5863  0.3609 -0.0156
 2419SOL    HW218894   4.553   3.314  12.747  0.7760 -0.3083  0.1293
 2420SOL     OW18895   1.643   0.906   3.050  0.3608  0.1563  0.3469
 2420SOL    HW118896   1.551   0.910   3.076  0.1479  0.1482 -0.3865
 2420SOL    HW218897   1.663   0.998   3.037 -0.6063  0.1942 -0.8309
 2421SOL     OW18898   4.313   1.600  15.994 -0.1815  0.0004 -0.2769
 2421SOL    HW118899   4.249   1.552  16.046 -0.0104 -0.5638 -0.5776
 2421SOL    HW218900   4.278   1.596  15.905 -1.0859  1.3538  0.0252
 2422SOL     OW18901   3.467   1.405  15.655  0.1112  0.4438  0.1719
 2422SOL    HW118902   3.562   1.404  15.655  0.1434  3.0386 -0.6638
 2422SOL    HW218903   3.440   1.422  15.745  2.2987  0.7222  0.7668
 2423SOL     OW18904   1.361   3.886   2.170  0.4729  0.2070 -0.1688
 2423SOL    HW118905   1.347   3.966   2.120  0.0833  0.7340  0.7915
 2423SOL    HW218906   1.342   3.816   2.106  0.0321 -1.2069  1.5100
 2424SOL     OW18907   4.561   4.018   5.310  0.0401  0.4912  0.1069
 2424SOL    HW118908   4.595   4.089   5.364  0.2084  0.6146 -0.1610
 2424SOL    HW218909   4.477   4.057   5.285  0.3369 -0.1039 -1.8259
 2425SOL     OW18910   3.335   4.002   2.748 -0.3374  0.0953 -0.2329
 2425SOL    HW118911   3.422   4.018   2.785  0.3876 -0.3370 -1.7795
 2425SOL    HW218912   3.339   3.906   2.749  2.3638  0.2262  2.5518
 2426SOL     OW18913   4.039   4.125   8.789  0.0317 -0.3384 -0.3066
 2426SOL    HW118914   4.069   4.116   8.879 -0.3978 -0.8567 -0.2162
 2426SOL    HW218915   3.978   4.052   8.778  1.8706 -1.7305 -1.3644
 2427SOL     OW18916   3.838   0.535   4.110 -0.2698  0.0815 -0.0640
 2427SOL    HW118917   3.762   0.524   4.167  0.1069 -0.1541  0.3916
 2427SOL    HW218918   3.830   0.630   4.110  0.1299  0.1114 -1.1855
 2428SOL     OW18919   4.013   4.181   7.261 -0.8695 -0.9518  0.3833
 2428SOL    HW118920   3.944   4.246   7.249  2.0221  1.7205 -1.6394
 2428SOL    HW218921   3.962   4.105   7.291 -3.6834  1.3424  1.4304
 2429SOL     OW18922   4.699   3.283   2.795 -0.0461  0.0909 -0.2500
 2429SOL    HW118923   4.674   3.250   2.881 -0.6936 -0.5434 -0.6758
 2429SOL    HW218924   4.729   3.200   2.757 -0.1986  1.3841 -3.2166
 2430SOL     OW18925   2.953   1.059   2.077  0.2138 -0.4245 -0.1021
 2430SOL    HW118926   3.035   1.016   2.101  0.1668  0.3850  1.5126
 2430SOL    HW218927   2.982   1.131   2.019  0.6630 -0.7562 -0.2894
 2431SOL     OW18928   3.301   2.244   5.536 -0.3835  0.9067 -0.0552
 2431SOL    HW118929   3.359   2.312   5.504 -0.0133  0.2966 -0.6924
 2431SOL    HW218930   3.254   2.241   5.453  1.6790  1.6184 -1.2282
 2432SOL     OW18931   3.165   0.520  17.532 -0.0766 -0.5370  0.4612
 2432SOL    HW118932   3.172   0.527  17.627 -1.1702 -1.2258  0.5852
 2432SOL    HW218933   3.258   0.528  17.509 -0.0215 -0.0363  0.8690
 2433SOL     OW18934   3.682   0.877   8.077  0.3158  0.4324  0.6386
 2433SOL    HW118935   3.762   0.842   8.116  0.2262 -0.7555 -0.2317
 2433SOL    HW218936   3.709   0.948   8.019  0.6722  1.4511  2.0496
 2434SOL     OW18937   2.590   3.402  15.405  0.1894 -0.8736  0.2192
 2434SOL    HW118938   2.530   3.460  15.358  1.0456  0.4295  0.7235
 2434SOL    HW218939   2.574   3.431  15.495 -0.2324 -2.1237  0.5528
 2435SOL     OW18940   0.150   4.321   0.064 -0.2666 -0.7246 -0.3181
 2435SOL    HW118941   0.152   4.228   0.084  1.2313 -0.5241  0.4566
 2435SOL    HW218942   0.110   4.329  17.738 -2.1474 -0.5305  0.5658
 2436SOL     OW18943   2.759   0.897   5.018  0.0676 -0.2899 -0.1188
 2436SOL    HW118944   2.825   0.852   4.965  1.1390  0.9287  0.1658
 2436SOL    HW218945   2.818   0.948   5.074  2.1823 -1.2073 -1.5276
 2437SOL     OW18946   1.741   1.548   2.782  0.4105 -0.7211  0.2780
 2437SOL    HW118947   1.830   1.542   2.746 -0.8923 -1.6499 -2.7785
 2437SOL    HW218948   1.750   1.627   2.835 -2.2579  0.0476 -0.4441
 2438SOL     OW18949   0.439   1.471  12.423  0.2243  0.1457  0.0996
 2438SOL    HW118950   0.462   1.387  12.462 -0.4718  0.7819  1.8767
 2438SOL    HW218951   0.438   1.530  12.498  0.5856 -1.1679  1.1562
 2439SOL     OW18952   1.161   4.504   6.927 -0.1439 -0.3158  0.3560
 2439SOL    HW118953   1.236   4.564   6.932 -1.3050  1.3365 -2.2689
 2439SOL    HW218954   1.091   4.568   6.937  0.6916  0.8695 -1.3177
 2440SOL     OW18955   2.788   2.518   1.935 -0.2082 -0.0173 -0.0453
 2440SOL    HW118956   2.853   2.449   1.923 -0.0346  0.1102  0.1559
 2440SOL    HW218957   2.817   2.558   2.017 -1.2759  1.4249 -0.3718
 2441SOL     OW18958   4.594   2.997   8.168 -0.4265  0.7362 -0.0337
 2441SOL    HW118959   4.624   2.994   8.259  0.9167 -0.7612 -0.5149
 2441SOL    HW218960   4.540   2.918   8.165 -1.3762  1.4466 -1.9206
 2442SOL     OW18961   0.265   4.051   2.552  0.4785  0.3865 -0.3007
 2442SOL    HW118962   0.211   4.020   2.479 -0.5805 -0.7867  0.9819
 2442SOL    HW218963   0.208   4.105   2.606 -0.0732 -0.8827  0.3845
 2443SOL     OW18964   1.391   4.636   4.908  0.2369  0.3404  0.3188
 2443SOL    HW118965   1.350   4.550   4.918  2.1989 -0.5376  0.8239
 2443SOL    HW218966   1.476   4.619   4.949  0.9855  1.3492 -0.8544
 2444SOL     OW18967   2.761   0.698   8.163  0.2849  0.2305 -0.3426
 2444SOL    HW118968   2.742   0.707   8.069 -0.1357 -2.2455 -0.4830
 2444SOL    HW218969   2.851   0.732   8.164  0.5091 -0.3469 -0.6808
 2445SOL     OW18970   2.206   2.823  14.336 -0.0517  0.0231 -0.2714
 2445SOL    HW118971   2.262   2.895  14.307 -0.0951  0.3068  0.3298
 2445SOL    HW218972   2.191   2.852  14.427  0.3768 -1.2151  0.1899
 2446SOL     OW18973   0.151   3.670   3.307 -0.5147  0.2772  0.2044
 2446SOL    HW118974   0.134   3.631   3.393  0.5702 -0.0022  0.2939
 2446SOL    HW218975   0.244   3.693   3.306 -0.9216  1.8458 -1.0105
 2447SOL     OW18976   3.798   1.803   5.873 -0.2765  0.1960  0.1342
 2447SOL    HW118977   3.715   1.842   5.899  0.1956 -0.9937  3.3425
 2447SOL    HW218978   3.785   1.712   5.849  1.0723 -0.5746  2.3355
 2448SOL     OW18979   0.736   0.625   7.913  0.9478  0.6866 -0.4111
 2448SOL    HW118980   0.666   0.599   7.973  2.1909 -0.7527  0.4057
 2448SOL    HW218981   0.721   0.720   7.913 -1.6808  0.2769 -1.1908
 2449SOL     OW18982   3.362   0.482   9.059 -0.2627  0.3197  0.4044
 2449SOL    HW118983   3.343   0.574   9.045 -1.6645 -0.1491 -0.8271
 2449SOL    HW218984   3.397   0.497   9.146  1.7869 -2.9281  0.1482
 2450SOL     OW18985   0.031   3.161   2.028 -0.3779  0.0297  0.1357
 2450SOL    HW118986   4.705   3.120   1.973  1.0160 -1.3387 -0.5351
 2450SOL    HW218987   0.037   3.104   2.104  1.1477  0.1109  0.0765
 2451SOL     OW18988   2.072   4.317  15.072 -0.0438 -0.6071 -0.6465
 2451SOL    HW118989   2.015   4.240  15.071  2.1381 -2.2343 -0.0883
 2451SOL    HW218990   2.058   4.354  15.160 -2.6243 -0.9341 -0.9303
 2452SOL     OW18991   3.948   2.540  16.983  0.1268  0.2685  0.1562
 2452SOL    HW118992   4.030   2.570  17.023  0.9393 -1.3416 -0.3111
 2452SOL    HW218993   3.889   2.553  17.057  0.5062 -2.9350  1.0121
 2453SOL     OW18994   1.790   2.012   5.734 -0.0822  0.1421  0.3759
 2453SOL    HW118995   1.808   2.104   5.715  0.3813  0.0966  0.5913
 2453SOL    HW218996   1.697   2.007   5.714  0.2451  0.4834 -1.2653
 2454SOL     OW18997   4.494   4.183   9.393  0.8540  0.4522 -0.5358
 2454SOL    HW118998   4.478   4.129   9.470  0.8191  0.0675 -0.8153
 2454SOL    HW218999   4.579   4.222   9.414  0.5488  0.5143  0.5792
 2455SOL     OW19000   1.680   1.076   8.975 -0.3949 -0.6841  0.1415
 2455SOL    HW119001   1.685   0.981   8.986 -1.8004 -0.6250  1.3453
 2455SOL    HW219002   1.757   1.104   8.926 -0.0766 -0.3956  0.8156
 2456SOL     OW19003   2.773   0.591   9.037  0.5933  0.5743  0.0527
 2456SOL    HW119004   2.819   0.507   9.038  0.7377  0.6628  0.8799
 2456SOL    HW219005   2.820   0.630   9.110  1.0819 -0.8184  0.4765
 2457SOL     OW19006   0.237   0.470  16.584 -0.9894 -0.1192 -0.0528
 2457SOL    HW119007   0.175   0.457  16.655  0.1700  0.5471  1.0876
 2457SOL    HW219008   0.249   0.564  16.600  1.4781 -0.5872  0.8831
 2458SOL     OW19009   2.499   2.533   5.279  0.1647 -0.1226  0.0060
 2458SOL    HW119010   2.436   2.605   5.283 -2.5478 -2.3806 -1.7320
 2458SOL    HW219011   2.580   2.584   5.289 -1.2034  1.0651  4.9237
 2459SOL     OW19012   0.880   2.434   8.981 -0.0237 -0.0811 -0.5110
 2459SOL    HW119013   0.790   2.464   8.997  0.8266  1.9831  0.3091
 2459SOL    HW219014   0.918   2.414   9.067 -0.0159 -1.1070 -0.7530
 2460SOL     OW19015   1.277   2.539  14.181  0.4007 -0.3841 -0.0152
 2460SOL    HW119016   1.293   2.623  14.224  1.9980 -0.8829  0.3435
 2460SOL    HW219017   1.363   2.499  14.171  0.4420  0.0494 -1.3896
 2461SOL     OW19018   0.111   2.861   6.160 -0.0241  0.5317  0.1593
 2461SOL    HW119019   0.058   2.910   6.098 -0.4390  0.5284  0.5176
 2461SOL    HW219020   0.178   2.928   6.174  1.1565 -0.7623  0.7770
 2462SOL     OW19021   2.121   1.282   6.733 -0.8954 -0.2942 -0.2385
 2462SOL    HW119022   2.069   1.359   6.753 -0.3109 -0.0060  0.1966
 2462SOL    HW219023   2.066   1.213   6.770  1.6761 -2.5838 -0.6477
 2463SOL     OW19024   1.133   0.553   9.169 -0.2806  0.3068 -0.4262
 2463SOL    HW119025   1.168   0.531   9.083 -0.6482 -2.6973  0.1753
 2463SOL    HW219026   1.049   0.585   9.136 -0.8738  0.1661  0.9460
 2464SOL     OW19027   1.143   0.133   4.067 -0.0176  0.1694  0.8015
 2464SOL    HW119028   1.142   0.131   4.163  2.0043  0.6236  0.8292
 2464SOL    HW219029   1.231   0.097   4.056 -0.4331 -1.1162  1.7466
 2465SOL     OW19030   2.353   3.947  15.282  0.0807 -0.1436 -0.2465
 2465SOL    HW119031   2.380   4.038  15.277  0.7165 -0.2583  1.1090
 2465SOL    HW219032   2.259   3.956  15.262 -0.2580 -1.6414  0.6527
 2466SOL     OW19033   4.720   2.218   3.386 -0.0642 -0.0838 -0.1456
 2466SOL    HW119034   0.006   2.203   3.477  0.4935 -0.1716 -0.3268
 2466SOL    HW219035   4.713   2.127   3.357  0.2874 -0.7437  1.8501
 2467SOL     OW19036   3.696   3.759   9.082 -0.1651 -0.3087  0.5067
 2467SOL    HW119037   3.717   3.695   9.150 -1.8456 -0.4546  0.8706
 2467SOL    HW219038   3.650   3.717   9.010 -1.9724  1.9069  0.3773
 2468SOL     OW19039   3.879   4.398   7.191 -0.0125 -0.1238  0.0118
 2468SOL    HW119040   3.818   4.397   7.118 -0.0070  0.4448  0.0041
 2468SOL    HW219041   3.947   4.454   7.156 -0.1227  0.7999  1.2961
 2469SOL     OW19042   0.431   3.361   2.365 -0.7402  0.3268 -0.4294
 2469SOL    HW119043   0.524   3.381   2.352 -0.7776  2.2828  2.4101
 2469SOL    HW219044   0.420   3.346   2.458 -0.8866  0.0069 -0.4985
 2470SOL     OW19045   2.616   3.128   2.726 -0.4134  0.1082  0.1914
 2470SOL    HW119046   2.592   3.207   2.679 -0.2679  0.6093  0.9591
 2470SOL    HW219047   2.636   3.156   2.816  0.2446 -1.9464  0.7008
 2471SOL     OW19048   1.726   4.243   1.858  0.0443 -0.4285 -0.0754
 2471SOL    HW119049   1.724   4.257   1.764 -0.4467 -3.6088 -0.5385
 2471SOL    HW219050   1.818   4.221   1.874  0.0192 -1.5144 -1.5239
 2472SOL     OW19051   3.775   3.226  15.924 -0.3727  0.2114 -0.9213
 2472SOL    HW119052   3.792   3.318  15.942  3.4435 -1.1171  2.2309
 2472SOL    HW219053   3.698   3.217  15.981  0.7918  1.2546  0.8011
 2473SOL     OW19054   4.366   0.624   0.636  0.2262  0.5118 -0.2011
 2473SOL    HW119055   4.298   0.677   0.594  1.1201  1.3797 -0.5502
 2473SOL    HW219056   4.418   0.687   0.685 -0.9121 -0.2156  1.9142
 2474SOL     OW19057   2.326   2.300   8.282 -0.4407 -0.3421 -0.2803
 2474SOL    HW119058   2.236   2.312   8.252 -1.1564 -0.6837  1.7295
 2474SOL    HW219059   2.306   2.238   8.352 -1.3926 -0.5115 -0.7030
 2475SOL     OW19060   1.971   1.568  15.274  0.1193  0.0946  0.9110
 2475SOL    HW119061   2.050   1.621  15.279  0.1341  0.3156 -1.6643
 2475SOL    HW219062   1.951   1.539  15.363 -0.9016 -0.7750  0.4082
 2476SOL     OW19063   4.390   2.442  15.680 -0.1079 -0.4940  0.3141
 2476SOL    HW119064   4.482   2.444  15.654  0.5560 -1.1266  2.5642
 2476SOL    HW219065   4.390   2.522  15.734 -2.5453  0.1532 -0.6455
 2477SOL     OW19066   1.203   0.395  11.395 -0.8422 -0.5502  0.3140
 2477SOL    HW119067   1.131   0.386  11.333 -1.8088  0.2889  1.3063
 2477SOL    HW219068   1.157   0.394  11.479 -2.4169 -1.2856 -0.5688
 2478SOL     OW19069   3.600   2.500   3.644  0.3586 -0.6968 -0.2087
 2478SOL    HW119070   3.522   2.513   3.698  1.9990 -1.6615  2.4054
 2478SOL    HW219071   3.562   2.509   3.557 -0.4708 -1.3193  0.0943
 2479SOL     OW19072   2.182   1.096   2.024 -0.1903 -0.2153 -0.2620
 2479SOL    HW119073   2.201   1.013   1.981  1.7149  0.6480 -1.1245
 2479SOL    HW219074   2.231   1.159   1.970 -1.8530 -1.7290 -3.4879
 2480SOL     OW19075   2.286   3.576   4.880  0.3262 -0.1374  0.3320
 2480SOL    HW119076   2.225   3.502   4.878 -0.8181  0.8302 -1.2409
 2480SOL    HW219077   2.331   3.563   4.796 -0.1114  0.7423 -0.0404
 2481SOL     OW19078   2.742   2.449  16.682  0.5967 -0.0166 -0.2422
 2481SOL    HW119079   2.676   2.447  16.752 -2.3654  3.5430 -2.9511
 2481SOL    HW219080   2.791   2.529  16.699 -0.5883  0.6658 -0.0550
 2482SOL     OW19081   3.596   0.159   9.509 -0.1665  0.2141  0.0465
 2482SOL    HW119082   3.631   0.071   9.492 -0.5478  0.1190 -0.2348
 2482SOL    HW219083   3.660   0.207   9.561 -0.0393  0.2562 -0.1503
 2483SOL     OW19084   4.086   3.303   8.027 -0.6779  0.3500  0.4033
 2483SOL    HW119085   4.159   3.347   7.982 -0.7887  0.0258 -0.0926
 2483SOL    HW219086   4.108   3.316   8.119 -0.6192  1.0560  0.2864
 2484SOL     OW19087   2.082   2.519   8.594 -0.7736  0.2683  0.3500
 2484SOL    HW119088   2.113   2.531   8.684  0.5779 -0.4919 -0.0151
 2484SOL    HW219089   2.145   2.549   8.529  0.7105  0.0122  1.6637
 2485SOL     OW19090   0.677   2.107   3.192  0.4949 -0.9692 -0.4650
 2485SOL    HW119091   0.670   2.070   3.104 -0.4157  1.1575 -1.2879
 2485SOL    HW219092   0.598   2.070   3.231  1.4297 -0.7950  1.6150
 2486SOL     OW19093   2.898   1.666   5.208 -0.0213  0.3660 -0.0667
 2486SOL    HW119094   2.983   1.710   5.194 -1.4783  2.5181 -2.1823
 2486SOL    HW219095   2.849   1.703   5.135 -1.6778  1.0185  1.3646
 2487SOL     OW19096   0.271   0.412   2.470  0.3332  0.5283  0.6505
 2487SOL    HW119097   0.243   0.375   2.387  0.0077 -1.0334  1.4526
 2487SOL    HW219098   0.187   0.448   2.496 -0.3282 -0.5267 -0.0306
 2488SOL     OW19099   1.266   1.392   7.251  0.1889  0.5070 -0.1021
 2488SOL    HW119100   1.348   1.428   7.285 -0.4874  1.9247 -0.0047
 2488SOL    HW219101   1.195   1.419   7.309  0.8025  2.5023 -0.2974
 2489SOL     OW19102   2.492   0.282   5.703  0.3187 -0.6233 -0.1432
 2489SOL    HW119103   2.505   0.196   5.664  2.8973 -0.4993  0.4438
 2489SOL    HW219104   2.534   0.247   5.781  1.2956 -0.6033 -0.6596
 2490SOL     OW19105   2.474   0.265  14.524 -0.2171  0.0176 -0.2475
 2490SOL    HW119106   2.546   0.204  14.508 -1.9006 -1.4195 -2.4134
 2490SOL    HW219107   2.493   0.332  14.458 -1.5196 -1.4377 -2.0993
 2491SOL     OW19108   1.377   4.178   3.693  0.5477  0.2377 -0.2826
 2491SOL    HW119109   1.450   4.115   3.695 -0.3211 -0.7676 -0.3119
 2491SOL    HW219110   1.382   4.220   3.779 -0.6708  0.5881 -0.3966
 2492SOL     OW19111   1.466   0.204   8.333 -0.1276  0.4010  0.0649
 2492SOL    HW119112   1.529   0.159   8.276 -0.9332 -2.9749  1.8740
 2492SOL    HW219113   1.496   0.176   8.419 -0.0977  0.6492  0.1353
 2493SOL     OW19114   2.026   1.258   3.344  0.0735  0.0807  0.3690
 2493SOL    HW119115   2.116   1.267   3.310  1.0647 -4.0065  1.9026
 2493SOL    HW219116   2.019   1.325   3.411 -1.1446  0.3706 -0.0522
 2494SOL     OW19117   4.560   3.600   6.123 -0.0047 -0.1537  1.0860
 2494SOL    HW119118   4.579   3.520   6.075 -2.3321 -1.1203  1.7709
 2494SOL    HW219119   4.467   3.611   6.103  0.6661 -1.3382 -2.5836
 2495SOL     OW19120   4.179   3.071   8.168 -0.0607 -0.4197  0.0496
 2495SOL    HW119121   4.165   2.977   8.182 -1.1480 -0.3339 -0.4991
 2495SOL    HW219122   4.116   3.110   8.228 -0.8780 -0.4590 -0.8021
 2496SOL     OW19123   4.089   1.883   5.260 -0.1117  0.4763 -0.4518
 2496SOL    HW119124   4.098   1.842   5.174  1.8247  0.8236 -0.4210
 2496SOL    HW219125   4.122   1.815   5.319 -0.6962  0.3255 -0.2962
 2497SOL     OW19126   4.360   1.689  15.009  0.4096 -0.0384 -0.1250
 2497SOL    HW119127   4.411   1.632  15.067  1.5506 -0.3413 -1.4077
 2497SOL    HW219128   4.428   1.709  14.944 -1.0130 -0.4908 -1.7345
 2498SOL     OW19129   0.099   1.846  12.222  0.0208 -0.3991 -0.1774
 2498SOL    HW119130   0.086   1.929  12.267  1.3342  0.7005 -1.8183
 2498SOL    HW219131   0.182   1.816  12.259 -0.4845 -1.4675  0.0865
 2499SOL     OW19132   3.070   2.251  10.900  0.0818  0.5460 -0.0539
 2499SOL    HW119133   3.164   2.260  10.885  0.2515 -2.6166 -0.9040
 2499SOL    HW219134   3.042   2.335  10.863 -1.9143 -0.6183 -1.2210
 2500SOL     OW19135   1.310   3.927   8.648  0.4729 -0.3270 -0.6830
 2500SOL    HW119136   1.292   3.974   8.729 -1.1582  1.2288 -1.9230
 2500SOL    HW219137   1.402   3.900   8.650  1.2588  2.2563 -2.1580
 2501SOL     OW19138   4.202   0.577   8.207  0.5356  0.0008  0.3966
 2501SOL    HW119139   4.217   0.599   8.299  2.6451  3.7970 -0.8356
 2501SOL    HW219140   4.280   0.521   8.201 -0.0289 -0.6041 -1.3160
 2502SOL     OW19141   1.401   1.103   7.556 -0.1421  0.1288  0.3127
 2502SOL    HW119142   1.359   1.018   7.567  0.6155  0.1183  3.1497
 2502SOL    HW219143   1.381   1.106   7.463  1.2259  0.7347  0.0256
 2503SOL     OW19144   1.321   4.517   9.387 -0.2369 -0.1401  0.2255
 2503SOL    HW119145   1.363   4.598   9.416 -0.0415  0.1426 -0.8537
 2503SOL    HW219146   1.234   4.527   9.424 -0.5849  0.2681 -0.7339
 2504SOL     OW19147   1.326   3.751   3.926  0.1591  0.0920 -0.1418
 2504SOL    HW119148   1.408   3.800   3.932  0.8875 -0.9826 -1.3316
 2504SOL    HW219149   1.355   3.666   3.894 -0.9320  0.4999 -2.2271
 2505SOL     OW19150   4.679   0.993   5.129 -0.4618  0.3183  0.6876
 2505SOL    HW119151   4.610   1.039   5.082 -0.2655 -1.3825 -1.2512
 2505SOL    HW219152   0.016   1.023   5.082 -0.3560 -0.6442  0.2400
 2506SOL     OW19153   2.860   4.539   7.623  0.3673 -0.2643  0.7044
 2506SOL    HW119154   2.861   4.459   7.571  0.8263 -0.6950  1.3734
 2506SOL    HW219155   2.783   4.529   7.680  1.4924 -0.5905  2.1592
 2507SOL     OW19156   3.366   3.943   3.657  0.3063  0.3197  0.0869
 2507SOL    HW119157   3.382   3.885   3.583 -0.3776  0.9124 -0.5258
 2507SOL    HW219158   3.277   3.930   3.689 -0.0336  1.6796 -0.2948
 2508SOL     OW19159   2.283   0.110   2.710 -0.1196  0.4632  0.4338
 2508SOL    HW119160   2.353   0.174   2.699  2.2973 -1.9796  1.7910
 2508SOL    HW219161   2.210   0.166   2.682  0.9333  2.0785  0.9572
 2509SOL     OW19162   1.374   3.881   9.262 -0.3780 -0.4127 -0.3374
 2509SOL    HW119163   1.309   3.909   9.197  1.8990  0.9675 -2.0013
 2509SOL    HW219164   1.347   3.792   9.285 -0.4652  0.1370  1.7092
 2510SOL     OW19165   2.290   4.470   2.218 -0.1453  0.0571 -0.1632
 2510SOL    HW119166   2.221   4.454   2.283 -0.6387 -2.3449 -1.2518
 2510SOL    HW219167   2.369   4.452   2.270  0.0144  1.6180  0.1134
 2511SOL     OW19168   2.461   2.387   1.968 -0.0524 -0.1359  0.7386
 2511SOL    HW119169   2.507   2.329   2.030 -0.2128  0.8160  1.7529
 2511SOL    HW219170   2.528   2.446   1.936  0.2838 -0.4469  0.8671
 2512SOL     OW19171   2.130   1.442   4.074 -0.4348 -0.2266 -0.6480
 2512SOL    HW119172   2.115   1.534   4.093  1.2728 -0.0151 -0.3443
 2512SOL    HW219173   2.094   1.407   4.155  1.8107 -1.7532 -0.3150
 2513SOL     OW19174   4.615   1.794  12.081 -0.1526  0.2276 -0.0027
 2513SOL    HW119175   4.682   1.812  12.147  0.7595 -0.9533 -0.6133
 2513SOL    HW219176   4.643   1.851  12.009  2.9602  0.1436  1.1411
 2514SOL     OW19177   0.539   2.756   7.269  0.7611 -0.1734 -0.4022
 2514SOL    HW119178   0.518   2.759   7.362  0.3929 -0.3623 -0.4824
 2514SOL    HW219179   0.539   2.664   7.243  0.1264 -0.7471  1.6636
 2515SOL     OW19180   0.151   3.298   6.704 -0.4524 -0.3266 -0.5105
 2515SOL    HW119181   0.228   3.353   6.719 -0.3562 -0.1617 -1.6008
 2515SOL    HW219182   0.176   3.253   6.623  0.1039 -1.6527  0.3947
 2516SOL     OW19183   3.170   3.244  10.174  0.1785 -0.2833  0.2271
 2516SOL    HW119184   3.123   3.316  10.132 -0.8236  0.2505  2.2571
 2516SOL    HW219185   3.264   3.261  10.165 -0.0863  0.6415 -0.7886
 2517SOL     OW19186   2.817   1.849   3.224  0.2768  0.2368  0.5513
 2517SOL    HW119187   2.727   1.855   3.192  0.0146  0.5191  1.3412
 2517SOL    HW219188   2.834   1.934   3.263  1.3505  0.9436 -1.4310
 2518SOL     OW19189   3.140   3.991   8.577  0.1198 -1.0101 -0.4566
 2518SOL    HW119190   3.051   3.965   8.554 -0.6443  1.9695 -0.8436
 2518SOL    HW219191   3.168   4.015   8.489 -2.0648 -0.1869 -0.9327
 2519SOL     OW19192   0.533   3.847   9.276 -0.5145  0.2107  0.0716
 2519SOL    HW119193   0.598   3.881   9.215  1.4161 -0.3604  1.7804
 2519SOL    HW219194   0.551   3.754   9.289 -1.0678  0.1275  0.2585
 2520SOL     OW19195   4.254   3.684   6.162  0.1575  0.1600  0.0550
 2520SOL    HW119196   4.229   3.737   6.086  0.9987 -2.4788 -2.0416
 2520SOL    HW219197   4.248   3.743   6.237  0.1246  2.0753 -1.4609
 2521SOL     OW19198   0.207   4.510   5.093 -0.0558  0.0343  0.4944
 2521SOL    HW119199   0.248   4.575   5.036  2.6628  0.5005  2.9487
 2521SOL    HW219200   0.256   4.523   5.174  0.9955 -0.1856 -0.1083
 2522SOL     OW19201   0.176   2.642   5.753 -0.1626  0.1777  0.3813
 2522SOL    HW119202   0.185   2.646   5.657  0.4704 -0.0663  0.4309
 2522SOL    HW219203   0.160   2.731   5.782 -0.0914  0.3690 -0.1624
 2523SOL     OW19204   4.251   0.660   5.729 -0.5024  0.3466 -0.3470
 2523SOL    HW119205   4.320   0.647   5.664 -0.5769  2.5270 -0.8771
 2523SOL    HW219206   4.251   0.756   5.726 -1.1574  0.3508 -0.2372
 2524SOL     OW19207   0.006   1.891  15.411  0.5190  0.2182 -0.0137
 2524SOL    HW119208   0.026   1.818  15.353  0.0345  0.5162 -0.5521
 2524SOL    HW219209   0.056   1.861  15.487 -0.5664 -1.5985 -0.0376
 2525SOL     OW19210   3.177   0.528  10.713  0.3900  0.1586  0.1366
 2525SOL    HW119211   3.200   0.444  10.674 -0.5453 -0.1039  0.1382
 2525SOL    HW219212   3.254   0.584  10.703 -0.9409  1.7265 -1.4028
 2526SOL     OW19213   1.079   0.488   2.725 -0.2951 -0.2690 -0.1723
 2526SOL    HW119214   1.090   0.434   2.647 -0.3408 -0.3711 -0.1090
 2526SOL    HW219215   1.133   0.449   2.795 -0.1287 -0.1627 -0.2415
 2527SOL     OW19216   4.555   4.355   0.870  0.0816 -0.4979 -0.0627
 2527SOL    HW119217   4.515   4.293   0.931 -0.5694 -2.1705 -2.1945
 2527SOL    HW219218   4.501   4.334   0.794  1.4703 -2.0216 -0.6227
 2528SOL     OW19219   2.444   0.733  14.735 -0.1195  0.2028 -0.3454
 2528SOL    HW119220   2.359   0.705  14.768 -0.1916  0.7341 -0.0762
 2528SOL    HW219221   2.495   0.654  14.716 -1.4207 -0.6426 -0.3108
 2529SOL     OW19222   3.080   1.451   6.604 -0.2603  0.1469 -0.7566
 2529SOL    HW119223   3.171   1.423   6.602 -0.4079 -0.4767  1.0092
 2529SOL    HW219224   3.042   1.389   6.543 -0.8761  0.8238 -1.0678
 2530SOL     OW19225   4.524   3.986   3.001  0.1978  0.0854  0.4264
 2530SOL    HW119226   4.490   3.924   2.936  0.0399  1.7406 -1.0731
 2530SOL    HW219227   4.578   3.937   3.063  1.4650  1.5079  0.4309
 2531SOL     OW19228   4.679   3.744   5.757  0.2670  0.0860  0.1649
 2531SOL    HW119229   4.646   3.823   5.713 -1.1953  0.4699  1.9660
 2531SOL    HW219230   4.600   3.691   5.747 -0.1833  0.6705  0.6061
 2532SOL     OW19231   1.882   0.472   9.011  0.4972 -0.4417 -0.2458
 2532SOL    HW119232   1.891   0.561   9.045 -2.1710 -0.7332  1.2253
 2532SOL    HW219233   1.793   0.447   9.036  0.4471  0.7085  0.7451
 2533SOL     OW19234   2.172   2.982   8.201 -0.3063 -0.0696 -0.6059
 2533SOL    HW119235   2.131   2.970   8.287  3.7423 -0.2727  1.2610
 2533SOL    HW219236   2.132   3.068   8.183 -0.7631 -0.6582 -2.4524
 2534SOL     OW19237   2.707   2.241   0.651 -0.3705 -0.2897  0.0986
 2534SOL    HW119238   2.691   2.178   0.720  0.1717 -1.3129 -0.7102
 2534SOL    HW219239   2.735   2.188   0.576  0.9343 -0.6958  0.8667
 2535SOL     OW19240   4.337   4.716   2.293  0.6397 -0.3786 -0.1060
 2535SOL    HW119241   4.349   4.731   2.199 -1.3550 -0.4607 -0.3635
 2535SOL    HW219242   4.291   4.632   2.288  0.0700 -0.0042 -1.2835
 2536SOL     OW19243   1.183   4.542   0.024  0.0624 -0.0902  0.6237
 2536SOL    HW119244   1.243   4.596   0.077  1.0451 -0.1671 -0.4125
 2536SOL    HW219245   1.112   4.535   0.088 -0.9369  1.9804 -0.2851
 2537SOL     OW19246   1.004   0.196   7.227  0.2865 -0.6751  0.5139
 2537SOL    HW119247   1.100   0.194   7.219  0.3262 -1.4341  1.2275
 2537SOL    HW219248   1.004   0.113   7.275 -2.0520 -0.1001  1.5124
 2538SOL     OW19249   1.855   1.311  14.312 -0.2676  0.2206  0.3630
 2538SOL    HW119250   1.913   1.292  14.238  0.0964  0.0270  0.7002
 2538SOL    HW219251   1.788   1.244  14.296  0.3875  0.0707 -1.6864
 2539SOL     OW19252   4.163   1.243   2.672 -0.6286 -0.2322 -0.1973
 2539SOL    HW119253   4.235   1.183   2.691 -0.5274 -0.2201 -0.5544
 2539SOL    HW219254   4.165   1.286   2.758  3.2154 -0.1403 -0.3325
 2540SOL     OW19255   4.608   1.391   7.690  0.2739 -0.6573  0.5053
 2540SOL    HW119256   4.536   1.452   7.676 -0.2496 -1.4209 -0.1563
 2540SOL    HW219257   4.566   1.322   7.743 -0.8789 -1.0074 -0.8563
 2541SOL     OW19258   3.108   3.260  10.469 -0.0983 -0.3628 -1.0616
 2541SOL    HW119259   3.035   3.320  10.456  1.6757  1.8847 -0.5895
 2541SOL    HW219260   3.183   3.304  10.429 -0.0366 -1.2075 -1.8801
 2542SOL     OW19261   2.480   0.969   5.095 -0.2618 -0.5743  0.2719
 2542SOL    HW119262   2.467   0.939   5.185 -1.8748  0.5293  0.4152
 2542SOL    HW219263   2.575   0.966   5.084 -0.3471 -0.9085 -0.3748
 2543SOL     OW19264   1.524   2.649   3.971  0.5054 -0.5816  0.3264
 2543SOL    HW119265   1.508   2.678   3.881 -0.7180  0.1983  0.8014
 2543SOL    HW219266   1.594   2.709   3.996 -0.6651 -0.4691  3.3244
 2544SOL     OW19267   3.328   3.554  13.666 -0.1384  0.0902  0.2785
 2544SOL    HW119268   3.301   3.573  13.576  0.0128  2.8083  0.8278
 2544SOL    HW219269   3.387   3.627  13.681  0.8995 -0.8349  0.6486
 2545SOL     OW19270   3.615   3.800   3.996 -0.1623  0.0953  0.5012
 2545SOL    HW119271   3.620   3.713   3.957 -0.2128  0.4328 -0.2513
 2545SOL    HW219272   3.633   3.774   4.087 -0.8185 -0.8873  0.3406
 2546SOL     OW19273   0.329   2.961   4.251 -0.0427  0.6287  0.2371
 2546SOL    HW119274   0.261   2.988   4.190 -2.2353  0.6673  2.7031
 2546SOL    HW219275   0.349   2.878   4.207  1.2033  1.2147 -0.2963
 2547SOL     OW19276   1.029   2.334   5.340 -0.0405  0.2143 -1.0000
 2547SOL    HW119277   0.999   2.296   5.258 -0.4150 -1.1537 -0.2290
 2547SOL    HW219278   1.092   2.270   5.372  0.0709  0.4829 -0.6811
 2548SOL     OW19279   1.898   0.793   5.191  0.3496 -0.1599 -0.3394
 2548SOL    HW119280   1.916   0.885   5.208 -0.0534 -0.4008  1.3648
 2548SOL    HW219281   1.928   0.757   5.275 -0.8464  0.9165  0.5341
 2549SOL     OW19282   2.554   2.763   2.262 -0.1763  0.1332  0.3528
 2549SOL    HW119283   2.483   2.817   2.227 -1.4697 -1.1716  0.9467
 2549SOL    HW219284   2.617   2.824   2.301  1.4132 -1.8849  0.9075
 2550SOL     OW19285   4.007   1.455   9.730 -0.3070  0.2745 -0.1604
 2550SOL    HW119286   3.919   1.484   9.754  0.0302  1.8152 -0.7608
 2550SOL    HW219287   4.028   1.522   9.665  2.8625 -0.9915 -0.4308
 2551SOL     OW19288   0.497   2.487   5.684 -0.4983 -0.1617 -0.5426
 2551SOL    HW119289   0.452   2.473   5.601 -2.6249  1.3139  0.3461
 2551SOL    HW219290   0.505   2.582   5.674  4.9654 -0.7065 -1.4316
 2552SOL     OW19291   3.792   1.898  14.729 -0.7275  0.0651  0.3232
 2552SOL    HW119292   3.833   1.952  14.797 -0.1278  0.4279 -0.3168
 2552SOL    HW219293   3.756   1.972  14.679 -0.1543 -1.2048 -1.9514
 2553SOL     OW19294   3.721   3.561   3.884  0.3106 -0.7156  0.1188
 2553SOL    HW119295   3.733   3.627   3.816 -0.5059  0.4038  1.0469
 2553SOL    HW219296   3.752   3.484   3.836  1.2956 -0.8752  1.0269
 2554SOL     OW19297   0.729   1.713   6.754  0.2323 -0.6298  0.2138
 2554SOL    HW119298   0.637   1.739   6.765  0.5277  0.6062 -0.2772
 2554SOL    HW219299   0.760   1.773   6.686 -1.0632 -1.3790 -1.0636
 2555SOL     OW19300   4.491   0.805   8.278  0.6937  0.6470  0.2161
 2555SOL    HW119301   4.545   0.874   8.239  1.0641 -0.8390 -1.9464
 2555SOL    HW219302   4.450   0.750   8.210  0.4045  1.0485  0.0676
 2556SOL     OW19303   2.166   3.379   6.266  0.3238  0.5503  0.1140
 2556SOL    HW119304   2.078   3.370   6.230  0.9357 -1.3332 -0.9047
 2556SOL    HW219305   2.200   3.290   6.261  1.9970  1.0774  2.4154
 2557SOL     OW19306   0.679   3.831   1.331 -0.3720  0.3070  0.0879
 2557SOL    HW119307   0.769   3.862   1.336 -0.7918  1.6457 -0.4607
 2557SOL    HW219308   0.663   3.780   1.410  0.8514  0.1933  0.2566
 2558SOL     OW19309   0.674   2.355   5.179  0.1685  0.0096 -0.2644
 2558SOL    HW119310   0.587   2.373   5.142  0.4105  2.4716  0.3455
 2558SOL    HW219311   0.716   2.437   5.155  1.2813 -0.2712  0.7395
 2559SOL     OW19312   3.195   4.409   7.763 -0.1167  0.3139 -0.3062
 2559SOL    HW119313   3.171   4.335   7.818 -0.8464 -0.1967 -1.3100
 2559SOL    HW219314   3.190   4.486   7.820  0.7346  1.5900 -1.9505
 2560SOL     OW19315   2.163   3.372   3.169  0.4289 -0.1738  0.1024
 2560SOL    HW119316   2.155   3.384   3.074 -2.2297 -1.7023  0.1364
 2560SOL    HW219317   2.245   3.417   3.191  0.9676 -1.6108  1.0258
 2561SOL     OW19318   4.562   2.543   2.566  0.4397  0.2620  0.2964
 2561SOL    HW119319   4.550   2.609   2.498  1.5466 -0.0479 -0.2029
 2561SOL    HW219320   4.590   2.464   2.519 -0.7289 -0.4496  0.7848
 2562SOL     OW19321   0.176   2.663   2.675 -0.1235 -0.1867 -0.2920
 2562SOL    HW119322   0.200   2.617   2.594  0.0595 -0.9431  0.1983
 2562SOL    HW219323   0.253   2.689   2.725  1.0522 -2.5992 -0.8794
 2563SOL     OW19324   1.076   2.374  11.524  0.2517 -0.3988  0.9495
 2563SOL    HW119325   1.088   2.354  11.617 -2.1126  0.2429  1.3945
 2563SOL    HW219326   1.009   2.308  11.506 -0.1616  0.0715  0.7477
 2564SOL     OW19327   2.586   4.707   6.414  0.8051  0.0690  0.3938
 2564SOL    HW119328   2.576   4.620   6.377 -0.6580 -0.6265  2.4583
 2564SOL    HW219329   2.496   4.739   6.422  0.2953 -1.6207  1.4164
 2565SOL     OW19330   1.034   0.980   7.581  0.1026  0.0713 -0.6743
 2565SOL    HW119331   0.983   0.900   7.595  1.2811 -0.8037 -1.3607
 2565SOL    HW219332   1.062   0.962   7.492 -0.2339  2.7719 -1.3344
 2566SOL     OW19333   2.888   0.925  14.923  0.5747 -0.1261 -0.8705
 2566SOL    HW119334   2.793   0.915  14.921  0.5428 -0.1699  0.9639
 2566SOL    HW219335   2.877   1.011  14.964 -1.4952 -0.2653 -1.1543
 2567SOL     OW19336   4.212   3.647   3.221  0.1843  0.3526  0.6114
 2567SOL    HW119337   4.302   3.632   3.247  0.4993  0.3262 -0.5083
 2567SOL    HW219338   4.189   3.725   3.272  0.1160 -0.2662  1.5181
 2568SOL     OW19339   1.140   0.420   5.306 -0.5097  0.3711 -0.1129
 2568SOL    HW119340   1.161   0.381   5.391 -0.3044  1.1549  0.1880
 2568SOL    HW219341   1.044   0.410   5.308 -0.4778  0.1357  0.2111
 2569SOL     OW19342   1.594   0.525   4.390  0.5140  0.7479 -0.1036
 2569SOL    HW119343   1.606   0.452   4.329 -1.3553 -1.2121  1.8852
 2569SOL    HW219344   1.506   0.553   4.365  0.2033 -1.2400 -1.2939
 2570SOL     OW19345   0.746   4.353   7.067 -0.4054  1.1941 -0.0505
 2570SOL    HW119346   0.704   4.307   6.994 -1.8598  1.6613  0.4946
 2570SOL    HW219347   0.752   4.444   7.038  2.1598  0.7556 -0.8752
 2571SOL     OW19348   1.294   1.455   4.347 -0.4917  0.3285 -0.7670
 2571SOL    HW119349   1.199   1.451   4.357 -0.4601 -0.7390 -0.9539
 2571SOL    HW219350   1.312   1.364   4.324 -1.1859 -0.0278  0.0733
 2572SOL     OW19351   3.610   3.271   5.152 -0.0515  0.3193 -0.6156
 2572SOL    HW119352   3.634   3.210   5.081  0.7093 -0.8734  0.6650
 2572SOL    HW219353   3.533   3.316   5.116 -0.1883 -0.1513 -0.9103
 2573SOL     OW19354   3.777   3.147  14.715  0.5100 -0.1219  0.5393
 2573SOL    HW119355   3.744   3.172  14.801 -0.6210 -0.2917  0.1635
 2573SOL    HW219356   3.825   3.225  14.688  0.8142  0.2141  2.0429
 2574SOL     OW19357   2.982   2.468   5.196  0.5905 -0.0169  0.2014
 2574SOL    HW119358   2.918   2.540   5.194  0.0487 -0.5080  0.0856
 2574SOL    HW219359   3.051   2.502   5.139  0.1555 -0.7593 -0.7589
 2575SOL     OW19360   4.358   0.908   7.154  0.3260  0.0810 -0.0732
 2575SOL    HW119361   4.323   0.970   7.218  0.4647 -1.0288  1.0628
 2575SOL    HW219362   4.347   0.831   7.209 -2.8098 -0.1602 -1.0676
 2576SOL     OW19363   0.001   1.652   7.648  0.0843  0.4049  0.0965
 2576SOL    HW119364   4.686   1.575   7.658 -0.4424  0.7941  0.1942
 2576SOL    HW219365   0.079   1.600   7.629 -1.2122 -0.7859 -2.0581
 2577SOL     OW19366   4.535   0.906   8.883 -0.3403 -0.4070  0.4647
 2577SOL    HW119367   4.458   0.906   8.941 -0.2672  1.4544  0.5737
 2577SOL    HW219368   4.543   0.812   8.869  0.5314 -0.3160  0.3761
 2578SOL     OW19369   1.044   4.478  17.544  0.1399 -0.4727  0.3638
 2578SOL    HW119370   1.036   4.544  17.475  2.8532 -2.4025 -1.8300
 2578SOL    HW219371   1.083   4.523  17.618  0.3154  1.2546 -0.7883
 2579SOL     OW19372   2.024   0.718  16.198 -0.1420  0.1156  0.1700
 2579SOL    HW119373   2.019   0.788  16.133 -2.2204 -0.2962 -0.1211
 2579SOL    HW219374   1.961   0.743  16.265 -0.8847  1.9855 -1.2215
 2580SOL     OW19375   1.689   0.450   9.703  0.0983 -0.6897 -0.2911
 2580SOL    HW119376   1.760   0.443   9.766  0.8501  2.5500 -0.7954
 2580SOL    HW219377   1.724   0.510   9.637  1.7661 -0.2804  0.9916
 2581SOL     OW19378   0.903   3.214  16.639  0.3394  0.8962 -0.4141
 2581SOL    HW119379   0.978   3.156  16.625 -1.3505 -1.1287 -1.1307
 2581SOL    HW219380   0.926   3.282  16.576 -0.1733  2.4592  1.1143
 2582SOL     OW19381   0.996   0.769   7.910 -0.1060 -0.4151  0.2355
 2582SOL    HW119382   0.907   0.734   7.915 -0.9052  1.9685  2.3460
 2582SOL    HW219383   1.047   0.702   7.956 -1.4352  0.0039  2.3337
 2583SOL     OW19384   2.423   0.297   9.200 -0.1924 -0.5018  0.0172
 2583SOL    HW119385   2.486   0.263   9.263  1.6684  1.2325 -0.8938
 2583SOL    HW219386   2.446   0.244   9.123 -0.8108 -0.3037 -0.3076
 2584SOL     OW19387   0.177   0.314   7.274  0.1445 -0.0280  0.2222
 2584SOL    HW119388   0.190   0.310   7.179 -0.9181 -0.0128  0.0778
 2584SOL    HW219389   0.239   0.386   7.289  1.1525 -0.4981 -1.6887
 2585SOL     OW19390   3.340   4.229   8.566  0.3501  0.0235 -0.3575
 2585SOL    HW119391   3.396   4.151   8.566 -0.7043 -0.7315 -0.9098
 2585SOL    HW219392   3.290   4.232   8.484 -0.3788  1.2739  0.1328
 2586SOL     OW19393   1.440   3.759   3.573 -0.0540  0.3747  0.8898
 2586SOL    HW119394   1.427   3.786   3.482 -2.7231 -0.0015  1.1551
 2586SOL    HW219395   1.423   3.665   3.567 -0.6869  0.5319  0.1725
 2587SOL     OW19396   3.357   2.822   2.704  0.0117 -0.2028  0.3271
 2587SOL    HW119397   3.372   2.904   2.752  1.0631 -2.8385  4.5086
 2587SOL    HW219398   3.423   2.815   2.635  1.5526  0.2474  1.7644
 2588SOL     OW19399   3.660   3.526  13.705  0.2963 -0.4156 -0.5068
 2588SOL    HW119400   3.586   3.585  13.718  0.8559  0.0291  0.6477
 2588SOL    HW219401   3.709   3.575  13.638 -0.0715 -0.7879 -1.0480
 2589SOL     OW19402   1.248   1.780  13.943 -0.2985  0.5647 -0.3858
 2589SOL    HW119403   1.336   1.759  13.911  1.1681  0.2515  3.9045
 2589SOL    HW219404   1.198   1.708  13.905 -0.1964  0.0438  0.4796
 2590SOL     OW19405   2.487   3.536   5.144  0.7343 -0.0720  0.0748
 2590SOL    HW119406   2.442   3.614   5.175 -1.4554 -0.4621 -2.1602
 2590SOL    HW219407   2.435   3.521   5.065  0.0054 -1.7788  0.8598
 2591SOL     OW19408   4.492   1.914   9.347 -0.1601  0.4032 -0.4616
 2591SOL    HW119409   4.496   1.842   9.410 -3.2758  1.2063  0.6560
 2591SOL    HW219410   4.575   1.956   9.371  0.1022 -0.5760  0.3362
 2592SOL     OW19411   2.988   3.185  13.403 -0.0453 -0.0520 -0.4846
 2592SOL    HW119412   2.931   3.117  13.366 -0.2567  0.8865 -1.8835
 2592SOL    HW219413   3.008   3.154  13.491 -3.3428 -2.4219 -0.5574
 2593SOL     OW19414   4.450   0.088   4.802 -0.4516  0.7914 -0.2761
 2593SOL    HW119415   4.444   0.079   4.707 -0.3749 -1.4686 -0.0758
 2593SOL    HW219416   4.374   0.142   4.826  0.0742  1.3802  0.0450
 2594SOL     OW19417   3.054   3.602   9.751  0.0536 -0.0399 -0.5713
 2594SOL    HW119418   3.126   3.588   9.690  0.1065  1.4731 -0.8755
 2594SOL    HW219419   3.027   3.512   9.766  0.8764  0.1584  2.0359
 2595SOL     OW19420   0.937   3.696   4.403 -0.1655  0.1530  0.0821
 2595SOL    HW119421   0.876   3.625   4.421  2.8025 -2.4834 -0.2865
 2595SOL    HW219422   1.010   3.650   4.443 -0.7887 -0.6233  0.3366
 2596SOL     OW19423   3.782   4.203   2.222 -0.5118  0.5894  0.2750
 2596SOL    HW119424   3.865   4.237   2.189 -0.0216  0.0055  0.9264
 2596SOL    HW219425   3.733   4.218   2.141 -1.1908  0.1524  0.6044
 2597SOL     OW19426   4.667   2.464  17.193 -0.3537  0.1871 -0.3026
 2597SOL    HW119427   4.703   2.390  17.243  0.0182  0.8236  0.3689
 2597SOL    HW219428   4.635   2.526  17.259  1.1158  1.5997 -0.9038
 2598SOL     OW19429   3.969   1.568   8.173  0.8786 -0.3460  0.4185
 2598SOL    HW119430   4.063   1.573   8.191  1.3477 -0.8530 -1.9212
 2598SOL    HW219431   3.926   1.577   8.258 -0.9498  0.2647 -0.5724
 2599SOL     OW19432   3.069   3.126   4.218 -0.1093 -0.5588  0.3115
 2599SOL    HW119433   3.013   3.181   4.163  0.9584 -0.0587 -0.2729
 2599SOL    HW219434   3.151   3.175   4.221  0.6388 -1.8405  0.8421
 2600SOL     OW19435   4.045   3.317   5.278 -0.1570 -0.1163 -0.4837
 2600SOL    HW119436   4.099   3.238   5.280  0.5106  0.3580  0.2287
 2600SOL    HW219437   3.958   3.291   5.308  0.8192 -1.5838  1.0892
 2601SOL     OW19438   3.811   2.839   4.884  0.0989 -0.1306  0.0651
 2601SOL    HW119439   3.737   2.823   4.943  1.3061  0.2225  1.6549
 2601SOL    HW219440   3.884   2.855   4.944 -0.0720 -0.0272  0.2466
 2602SOL     OW19441   3.154   1.403  16.100 -0.1504 -0.4817 -0.0385
 2602SOL    HW119442   3.113   1.474  16.150  0.2855 -0.0994 -0.2194
 2602SOL    HW219443   3.135   1.324  16.151  2.0933 -0.4853  0.7969
 2603SOL     OW19444   0.643   1.897   8.730  0.3770 -0.1626  0.5261
 2603SOL    HW119445   0.701   1.971   8.710 -0.7652  0.0841 -1.9264
 2603SOL    HW219446   0.676   1.879   8.818 -0.6931  1.5583  1.2811
 2604SOL     OW19447   2.593   0.784   7.162 -0.1889  0.0028 -0.4059
 2604SOL    HW119448   2.548   0.703   7.140 -0.8674 -0.2316  1.8014
 2604SOL    HW219449   2.639   0.799   7.080 -1.0793  0.5349 -0.8083
 2605SOL     OW19450   2.491   3.900   2.175 -0.2830 -0.1752 -0.0364
 2605SOL    HW119451   2.453   3.955   2.244  0.3388  0.0919  0.0941
 2605SOL    HW219452   2.553   3.847   2.226  1.4016  0.5441 -1.3178
 2606SOL     OW19453   2.697   0.521   5.415 -0.1529  0.0777 -0.0288
 2606SOL    HW119454   2.630   0.535   5.482  2.2919 -1.0690  2.6891
 2606SOL    HW219455   2.665   0.585   5.352  2.3588  1.3514 -0.0401
 2607SOL     OW19456   1.132   3.290   2.120  0.7831 -0.0636 -0.2073
 2607SOL    HW119457   1.102   3.260   2.206  1.0965 -0.6354 -0.2986
 2607SOL    HW219458   1.133   3.207   2.073  0.2681  0.2159 -0.7140
 2608SOL     OW19459   0.489   4.296   0.421  0.1992 -0.8055  0.6974
 2608SOL    HW119460   0.493   4.391   0.411  0.0581 -0.6940  1.6544
 2608SOL    HW219461   0.543   4.282   0.499  0.1537 -0.7287  0.7415
 2609SOL     OW19462   4.321   0.659   6.493 -0.2571 -0.2084  0.4227
 2609SOL    HW119463   4.238   0.610   6.498  1.0484 -2.1118  3.4861
 2609SOL    HW219464   4.370   0.606   6.556 -1.0032 -0.8102  0.5045
 2610SOL     OW19465   2.544   0.785  15.157  0.0299 -0.2657 -0.4047
 2610SOL    HW119466   2.453   0.772  15.184 -0.2118  2.9684  0.3795
 2610SOL    HW219467   2.561   0.707  15.105 -0.5841  0.5473 -1.8194
 2611SOL     OW19468   0.100   3.223   4.613 -0.1053 -0.1165 -0.4930
 2611SOL    HW119469   0.069   3.220   4.703  2.6323  0.7781  0.4850
 2611SOL    HW219470   0.126   3.133   4.595  1.4521  0.6427 -2.1416
 2612SOL     OW19471   0.490   3.548   5.909 -0.4188  0.2951  0.2072
 2612SOL    HW119472   0.405   3.523   5.873 -0.9277 -1.1877  2.4092
 2612SOL    HW219473   0.450   3.626   5.949  0.0472  1.5077 -1.7032
 2613SOL     OW19474   1.207   4.239   6.166  0.2942 -0.6658  0.8747
 2613SOL    HW119475   1.213   4.226   6.072 -0.0594 -0.1849  0.7845
 2613SOL    HW219476   1.137   4.179   6.192  1.1044 -0.2213  4.1597
 2614SOL     OW19477   0.887   2.008  13.857 -0.6266  0.1579  0.1563
 2614SOL    HW119478   0.899   1.913  13.856 -0.7244  0.1400  0.4712
 2614SOL    HW219479   0.849   2.019  13.770  0.5923 -0.0052 -0.4003
 2615SOL     OW19480   1.513   2.226  12.741  0.8186  0.2537 -0.0048
 2615SOL    HW119481   1.423   2.237  12.771  0.3222 -1.3146 -0.9055
 2615SOL    HW219482   1.509   2.135  12.710  2.2518 -0.4679  1.8740
 2616SOL     OW19483   4.070   4.237  12.538  0.4321 -0.1214 -0.1830
 2616SOL    HW119484   4.093   4.208  12.450  1.6924  1.5793 -0.4142
 2616SOL    HW219485   3.976   4.246  12.523  0.1615 -0.3495  1.3359
 2617SOL     OW19486   2.580   0.550   5.656  0.1497 -0.1316 -0.3650
 2617SOL    HW119487   2.672   0.540   5.678 -0.1075  0.6345  1.0704
 2617SOL    HW219488   2.545   0.464   5.676 -0.4450 -0.1800 -1.6427
 2618SOL     OW19489   0.132   2.665   5.480 -0.3551 -0.6719 -0.3782
 2618SOL    HW119490   0.145   2.605   5.407 -1.9063 -1.8770  0.3244
 2618SOL    HW219491   0.057   2.627   5.526 -1.1285 -0.5343 -1.5290
 2619SOL     OW19492   3.276   1.580   2.015  0.1151 -0.8058  0.4492
 2619SOL    HW119493   3.297   1.607   2.104  0.0571 -1.5053  0.6760
 2619SOL    HW219494   3.276   1.485   2.026  1.1890 -0.7883  0.6172
 2620SOL     OW19495   1.891   2.566   8.220  0.5632  0.2009 -0.6580
 2620SOL    HW119496   1.905   2.472   8.231  0.7422  0.1146 -1.6160
 2620SOL    HW219497   1.820   2.579   8.283  1.3295 -1.9350  0.6415
 2621SOL     OW19498   3.067   4.706  10.662  0.0092  0.3732 -0.6914
 2621SOL    HW119499   2.972   4.692  10.661  0.2286 -1.1899  0.4046
 2621SOL    HW219500   3.092   4.619  10.632  0.1540  0.2562 -0.2263
 2622SOL     OW19501   1.856   3.589   5.255  0.3857  0.1159 -0.1585
 2622SOL    HW119502   1.809   3.649   5.197  0.8245 -2.1174 -2.7875
 2622SOL    HW219503   1.928   3.647   5.282  1.0420 -0.0678 -1.5225
 2623SOL     OW19504   3.942   4.456   0.595 -0.4028  0.1215 -0.6664
 2623SOL    HW119505   3.854   4.483   0.618  0.2619  1.9596 -0.2662
 2623SOL    HW219506   3.951   4.509   0.516 -3.5465  0.6113 -0.6984
 2624SOL     OW19507   0.717   2.134   2.194  0.3623 -0.3171  0.1892
 2624SOL    HW119508   0.738   2.227   2.208  1.2421 -0.6769  1.2770
 2624SOL    HW219509   0.693   2.133   2.102 -4.3734  3.6764  1.3606
 2625SOL     OW19510   1.991   4.172   0.553 -0.5107  0.2329  0.6838
 2625SOL    HW119511   1.927   4.129   0.496 -0.6440 -0.1803  1.1497
 2625SOL    HW219512   2.065   4.158   0.493 -0.5998  0.2939  0.5589
 2626SOL     OW19513   4.298   0.421   4.755  0.0398  0.3999 -0.3542
 2626SOL    HW119514   4.230   0.445   4.692 -0.9302  1.6785  1.2135
 2626SOL    HW219515   4.265   0.335   4.783 -0.7414  0.8779  0.1704
 2627SOL     OW19516   2.745   4.417  10.040  0.2022 -0.5353  0.3019
 2627SOL    HW119517   2.813   4.480  10.014 -1.8735  1.5127 -0.1144
 2627SOL    HW219518   2.723   4.372   9.958 -0.4450  0.2069  0.0729
 2628SOL     OW19519   2.793   2.653   3.665 -0.3016 -0.0984  0.4947
 2628SOL    HW119520   2.837   2.714   3.724  0.2020  1.2258 -1.2381
 2628SOL    HW219521   2.856   2.582   3.655 -2.4124 -1.7332 -1.2531
 2629SOL     OW19522   1.137   4.334   0.506  0.1769 -0.1439 -0.1501
 2629SOL    HW119523   1.207   4.269   0.511  1.2373  0.9308 -1.2246
 2629SOL    HW219524   1.092   4.303   0.427 -0.8257  0.2950  0.2487
 2630SOL     OW19525   1.061   1.221   8.739  0.1703  0.1237 -0.1167
 2630SOL    HW119526   1.146   1.192   8.705 -0.0070  0.6295 -0.9925
 2630SOL    HW219527   1.081   1.223   8.833 -0.1878  0.6828 -0.0539
 2631SOL     OW19528   2.232   1.776   5.412 -0.7080  0.2594 -0.3603
 2631SOL    HW119529   2.258   1.853   5.463 -0.8726 -0.1774  0.3915
 2631SOL    HW219530   2.291   1.778   5.337  2.2852 -1.2563  1.9596
 2632SOL     OW19531   2.566   2.373   9.119  0.4150  0.6754  0.5340
 2632SOL    HW119532   2.526   2.453   9.153 -1.9139 -0.1784 -0.2265
 2632SOL    HW219533   2.654   2.407   9.099 -0.1027  2.2369  0.8515
 2633SOL     OW19534   2.127   2.761   9.566  0.1069 -0.3877 -0.0516
 2633SOL    HW119535   2.063   2.705   9.609  1.8603 -0.1064  2.9401
 2633SOL    HW219536   2.167   2.708   9.497 -1.3154  1.4586 -2.3204
 2634SOL     OW19537   4.602   4.045   1.502  0.4255  0.5056 -0.0407
 2634SOL    HW119538   4.621   4.005   1.417 -0.2661  0.3595 -0.1224
 2634SOL    HW219539   4.507   4.058   1.500  0.0916 -1.9046  0.5094
 2635SOL     OW19540   3.638   2.427   6.824  0.9924  0.2182  0.0243
 2635SOL    HW119541   3.668   2.509   6.784  2.5774 -1.8382 -3.0101
 2635SOL    HW219542   3.580   2.403   6.752 -0.0713  0.1459  0.9015
 2636SOL     OW19543   1.748   4.580   8.686 -0.1698 -0.1480  0.0862
 2636SOL    HW119544   1.807   4.589   8.761 -0.5697  0.3060  0.3426
 2636SOL    HW219545   1.806   4.552   8.615  1.2243 -1.2883  1.6619
 2637SOL     OW19546   1.493   0.439   1.591  0.2390 -0.1421 -0.2252
 2637SOL    HW119547   1.520   0.517   1.641  1.2503 -0.5813 -0.0788
 2637SOL    HW219548   1.521   0.367   1.647  0.9024 -0.3443 -0.8189
 2638SOL     OW19549   0.589   3.066   3.224  0.6236 -0.1571 -0.1983
 2638SOL    HW119550   0.677   3.037   3.248 -0.7296 -2.1695  2.3723
 2638SOL    HW219551   0.611   3.114   3.144  0.2278 -0.3247 -0.4049
 2639SOL     OW19552   3.108   0.306  12.258  0.1782  0.2481 -0.7208
 2639SOL    HW119553   3.113   0.337  12.348  0.1508  1.0024 -0.9795
 2639SOL    HW219554   3.203   0.303  12.246  0.5366 -0.6850  2.4477
 2640SOL     OW19555   0.235   1.822  11.953 -0.0561 -0.5372 -0.3813
 2640SOL    HW119556   0.195   1.843  12.037 -0.8685  0.0740 -0.9268
 2640SOL    HW219557   0.220   1.905  11.908 -0.1073 -0.0559  0.5287
 2641SOL     OW19558   2.853   0.186   9.273 -0.0570  0.2048  0.0969
 2641SOL    HW119559   2.870   0.277   9.297  0.3107 -0.0824  0.9408
 2641SOL    HW219560   2.845   0.195   9.178 -1.5525 -0.7314  0.1302
 2642SOL     OW19561   0.861   2.148   5.553  0.2054 -0.2050 -0.0519
 2642SOL    HW119562   0.795   2.157   5.622 -0.2414 -1.0970 -0.3626
 2642SOL    HW219563   0.823   2.200   5.482  1.1321  0.3939 -0.1016
 2643SOL     OW19564   2.531   1.940   4.478  0.6229 -0.0801 -0.3370
 2643SOL    HW119565   2.584   1.953   4.399  0.9087  3.2040  0.4020
 2643SOL    HW219566   2.598   1.890   4.525  2.7161 -0.7584 -4.0212
 2644SOL     OW19567   2.888   3.182   5.932  0.3108  0.1873  0.4875
 2644SOL    HW119568   2.833   3.104   5.941  0.0703  0.1018 -1.5606
 2644SOL    HW219569   2.975   3.142   5.922  0.2873  0.0210  0.9675
 2645SOL     OW19570   3.410   2.423  10.905  0.1839  0.9862 -0.2590
 2645SOL    HW119571   3.480   2.463  10.853 -0.1472 -0.1951 -1.6002
 2645SOL    HW219572   3.328   2.460  10.873 -0.8921 -1.3792 -0.2423
 2646SOL     OW19573   1.758   2.063   6.053 -0.1345  0.0157  0.1244
 2646SOL    HW119574   1.710   1.987   6.085  4.6053 -2.0536  2.3731
 2646SOL    HW219575   1.727   2.069   5.963 -1.8011 -3.7150  0.4463
 2647SOL     OW19576   3.554   2.960   9.455  0.2179  0.6130 -0.5321
 2647SOL    HW119577   3.565   2.910   9.536  2.1246  0.3914 -0.9269
 2647SOL    HW219578   3.577   2.901   9.383  0.5145  0.2494 -0.1387
 2648SOL     OW19579   2.794   3.466   6.388  0.3726 -0.1096 -0.0636
 2648SOL    HW119580   2.785   3.376   6.420 -1.2427 -0.1136 -0.5219
 2648SOL    HW219581   2.870   3.498   6.438  0.5600  0.6833 -0.8605
 2649SOL     OW19582   1.924   3.559  12.946 -0.6178 -0.0451 -0.2358
 2649SOL    HW119583   1.862   3.487  12.960 -2.4076  1.6347  0.3510
 2649SOL    HW219584   1.996   3.535  13.005 -0.6462  1.8490  0.5739
 2650SOL     OW19585   4.431   2.974   0.181  0.5793 -0.5623 -0.6165
 2650SOL    HW119586   4.460   3.030   0.253 -2.9625  1.4287 -0.7314
 2650SOL    HW219587   4.491   2.903   0.201  1.1556 -0.2052 -1.0719
 2651SOL     OW19588   2.937   0.266   2.020 -0.3516 -0.7299 -0.0070
 2651SOL    HW119589   2.958   0.358   2.004 -1.7568 -0.4359 -0.1763
 2651SOL    HW219590   2.997   0.214   1.967  0.5057  0.5259 -0.2879
 2652SOL     OW19591   4.556   0.156   3.867  0.1286 -0.3030 -0.4112
 2652SOL    HW119592   4.601   0.234   3.835  0.5045 -0.1872  0.4217
 2652SOL    HW219593   4.608   0.093   3.817  0.6725  0.3717 -0.6970
 2653SOL     OW19594   4.284   0.164   3.872 -0.3038  0.3371  0.2201
 2653SOL    HW119595   4.376   0.151   3.895 -0.3504  0.8370  0.7078
 2653SOL    HW219596   4.296   0.232   3.805 -0.1893 -0.0416 -0.1431
 2654SOL     OW19597   1.559   1.874   4.122 -0.0838 -0.3298 -0.6176
 2654SOL    HW119598   1.567   1.843   4.031  0.6461  0.0007 -0.6614
 2654SOL    HW219599   1.502   1.805   4.156 -0.3711  0.7606  1.1083
 2655SOL     OW19600   2.097   3.100   5.288  0.3981 -0.3331 -0.0644
 2655SOL    HW119601   2.143   3.110   5.372 -2.3690 -1.7375  1.6593
 2655SOL    HW219602   2.168   3.063   5.235  1.7583 -0.8095  2.0574
 2656SOL     OW19603   3.711   3.033  14.140  0.1460 -0.1519  0.1936
 2656SOL    HW119604   3.767   2.958  14.160  0.7225  0.5073  1.0124
 2656SOL    HW219605   3.773   3.072  14.079 -0.9001  2.0430  0.5237
 2657SOL     OW19606   4.517   4.334  10.049 -0.2745  0.0284 -0.8321
 2657SOL    HW119607   4.562   4.349  10.132 -0.6035  1.9471 -0.9924
 2657SOL    HW219608   4.584   4.348   9.982 -0.6118 -2.6818 -1.7390
 2658SOL     OW19609   3.987   2.510   1.822  0.0166 -0.2350 -0.0573
 2658SOL    HW119610   4.039   2.527   1.744  1.3402 -0.4539  0.7885
 2658SOL    HW219611   3.945   2.426   1.804  0.5241 -0.4545 -0.2184
 2659SOL     OW19612   3.803   1.303   5.193  0.0815 -0.1150  0.2726
 2659SOL    HW119613   3.746   1.350   5.253  1.6417 -0.6012  2.1471
 2659SOL    HW219614   3.891   1.338   5.207 -0.5101  1.7785 -0.7845
 2660SOL     OW19615   0.010   0.979   9.727  0.3021  0.0118 -0.3663
 2660SOL    HW119616   0.105   0.989   9.720  0.4266 -0.4931  0.7298
 2660SOL    HW219617   4.731   1.071   9.706 -0.3468  0.0524  0.4436
 2661SOL     OW19618   0.742   0.306   5.224  0.0234  0.2092 -0.3574
 2661SOL    HW119619   0.768   0.393   5.192  0.8036 -1.2630 -3.7758
 2661SOL    HW219620   0.721   0.257   5.144  2.0362 -0.9383 -0.1597
 2662SOL     OW19621   3.933   1.529   2.977 -0.2984 -0.1158 -0.3971
 2662SOL    HW119622   3.883   1.451   2.950 -2.7520  2.1754 -2.4709
 2662SOL    HW219623   3.862   1.593   2.973 -1.8738 -1.7840  0.7026
 2663SOL     OW19624   4.188   0.365   4.456 -0.0141 -0.0183 -0.2947
 2663SOL    HW119625   4.165   0.398   4.369 -3.0622  2.2570  1.3792
 2663SOL    HW219626   4.116   0.407   4.503  2.2135  1.8615  1.3974
 2664SOL     OW19627   1.945   2.069  14.493  0.4124  0.0871  0.2883
 2664SOL    HW119628   1.914   1.980  14.477  2.6835 -0.3299 -1.8788
 2664SOL    HW219629   1.866   2.118  14.472  0.6400  0.4575  0.2977
 2665SOL     OW19630   1.011   4.445   2.924  0.0868  0.0203 -0.4125
 2665SOL    HW119631   0.954   4.371   2.945  0.3974 -0.5390 -1.5500
 2665SOL    HW219632   0.974   4.507   2.986  0.2641 -0.8908  0.6246
 2666SOL     OW19633   1.709   3.432  10.228 -0.2082  0.3239  0.0492
 2666SOL    HW119634   1.798   3.464  10.235 -0.1354  0.3491 -1.1218
 2666SOL    HW219635   1.716   3.354  10.284  0.0266 -0.7390 -1.4677
 2667SOL     OW19636   2.732   4.138   7.749 -0.0355  0.2283 -0.2392
 2667SOL    HW119637   2.672   4.074   7.711  0.2333 -0.2573  0.1477
 2667SOL    HW219638   2.776   4.100   7.826 -2.0099 -1.1879  0.1954
 2668SOL     OW19639   1.270   4.420  17.347 -0.3487 -0.4468 -0.6002
 2668SOL    HW119640   1.176   4.416  17.329 -0.6381  0.3004  0.7729
 2668SOL    HW219641   1.270   4.433  17.442 -1.0906  1.5126 -0.8763
 2669SOL     OW19642   4.558   2.552   3.960  0.1287 -0.3073 -0.2109
 2669SOL    HW119643   4.525   2.465   3.982  1.4654 -0.3667  1.4964
 2669SOL    HW219644   4.487   2.598   4.006  1.0096  0.1694  0.6669
 2670SOL     OW19645   2.206   0.957  11.501 -0.2126  0.0549 -0.2096
 2670SOL    HW119646   2.284   0.980  11.449  0.0070 -0.1256  0.0394
 2670SOL    HW219647   2.255   0.905  11.565  0.6443  1.9543  0.6467
 2671SOL     OW19648   4.180   1.823   3.550  0.0769 -0.0235  0.0082
 2671SOL    HW119649   4.209   1.851   3.463  1.2635 -0.5185  0.2526
 2671SOL    HW219650   4.261   1.787   3.585 -0.3967 -1.2376 -0.1329
 2672SOL     OW19651   3.673   3.930  14.773 -0.2178  0.1031 -0.2375
 2672SOL    HW119652   3.730   3.999  14.739 -1.6577  1.3790 -0.0310
 2672SOL    HW219653   3.644   3.893  14.690  0.4769  1.3612 -1.0377
 2673SOL     OW19654   1.586   2.462   2.750 -0.2987  0.1363  0.7644
 2673SOL    HW119655   1.605   2.501   2.835  2.4820  1.4920 -0.4785
 2673SOL    HW219656   1.492   2.474   2.733 -0.0616  1.0038  0.0422
 2674SOL     OW19657   0.084   2.373   9.900 -0.1073  0.1874 -0.5971
 2674SOL    HW119658   0.165   2.326   9.878  0.2259  1.5299 -2.2951
 2674SOL    HW219659   0.055   2.326   9.978  0.8586 -0.8712 -0.8774
 2675SOL     OW19660   0.916   3.884   5.741 -0.4467 -0.1154  0.4024
 2675SOL    HW119661   0.974   3.813   5.769 -0.9608 -0.4604  0.6119
 2675SOL    HW219662   0.978   3.948   5.707 -0.3774 -0.4658 -0.1312
 2676SOL     OW19663   3.032   2.718   3.844  0.3443 -0.7804 -0.1361
 2676SOL    HW119664   3.086   2.680   3.913  2.3886 -0.9959 -1.8823
 2676SOL    HW219665   2.972   2.778   3.889  1.4640  0.9966 -1.0488
 2677SOL     OW19666   2.294   0.363   6.590 -0.1829 -0.4869 -0.0201
 2677SOL    HW119667   2.385   0.352   6.615  0.0244  1.0334 -0.0582
 2677SOL    HW219668   2.254   0.308   6.658  0.9769 -2.1861 -0.7338
 2678SOL     OW19669   1.028   2.729  13.655  0.2944 -0.2852 -0.4080
 2678SOL    HW119670   1.026   2.696  13.745  1.4953 -1.3002 -0.7516
 2678SOL    HW219671   1.105   2.675  13.638  0.5159 -0.0482 -0.1310
 2679SOL     OW19672   4.525   2.660   5.096  0.2798 -0.5603  0.9327
 2679SOL    HW119673   4.616   2.664   5.128  0.3486 -2.4400  0.9336
 2679SOL    HW219674   4.538   2.615   5.013 -0.1982  1.8536 -0.4531
 2680SOL     OW19675   3.323   3.572   7.956  0.2647  0.3208 -0.4424
 2680SOL    HW119676   3.410   3.595   7.988  0.1178 -2.2034  1.8361
 2680SOL    HW219677   3.354   3.525   7.879 -1.1050 -0.3886 -0.5670
 2681SOL     OW19678   3.384   2.341   0.926  0.1526 -0.0143 -0.5136
 2681SOL    HW119679   3.398   2.432   0.948 -0.0132 -0.7009  2.3530
 2681SOL    HW219680   3.466   2.296   0.947  0.0859  0.0656 -0.0887
 2682SOL     OW19681   1.930   4.153   7.057  0.1605  0.0313  0.1908
 2682SOL    HW119682   1.856   4.160   6.996 -0.6887  0.1636  1.2245
 2682SOL    HW219683   1.890   4.128   7.141  0.3662  0.4458  0.4119
 2683SOL     OW19684   2.596   1.058  16.750  0.0496 -0.1737  0.3941
 2683SOL    HW119685   2.527   1.034  16.688 -1.6053 -1.9330  2.8904
 2683SOL    HW219686   2.553   1.018  16.826 -0.0794  0.0845  0.4591
 2684SOL     OW19687   2.152   3.473   3.827 -0.0265 -0.3224  0.1614
 2684SOL    HW119688   2.148   3.382   3.796 -0.6190 -0.1717 -0.2077
 2684SOL    HW219689   2.059   3.494   3.826  0.2869  1.0348 -0.0288
 2685SOL     OW19690   4.701   3.894  16.741  0.1010 -0.8947  0.6283
 2685SOL    HW119691   4.664   3.977  16.712 -0.7159 -1.4520  0.0648
 2685SOL    HW219692   0.029   3.925  16.799  1.5703 -0.3795 -1.4057
 2686SOL     OW19693   1.964   3.542  10.225 -0.1726 -0.1999 -0.3187
 2686SOL    HW119694   1.995   3.632  10.213  0.2424 -0.1928  0.8260
 2686SOL    HW219695   1.999   3.529  10.312  0.1840 -3.8787 -1.0057
 2687SOL     OW19696   3.233   3.966   6.112 -0.2660  0.7954  0.4120
 2687SOL    HW119697   3.299   4.004   6.055 -1.4229  1.6249 -0.3579
 2687SOL    HW219698   3.212   3.894   6.052 -1.0629 -0.5393  2.2685
 2688SOL     OW19699   0.623   0.109   5.622  0.8270  0.8512  0.3850
 2688SOL    HW119700   0.671   0.044   5.673 -1.4861  0.3986  1.9928
 2688SOL    HW219701   0.584   0.163   5.691  0.2585 -0.5794  1.1936
 2689SOL     OW19702   1.138   2.335   0.071 -0.2530  0.0072  0.0381
 2689SOL    HW119703   1.181   2.268   0.018  0.0405 -0.1113  0.4279
 2689SOL    HW219704   1.073   2.276   0.110  1.1831 -0.8082  1.1863
 2690SOL     OW19705   0.476   3.755  13.571 -0.2667  0.2113 -0.5068
 2690SOL    HW119706   0.468   3.716  13.484 -1.5536  0.0961 -0.3304
 2690SOL    HW219707   0.405   3.706  13.612  1.4688 -0.4901  1.6683
 2691SOL     OW19708   1.191   1.820   4.892 -0.2787  0.4244  0.0179
 2691SOL    HW119709   1.243   1.769   4.955 -2.5315 -2.5396 -0.5386
 2691SOL    HW219710   1.147   1.753   4.841 -1.3441  0.7279  0.5387
 2692SOL     OW19711   1.373   1.534   8.282 -0.2812 -0.2717 -0.0050
 2692SOL    HW119712   1.288   1.536   8.238 -0.5767  0.0900  0.5906
 2692SOL    HW219713   1.362   1.453   8.331  1.0901  1.0315  2.4454
 2693SOL     OW19714   1.483   1.476   6.533 -0.1019 -0.1218 -0.5968
 2693SOL    HW119715   1.403   1.424   6.534 -0.1623 -0.0358 -0.9567
 2693SOL    HW219716   1.475   1.518   6.618 -0.1647 -0.9739 -0.1759
 2694SOL     OW19717   1.428   2.895   6.074  0.1442 -0.2080 -0.2115
 2694SOL    HW119718   1.385   2.855   6.149 -0.2787 -0.5748 -0.6502
 2694SOL    HW219719   1.464   2.824   6.022  2.5454  1.2836 -0.6163
 2695SOL     OW19720   2.625   0.906   1.645  0.1424 -0.4552 -0.7279
 2695SOL    HW119721   2.619   0.991   1.689  0.7869 -1.1480  0.7261
 2695SOL    HW219722   2.600   0.836   1.705  0.0413 -0.6261 -0.9734
 2696SOL     OW19723   2.605   3.224   9.035 -0.7011  0.3943 -0.0018
 2696SOL    HW119724   2.572   3.309   9.064 -1.9063 -0.1350  0.1729
 2696SOL    HW219725   2.540   3.188   8.976 -2.1630  1.1162  1.1719
 2697SOL     OW19726   3.693   3.002   4.477 -0.4223  0.6603 -0.1963
 2697SOL    HW119727   3.754   3.022   4.548 -0.0226 -1.3346  0.0048
 2697SOL    HW219728   3.725   2.922   4.435 -0.4190  0.2869  0.5212
 2698SOL     OW19729   3.567   4.706   7.211  0.7112 -0.2651  0.0170
 2698SOL    HW119730   3.494   0.013   7.172  1.0462 -1.9436 -2.6452
 2698SOL    HW219731   3.504   4.643   7.245  1.2358 -1.5988 -1.5317
 2699SOL     OW19732   1.888   3.492   7.872 -0.2247  0.0556  0.4266
 2699SOL    HW119733   1.858   3.408   7.906  2.6468 -2.8495 -4.2073
 2699SOL    HW219734   1.924   3.473   7.786 -1.1086  0.9550 -0.1402
 2700SOL     OW19735   2.318   3.533  12.779 -0.1756 -0.3318  0.7122
 2700SOL    HW119736   2.386   3.489  12.830 -1.0800  0.0207  2.2139
 2700SOL    HW219737   2.293   3.473  12.708  0.8864 -2.5720  2.2344
 2701SOL     OW19738   3.828   3.708   7.653 -0.0082 -0.1507 -0.6467
 2701SOL    HW119739   3.841   3.772   7.723  0.7677  0.4952 -1.3783
 2701SOL    HW219740   3.778   3.758   7.587 -1.7214  1.0446  1.5586
 2702SOL     OW19741   1.197   4.140   4.483  0.1849 -0.0698  0.1318
 2702SOL    HW119742   1.133   4.160   4.551  2.2741  0.5952  1.9160
 2702SOL    HW219743   1.148   4.082   4.425 -1.6782  1.1167  0.5094
 2703SOL     OW19744   1.224   0.993   5.114 -0.1706  0.4119  0.1261
 2703SOL    HW119745   1.161   1.065   5.115 -0.2646  0.3165  1.1828
 2703SOL    HW219746   1.286   1.016   5.183 -0.4688  1.2139  0.1245
 2704SOL     OW19747   1.876   2.199   1.568  0.0766 -0.1132 -0.1969
 2704SOL    HW119748   1.940   2.128   1.576 -0.7935 -0.6835  1.8542
 2704SOL    HW219749   1.933   2.261   1.613  1.2885 -2.3034  1.3184
 2705SOL     OW19750   2.803   0.241   7.711  0.2023  0.1773 -0.1039
 2705SOL    HW119751   2.882   0.207   7.669 -0.8443 -5.0113  2.0634
 2705SOL    HW219752   2.819   0.335   7.708 -0.9251  0.3643 -0.2222
 2706SOL     OW19753   3.086   2.130   1.806  0.2180 -0.0679 -0.4246
 2706SOL    HW119754   3.069   2.056   1.865  0.6203 -0.9335 -1.3827
 2706SOL    HW219755   3.182   2.129   1.806  0.2243  0.6959 -1.0122
 2707SOL     OW19756   1.506   1.166  16.372  0.1575  0.0361 -0.2054
 2707SOL    HW119757   1.443   1.224  16.415  1.2300 -1.0131  2.8475
 2707SOL    HW219758   1.515   1.115  16.453 -2.4863  1.8827  1.2569
 2708SOL     OW19759   2.909   1.403   7.195 -0.1776 -0.0794 -0.3245
 2708SOL    HW119760   2.927   1.417   7.288  0.0527 -2.7133  0.0320
 2708SOL    HW219761   2.977   1.340   7.170 -0.3938 -1.1662  1.7689
 2709SOL     OW19762   2.421   1.816   6.592 -0.5685 -0.0287  0.2354
 2709SOL    HW119763   2.427   1.849   6.502 -0.7379 -1.2777 -0.2270
 2709SOL    HW219764   2.430   1.896   6.644  1.3159  0.2184 -0.4935
 2710SOL     OW19765   0.822   0.461  11.496 -0.1050 -0.1075 -0.8971
 2710SOL    HW119766   0.872   0.379  11.500  1.9577  1.2358  1.1983
 2710SOL    HW219767   0.738   0.426  11.467 -0.2392 -1.3621  0.9895
 2711SOL     OW19768   0.969   3.845   7.738  0.4706  0.1071 -0.3693
 2711SOL    HW119769   1.038   3.889   7.688  0.0381  1.7066  0.4409
 2711SOL    HW219770   0.987   3.878   7.826 -0.6875 -1.2443  0.3782
 2712SOL     OW19771   0.714   2.541   1.856 -0.3933 -0.0931  0.5885
 2712SOL    HW119772   0.654   2.605   1.817 -2.1182 -1.6962  0.6198
 2712SOL    HW219773   0.652   2.468   1.861  0.1828 -0.6019  0.3672
 2713SOL     OW19774   4.728   3.714   6.683  0.0408 -0.1637 -0.0888
 2713SOL    HW119775   0.055   3.690   6.747  0.3707 -0.3520 -0.5105
 2713SOL    HW219776   4.651   3.673   6.724 -0.3570  0.5266 -0.1599
 2714SOL     OW19777   3.383   0.572   8.583 -1.0065  0.4901  0.4159
 2714SOL    HW119778   3.375   0.589   8.489 -1.8283  1.7413  0.7135
 2714SOL    HW219779   3.404   0.661   8.611 -1.1407 -0.0135  2.0936
 2715SOL     OW19780   1.212   1.719   1.736  0.0179 -0.2759  0.3152
 2715SOL    HW119781   1.150   1.785   1.704  0.1727 -0.0613  0.4554
 2715SOL    HW219782   1.219   1.662   1.660 -0.9707  0.4865 -0.3486
 2716SOL     OW19783   4.473   3.048   5.201  0.4077  0.5384  0.7162
 2716SOL    HW119784   4.455   3.138   5.174 -0.2081  0.2651  0.2218
 2716SOL    HW219785   4.569   3.043   5.198  0.3690 -0.6748  1.5099
 2717SOL     OW19786   3.350   2.844   3.815 -0.0070 -0.1577  0.8559
 2717SOL    HW119787   3.291   2.908   3.856  0.8577  1.4491 -0.3981
 2717SOL    HW219788   3.366   2.881   3.728 -2.9218  0.1520  0.4547
 2718SOL     OW19789   0.809   2.593   5.126 -0.2789  0.9247 -0.2821
 2718SOL    HW119790   0.829   2.682   5.098  0.4283  0.7595 -0.2983
 2718SOL    HW219791   0.845   2.551   5.048 -2.0046 -0.3598 -0.3739
 2719SOL     OW19792   4.636   0.798   8.527  0.2813  0.0651  0.1547
 2719SOL    HW119793   4.625   0.884   8.567  1.3826  0.8350 -1.2256
 2719SOL    HW219794   4.575   0.805   8.453  0.8788 -0.5481 -0.3955
 2720SOL     OW19795   0.326   0.387   7.758 -0.4691  1.0444  0.8061
 2720SOL    HW119796   0.284   0.301   7.768 -0.5590  0.7101 -2.4762
 2720SOL    HW219797   0.413   0.371   7.723 -0.6875  3.9735 -1.0778
 2721SOL     OW19798   0.023   4.162  10.156  0.2212 -0.1163  0.4105
 2721SOL    HW119799   0.080   4.237  10.136  0.3647 -0.4225 -0.3353
 2721SOL    HW219800   0.090   4.094  10.155  0.4650  0.1267 -0.0004
 2722SOL     OW19801   3.998   0.718   7.786  0.3693 -0.0727  0.5792
 2722SOL    HW119802   4.056   0.684   7.854 -0.2294 -3.2018 -0.4341
 2722SOL    HW219803   3.915   0.730   7.831  0.9866  1.0524  1.3935
 2723SOL     OW19804   2.268   2.750   3.262 -0.3598  0.0560 -0.4247
 2723SOL    HW119805   2.339   2.813   3.267 -0.9160  0.7635 -1.4156
 2723SOL    HW219806   2.297   2.707   3.181 -0.3040 -0.3871 -0.1695
 2724SOL     OW19807   2.132   1.772   8.259 -0.9413  0.5883  0.2307
 2724SOL    HW119808   2.074   1.699   8.241 -0.2424  0.0128  0.3165
 2724SOL    HW219809   2.123   1.804   8.349  0.1093  1.6871 -0.0513
 2725SOL     OW19810   4.238   3.637  10.876 -0.3417  0.7722  0.3076
 2725SOL    HW119811   4.207   3.600  10.793  1.4035  0.1196 -0.0396
 2725SOL    HW219812   4.333   3.638  10.865 -0.4660  3.3591 -0.5967
 2726SOL     OW19813   3.063   2.521   5.768  0.5715 -0.1925 -0.3400
 2726SOL    HW119814   3.089   2.434   5.796 -1.5011 -0.6015  0.3568
 2726SOL    HW219815   3.143   2.567   5.794  0.0023 -0.6290  2.1640
 2727SOL     OW19816   3.988   4.518   2.585  0.3003  0.1780  0.1714
 2727SOL    HW119817   3.945   4.474   2.658  1.2233 -0.8785  0.0731
 2727SOL    HW219818   4.013   4.448   2.524  1.0086  0.5350  0.0566
 2728SOL     OW19819   0.683   0.606   3.618 -0.6591  0.2422  0.7076
 2728SOL    HW119820   0.756   0.547   3.598  0.3912  1.8744 -0.2997
 2728SOL    HW219821   0.626   0.530   3.635  0.6060 -0.7030  0.7330
 2729SOL     OW19822   2.219   1.878   2.586 -0.1693  0.0304 -0.2642
 2729SOL    HW119823   2.189   1.913   2.669  0.4326 -0.5699  0.2015
 2729SOL    HW219824   2.230   1.953   2.527 -2.5132 -0.2346 -1.0575
 2730SOL     OW19825   2.417   1.059   4.801  0.2651 -0.0799 -0.6465
 2730SOL    HW119826   2.393   1.000   4.872  1.2234 -0.9665 -1.0380
 2730SOL    HW219827   2.488   1.004   4.768 -0.6269 -0.2368 -2.2897
 2731SOL     OW19828   2.101   0.387   6.913 -0.0565 -0.0007 -0.3296
 2731SOL    HW119829   2.146   0.454   6.862  0.7210 -0.8090 -0.7060
 2731SOL    HW219830   2.056   0.447   6.973 -1.2055 -0.3585 -0.8342
 2732SOL     OW19831   1.551   3.898   5.221 -0.0518 -0.1089  0.1054
 2732SOL    HW119832   1.633   3.873   5.178 -0.6566  0.3570 -1.2892
 2732SOL    HW219833   1.532   3.805   5.233  2.1467 -0.3288  1.8893
 2733SOL     OW19834   3.818   0.979   3.866  0.1021  0.0547 -0.3567
 2733SOL    HW119835   3.868   1.025   3.933 -2.1272  2.0616 -0.0979
 2733SOL    HW219836   3.888   0.925   3.829  0.7227  1.6548 -1.5060
 2734SOL     OW19837   0.095   0.797   7.045 -0.5468 -0.4710 -0.2003
 2734SOL    HW119838   0.013   0.836   7.013  0.7457  1.3784 -1.2464
 2734SOL    HW219839   0.065   0.800   7.136  2.0628 -1.3933  0.6919
 2735SOL     OW19840   1.629   3.359   0.880  0.6218  0.3223  0.2270
 2735SOL    HW119841   1.672   3.277   0.858 -0.9784  0.1639 -2.2711
 2735SOL    HW219842   1.677   3.396   0.954 -0.2826 -0.7176  1.3388
 2736SOL     OW19843   0.961   0.091   3.455 -0.3507  0.3897 -0.4046
 2736SOL    HW119844   1.056   0.104   3.462 -0.3230  0.1648 -0.3625
 2736SOL    HW219845   0.927   0.157   3.514  1.2288  0.1028  0.8193
 2737SOL     OW19846   0.157   3.190   3.203  0.0093  0.5660 -0.1781
 2737SOL    HW119847   0.118   3.232   3.126  0.9071 -0.2867 -1.1058
 2737SOL    HW219848   0.118   3.103   3.195 -1.4995  1.1681  0.6731
 2738SOL     OW19849   4.603   1.083   8.383 -0.1969 -0.0336 -1.0013
 2738SOL    HW119850   4.605   1.097   8.478 -1.2122 -0.2342 -0.9488
 2738SOL    HW219851   4.693   1.102   8.355 -0.8186 -0.1140 -3.0306
 2739SOL     OW19852   4.562   0.457   1.785 -0.6533 -0.3133 -0.2321
 2739SOL    HW119853   4.506   0.529   1.813  0.1388  0.4730 -0.6688
 2739SOL    HW219854   4.587   0.483   1.696 -2.7289 -1.5326 -1.1722
 2740SOL     OW19855   4.214   4.566   2.812  0.6260 -0.5883 -0.0202
 2740SOL    HW119856   4.269   4.603   2.743  0.4954 -0.8290 -0.2508
 2740SOL    HW219857   4.265   4.605   2.884  1.6133 -2.3508  0.2633
 2741SOL     OW19858   4.352   4.014   2.266  0.0931  0.1845 -0.2850
 2741SOL    HW119859   4.446   4.019   2.283  0.2992  0.5445 -1.4918
 2741SOL    HW219860   4.345   4.093   2.212  1.2644 -0.4739 -1.4237
 2742SOL     OW19861   4.397   1.972   0.795 -0.1962  0.0508 -0.0393
 2742SOL    HW119862   4.476   1.922   0.818 -1.0114 -0.6043  1.3389
 2742SOL    HW219863   4.343   1.905   0.753  2.7434 -2.3207 -0.0086
 2743SOL     OW19864   1.530   2.463   5.790 -0.2501 -0.0660 -0.1017
 2743SOL    HW119865   1.568   2.534   5.739  0.0801  0.4112  0.8138
 2743SOL    HW219866   1.462   2.425   5.733  0.4920  0.8747 -1.5860
 2744SOL     OW19867   4.639   3.543   4.838  0.3857  0.2375 -0.6426
 2744SOL    HW119868   4.544   3.529   4.833  0.4348  0.0794 -1.1862
 2744SOL    HW219869   4.646   3.601   4.914  0.3493  1.5653 -1.6385
 2745SOL     OW19870   1.961   0.245  14.645  0.2405 -0.2261 -0.3430
 2745SOL    HW119871   2.053   0.230  14.669 -0.1546 -1.8752  0.1228
 2745SOL    HW219872   1.978   0.214  14.556  0.0038  1.4417 -0.9689
 2746SOL     OW19873   2.513   0.815   3.229 -0.4292 -0.5627  0.3384
 2746SOL    HW119874   2.573   0.879   3.189  1.3468 -1.0813  2.1871
 2746SOL    HW219875   2.434   0.859   3.197 -0.2785  0.0214  0.7676
 2747SOL     OW19876   1.034   1.566  16.753 -0.1199  0.8130 -0.3249
 2747SOL    HW119877   1.078   1.571  16.838 -0.1983 -2.2922 -0.1099
 2747SOL    HW219878   1.064   1.652  16.722 -2.1323  1.9627  0.8821
 2748SOL     OW19879   4.412   2.433   3.077  0.4471  0.0142  0.1028
 2748SOL    HW119880   4.369   2.389   3.151  0.0340  1.0717  0.4976
 2748SOL    HW219881   4.422   2.521   3.113 -1.2578  1.2377 -2.4158
 2749SOL     OW19882   4.524   1.124   4.931  0.0252 -0.5140  0.4919
 2749SOL    HW119883   4.586   1.100   4.861 -0.1545  1.8733 -0.4849
 2749SOL    HW219884   4.445   1.117   4.877  0.3305  0.9219 -0.1215
 2750SOL     OW19885   1.120   1.080   7.014  0.3078  0.2447  0.0144
 2750SOL    HW119886   1.174   1.003   6.997 -1.4155 -0.0886 -3.9184
 2750SOL    HW219887   1.062   1.075   6.938 -1.6408  1.7103  1.3836
 2751SOL     OW19888   3.673   2.515   8.466 -0.2281  0.0575  0.0650
 2751SOL    HW119889   3.730   2.520   8.389  0.9965 -0.0591  0.9707
 2751SOL    HW219890   3.662   2.608   8.486 -0.2705  0.4119 -1.5916
 2752SOL     OW19891   1.143   4.430   3.925 -0.7489 -0.7356 -0.0054
 2752SOL    HW119892   1.116   4.493   3.857  0.7341 -0.1083  0.0014
 2752SOL    HW219893   1.097   4.475   3.995 -0.0637  0.7142 -0.4961
 2753SOL     OW19894   1.777   3.221  16.128  0.0948 -0.1425 -0.0351
 2753SOL    HW119895   1.857   3.184  16.091 -0.4092  0.6574 -1.9145
 2753SOL    HW219896   1.812   3.297  16.176  0.0027 -0.1933  0.1145
 2754SOL     OW19897   0.357   3.273   9.974 -0.5816 -0.0473 -0.8826
 2754SOL    HW119898   0.309   3.238  10.049  1.1715 -0.4484  0.0587
 2754SOL    HW219899   0.352   3.367   9.992  1.6134 -0.3016  1.0760
 2755SOL     OW19900   3.396   2.033   9.177 -0.0305  0.4064 -0.2075
 2755SOL    HW119901   3.410   2.118   9.135 -1.0010  0.8062  0.2695
 2755SOL    HW219902   3.359   2.051   9.264 -0.1580 -1.3037  0.0990
 2756SOL     OW19903   4.384   3.554   2.433  0.0340 -0.1765 -0.6871
 2756SOL    HW119904   4.336   3.486   2.480  0.6313  1.0145  1.6783
 2756SOL    HW219905   4.453   3.516   2.380 -1.0417 -0.4549 -1.8829
 2757SOL     OW19906   1.095   0.149   4.359 -0.1656 -0.1570  0.1857
 2757SOL    HW119907   1.065   0.212   4.425  0.8560  1.1476 -0.5867
 2757SOL    HW219908   1.184   0.183   4.366  0.1831 -0.8604 -0.8596
 2758SOL     OW19909   2.759   1.187  14.384  0.8298 -0.2015 -0.0298
 2758SOL    HW119910   2.754   1.282  14.380 -0.4805 -0.2121  1.9322
 2758SOL    HW219911   2.850   1.193  14.412  0.3706  1.7151  1.0241
 2759SOL     OW19912   2.698   0.267   4.348  0.0806 -0.1792 -0.0212
 2759SOL    HW119913   2.681   0.339   4.288 -0.4289  0.3622  0.7665
 2759SOL    HW219914   2.691   0.309   4.434 -0.2809  1.2868 -0.7635
 2760SOL     OW19915   1.491   0.398   5.459 -0.3133  0.1633  0.1854
 2760SOL    HW119916   1.503   0.378   5.366  0.4206  2.3923 -0.1944
 2760SOL    HW219917   1.574   0.369   5.495 -0.3422 -0.8459 -0.5720
 2761SOL     OW19918   0.765   2.254   7.012 -0.3716 -0.7094  0.0734
 2761SOL    HW119919   0.687   2.305   7.034 -0.6586 -0.9039 -0.4907
 2761SOL    HW219920   0.819   2.280   7.087 -0.9491  1.5910 -0.3147
 2762SOL     OW19921   4.035   4.098   4.408 -0.3484 -0.1806  0.2938
 2762SOL    HW119922   4.044   4.093   4.503  2.3780  0.2075  0.0464
 2762SOL    HW219923   3.941   4.083   4.411 -0.5503  1.0376  0.1935
 2763SOL     OW19924   4.174   4.093   9.631 -0.5278  0.3591  0.5272
 2763SOL    HW119925   4.137   4.154   9.567 -0.9429 -0.5150 -0.0657
 2763SOL    HW219926   4.095   4.073   9.681 -0.3019 -0.6416  0.4942
 2764SOL     OW19927   2.092   0.161   4.954 -0.2535  0.1240 -0.1258
 2764SOL    HW119928   2.046   0.185   5.034 -1.0654 -1.5942 -0.0781
 2764SOL    HW219929   2.174   0.143   5.000 -0.7808  1.1477  1.2112
 2765SOL     OW19930   2.282   1.582   0.181  0.7467  0.0067 -0.0380
 2765SOL    HW119931   2.247   1.647   0.242 -2.0154  0.4922 -2.0805
 2765SOL    HW219932   2.297   1.509   0.241 -1.5101 -2.9005 -2.9200
 2766SOL     OW19933   1.676   3.646   5.606  0.4717  0.2515 -0.0349
 2766SOL    HW119934   1.603   3.592   5.573  0.7360  0.0481 -0.2891
 2766SOL    HW219935   1.747   3.629   5.544  0.9535 -0.1006  0.6108
 2767SOL     OW19936   2.641   3.281   6.204 -0.3322 -0.5362 -0.0143
 2767SOL    HW119937   2.680   3.250   6.286  1.3093 -0.7328 -0.8807
 2767SOL    HW219938   2.680   3.368   6.199  1.0122 -1.1837 -0.7558
 2768SOL     OW19939   0.952   0.743  11.022  0.3154  0.4694 -0.0744
 2768SOL    HW119940   0.916   0.829  10.999  0.1074  0.6701  1.0164
 2768SOL    HW219941   0.891   0.719  11.092 -0.9404  2.4952 -0.4958
 2769SOL     OW19942   0.335   4.182  10.336  0.5748 -0.2860  0.0605
 2769SOL    HW119943   0.338   4.277  10.326 -1.9146  0.0779  2.8732
 2769SOL    HW219944   0.429   4.165  10.333  0.9040  1.2533  1.6916
 2770SOL     OW19945   0.868   4.315   6.451 -0.3437 -0.0406 -0.0495
 2770SOL    HW119946   0.943   4.363   6.487  0.2108 -0.5873 -0.4804
 2770SOL    HW219947   0.910   4.247   6.398 -1.7137  1.2710 -2.8335
 2771SOL     OW19948   3.364   0.786  13.751 -0.2499 -0.2963  0.0157
 2771SOL    HW119949   3.322   0.707  13.784 -0.7918 -0.7601 -1.7974
 2771SOL    HW219950   3.337   0.791  13.659 -2.4840 -0.3133  0.6738
 2772SOL     OW19951   1.616   2.832  16.031 -0.1943  0.1726 -0.2103
 2772SOL    HW119952   1.580   2.812  15.945 -2.6025  1.0795  0.5824
 2772SOL    HW219953   1.704   2.856  16.005  0.2212 -1.0295  0.0773
 2773SOL     OW19954   3.090   0.318   7.829  0.3484 -0.5035  0.4911
 2773SOL    HW119955   3.113   0.317   7.736  2.7285 -1.7895  1.0887
 2773SOL    HW219956   3.122   0.231   7.855 -0.9034 -0.3352  2.5980
 2774SOL     OW19957   4.303   1.373   2.004 -0.4196 -0.7372  0.4804
 2774SOL    HW119958   4.251   1.447   1.972  1.9746  1.7509  2.3001
 2774SOL    HW219959   4.331   1.393   2.093  2.7915  1.4392 -1.0133
 2775SOL     OW19960   2.664   3.961   8.737  0.0033 -0.2554 -0.2451
 2775SOL    HW119961   2.696   4.049   8.758 -0.6022 -0.2531  0.6779
 2775SOL    HW219962   2.723   3.908   8.791  0.1112  0.6528  0.5265
 2776SOL     OW19963   4.343   0.035  14.162 -0.1858  0.4049  0.3292
 2776SOL    HW119964   4.327   0.128  14.147 -0.8893  0.0955 -0.8630
 2776SOL    HW219965   4.332   0.001  14.073  1.5914 -0.4092  0.4344
 2777SOL     OW19966   0.451   3.039   0.098 -0.3632 -0.0366  0.2488
 2777SOL    HW119967   0.433   3.128   0.128 -0.7112 -0.1631  0.4094
 2777SOL    HW219968   0.530   3.055   0.045 -1.0454  0.3971 -0.6427
 2778SOL     OW19969   4.370   4.607   1.290 -0.0660 -0.0077  0.2027
 2778SOL    HW119970   4.381   4.515   1.313  1.1764  0.3998  1.2937
 2778SOL    HW219971   4.382   4.600   1.195  0.6596  0.2974  0.2699
 2779SOL     OW19972   2.002   0.776   7.144 -0.1852  0.4917 -1.0462
 2779SOL    HW119973   1.980   0.866   7.119 -1.4715  0.1887 -0.9982
 2779SOL    HW219974   2.007   0.792   7.239 -0.9170 -0.6890 -0.8020
 2780SOL     OW19975   0.080   0.034   1.479 -0.1888 -0.2129 -0.1141
 2780SOL    HW119976   0.005   4.716   1.486 -0.1467 -0.3421 -0.8196
 2780SOL    HW219977   0.155   4.718   1.498 -0.2912  0.5941  2.7591
 2781SOL     OW19978   1.727   4.431   6.696 -0.4300  0.2517 -0.0727
 2781SOL    HW119979   1.750   4.504   6.754 -1.5757 -0.9658  1.9078
 2781SOL    HW219980   1.759   4.364   6.757  1.8041  0.7865 -0.6315
 2782SOL     OW19981   0.565   2.296  14.129 -0.1456 -0.1631 -0.2577
 2782SOL    HW119982   0.616   2.284  14.209  0.0860  0.9073 -0.2570
 2782SOL    HW219983   0.621   2.246  14.069  1.1382  1.7681 -0.6364
 2783SOL     OW19984   1.522   3.154   6.105 -0.3897 -0.3869  0.0846
 2783SOL    HW119985   1.483   3.067   6.113 -0.7486 -0.2577 -0.2730
 2783SOL    HW219986   1.607   3.143   6.063  0.2262  0.9992  0.9679
 2784SOL     OW19987   0.849   1.660   2.024 -0.2715 -0.5927  0.5601
 2784SOL    HW119988   0.928   1.617   1.992  0.2241 -0.4257  1.5540
 2784SOL    HW219989   0.877   1.690   2.111  0.5725  3.1683 -1.0159
 2785SOL     OW19990   3.867   4.528   7.691 -0.3848  0.1658 -0.1800
 2785SOL    HW119991   3.881   4.590   7.763 -1.0899  0.8030 -0.5961
 2785SOL    HW219992   3.800   4.566   7.634 -0.4471  0.7381  0.2666
 2786SOL     OW19993   1.972   0.470   7.136  0.1702 -0.4294 -0.0587
 2786SOL    HW119994   1.983   0.556   7.177  1.9920 -1.1818  1.0314
 2786SOL    HW219995   1.907   0.504   7.075  2.2279  0.3775 -1.7870
 2787SOL     OW19996   4.264   1.842   3.267 -0.2152  0.5527 -0.0597
 2787SOL    HW119997   4.345   1.791   3.272 -1.2830 -1.2164 -1.1674
 2787SOL    HW219998   4.245   1.826   3.175 -0.0927  2.0666 -0.3551
 2788SOL     OW19999   1.464   0.110   4.508 -0.5271  0.2891 -0.0212
 2788SOL    HW120000   1.433   0.173   4.443  1.1503  1.6819  0.5406
 2788SOL    HW220001   1.405   0.035   4.497 -1.2132  1.0792 -1.6299
 2789SOL     OW20002   2.084   2.503   4.030 -0.0302  0.4857  0.0291
 2789SOL    HW120003   2.071   2.583   3.978 -1.1600  1.3947  1.6918
 2789SOL    HW220004   2.013   2.498   4.095 -0.0400  2.5028  0.1703
 2790SOL     OW20005   0.313   2.572  14.993 -0.0056 -0.8941  0.2163
 2790SOL    HW120006   0.290   2.545  14.905 -1.7430 -1.1091  0.7473
 2790SOL    HW220007   0.363   2.498  15.027 -3.4245 -3.0539  0.5490
 2791SOL     OW20008   2.809   0.720  10.970  0.2860  0.1551  0.4907
 2791SOL    HW120009   2.781   0.785  10.905  1.7923 -0.9693 -1.3098
 2791SOL    HW220010   2.785   0.747  11.058 -2.2770  0.7129 -0.3901
 2792SOL     OW20011   2.871   3.261   2.505 -1.3024 -0.1819 -0.0963
 2792SOL    HW120012   2.935   3.286   2.571 -1.5720  1.1638 -0.3421
 2792SOL    HW220013   2.875   3.166   2.511 -0.7195 -0.1331  0.1981
 2793SOL     OW20014   4.609   2.777   1.765 -0.0037  0.1367  0.0869
 2793SOL    HW120015   4.549   2.808   1.697 -0.7075 -0.5234  0.3974
 2793SOL    HW220016   4.606   2.850   1.827 -1.8188  1.1049 -1.1103
 2794SOL     OW20017   2.575   4.663  15.601  0.0405  0.1424  0.2239
 2794SOL    HW120018   2.628   0.001  15.591 -1.8855  1.6854  2.1086
 2794SOL    HW220019   2.564   4.652  15.695  0.8912  0.4136  0.3481
 2795SOL     OW20020   0.920   3.748  16.470  0.1025  0.0171 -0.6930
 2795SOL    HW120021   0.897   3.674  16.527  0.4932  0.6980  0.3349
 2795SOL    HW220022   0.872   3.815  16.517 -0.7165 -1.6322  0.8207
 2796SOL     OW20023   4.088   3.832   5.991 -0.4136 -0.1479 -0.6336
 2796SOL    HW120024   4.105   3.889   6.066  1.3571  0.0651 -1.1871
 2796SOL    HW220025   3.994   3.822   5.983 -0.4014 -0.8670  0.1806
 2797SOL     OW20026   3.218   4.249   6.694  0.2613 -0.3642  0.5400
 2797SOL    HW120027   3.199   4.322   6.635  1.4447 -0.5137 -0.0217
 2797SOL    HW220028   3.255   4.288   6.772  2.3570 -2.4138  0.5732
 2798SOL     OW20029   4.414   0.391   2.902 -0.5427 -0.4272 -0.1098
 2798SOL    HW120030   4.443   0.461   2.844 -1.8062  1.5149  1.5422
 2798SOL    HW220031   4.439   0.425   2.988 -2.5828  1.6682 -0.3185
 2799SOL     OW20032   1.469   4.302   9.309  0.3112 -0.5659 -0.4991
 2799SOL    HW120033   1.466   4.238   9.381  0.5036 -0.6925 -0.6036
 2799SOL    HW220034   1.410   4.365   9.350  0.3736 -0.8937  0.0923
 2800SOL     OW20035   0.377   1.322   4.835 -0.1189  0.3834 -0.2418
 2800SOL    HW120036   0.295   1.343   4.882  0.0115  1.6458 -0.5774
 2800SOL    HW220037   0.399   1.231   4.852 -0.4995  0.7293  2.1179
 2801SOL     OW20038   0.189   1.624   5.472  0.1218  0.0803  0.4805
 2801SOL    HW120039   0.115   1.653   5.419  0.0655 -0.9328 -0.0011
 2801SOL    HW220040   0.139   1.572   5.536 -0.6543  1.6460  1.1496
 2802SOL     OW20041   2.517   4.277   5.917 -0.0122  0.2808  0.0965
 2802SOL    HW120042   2.573   4.269   5.840 -0.3664 -0.9456 -0.0297
 2802SOL    HW220043   2.581   4.309   5.982 -1.3627  1.5749  0.7805
 2803SOL     OW20044   2.782   4.195  12.918 -1.0280  0.1660 -0.5920
 2803SOL    HW120045   2.727   4.134  12.968 -2.2072  1.9508  0.2893
 2803SOL    HW220046   2.836   4.132  12.871 -1.6286 -1.1766  0.5321
 2804SOL     OW20047   2.766   1.119   7.402  0.0205  0.1001  0.4061
 2804SOL    HW120048   2.790   1.189   7.463 -1.6656  0.4263  0.6968
 2804SOL    HW220049   2.851   1.115   7.357 -1.0909  0.0542 -1.7130
 2805SOL     OW20050   0.762   1.776   7.494  0.3509  0.0324 -0.5115
 2805SOL    HW120051   0.732   1.813   7.411  0.8420  1.7778  0.0874
 2805SOL    HW220052   0.851   1.755   7.465  1.3732  1.6710  1.3999
 2806SOL     OW20053   4.544   1.821  11.255 -0.6633 -0.4815 -0.8293
 2806SOL    HW120054   4.555   1.888  11.323 -2.4090  0.1495 -1.1566
 2806SOL    HW220055   4.457   1.787  11.277  0.4587 -0.5068  3.4498
 2807SOL     OW20056   2.995   1.798   4.418 -0.0929 -0.0378 -0.1073
 2807SOL    HW120057   2.922   1.740   4.395 -0.6406 -0.0199  1.6149
 2807SOL    HW220058   2.956   1.839   4.495  2.0849  3.0856 -0.6506
 2808SOL     OW20059   2.075   2.552   4.716  0.3679  0.7868 -0.0858
 2808SOL    HW120060   2.055   2.646   4.711 -0.0729  0.6127 -1.3427
 2808SOL    HW220061   1.993   2.515   4.746  1.0378 -0.6634 -0.0659
 2809SOL     OW20062   3.844   3.462   3.271 -0.1121 -0.0871  0.5625
 2809SOL    HW120063   3.755   3.455   3.238 -0.2891  2.8787  0.4836
 2809SOL    HW220064   3.842   3.397   3.342  0.5410  1.5954  2.1070
 2810SOL     OW20065   2.853   3.365   5.732  0.0262 -0.7454 -0.3006
 2810SOL    HW120066   2.854   3.294   5.795 -0.2188 -1.2975 -0.9200
 2810SOL    HW220067   2.853   3.312   5.652 -0.8207  0.6894 -1.2561
 2811SOL     OW20068   1.315   0.053  15.784 -0.2958  0.5043  0.0037
 2811SOL    HW120069   1.383   0.049  15.851  1.9038  1.4772 -2.1642
 2811SOL    HW220070   1.333   4.724  15.721  0.7516  1.7655 -1.1002
 2812SOL     OW20071   1.323   1.096  13.538 -0.7226  0.4424  0.4630
 2812SOL    HW120072   1.352   1.023  13.593  1.2177 -0.3307 -1.5952
 2812SOL    HW220073   1.322   1.154  13.615  0.3122 -0.7030  1.3322
 2813SOL     OW20074   4.076   2.500   6.336  0.1510  0.1792  0.4324
 2813SOL    HW120075   4.065   2.442   6.260 -1.0506 -0.0450  0.7756
 2813SOL    HW220076   4.121   2.444   6.398 -0.8227 -0.2596  0.7420
 2814SOL     OW20077   0.877   1.786   7.900  0.0882  0.2072  0.2312
 2814SOL    HW120078   0.847   1.734   7.975  2.1848 -0.3474  0.6734
 2814SOL    HW220079   0.900   1.868   7.945 -0.8462  2.2690 -3.0604
 2815SOL     OW20080   0.454   0.675   5.343  0.3421  0.0952 -0.1938
 2815SOL    HW120081   0.511   0.717   5.278  0.7672  0.3679  0.3617
 2815SOL    HW220082   0.369   0.669   5.299  0.9072 -0.0248 -1.2791
 2816SOL     OW20083   0.730   0.876   9.297 -0.1724 -0.9424  0.0569
 2816SOL    HW120084   0.802   0.923   9.255 -0.8099 -0.9316 -1.0441
 2816SOL    HW220085   0.685   0.848   9.217 -0.8639 -0.2965  0.2116
 2817SOL     OW20086   2.797   4.274   6.870 -0.2178  0.1666  0.5702
 2817SOL    HW120087   2.838   4.188   6.879 -2.0590 -0.6199  1.2605
 2817SOL    HW220088   2.721   4.254   6.924 -0.4379  2.9812  1.3237
 2818SOL     OW20089   2.476   1.938   9.711  0.3316  0.6089 -0.1717
 2818SOL    HW120090   2.463   1.937   9.806 -1.4721 -0.4081 -0.4350
 2818SOL    HW220091   2.506   1.848   9.701  1.8411  1.2870 -1.6870
 2819SOL     OW20092   2.556   0.194   5.938 -0.3513 -0.4517  0.6200
 2819SOL    HW120093   2.540   0.255   6.009 -0.2256  2.4357 -1.8175
 2819SOL    HW220094   2.615   0.127   5.974  1.3515  0.0339 -1.2339
 2820SOL     OW20095   2.824   0.868   4.501 -0.0971  0.4831  0.2619
 2820SOL    HW120096   2.749   0.821   4.464 -0.5261  0.5068  1.1000
 2820SOL    HW220097   2.830   0.922   4.422  0.0760  1.2527  0.8012
 2821SOL     OW20098   2.562   4.597  15.880  0.2176  0.3312 -0.3415
 2821SOL    HW120099   2.535   4.651  15.954 -2.4447  0.7643 -1.6248
 2821SOL    HW220100   2.630   4.552  15.931 -0.1131  0.0270 -0.1669
 2822SOL     OW20101   1.102   3.780   4.655  0.3669 -0.4943 -0.3924
 2822SOL    HW120102   1.189   3.804   4.685  1.0272 -4.1792  0.5807
 2822SOL    HW220103   1.103   3.686   4.675  0.3585 -0.5741 -0.7671
 2823SOL     OW20104   4.200   4.290   2.932  0.1662  0.6650 -0.8519
 2823SOL    HW120105   4.290   4.306   2.961 -0.1310 -0.4775  0.7061
 2823SOL    HW220106   4.193   4.378   2.893 -0.5687  1.7920  1.8087
 2824SOL     OW20107   1.978   2.779  13.927 -0.4547 -0.3306  0.6316
 2824SOL    HW120108   2.061   2.768  13.880 -0.7918  0.9372 -0.2562
 2824SOL    HW220109   1.945   2.865  13.902  0.9678  0.4070  1.2630
 2825SOL     OW20110   1.567   2.027   7.605  0.3175  0.4068 -0.0109
 2825SOL    HW120111   1.612   2.070   7.533  4.2272  0.2046  2.2840
 2825SOL    HW220112   1.621   1.947   7.608 -0.9766 -0.3786  2.2587
 2826SOL     OW20113   2.665   3.920   3.530 -0.0974 -0.2714 -0.0463
 2826SOL    HW120114   2.696   3.960   3.449  1.1075 -1.5456 -0.2117
 2826SOL    HW220115   2.601   3.988   3.550 -1.3748 -2.1417  2.2036
 2827SOL     OW20116   4.495   4.604  11.775 -0.2095  0.4751 -0.3843
 2827SOL    HW120117   4.562   4.668  11.750  0.0997 -0.5278 -2.1493
 2827SOL    HW220118   4.416   4.652  11.753  0.9469  0.8103 -3.8350
 2828SOL     OW20119   0.188   1.834   0.849  0.3021  0.0125  0.2553
 2828SOL    HW120120   0.223   1.745   0.844 -1.4172 -0.8143  2.6884
 2828SOL    HW220121   0.097   1.802   0.857  0.3317 -0.3790 -1.0976
 2829SOL     OW20122   1.340   3.175   0.289  0.3693  0.8505  1.1259
 2829SOL    HW120123   1.361   3.132   0.207 -1.7417  1.3843  0.3090
 2829SOL    HW220124   1.370   3.106   0.348 -0.3506 -1.2932 -1.0514
 2830SOL     OW20125   1.491   0.590   0.499  0.0191  0.7552 -0.2759
 2830SOL    HW120126   1.580   0.557   0.486 -0.5459 -1.3329  1.1601
 2830SOL    HW220127   1.502   0.645   0.577  0.8022 -2.3235  1.8008
 2831SOL     OW20128   3.464   1.984   3.603  0.9068  0.1436 -0.2976
 2831SOL    HW120129   3.535   1.987   3.539 -0.2702 -0.3142 -1.6045
 2831SOL    HW220130   3.508   1.998   3.687  0.5364 -0.1073 -0.0609
 2832SOL     OW20131   1.791   1.464   2.081  0.0752 -0.7100  0.0008
 2832SOL    HW120132   1.779   1.376   2.045  0.2565 -0.7034 -0.0795
 2832SOL    HW220133   1.721   1.475   2.145  1.4817  0.4265  1.3681
 2833SOL     OW20134   1.065   0.021   2.746 -0.7451  0.0745 -0.1548
 2833SOL    HW120135   1.110   4.707   2.810  0.3916  2.6413  1.2383
 2833SOL    HW220136   1.057   0.104   2.793  2.7340  0.3646 -0.0969
 2834SOL     OW20137   2.715   2.227   7.168  0.1770 -0.5146 -0.1655
 2834SOL    HW120138   2.640   2.253   7.114  2.0249 -0.9981 -3.0096
 2834SOL    HW220139   2.770   2.305   7.156  0.0134 -0.2024  1.1626
 2835SOL     OW20140   1.522   3.819  16.721  0.6302 -0.0382 -0.4170
 2835SOL    HW120141   1.584   3.796  16.652 -0.2108 -1.0943 -0.8259
 2835SOL    HW220142   1.452   3.754  16.712  0.8682 -0.5039  1.1282
 2836SOL     OW20143   4.038   3.691  11.612 -0.3850  0.3678 -0.0376
 2836SOL    HW120144   3.944   3.707  11.608 -0.3859  0.3628 -0.0353
 2836SOL    HW220145   4.039   3.725  11.701  3.8517 -1.8927  0.7834
 2837SOL     OW20146   2.389   1.982   5.132  0.0751 -0.2690  0.5796
 2837SOL    HW120147   2.465   2.041   5.129  0.4783 -0.7988  0.4378
 2837SOL    HW220148   2.421   1.932   5.057  2.4517  1.3933  0.4863
 2838SOL     OW20149   2.104   3.327  16.417  0.3432  0.1937 -0.3693
 2838SOL    HW120150   2.063   3.364  16.495  0.7859  0.6892 -0.3697
 2838SOL    HW220151   2.036   3.324  16.350  0.6296 -3.4255 -0.4789
 2839SOL     OW20152   1.302   4.218   6.517  0.2638 -0.0221 -0.3237
 2839SOL    HW120153   1.361   4.274   6.568  0.6167 -0.6220 -0.0779
 2839SOL    HW220154   1.304   4.269   6.436  0.8272 -0.0985 -0.3565
 2840SOL     OW20155   0.993   1.568   2.434 -0.1405  0.1103 -0.4914
 2840SOL    HW120156   0.903   1.535   2.432  0.1840 -1.0552  4.0151
 2840SOL    HW220157   1.045   1.488   2.425 -0.4264 -0.2492  1.1851
 2841SOL     OW20158   3.976   1.787   8.376 -0.0680 -0.5420 -0.2765
 2841SOL    HW120159   4.037   1.860   8.369 -0.3082 -0.4661 -1.7084
 2841SOL    HW220160   4.040   1.730   8.418 -0.3802 -0.1010  0.7863
 2842SOL     OW20161   0.309   2.535  12.545  0.5071 -0.3812 -0.2265
 2842SOL    HW120162   0.239   2.475  12.521 -1.7320  1.4195  1.7628
 2842SOL    HW220163   0.273   2.618  12.513 -0.8927 -0.7135  0.4974
 2843SOL     OW20164   0.971   4.014   6.653 -0.1846 -0.0359 -0.9887
 2843SOL    HW120165   1.020   3.941   6.691 -1.3628 -0.0126  0.5939
 2843SOL    HW220166   0.981   4.081   6.721 -1.6771 -1.9645  1.1206
 2844SOL     OW20167   2.322   1.991   3.244  0.0660 -0.3011  0.3872
 2844SOL    HW120168   2.288   2.068   3.289  0.4589 -0.4112  0.8697
 2844SOL    HW220169   2.403   2.031   3.212 -0.4513 -0.8109 -1.5721
 2845SOL     OW20170   4.013   0.865   3.604 -0.1204  0.3102  0.2667
 2845SOL    HW120171   3.963   0.938   3.568  0.1652  0.3111 -0.1255
 2845SOL    HW220172   3.960   0.786   3.590 -0.9133  0.7549  0.7403
 2846SOL     OW20173   3.631   3.080  11.462  0.0469  0.7019 -0.1187
 2846SOL    HW120174   3.626   3.068  11.557 -1.5530 -0.5406 -0.3377
 2846SOL    HW220175   3.544   3.071  11.421  0.5276  3.6886 -1.7530
 2847SOL     OW20176   1.386   1.759   7.608  0.2843 -0.1852  0.0880
 2847SOL    HW120177   1.333   1.784   7.684  2.7998  0.8808  1.4797
 2847SOL    HW220178   1.419   1.675   7.638 -1.0118 -0.6912  0.1325
 2848SOL     OW20179   2.305   4.565   3.624 -0.0962  0.3637 -0.1305
 2848SOL    HW120180   2.325   4.657   3.637 -2.2514  0.7342  0.5027
 2848SOL    HW220181   2.212   4.547   3.611  0.1412  0.1271 -1.5257
 2849SOL     OW20182   1.433   2.091   1.632 -0.8462  0.3404  0.1734
 2849SOL    HW120183   1.519   2.090   1.675  0.0286 -2.5621 -1.5793
 2849SOL    HW220184   1.369   2.095   1.703  0.0700  0.8947  0.9709
 2850SOL     OW20185   2.471   1.647   4.174  0.3288  0.1117 -0.4347
 2850SOL    HW120186   2.473   1.621   4.082  0.5595  1.7597 -0.8963
 2850SOL    HW220187   2.534   1.719   4.178 -0.0728  0.2664  3.6470
 2851SOL     OW20188   3.914   2.935   2.189 -0.0225  0.3473 -0.2346
 2851SOL    HW120189   3.877   3.012   2.147 -1.8526 -0.9711 -1.0650
 2851SOL    HW220190   3.971   2.966   2.260 -1.0676  1.8548 -0.0726
 2852SOL     OW20191   0.189   1.097   5.610 -0.1751 -0.2856  0.1484
 2852SOL    HW120192   0.227   1.011   5.626  0.2014 -0.4063 -1.3537
 2852SOL    HW220193   0.101   1.080   5.578 -0.0988 -0.4760  0.0424
 2853SOL     OW20194   3.094   3.602   5.709  0.4179 -0.2833 -0.4814
 2853SOL    HW120195   3.127   3.642   5.628  0.9685  0.1615 -0.0349
 2853SOL    HW220196   3.022   3.551   5.672  0.2144 -0.1982 -0.1929
 2854SOL     OW20197   3.106   4.228   9.423  0.3298 -0.2150 -0.0086
 2854SOL    HW120198   3.156   4.180   9.489  0.2322 -0.5498 -0.1753
 2854SOL    HW220199   3.179   4.251   9.365  0.8391 -0.2329  0.6276
 2855SOL     OW20200   0.146   4.195  16.263  0.5373  0.1743 -0.6842
 2855SOL    HW120201   0.215   4.136  16.232  0.5837  0.2174 -0.6621
 2855SOL    HW220202   0.167   4.208  16.355 -2.2509 -3.0681  0.4008
 2856SOL     OW20203   3.191   0.346   4.965 -0.2039  0.1873 -0.3212
 2856SOL    HW120204   3.102   0.338   4.931  0.1923  0.9560 -1.5473
 2856SOL    HW220205   3.192   0.285   5.038 -1.3479 -0.2195 -0.6536
 2857SOL     OW20206   1.552   0.882   6.539  0.3290 -0.2518 -0.5442
 2857SOL    HW120207   1.551   0.786   6.545 -1.4129 -0.2431 -0.7321
 2857SOL    HW220208   1.461   0.905   6.520  0.3388  0.5152  0.3251
 2858SOL     OW20209   3.953   1.040   7.026  0.1265  0.5010  0.1080
 2858SOL    HW120210   4.033   0.995   7.000 -1.6221 -1.7735 -1.2830
 2858SOL    HW220211   3.885   0.973   7.034  1.2108 -0.3439  2.2452
 2859SOL     OW20212   1.536   3.179  13.012 -0.0547  0.1123  0.5750
 2859SOL    HW120213   1.474   3.115  12.979 -1.0865  1.1016  0.5817
 2859SOL    HW220214   1.611   3.120  13.019  0.3275  0.4417 -0.7365
 2860SOL     OW20215   2.690   2.723  14.182  0.1860  0.0713 -0.4323
 2860SOL    HW120216   2.759   2.788  14.191 -1.3306  1.8749 -1.8037
 2860SOL    HW220217   2.729   2.648  14.139  1.1938  0.6696 -0.5459
 2861SOL     OW20218   1.155   4.378  12.890  0.5928 -0.4561 -0.6327
 2861SOL    HW120219   1.128   4.366  12.981 -0.5867 -3.4151 -1.3709
 2861SOL    HW220220   1.162   4.473  12.896 -1.8454 -0.1933 -1.7731
 2862SOL     OW20221   1.959   3.758   7.559  0.1253 -0.0166 -0.3397
 2862SOL    HW120222   1.891   3.804   7.610  3.2226  0.1888  3.5525
 2862SOL    HW220223   1.940   3.665   7.564  1.0811 -0.3387 -2.9698
 2863SOL     OW20224   1.100   0.334  16.334 -0.4087 -0.0762  0.1592
 2863SOL    HW120225   1.067   0.392  16.404 -0.8802 -0.1440 -0.0057
 2863SOL    HW220226   1.091   0.401  16.266 -0.2127  1.7050  1.8613
 2864SOL     OW20227   3.229   4.415  12.314  0.2470  1.0756 -0.2789
 2864SOL    HW120228   3.170   4.345  12.343  1.1330  1.4766  2.4816
 2864SOL    HW220229   3.312   4.367  12.315 -0.8842 -0.8808  1.5854
 2865SOL     OW20230   4.044   1.147   6.783 -0.0176 -0.0373 -0.1160
 2865SOL    HW120231   4.104   1.073   6.791  2.3858  1.8754 -0.3855
 2865SOL    HW220232   4.014   1.152   6.873  2.6601 -1.4150  0.8601
 2866SOL     OW20233   1.782   2.054   3.182 -0.5494 -0.3753  0.2791
 2866SOL    HW120234   1.873   2.078   3.198 -1.0189  0.2278  2.1037
 2866SOL    HW220235   1.797   1.968   3.143 -0.3343 -0.4928  0.6259
 2867SOL     OW20236   3.709   0.446   7.109  0.4888 -0.3756  0.1239
 2867SOL    HW120237   3.669   0.532   7.098  3.2338  0.6376 -2.1762
 2867SOL    HW220238   3.678   0.430   7.198 -1.7950 -1.6648 -0.9247
 2868SOL     OW20239   4.393   3.610   7.176  0.2585  0.1995  0.0488
 2868SOL    HW120240   4.403   3.516   7.160 -0.4478  0.3134 -1.0928
 2868SOL    HW220241   4.309   3.604   7.221  0.3531  2.1226  0.4776
 2869SOL     OW20242   3.753   0.125   6.010 -0.2776 -0.3038  0.2237
 2869SOL    HW120243   3.789   0.101   6.095 -0.8068  1.7809  1.0374
 2869SOL    HW220244   3.721   0.213   6.031  2.7612  1.1063 -1.1060
 2870SOL     OW20245   2.106   1.368  16.911 -0.1892 -0.0496  1.1650
 2870SOL    HW120246   2.192   1.363  16.951 -0.0444 -1.1887  0.6979
 2870SOL    HW220247   2.115   1.447  16.857  0.5635  0.8389  2.5900
 2871SOL     OW20248   3.002   4.458   1.259  0.0192 -0.0589 -0.4552
 2871SOL    HW120249   3.075   4.397   1.246 -0.2727 -0.0751 -1.9242
 2871SOL    HW220250   3.002   4.486   1.168  1.0735 -2.3394 -1.1750
 2872SOL     OW20251   2.053   0.114   6.230  0.2432 -0.6668 -0.1088
 2872SOL    HW120252   2.083   0.024   6.246  0.0941 -0.2861  2.3898
 2872SOL    HW220253   2.010   0.128   6.315  1.7316 -0.5308  0.6210
 2873SOL     OW20254   3.702   1.214   6.063 -0.0846 -0.3090 -0.2318
 2873SOL    HW120255   3.643   1.287   6.081 -0.0849 -0.5462  0.7334
 2873SOL    HW220256   3.763   1.225   6.135 -1.7991  1.8241  0.8888
 2874SOL     OW20257   1.121   0.532   4.475 -0.0463 -0.2927 -0.0138
 2874SOL    HW120258   1.028   0.549   4.490  0.1373  0.7972 -0.1218
 2874SOL    HW220259   1.148   0.479   4.549 -0.0794 -1.4592 -0.8349
 2875SOL     OW20260   4.432   4.223  14.926  0.2954 -0.4526 -0.5050
 2875SOL    HW120261   4.462   4.313  14.920 -0.9780  0.0371  0.5501
 2875SOL    HW220262   4.444   4.187  14.837 -0.2344  0.0606 -0.7853
 2876SOL     OW20263   1.246   2.064   1.405 -0.1482 -0.0855 -0.1493
 2876SOL    HW120264   1.311   2.049   1.474  0.7705  2.0357 -0.5451
 2876SOL    HW220265   1.294   2.077   1.323  0.3953 -1.2999 -0.0160
 2877SOL     OW20266   1.115   3.056   6.037  0.2882 -0.0392 -0.0035
 2877SOL    HW120267   1.191   3.021   5.990  0.8462 -0.0250  0.9024
 2877SOL    HW220268   1.146   3.139   6.074  1.2282 -0.2822 -0.2449
 2878SOL     OW20269   0.211   3.849   7.626 -0.2599  0.2678  0.5402
 2878SOL    HW120270   0.296   3.805   7.640 -0.8541 -1.5444 -1.6014
 2878SOL    HW220271   0.173   3.837   7.713 -2.1674 -0.7767 -0.4493
 2879SOL     OW20272   4.687   1.741  10.156 -0.1189 -0.7625  0.3559
 2879SOL    HW120273   4.622   1.709  10.219 -0.3887  0.6407  0.7833
 2879SOL    HW220274   4.677   1.835  10.165  0.5810 -0.5571 -1.0711
 2880SOL     OW20275   0.435   2.431  10.931 -0.0887  0.1884  0.1906
 2880SOL    HW120276   0.508   2.451  10.872  0.0525  1.5298  0.8095
 2880SOL    HW220277   0.483   2.392  11.004 -0.4485 -2.3350 -0.9419
 2881SOL     OW20278   2.326   0.689   9.565  0.1633  0.0173  0.1142
 2881SOL    HW120279   2.294   0.691   9.475 -1.9981 -1.0297  0.8610
 2881SOL    HW220280   2.417   0.717   9.554  0.1344  0.6449  1.4806
 2882SOL     OW20281   3.899   3.814   2.909 -0.1949 -0.2779 -0.6011
 2882SOL    HW120282   3.967   3.882   2.912  0.6693 -1.1488 -0.5567
 2882SOL    HW220283   3.898   3.777   2.997 -1.8090  0.1122 -0.4591
 2883SOL     OW20284   4.014   3.498   9.045  0.0267  0.3654  0.1914
 2883SOL    HW120285   3.936   3.464   9.090  0.5837 -1.4355 -0.1906
 2883SOL    HW220286   4.050   3.567   9.101  1.6383 -0.0363 -0.3475
 2884SOL     OW20287   1.577   0.942   8.389 -0.0568 -0.1463  0.7012
 2884SOL    HW120288   1.558   0.853   8.361 -1.2422 -0.5400  2.7590
 2884SOL    HW220289   1.611   0.922   8.476  0.1661 -1.2106  0.3683
 2885SOL     OW20290   0.843   2.622   0.807 -0.2133  0.0483  0.0088
 2885SOL    HW120291   0.748   2.634   0.816 -0.5050 -2.2382  0.0835
 2885SOL    HW220292   0.868   2.714   0.813  2.3991 -0.6121 -0.5975
 2886SOL     OW20293   3.265   1.301   2.039  0.4284 -0.3092 -0.1451
 2886SOL    HW120294   3.266   1.266   2.128 -0.7648 -1.4823 -0.5984
 2886SOL    HW220295   3.315   1.237   1.988  0.9190  0.6385 -0.8590
 2887SOL     OW20296   1.764   2.685   7.038 -0.0353 -0.0160  0.4415
 2887SOL    HW120297   1.743   2.761   7.092 -0.8294  0.6421 -0.7656
 2887SOL    HW220298   1.726   2.710   6.953  0.3822 -2.0065 -0.3322
 2888SOL     OW20299   2.483   0.301   3.544 -0.2845  0.6749 -0.1719
 2888SOL    HW120300   2.515   0.390   3.554  1.2971 -0.0698  1.4644
 2888SOL    HW220301   2.490   0.257   3.629  0.9911  0.0765 -0.5793
 2889SOL     OW20302   3.358   3.852  13.949  0.0726 -0.6522 -0.2093
 2889SOL    HW120303   3.277   3.903  13.950 -0.8205 -2.0579 -0.7665
 2889SOL    HW220304   3.402   3.878  14.029  1.8266 -0.6820 -1.1741
 2890SOL     OW20305   4.041   0.587  12.915  0.7014 -0.1850  0.1653
 2890SOL    HW120306   4.086   0.503  12.924  1.5119  0.6086  3.3762
 2890SOL    HW220307   4.108   0.628  12.860 -0.8938 -1.4381 -2.6732
 2891SOL     OW20308   3.896   0.078   2.189  0.5190 -0.1768  0.3659
 2891SOL    HW120309   3.928   0.163   2.159  0.1885 -0.2268 -0.1302
 2891SOL    HW220310   3.862   0.101   2.276 -1.2300 -0.1068 -0.3228
 2892SOL     OW20311   4.453   3.368   4.309  0.5334  0.1843 -0.8054
 2892SOL    HW120312   4.503   3.372   4.391  0.2620 -1.8833 -0.5322
 2892SOL    HW220313   4.362   3.370   4.338  0.2128 -0.9407 -1.7514
 2893SOL     OW20314   0.351   3.944   6.287 -0.2580  0.3725 -0.6921
 2893SOL    HW120315   0.375   4.028   6.324  1.8579 -0.3238 -0.4826
 2893SOL    HW220316   0.392   3.890   6.354 -0.8842  1.7794  0.8106
 2894SOL     OW20317   1.024   4.614   8.402  0.1038 -0.1686 -0.0271
 2894SOL    HW120318   1.016   4.594   8.309 -1.1352  2.9428 -0.5820
 2894SOL    HW220319   1.117   4.590   8.412  0.5032  0.2610 -2.7309
 2895SOL     OW20320   0.061   0.562   8.436  0.1091 -0.1558  0.0192
 2895SOL    HW120321   0.076   0.586   8.344  0.2435 -1.4541 -0.2991
 2895SOL    HW220322   0.005   0.632   8.469 -1.7872 -0.4261 -2.5629
 2896SOL     OW20323   1.281   3.432   3.354 -0.3231 -0.0640 -0.4431
 2896SOL    HW120324   1.260   3.409   3.264  1.3691  1.0630 -1.1030
 2896SOL    HW220325   1.329   3.351   3.369  0.2152  0.0947 -1.3012
 2897SOL     OW20326   0.904   2.742  16.485  0.1358  0.0607  0.2914
 2897SOL    HW120327   0.871   2.816  16.536 -0.0860 -0.4112  0.8321
 2897SOL    HW220328   0.997   2.761  16.487 -0.4648  2.8036  1.6135
 2898SOL     OW20329   2.490   2.512   7.273  0.1740  0.0031 -0.3881
 2898SOL    HW120330   2.511   2.435   7.325  0.4394 -0.1689 -0.7500
 2898SOL    HW220331   2.490   2.476   7.185 -0.5333 -1.5440  0.2568
 2899SOL     OW20332   0.805   0.092   8.446  0.1858  0.2537  0.0571
 2899SOL    HW120333   0.864   0.026   8.412 -0.4335  0.8703 -2.1878
 2899SOL    HW220334   0.764   0.042   8.517 -2.2001 -0.7063 -2.0024
 2900SOL     OW20335   1.234   2.631  13.406  0.0408 -0.0201  0.1385
 2900SOL    HW120336   1.286   2.550  13.406 -0.1841 -0.1849 -2.4968
 2900SOL    HW220337   1.155   2.620  13.352  0.0452  0.7310 -0.0153
 2901SOL     OW20338   4.294   3.320   2.528 -0.3080 -0.0159 -0.0620
 2901SOL    HW120339   4.352   3.252   2.493  0.8813  0.2965  1.2932
 2901SOL    HW220340   4.333   3.319   2.616  0.8736  2.2121 -0.5763
 2902SOL     OW20341   2.770   2.278   3.454  0.2755  0.0964 -0.6184
 2902SOL    HW120342   2.841   2.302   3.514 -0.8254 -1.8105  1.4830
 2902SOL    HW220343   2.693   2.315   3.496  1.2746 -0.7194  1.9390
 2903SOL     OW20344   3.103   1.860   0.296 -0.4166 -0.2521  0.0367
 2903SOL    HW120345   3.070   1.873   0.385  0.5637 -0.7153  0.4703
 2903SOL    HW220346   3.158   1.937   0.309  1.3576 -1.4052 -0.7300
 2904SOL     OW20347   3.166   2.974   9.765 -0.3293 -0.0904  0.4282
 2904SOL    HW120348   3.217   2.985   9.685  0.1648  0.0011  0.7602
 2904SOL    HW220349   3.239   2.943   9.819 -1.3521 -3.1023  0.0793
 2905SOL     OW20350   4.565   2.241  11.662 -0.5392 -0.0147 -0.2431
 2905SOL    HW120351   4.546   2.157  11.621 -1.6847  0.8938 -1.5886
 2905SOL    HW220352   4.562   2.299  11.586 -3.6955  0.4169  0.1917
 2906SOL     OW20353   3.019   2.025  14.170 -0.5263 -0.0133  0.0777
 2906SOL    HW120354   3.114   2.034  14.170 -0.4491 -0.7833  0.5903
 2906SOL    HW220355   2.996   1.958  14.105  2.5236 -2.1674  1.2370
 2907SOL     OW20356   0.466   1.999   4.191  0.0324  0.7060 -0.0460
 2907SOL    HW120357   0.454   2.032   4.280 -2.0152  1.7893 -0.7246
 2907SOL    HW220358   0.528   1.929   4.209 -1.1430 -0.0861  0.9342
 2908SOL     OW20359   3.354   2.437   0.672  0.3035  0.4568  0.7281
 2908SOL    HW120360   3.294   2.365   0.655 -0.9003  1.8254 -0.7666
 2908SOL    HW220361   3.378   2.412   0.761  2.3555 -0.7665 -0.1616
 2909SOL     OW20362   3.293   3.847   9.184 -0.8307 -0.7365 -0.2961
 2909SOL    HW120363   3.347   3.839   9.105  0.6160  0.2686  0.5934
 2909SOL    HW220364   3.205   3.825   9.154 -1.2497 -1.3529  1.4227
 2910SOL     OW20365   3.445   1.254   2.451 -0.1556  0.0872 -0.3817
 2910SOL    HW120366   3.473   1.163   2.455 -2.5374 -0.6443 -0.5242
 2910SOL    HW220367   3.365   1.253   2.397 -0.7072 -0.3935  0.4458
 2911SOL     OW20368   2.640   0.195   0.938 -0.2903 -0.2410 -0.1537
 2911SOL    HW120369   2.562   0.238   0.971  2.6892  3.4301  2.1410
 2911SOL    HW220370   2.683   0.263   0.886 -0.4758  0.7452  0.9917
 2912SOL     OW20371   0.567   2.385   7.348 -0.2883 -0.1327 -0.1490
 2912SOL    HW120372   0.554   2.410   7.256  3.2364 -0.1120 -0.6489
 2912SOL    HW220373   0.656   2.349   7.348 -0.3299 -0.2416 -0.7053
 2913SOL     OW20374   0.425   4.633   4.868  0.2199  0.1568 -0.6016
 2913SOL    HW120375   0.467   4.548   4.855  1.1500  0.3974  0.8963
 2913SOL    HW220376   0.352   4.647   4.807 -0.6370 -2.4068 -0.1774
 2914SOL     OW20377   3.461   2.900   5.472 -0.6696 -0.4921 -0.0957
 2914SOL    HW120378   3.483   2.992   5.488  2.0806 -1.0138 -0.8384
 2914SOL    HW220379   3.550   2.865   5.476 -0.6231 -0.2923  0.6440
 2915SOL     OW20380   2.871   3.165   9.056  0.0102  0.9493  0.1030
 2915SOL    HW120381   2.779   3.174   9.032  0.1167  0.3368 -0.5396
 2915SOL    HW220382   2.857   3.182   9.149  3.7791 -2.1783  1.2421
 2916SOL     OW20383   0.293   2.810  12.637  0.0908 -0.3240  0.4322
 2916SOL    HW120384   0.336   2.887  12.674  0.2630  0.2429 -0.9391
 2916SOL    HW220385   0.324   2.803  12.547 -0.2134 -1.2823  0.4059
 2917SOL     OW20386   0.399   2.374  11.422  0.2645  0.7319 -0.0212
 2917SOL    HW120387   0.487   2.357  11.454 -0.8392 -3.2934  0.9177
 2917SOL    HW220388   0.357   2.288  11.432 -1.3889  1.4884 -0.5010
 2918SOL     OW20389   1.578   0.544   8.568 -0.2811  0.3305 -0.7398
 2918SOL    HW120390   1.526   0.497   8.634  0.3585  0.2717 -0.2706
 2918SOL    HW220391   1.628   0.600   8.628  0.7479  1.5702 -2.7861
 2919SOL     OW20392   0.409   0.611   9.435 -0.8079  0.1013 -0.0084
 2919SOL    HW120393   0.386   0.559   9.359  0.6721 -0.0038 -0.3720
 2919SOL    HW220394   0.376   0.544   9.495 -1.0557 -0.3620 -0.6598
 2920SOL     OW20395   1.006   3.588   3.211  0.5659 -0.0883 -0.4263
 2920SOL    HW120396   1.053   3.590   3.295 -2.2722  2.4547  1.1011
 2920SOL    HW220397   0.935   3.648   3.233  0.1551 -0.5012 -0.6234
 2921SOL     OW20398   1.045   1.791   3.830 -0.0397 -0.2368 -0.1815
 2921SOL    HW120399   1.029   1.882   3.855  0.1948  0.1031 -1.2439
 2921SOL    HW220400   0.981   1.781   3.759 -0.4319 -1.3635  0.3317
 2922SOL     OW20401   0.021   0.669   9.257  0.5128 -0.1824 -0.4213
 2922SOL    HW120402   4.681   0.720   9.268  0.0638 -1.0554  0.3514
 2922SOL    HW220403   0.079   0.737   9.291 -0.6437 -0.1969  1.6229
 2923SOL     OW20404   3.945   4.574   9.581 -0.5419  0.5614  0.2300
 2923SOL    HW120405   3.893   4.511   9.531 -1.0500 -0.7667  2.4446
 2923SOL    HW220406   3.955   4.520   9.659 -1.8214  1.5811  1.0883
 2924SOL     OW20407   2.174   2.371   8.020  0.3534 -0.3777  0.1495
 2924SOL    HW120408   2.185   2.278   8.003  0.2399  0.0832 -2.3407
 2924SOL    HW220409   2.249   2.416   7.982  2.1567 -0.8386  3.1524
 2925SOL     OW20410   1.856   2.327   3.511  0.1678  0.6893 -0.2267
 2925SOL    HW120411   1.797   2.269   3.462  1.2984 -0.0963 -0.6373
 2925SOL    HW220412   1.855   2.291   3.600 -1.2743 -0.6329 -0.7651
 2926SOL     OW20413   2.656   3.051   5.139  0.3086 -0.2573 -0.1699
 2926SOL    HW120414   2.710   3.130   5.151 -2.2962  1.1673  2.2340
 2926SOL    HW220415   2.687   3.011   5.058  0.3140  1.5010 -1.0291
 2927SOL     OW20416   3.532   2.647   7.354  0.0726  0.5068  0.7562
 2927SOL    HW120417   3.533   2.583   7.426 -1.6601  0.5719  0.8454
 2927SOL    HW220418   3.612   2.619   7.310 -1.1073  0.1567 -1.1340
 2928SOL     OW20419   1.673   3.997   8.452  0.0265  0.3558 -0.5319
 2928SOL    HW120420   1.656   3.948   8.532 -1.5277  1.1399 -0.3716
 2928SOL    HW220421   1.651   4.084   8.484 -1.0486  0.3849 -1.3351
 2929SOL     OW20422   3.104   0.738   6.343 -0.3230  0.0331  0.4595
 2929SOL    HW120423   3.199   0.736   6.331 -0.5567  0.8633 -1.4758
 2929SOL    HW220424   3.071   0.653   6.314  3.5589 -1.4188  0.1989
 2930SOL     OW20425   1.869   1.367   7.173  0.5398  0.1299  0.2374
 2930SOL    HW120426   1.959   1.381   7.142  1.4430 -1.4133  2.1885
 2930SOL    HW220427   1.836   1.454   7.150  0.5706 -0.5993 -2.5341
 2931SOL     OW20428   1.158   1.935  13.614  0.3277  0.6990 -0.0872
 2931SOL    HW120429   1.144   1.895  13.700 -1.7692  0.2718 -0.6147
 2931SOL    HW220430   1.252   1.923  13.604  0.0199 -1.1762 -0.7102
 2932SOL     OW20431   2.543   3.581   8.006 -0.4141 -0.1454  0.5780
 2932SOL    HW120432   2.598   3.506   8.028  1.8293  0.8007 -1.8142
 2932SOL    HW220433   2.515   3.568   7.916  1.6485 -2.3313  0.2708
 2933SOL     OW20434   2.489   4.246  13.776 -0.2324 -0.3710 -0.1004
 2933SOL    HW120435   2.421   4.233  13.843  1.3914 -2.3323  1.1811
 2933SOL    HW220436   2.538   4.164  13.770 -1.1537 -0.8182 -1.3851
 2934SOL     OW20437   0.048   0.306  14.427 -0.3873  0.2144 -0.0870
 2934SOL    HW120438   0.115   0.326  14.493 -1.7900  2.0434  0.7787
 2934SOL    HW220439   0.029   0.216  14.454 -0.4954  0.2114 -0.1700
 2935SOL     OW20440   3.702   4.540   7.409  0.1096 -0.2550  0.2828
 2935SOL    HW120441   3.645   4.476   7.368  0.2408  1.2188 -2.2017
 2935SOL    HW220442   3.773   4.537   7.344 -1.4430  1.8329 -1.5229
 2936SOL     OW20443   2.307   2.641   6.849  0.4625  0.0704  0.3009
 2936SOL    HW120444   2.292   2.554   6.887  0.0974 -0.6963 -1.5886
 2936SOL    HW220445   2.400   2.638   6.825  0.0623  0.3717 -1.2556
 2937SOL     OW20446   0.356   2.799   8.457 -0.0938 -0.1917  0.6700
 2937SOL    HW120447   0.285   2.851   8.495  0.7947  2.5917 -1.4647
 2937SOL    HW220448   0.372   2.834   8.369  0.2432 -0.8797  0.4610
 2938SOL     OW20449   3.650   4.332  11.861  0.3264  0.4404 -0.1168
 2938SOL    HW120450   3.743   4.355  11.864  0.6947 -0.6497 -2.6565
 2938SOL    HW220451   3.604   4.413  11.843 -1.5671 -0.6413 -0.1195
 2939SOL     OW20452   2.220   2.375  17.632  0.3166 -0.0308  0.0572
 2939SOL    HW120453   2.144   2.427  17.607  0.1036  0.0274  0.8182
 2939SOL    HW220454   2.213   2.298  17.575  1.7598  2.1033 -3.0380
 2940SOL     OW20455   3.638   1.004   4.169 -0.1434 -0.1645  0.3636
 2940SOL    HW120456   3.638   1.053   4.251 -0.1067  0.6716 -0.1316
 2940SOL    HW220457   3.699   0.933   4.188 -0.8279 -0.1379  2.6879
 2941SOL     OW20458   4.549   2.474  16.942 -0.1960 -0.3114  0.3681
 2941SOL    HW120459   4.538   2.566  16.919 -0.2214 -0.5262 -0.4691
 2941SOL    HW220460   4.586   2.482  17.030  1.6035 -1.0339 -0.3243
 2942SOL     OW20461   1.776   1.416   5.431 -0.5407  0.3862 -0.0744
 2942SOL    HW120462   1.769   1.389   5.339  1.2348  1.3425 -0.4924
 2942SOL    HW220463   1.701   1.475   5.446 -0.1910  0.9979 -0.7532
 2943SOL     OW20464   1.785   0.833   8.968  0.0785 -0.3974 -0.2899
 2943SOL    HW120465   1.808   0.797   9.053 -0.5259 -0.9422 -0.3556
 2943SOL    HW220466   1.876   0.847   8.940  0.3273 -2.1843 -0.3572
 2944SOL     OW20467   4.292   1.143   4.800 -0.0516 -0.1246 -0.2866
 2944SOL    HW120468   4.328   1.139   4.712 -1.1641  0.5903 -0.7721
 2944SOL    HW220469   4.230   1.071   4.794  1.2814 -1.4289  1.5722
 2945SOL     OW20470   0.087   4.103   7.674 -0.4524 -0.1681 -0.6861
 2945SOL    HW120471   0.139   4.022   7.676  3.1078  2.0978 -1.7960
 2945SOL    HW220472   0.068   4.107   7.580 -1.2311  1.7120 -0.4317
 2946SOL     OW20473   3.956   2.881  12.718 -0.1099 -0.1582 -0.2217
 2946SOL    HW120474   4.035   2.831  12.739  0.0116  0.2907  0.3945
 2946SOL    HW220475   3.970   2.968  12.756 -0.6897  0.3037 -1.0573
 2947SOL     OW20476   4.040   3.534   8.771 -0.4496  0.4839 -0.5178
 2947SOL    HW120477   4.075   3.545   8.860 -0.1561  0.7813 -0.6714
 2947SOL    HW220478   4.122   3.512   8.727  0.5920 -0.4374  1.8748
 2948SOL     OW20479   2.341   4.657   3.210 -0.3932 -0.3053 -0.0222
 2948SOL    HW120480   2.350   4.722   3.280 -0.1105  1.1652 -1.4123
 2948SOL    HW220481   2.337   4.720   3.138 -0.4018 -0.1134  0.1489
 2949SOL     OW20482   0.457   0.801  12.443  0.7324 -0.5431 -0.1363
 2949SOL    HW120483   0.365   0.777  12.440  1.2348 -2.6310  0.9895
 2949SOL    HW220484   0.451   0.850  12.525  1.9249 -0.6324  0.0072
 2950SOL     OW20485   2.626   0.616   2.326 -0.4596 -0.2841  0.4866
 2950SOL    HW120486   2.534   0.629   2.348 -0.2189  0.7461  0.8610
 2950SOL    HW220487   2.646   0.538   2.378 -0.0110 -1.4532 -1.4154
 2951SOL     OW20488   4.316   0.401   7.584 -0.6231  0.5979 -0.7652
 2951SOL    HW120489   4.262   0.348   7.525 -2.4074  0.5733  0.8854
 2951SOL    HW220490   4.306   0.348   7.663 -0.2379  0.2532 -0.9457
 2952SOL     OW20491   4.648   2.133  12.120  0.5554  0.1727 -0.2357
 2952SOL    HW120492   4.726   2.184  12.096  0.9964  0.0384  0.9134
 2952SOL    HW220493   4.630   2.085  12.039 -0.6279  2.9078 -1.5847
 2953SOL     OW20494   1.907   2.402   5.441 -0.3620  0.3659  0.5389
 2953SOL    HW120495   1.867   2.392   5.527 -1.1581 -0.7847  0.0304
 2953SOL    HW220496   1.920   2.311   5.413  4.4749  1.4902 -0.9245
 2954SOL     OW20497   1.531   2.188   5.855 -0.1911  0.4897 -0.3527
 2954SOL    HW120498   1.501   2.279   5.861  1.5670  0.8956  2.0156
 2954SOL    HW220499   1.476   2.143   5.919  0.4518 -1.7726 -1.4055
 2955SOL     OW20500   0.221   2.194   6.588 -0.7044 -0.4043 -0.4542
 2955SOL    HW120501   0.234   2.195   6.683 -0.3483  2.8288 -0.5484
 2955SOL    HW220502   0.306   2.229   6.564  0.4267 -0.6512  3.1735
 2956SOL     OW20503   4.070   0.871   4.736 -0.6010  0.2952  0.4372
 2956SOL    HW120504   4.114   0.801   4.785  2.6247  1.5028 -0.7199
 2956SOL    HW220505   3.993   0.884   4.792  1.9459 -0.1120  4.0623
 2957SOL     OW20506   0.321   0.448   9.660  0.7413 -0.1312 -0.4011
 2957SOL    HW120507   0.287   0.402   9.737  1.9573  1.1301  0.8818
 2957SOL    HW220508   0.413   0.424   9.672  0.3557 -2.6278 -2.2036
 2958SOL     OW20509   3.138   4.255   8.758  0.1499  0.1307 -0.0263
 2958SOL    HW120510   3.153   4.184   8.696  0.3488 -0.3196  0.5304
 2958SOL    HW220511   3.224   4.294   8.744  0.0431  0.7803  1.1045
 2959SOL     OW20512   3.460   1.515   6.002 -0.1849  0.0498  0.3663
 2959SOL    HW120513   3.385   1.567   5.973  1.1539  1.7887  0.0710
 2959SOL    HW220514   3.422   1.428   5.986  2.4294 -0.6540 -2.0583
 2960SOL     OW20515   0.600   3.224  17.047  0.1276  0.6165  0.2948
 2960SOL    HW120516   0.551   3.173  16.983 -2.2097 -0.2656  2.7888
 2960SOL    HW220517   0.688   3.216  17.010 -0.9179  3.1000 -2.7221
 2961SOL     OW20518   3.357   3.119   1.688 -0.2275  0.0469  0.1242
 2961SOL    HW120519   3.267   3.133   1.718  0.1440  1.0716  0.7680
 2961SOL    HW220520   3.376   3.197   1.635  0.5075 -0.5310 -0.4714
 2962SOL     OW20521   1.909   3.005   9.544 -0.0186  0.4988 -0.2671
 2962SOL    HW120522   1.900   2.921   9.500 -0.4896  0.9487 -1.0285
 2962SOL    HW220523   1.996   3.025   9.509 -0.1738  1.4805 -0.0807
 2963SOL     OW20524   2.262   3.970   3.313  0.2870  0.5771 -0.5028
 2963SOL    HW120525   2.357   3.974   3.303  0.3641  0.6428  0.3040
 2963SOL    HW220526   2.252   3.905   3.243  1.1673 -0.3137  0.2035
 2964SOL     OW20527   4.713   1.350   8.020 -0.2022 -0.1694 -0.5264
 2964SOL    HW120528   0.025   1.273   8.002  1.5415  0.6240  1.2604
 2964SOL    HW220529   0.043   1.414   8.019  0.6651 -1.1078  0.5335
 2965SOL     OW20530   1.775   4.226   7.292  0.0830  0.1395  0.3426
 2965SOL    HW120531   1.694   4.194   7.332 -0.7906  1.4480 -0.3564
 2965SOL    HW220532   1.830   4.212   7.368 -0.3381 -1.0653  0.4236
 2966SOL     OW20533   1.905   2.957   3.883 -0.2217  0.4583  0.3957
 2966SOL    HW120534   1.849   2.911   3.945  0.0448  2.6725  2.2700
 2966SOL    HW220535   1.952   2.884   3.843  1.8181  3.6042 -2.9117
 2967SOL     OW20536   3.447   2.877   3.154 -0.2482  0.4154  0.0826
 2967SOL    HW120537   3.380   2.810   3.139 -0.9861  1.1882 -0.0577
 2967SOL    HW220538   3.511   2.837   3.213 -0.4499 -1.6274 -1.0809
 2968SOL     OW20539   4.709   3.770  12.947 -0.5693 -0.3956  0.0019
 2968SOL    HW120540   4.662   3.697  12.987 -0.7060 -0.1736  0.2467
 2968SOL    HW220541   0.043   3.723  12.912 -0.6318  0.5053 -1.3734
 2969SOL     OW20542   0.491   3.782   5.148 -0.0123 -0.2246 -0.1031
 2969SOL    HW120543   0.474   3.817   5.235  2.1167 -0.5951  0.4691
 2969SOL    HW220544   0.572   3.817   5.112  1.6094 -0.5168  3.2175
 2970SOL     OW20545   2.375   0.895   5.332 -0.3994  0.0903 -0.4452
 2970SOL    HW120546   2.306   0.950   5.369 -0.1095  0.5798 -0.6481
 2970SOL    HW220547   2.411   0.877   5.419  1.6975  3.9460 -0.5308
 2971SOL     OW20548   2.804   2.676   6.468  0.0084 -0.2260 -0.1399
 2971SOL    HW120549   2.766   2.763   6.457  1.4241  0.6426  1.7759
 2971SOL    HW220550   2.863   2.671   6.393 -0.7849 -0.4336 -0.7405
 2972SOL     OW20551   0.194   4.167  10.588 -0.3866 -0.1803 -0.1650
 2972SOL    HW120552   0.109   4.141  10.552  0.3767 -0.9657 -1.3785
 2972SOL    HW220553   0.245   4.161  10.508 -0.3098  0.0483 -0.1327
 2973SOL     OW20554   0.759   0.703   0.914 -0.0479  0.1954 -0.5242
 2973SOL    HW120555   0.805   0.786   0.928 -1.8006  1.1797 -0.5406
 2973SOL    HW220556   0.669   0.722   0.888 -1.0359 -0.2355  2.6096
 2974SOL     OW20557   4.628   3.144   4.105 -0.1430 -0.8264  0.3005
 2974SOL    HW120558   4.601   3.067   4.054  1.5559  0.9991 -3.3919
 2974SOL    HW220559   4.655   3.106   4.188  2.1691 -1.1789 -0.6096
 2975SOL     OW20560   2.047   0.843   2.263  0.1943 -0.0243  0.5353
 2975SOL    HW120561   2.128   0.889   2.283  0.3767  0.9487 -2.3488
 2975SOL    HW220562   1.978   0.901   2.296  0.6245  0.1973  1.0444
 2976SOL     OW20563   2.241   0.396  10.006  0.0945  0.1120  0.1215
 2976SOL    HW120564   2.267   0.437   9.924 -0.3678 -0.1433 -0.1551
 2976SOL    HW220565   2.216   0.313   9.964  1.8724  0.3296 -1.3828
 2977SOL     OW20566   2.379   3.037   9.476 -0.0580  0.7625 -0.5149
 2977SOL    HW120567   2.348   3.124   9.503 -1.5991  0.4633 -1.3070
 2977SOL    HW220568   2.317   3.017   9.405 -1.7097 -3.3368  2.0809
 2978SOL     OW20569   3.418   4.151   0.899  0.2136 -0.2672  0.0332
 2978SOL    HW120570   3.504   4.121   0.929  1.0457  2.8342  0.7792
 2978SOL    HW220571   3.448   4.227   0.850  0.6389 -0.7938 -0.5196
 2979SOL     OW20572   0.505   1.236   5.140  0.2742  0.1805 -0.6977
 2979SOL    HW120573   0.570   1.198   5.199 -1.8879 -1.4138  0.6536
 2979SOL    HW220574   0.431   1.178   5.158 -1.0853  1.3065 -2.7063
 2980SOL     OW20575   2.570   1.070   2.064  0.2245 -0.3858 -0.1122
 2980SOL    HW120576   2.545   0.982   2.092 -0.7410  0.3756  1.3884
 2980SOL    HW220577   2.584   1.099   2.155  1.4835  2.6240 -1.2476
 2981SOL     OW20578   0.226   2.001   0.658 -0.2440 -0.2684  0.8722
 2981SOL    HW120579   0.213   1.932   0.723 -0.0033 -0.7914  0.3592
 2981SOL    HW220580   0.218   1.951   0.578  0.2984  0.7698  0.1649
 2982SOL     OW20581   4.678   3.418   1.981 -0.2085 -0.1459 -0.2939
 2982SOL    HW120582   4.643   3.391   1.897 -1.8441 -2.0094  0.9808
 2982SOL    HW220583   4.719   3.335   2.006  1.2937  0.9669  0.9687
 2983SOL     OW20584   0.102   0.482   4.073 -0.6578 -0.2617 -0.9029
 2983SOL    HW120585   0.161   0.503   4.146  0.7405 -0.1035 -2.0740
 2983SOL    HW220586   0.152   0.406   4.044 -3.8430 -2.6043 -0.3214
 2984SOL     OW20587   1.202   1.515   9.156 -0.1435  0.0978  0.7501
 2984SOL    HW120588   1.207   1.489   9.064 -0.6368  0.5953  0.5831
 2984SOL    HW220589   1.109   1.532   9.174  1.0409  3.3716  3.7690
 2985SOL     OW20590   2.127   1.985   7.372  0.3246 -0.0243  0.5578
 2985SOL    HW120591   2.210   1.938   7.378 -0.6802 -2.0471 -1.2234
 2985SOL    HW220592   2.063   1.914   7.375  0.5741 -0.1821  2.0910
 2986SOL     OW20593   1.814   2.359   7.783  0.4530  0.2183  0.2420
 2986SOL    HW120594   1.847   2.440   7.823  0.9201  1.5765 -2.9128
 2986SOL    HW220595   1.809   2.296   7.855 -0.8655  0.6146  0.5143
 2987SOL     OW20596   1.705   3.737   8.324  0.1159 -0.0766  0.4628
 2987SOL    HW120597   1.662   3.695   8.398  0.4438  0.7645  1.1261
 2987SOL    HW220598   1.685   3.829   8.338  3.9201  0.7998  0.1738
 2988SOL     OW20599   0.624   0.658  12.227  0.1425  0.2158 -0.9912
 2988SOL    HW120600   0.602   0.698  12.311  1.3996 -0.3533 -0.3999
 2988SOL    HW220601   0.588   0.726  12.170 -1.3084  2.0189  2.0859
 2989SOL     OW20602   0.958   3.871   8.868  0.1809  0.4287 -0.3489
 2989SOL    HW120603   0.916   3.794   8.830 -0.7477  0.9366 -0.3745
 2989SOL    HW220604   0.962   3.922   8.787  0.1849  0.0046 -0.6156
 2990SOL     OW20605   2.582   4.668  12.836  0.0692 -0.2528 -0.8374
 2990SOL    HW120606   2.629   4.602  12.785 -0.5762  0.0407 -1.7993
 2990SOL    HW220607   2.597   4.648  12.929  0.0837  2.5148 -0.2153
 2991SOL     OW20608   1.089   2.175   4.631 -0.0124  0.4657 -0.0941
 2991SOL    HW120609   1.098   2.178   4.727  2.3419 -1.5523 -0.2608
 2991SOL    HW220610   1.124   2.088   4.615 -1.9831 -0.5440  1.0011
 2992SOL     OW20611   2.160   4.183   6.583  0.3648  0.2377 -0.3712
 2992SOL    HW120612   2.182   4.090   6.581 -0.1959  0.0650  1.1930
 2992SOL    HW220613   2.108   4.182   6.663  1.6407 -0.4902  0.4518
 2993SOL     OW20614   1.702   3.834  15.658 -0.4998 -0.2455  0.1167
 2993SOL    HW120615   1.697   3.746  15.696  0.9401  0.6952  2.5053
 2993SOL    HW220616   1.648   3.824  15.581 -0.1602  0.8870 -0.2739
 2994SOL     OW20617   0.470   3.879  10.868 -0.6632 -0.2791  0.0501
 2994SOL    HW120618   0.406   3.949  10.854 -0.4217 -0.0369  0.1490
 2994SOL    HW220619   0.445   3.839  10.951 -1.1978 -0.6318 -0.2862
 2995SOL     OW20620   4.499   0.743   1.593 -0.4119  0.1321 -0.2836
 2995SOL    HW120621   4.501   0.778   1.682  0.4493 -0.9444  0.1051
 2995SOL    HW220622   4.439   0.805   1.550  0.1389  0.1590 -1.0100
 2996SOL     OW20623   1.134   3.825   9.510  0.7082 -0.0408  0.3797
 2996SOL    HW120624   1.210   3.800   9.562  0.6740  0.7918  0.8405
 2996SOL    HW220625   1.079   3.871   9.573 -0.2726  1.3692 -1.5022
 2997SOL     OW20626   3.269   3.293   0.208 -0.2401 -0.7014 -0.3370
 2997SOL    HW120627   3.318   3.220   0.244  0.2243 -0.7433 -1.0510
 2997SOL    HW220628   3.245   3.347   0.284 -1.7689 -0.4913 -0.9700
 2998SOL     OW20629   1.184   1.806   6.917 -0.1875  0.5414  0.4490
 2998SOL    HW120630   1.128   1.818   6.994 -0.3726 -1.3767  0.5996
 2998SOL    HW220631   1.161   1.893   6.885 -1.2761  0.5842  1.3204
 2999SOL     OW20632   4.510   1.727   7.817 -0.2276 -0.2801  0.2747
 2999SOL    HW120633   4.549   1.746   7.732 -1.9422  0.5354 -0.3405
 2999SOL    HW220634   4.463   1.649   7.786  1.7017 -1.3724  0.0986
 3000SOL     OW20635   0.355   1.936  12.262 -0.0707  0.2829  0.0038
 3000SOL    HW120636   0.404   1.869  12.310  2.5721  0.9632 -1.7411
 3000SOL    HW220637   0.339   2.006  12.325 -4.4452 -0.5922 -0.1042
 3001SOL     OW20638   4.608   0.278  15.886 -0.5085  0.0199  1.0228
 3001SOL    HW120639   4.602   0.229  15.968  0.1507 -3.1319 -0.7971
 3001SOL    HW220640   4.681   0.335  15.909  0.3794 -0.9143  0.5214
 3002SOL     OW20641   1.549   0.780   4.153  0.0750 -0.2752 -0.0435
 3002SOL    HW120642   1.551   0.777   4.248  1.2286 -1.2687 -0.1065
 3002SOL    HW220643   1.617   0.716   4.132 -0.4238 -1.0601  0.7155
 3003SOL     OW20644   4.260   1.193   5.718 -0.1475 -0.4477 -0.6125
 3003SOL    HW120645   4.351   1.207   5.692 -0.2624  0.2498 -0.6546
 3003SOL    HW220646   4.231   1.104   5.700 -1.8403  0.3612 -1.8982
 3004SOL     OW20647   4.231   2.495   5.926 -0.2366 -0.2891  0.4941
 3004SOL    HW120648   4.273   2.411   5.906 -0.9906 -0.8521  1.2754
 3004SOL    HW220649   4.247   2.497   6.020  2.2507 -0.0351  0.0589
 3005SOL     OW20650   1.300   3.698   9.690 -0.3853  0.4696  0.2436
 3005SOL    HW120651   1.319   3.636   9.760  0.6934  0.0667 -0.4154
 3005SOL    HW220652   1.339   3.777   9.728 -0.1235  0.2818  0.3648
 3006SOL     OW20653   2.592   4.270   7.064 -0.2309  0.7537 -0.0906
 3006SOL    HW120654   2.563   4.190   7.109  2.1293 -0.0369  0.0570
 3006SOL    HW220655   2.515   4.261   7.008  0.3022  0.1470 -0.7214
 3007SOL     OW20656   1.610   3.065   8.524 -0.4212  0.7098 -0.7954
 3007SOL    HW120657   1.620   3.020   8.441  1.0909  0.7998 -0.6512
 3007SOL    HW220658   1.545   3.007   8.564  0.1254  0.8618  0.2972
 3008SOL     OW20659   2.171   4.110   5.309 -0.5398 -0.0158 -0.1148
 3008SOL    HW120660   2.109   4.177   5.338 -1.1207 -1.1274  1.2184
 3008SOL    HW220661   2.192   4.069   5.392  0.4363  0.6431 -0.0458
 3009SOL     OW20662   2.156   4.146   9.448 -0.1580 -0.2583 -0.1648
 3009SOL    HW120663   2.206   4.100   9.380 -0.9636 -1.9101  0.3453
 3009SOL    HW220664   2.223   4.175   9.510  0.2696  0.4832 -0.9729
 3010SOL     OW20665   4.704   2.824   9.084 -0.4560  0.7492 -0.0941
 3010SOL    HW120666   4.720   2.738   9.123 -2.3903  0.1058 -0.6925
 3010SOL    HW220667   4.646   2.810   9.009  0.2148  2.3207 -0.9081
 3011SOL     OW20668   4.457   3.581   9.535 -0.1798  0.0475  0.3464
 3011SOL    HW120669   4.386   3.637   9.567 -0.4440 -1.0067  1.6021
 3011SOL    HW220670   4.402   3.515   9.493  0.4905 -1.0164  1.1396
 3012SOL     OW20671   4.242   1.451  14.269  0.1306 -0.7851  0.4484
 3012SOL    HW120672   4.199   1.443  14.184 -0.4894 -2.1569  0.9027
 3012SOL    HW220673   4.312   1.516  14.258  0.8832 -1.7814 -0.6917
 3013SOL     OW20674   1.677   0.113  10.708  0.1818 -0.1616 -0.1722
 3013SOL    HW120675   1.632   0.063  10.776  2.4547  0.2134  1.5958
 3013SOL    HW220676   1.639   0.085  10.625  1.8633 -0.3277 -0.8985
 3014SOL     OW20677   0.409   1.385   7.935  0.1013  0.1200  0.1870
 3014SOL    HW120678   0.321   1.416   7.957 -0.9663 -0.7409 -2.8405
 3014SOL    HW220679   0.414   1.379   7.839 -0.5371 -1.2123  0.2446
 3015SOL     OW20680   3.449   3.059  14.014  0.0009  0.1705 -0.2080
 3015SOL    HW120681   3.542   3.057  14.035  0.4813  0.1647 -2.3321
 3015SOL    HW220682   3.435   3.153  14.028 -1.1574 -0.1343  0.7462
 3016SOL     OW20683   4.602   1.829   2.890  0.3431  0.6992 -0.1113
 3016SOL    HW120684   4.637   1.861   2.807  0.5173 -0.9776 -0.6733
 3016SOL    HW220685   4.583   1.918   2.920 -2.2871 -0.7646  2.5187
 3017SOL     OW20686   1.710   2.056   1.731 -1.0602 -0.0431 -0.2852
 3017SOL    HW120687   1.756   2.127   1.686 -1.6799  0.4024 -0.1997
 3017SOL    HW220688   1.728   2.091   1.818  0.3106 -0.8936 -0.2092
 3018SOL     OW20689   1.299   2.992   6.671  0.1059 -0.3127 -0.3525
 3018SOL    HW120690   1.388   3.020   6.648 -0.1526  1.3576  0.6915
 3018SOL    HW220691   1.278   3.060   6.734  0.6224 -1.8003  1.4274
 3019SOL     OW20692   0.911   0.195  14.768 -0.1486  0.0653 -0.2451
 3019SOL    HW120693   0.872   0.200  14.681 -0.1069  1.0054 -0.2142
 3019SOL    HW220694   0.974   0.266  14.757  0.6977 -0.7548 -0.6475
 3020SOL     OW20695   3.678   1.237  10.830 -0.1929  0.0784  0.2539
 3020SOL    HW120696   3.756   1.207  10.877 -0.7257  0.4273  1.3449
 3020SOL    HW220697   3.707   1.209  10.743  0.4129  2.0920 -0.1998
 3021SOL     OW20698   1.833   0.335   1.426 -0.5567  0.0764  0.5476
 3021SOL    HW120699   1.760   0.327   1.487 -0.9549 -0.9729 -0.0684
 3021SOL    HW220700   1.901   0.287   1.475 -0.9821 -2.1645 -1.0559
 3022SOL     OW20701   0.286   1.478   7.100  0.4036 -0.4995  0.1083
 3022SOL    HW120702   0.298   1.483   7.005 -1.5894 -0.1977 -0.1272
 3022SOL    HW220703   0.291   1.383   7.106  2.5682 -0.3854  0.2885
 3023SOL     OW20704   0.084   2.296  15.478 -0.3644  0.5563 -0.0889
 3023SOL    HW120705   0.125   2.365  15.426 -0.0245  2.0341  2.1379
 3023SOL    HW220706   0.064   2.220  15.423 -0.4935  0.7234 -0.2739
 3024SOL     OW20707   0.355   4.202   3.059  0.1489  0.0188  0.1787
 3024SOL    HW120708   0.392   4.280   3.018  1.5157 -0.2810  0.8323
 3024SOL    HW220709   0.432   4.168   3.105  1.7208  2.3233 -0.7613
 3025SOL     OW20710   1.178   2.406   7.375  0.2775 -0.2057  0.5414
 3025SOL    HW120711   1.216   2.490   7.403 -1.1893  0.3664  0.8032
 3025SOL    HW220712   1.250   2.345   7.391  1.0020  0.2890 -0.8717
 3026SOL     OW20713   2.850   2.307  11.913 -0.7950  0.0735 -0.0238
 3026SOL    HW120714   2.837   2.330  12.005 -0.3602  0.5906 -0.0914
 3026SOL    HW220715   2.808   2.379  11.865 -0.2820 -0.0242 -0.6246
 3027SOL     OW20716   1.861   3.122   1.774 -0.2493 -0.1378  0.5277
 3027SOL    HW120717   1.878   3.119   1.679  1.3763  1.8944  0.7418
 3027SOL    HW220718   1.787   3.063   1.786 -0.3159 -0.7815 -3.0464
 3028SOL     OW20719   1.833   0.029   2.773 -0.1097 -0.0942 -0.4668
 3028SOL    HW120720   1.800   0.032   2.684 -0.4623 -0.1945 -0.3406
 3028SOL    HW220721   1.907   4.709   2.770  0.4469  0.5359  0.3774
 3029SOL     OW20722   0.429   2.547   2.788  0.1935 -0.6012  0.4563
 3029SOL    HW120723   0.473   2.512   2.865 -0.3884 -1.1752  0.5289
 3029SOL    HW220724   0.459   2.638   2.788 -1.2882 -0.1043  3.2972
 3030SOL     OW20725   2.020   3.697  11.619 -0.5400 -0.3643 -0.2639
 3030SOL    HW120726   1.926   3.711  11.627 -0.4382  0.8910 -1.2739
 3030SOL    HW220727   2.022   3.633  11.548  5.0695 -1.1016  0.5262
 3031SOL     OW20728   4.084   1.235  13.508  0.5444  0.1430  0.3978
 3031SOL    HW120729   4.100   1.300  13.440 -1.0769 -0.9777 -1.0559
 3031SOL    HW220730   4.110   1.156  13.462 -2.6758 -0.5361 -0.2137
 3032SOL     OW20731   2.291   3.527   3.505  0.3479  0.0789  0.7337
 3032SOL    HW120732   2.311   3.560   3.418 -0.1178 -1.8308 -0.1038
 3032SOL    HW220733   2.200   3.553   3.513  0.0763 -1.3825  2.4598
 3033SOL     OW20734   4.134   0.363  13.081 -0.2302 -0.1037  0.4076
 3033SOL    HW120735   4.102   0.337  13.168 -1.6544  1.2484  0.2644
 3033SOL    HW220736   4.149   0.277  13.042  0.0620 -0.1659  0.6455
 3034SOL     OW20737   0.461   2.485   9.550 -0.2330  0.1489  0.1960
 3034SOL    HW120738   0.493   2.488   9.641  1.7571 -1.6334 -0.4537
 3034SOL    HW220739   0.471   2.576   9.520 -1.4811 -0.0029 -0.6536
 3035SOL     OW20740   3.554   2.150   1.060 -0.4189  0.4020 -0.6035
 3035SOL    HW120741   3.551   2.090   0.985  1.4240 -0.3155 -0.0996
 3035SOL    HW220742   3.645   2.178   1.067 -0.4893  0.0362  1.5758
 3036SOL     OW20743   2.854   0.646   2.151 -0.9328 -0.1582 -0.3085
 3036SOL    HW120744   2.786   0.664   2.216 -0.0477  0.1821  0.5366
 3036SOL    HW220745   2.826   0.707   2.084  0.4037  2.1797  1.2324
 3037SOL     OW20746   2.162   2.928   2.957  0.2752  0.0386 -0.7083
 3037SOL    HW120747   2.225   2.956   2.890 -0.4587  1.5162 -0.7987
 3037SOL    HW220748   2.134   2.845   2.920  0.9564 -0.4598 -0.0979
 3038SOL     OW20749   0.381   0.323   4.900  0.0901 -0.7816 -0.1561
 3038SOL    HW120750   0.475   0.304   4.903  0.9328  3.0352 -2.2424
 3038SOL    HW220751   0.349   0.266   4.969 -0.5949 -0.1653  0.0378
 3039SOL     OW20752   1.560   0.923   2.659  0.3403  0.3772  0.3570
 3039SOL    HW120753   1.472   0.948   2.629  0.8789  2.2320  0.3772
 3039SOL    HW220754   1.614   0.975   2.600 -1.8587  2.8375  0.5006
 3040SOL     OW20755   1.977   1.709   1.047  0.1837 -0.0497 -0.1847
 3040SOL    HW120756   2.004   1.714   0.955  0.4865  1.8441  0.0081
 3040SOL    HW220757   2.047   1.660   1.089 -0.0827 -0.5032 -0.2750
 3041SOL     OW20758   3.636   4.144   5.647  0.0297  0.2204 -0.1812
 3041SOL    HW120759   3.623   4.150   5.553 -0.5626 -0.4438 -0.1440
 3041SOL    HW220760   3.691   4.067   5.658 -1.3620 -0.8701 -0.7775
 3042SOL     OW20761   4.675   0.172   6.323 -0.2688  0.1914  0.0563
 3042SOL    HW120762   4.705   0.175   6.232  1.3526  0.1274  0.5817
 3042SOL    HW220763   4.610   0.241   6.313 -0.4836 -0.1089 -0.5797
 3043SOL     OW20764   3.299   3.149   8.878  0.1859  0.1628 -0.3615
 3043SOL    HW120765   3.225   3.143   8.818  0.2052 -2.0727 -0.1483
 3043SOL    HW220766   3.256   3.137   8.962  1.2277 -2.2066 -0.1854
 3044SOL     OW20767   2.403   2.375   4.682 -0.4550 -0.0338  0.2274
 3044SOL    HW120768   2.415   2.449   4.623  1.0033  0.3573  0.9960
 3044SOL    HW220769   2.433   2.413   4.765 -2.4972 -1.9302  1.8334
 3045SOL     OW20770   4.516   4.037   6.852 -0.1914  0.0295 -0.1364
 3045SOL    HW120771   4.481   3.997   6.931  0.0632  0.5374  0.2317
 3045SOL    HW220772   4.500   3.970   6.785 -2.8904  1.7595 -1.2453
 3046SOL     OW20773   0.374   0.609   2.810 -0.2009 -0.1744  0.2711
 3046SOL    HW120774   0.315   0.683   2.826  0.5325  0.7735 -1.4207
 3046SOL    HW220775   0.419   0.640   2.732  0.1232  1.0633  0.9629
 3047SOL     OW20776   2.784   2.548   7.452 -0.6694  0.5076  0.0609
 3047SOL    HW120777   2.827   2.633   7.465  0.2552  0.2345 -1.1923
 3047SOL    HW220778   2.721   2.568   7.383 -0.0118 -0.4026 -0.8080
 3048SOL     OW20779   0.701   1.702  15.124  0.6613 -0.3805 -0.4140
 3048SOL    HW120780   0.680   1.784  15.078  0.5119  1.6617  3.2682
 3048SOL    HW220781   0.703   1.737  15.214  0.5368  0.6009 -0.7858
 3049SOL     OW20782   0.494   1.491   8.640  0.3035  0.3611 -0.4753
 3049SOL    HW120783   0.483   1.526   8.728  1.4625 -0.4268 -0.0065
 3049SOL    HW220784   0.526   1.401   8.652 -0.2497  0.4064  1.3550
 3050SOL     OW20785   1.580   1.853   5.989  0.7632 -0.8009 -0.8728
 3050SOL    HW120786   1.508   1.792   6.001 -1.5712  2.1663  0.0700
 3050SOL    HW220787   1.550   1.899   5.911 -3.1332 -0.2115  1.0211
 3051SOL     OW20788   0.350   4.421  10.199  0.0357  0.0071  0.0812
 3051SOL    HW120789   0.427   4.441  10.145 -0.6204 -1.6968 -1.4980
 3051SOL    HW220790   0.288   4.411  10.126  0.8063 -0.8482 -0.4723
 3052SOL     OW20791   3.883   2.021   5.707 -0.0840 -0.4929 -0.0787
 3052SOL    HW120792   3.916   2.047   5.793 -1.9610 -2.0913  1.1270
 3052SOL    HW220793   3.865   1.928   5.719 -1.1542  0.0496  2.4380
 3053SOL     OW20794   0.468   3.500   2.900 -0.2122 -0.4980 -0.0742
 3053SOL    HW120795   0.506   3.587   2.887 -0.7610  0.1173  2.4109
 3053SOL    HW220796   0.414   3.490   2.822  0.6271  2.4263 -1.0550
 3054SOL     OW20797   1.804   4.040  12.295 -0.7289  0.4807  0.7030
 3054SOL    HW120798   1.775   3.951  12.315 -0.7458  0.3053 -0.1044
 3054SOL    HW220799   1.899   4.038  12.304 -0.5063 -0.6121 -1.9053
 3055SOL     OW20800   3.940   2.732   8.053  0.2758  0.4104 -0.8946
 3055SOL    HW120801   3.891   2.800   8.008  1.5397  0.1453 -2.6833
 3055SOL    HW220802   3.923   2.654   8.000 -1.8688  0.9971 -1.0548
 3056SOL     OW20803   3.859   0.853   5.303 -0.0875  0.4238 -0.2591
 3056SOL    HW120804   3.932   0.853   5.240 -0.9376  2.3630 -1.2463
 3056SOL    HW220805   3.893   0.793   5.369 -0.1497  1.2979  0.5475
 3057SOL     OW20806   2.241   0.986   8.558 -0.1103  0.0438 -0.4422
 3057SOL    HW120807   2.296   0.921   8.515 -1.6133 -0.2888 -1.8840
 3057SOL    HW220808   2.275   0.998   8.646 -0.7491  0.9152 -0.3161
 3058SOL     OW20809   4.452   4.434   9.656 -0.2042 -0.0251  0.1288
 3058SOL    HW120810   4.439   4.342   9.681 -1.7293  0.4919  1.1902
 3058SOL    HW220811   4.369   4.455   9.613 -0.0179  0.6164  0.0826
 3059SOL     OW20812   0.257   3.526  14.848  0.5583  0.4534  0.2921
 3059SOL    HW120813   0.245   3.463  14.777  0.3378  0.3117  0.4587
 3059SOL    HW220814   0.345   3.501  14.878  0.6009  0.7688  0.4324
 3060SOL     OW20815   2.996   0.515   9.719  0.0987 -0.3628 -0.3754
 3060SOL    HW120816   2.998   0.607   9.692 -0.0169 -0.8420 -2.0369
 3060SOL    HW220817   3.059   0.504   9.791 -0.8156 -1.3225  0.2705
 3061SOL     OW20818   3.192   1.651   2.860 -0.0993 -0.2565  0.7554
 3061SOL    HW120819   3.224   1.730   2.903 -0.7959 -0.7066  2.0810
 3061SOL    HW220820   3.118   1.687   2.812 -0.1687 -1.7382 -0.2503
 3062SOL     OW20821   3.751   0.817   2.492  0.5210  0.1274  0.8114
 3062SOL    HW120822   3.818   0.792   2.555  1.7328 -0.4592 -0.7150
 3062SOL    HW220823   3.788   0.788   2.408 -1.2290 -0.5730  0.2730
 3063SOL     OW20824   2.814   3.132  13.639  0.0362  0.2163  0.7277
 3063SOL    HW120825   2.785   3.085  13.717 -2.9543  0.7097 -0.0825
 3063SOL    HW220826   2.909   3.122  13.648 -0.0180 -2.4252 -1.4188
 3064SOL     OW20827   2.557   1.208   9.001 -0.5684 -0.3511  0.5249
 3064SOL    HW120828   2.555   1.298   8.966  1.7125 -0.0539  1.1221
 3064SOL    HW220829   2.648   1.204   9.030 -0.8996  0.2742  1.6468
 3065SOL     OW20830   1.928   3.213  12.802 -0.5547 -0.0743 -0.1983
 3065SOL    HW120831   1.974   3.200  12.885  0.5825 -1.3166 -1.0128
 3065SOL    HW220832   1.853   3.154  12.814 -1.1797  1.0389  1.3495
 3066SOL     OW20833   3.026   0.968  12.077  0.2215  0.1239  0.1771
 3066SOL    HW120834   3.039   0.895  12.016 -1.3813 -2.0426  2.4267
 3066SOL    HW220835   2.950   1.011  12.038  0.8210 -0.0459 -1.2040
 3067SOL     OW20836   3.513   1.994   6.317  0.7629  0.0843 -0.1966
 3067SOL    HW120837   3.534   2.085   6.336  2.8084 -0.1102 -1.5046
 3067SOL    HW220838   3.461   1.999   6.237  0.7118  0.7983 -0.1113
 3068SOL     OW20839   0.012   2.928   0.081 -0.2379  0.4906 -0.4203
 3068SOL    HW120840   0.105   2.913   0.062 -0.2378 -0.6839  0.4751
 3068SOL    HW220841   0.015   3.023   0.090 -3.6702  0.4586  0.8114
 3069SOL     OW20842   0.599   1.390  10.230 -0.0292  0.1171  0.2392
 3069SOL    HW120843   0.538   1.317  10.230 -2.0876  1.8441 -0.9463
 3069SOL    HW220844   0.542   1.453  10.186 -0.5119  0.7122  1.6989
 3070SOL     OW20845   2.066   4.597  16.322  0.5049 -0.4289 -0.1408
 3070SOL    HW120846   2.100   4.625  16.237  0.7452 -0.5880 -0.0974
 3070SOL    HW220847   2.147   4.614  16.370  2.0075 -2.9301 -1.7650
 3071SOL     OW20848   2.894   0.017  16.622  0.0742  0.5451 -0.3158
 3071SOL    HW120849   2.847   0.089  16.580  1.9779 -0.2108 -3.6954
 3071SOL    HW220850   2.957   4.732  16.555 -2.2332 -0.2337 -2.1719
 3072SOL     OW20851   1.721   2.630   1.072 -0.5807  0.5632  0.2257
 3072SOL    HW120852   1.806   2.586   1.075 -1.4663 -0.9367  3.3039
 3072SOL    HW220853   1.659   2.562   1.101  0.2263 -0.1963  0.1805
 3073SOL     OW20854   0.034   4.714  16.514  0.1611 -0.4788 -0.4122
 3073SOL    HW120855   0.119   4.683  16.482  1.2358  1.6671  0.3458
 3073SOL    HW220856   0.020   0.039  16.446 -2.3186  1.0453  1.6010
 3074SOL     OW20857   0.625   0.543   1.819  0.3057 -0.0642 -0.2320
 3074SOL    HW120858   0.712   0.513   1.845 -0.3528 -2.2661 -0.5696
 3074SOL    HW220859   0.579   0.543   1.903 -1.5829  1.8020 -1.2502
 3075SOL     OW20860   3.823   0.867   7.587 -0.1187 -0.6117  0.3824
 3075SOL    HW120861   3.884   0.825   7.648 -0.1428  0.9562  1.4994
 3075SOL    HW220862   3.805   0.953   7.625 -1.3568  0.3062 -2.2928
 3076SOL     OW20863   1.832   0.409   8.559  0.0259 -0.1071 -0.7158
 3076SOL    HW120864   1.778   0.486   8.542  0.3264  0.3231  0.2998
 3076SOL    HW220865   1.881   0.433   8.637 -1.2573  1.8769 -0.5186
 3077SOL     OW20866   4.176   1.624   1.922  0.0307  0.2051  0.3094
 3077SOL    HW120867   4.092   1.606   1.881  0.1085 -1.0546  0.7234
 3077SOL    HW220868   4.200   1.703   1.874 -2.1931  1.0357  0.5901
 3078SOL     OW20869   4.555   4.035  14.743 -0.2799  0.4856  0.5351
 3078SOL    HW120870   4.533   3.996  14.828 -0.6968 -0.4363 -0.0108
 3078SOL    HW220871   4.651   4.034  14.747 -0.3612 -2.8054  1.6128
 3079SOL     OW20872   2.678   0.582   3.254 -0.6132 -0.1674  0.5530
 3079SOL    HW120873   2.745   0.605   3.190 -2.2319  1.7155 -0.4475
 3079SOL    HW220874   2.606   0.640   3.231 -0.3364  0.5574  1.5508
 3080SOL     OW20875   1.274   3.667  13.260 -0.0428 -0.2225 -0.6811
 3080SOL    HW120876   1.352   3.624  13.225 -0.7332 -0.9732 -1.3013
 3080SOL    HW220877   1.253   3.608  13.332  2.1775 -1.2004 -0.8222
 3081SOL     OW20878   0.637   1.166   4.373 -0.2648  0.3308  0.0220
 3081SOL    HW120879   0.712   1.185   4.429  1.8044 -0.4684 -2.4694
 3081SOL    HW220880   0.566   1.171   4.437 -0.2874 -1.0485  0.1178
 3082SOL     OW20881   4.127   3.564   5.407 -0.0811  0.5161 -0.0038
 3082SOL    HW120882   4.129   3.498   5.337  0.7549 -0.1051  0.6084
 3082SOL    HW220883   4.220   3.567   5.427  0.2514 -0.2714 -1.3610
 3083SOL     OW20884   3.446   0.002   1.595 -0.1964 -0.3986  0.0201
 3083SOL    HW120885   3.516   0.021   1.533  0.0691 -0.4559  0.2975
 3083SOL    HW220886   3.460   0.067   1.663  4.6069  0.2290 -1.6024
 3084SOL     OW20887   2.056   1.351   5.436 -0.1585 -0.0230 -0.2167
 3084SOL    HW120888   1.967   1.384   5.445 -0.5456 -1.2003  0.2619
 3084SOL    HW220889   2.115   1.422   5.463  1.0481 -0.5038 -1.6087
 3085SOL     OW20890   4.250   1.294  17.140 -0.8281 -0.3445 -0.1476
 3085SOL    HW120891   4.169   1.243  17.148  0.2844 -1.7418  2.3121
 3085SOL    HW220892   4.306   1.224  17.107 -1.3832 -0.3461 -1.0941
 3086SOL     OW20893   2.149   3.409   6.989  0.7435  0.2678 -0.4845
 3086SOL    HW120894   2.162   3.503   7.001  1.8320  0.1830 -0.9960
 3086SOL    HW220895   2.189   3.392   6.904 -0.3323  0.7608 -1.0950
 3087SOL     OW20896   2.145   0.823  10.496  0.2713  0.1292  0.2521
 3087SOL    HW120897   2.156   0.728  10.493  1.4701  0.2453  0.6799
 3087SOL    HW220898   2.067   0.843  10.548  0.5826 -1.9416  1.5391
 3088SOL     OW20899   1.277   3.064   4.157  0.3414 -0.4763  0.0311
 3088SOL    HW120900   1.301   3.075   4.065  1.9438 -0.1618  0.4875
 3088SOL    HW220901   1.370   3.060   4.180 -0.1756 -1.4612  1.9781
 3089SOL     OW20902   1.459   3.324   1.995  0.5215  0.0354  0.2122
 3089SOL    HW120903   1.457   3.399   2.055  0.9824 -0.4076  0.7723
 3089SOL    HW220904   1.453   3.369   1.911 -0.6690 -0.0631  0.2336
 3090SOL     OW20905   0.718   2.247   0.206 -0.6661 -0.1023 -0.1413
 3090SOL    HW120906   0.654   2.189   0.248 -1.7931 -0.2928 -2.1214
 3090SOL    HW220907   0.765   2.284   0.281 -0.6400  1.4266 -0.9147
 3091SOL     OW20908   0.350   2.753   1.928 -0.0306  0.1089  0.5953
 3091SOL    HW120909   0.338   2.658   1.928 -0.4078  0.1570  1.0149
 3091SOL    HW220910   0.281   2.778   1.867  1.4589  1.1663 -0.6876
 3092SOL     OW20911   3.144   3.965   8.918  0.1037  0.1284 -0.1243
 3092SOL    HW120912   3.154   3.989   8.826  0.3684 -2.4119 -0.7526
 3092SOL    HW220913   3.216   4.018   8.950 -0.6746  1.2632 -0.2625
 3093SOL     OW20914   3.604   3.706   0.841 -0.4375  0.2556 -0.3859
 3093SOL    HW120915   3.606   3.783   0.784  0.2684 -1.2953 -2.4838
 3093SOL    HW220916   3.684   3.661   0.815 -1.2239 -0.8644 -0.9128
 3094SOL     OW20917   4.035   2.809   5.063  0.3584  0.2827  0.1887
 3094SOL    HW120918   4.019   2.714   5.058  0.5692  0.3034 -0.8982
 3094SOL    HW220919   4.129   2.820   5.049  1.3847 -4.5316  3.1501
 3095SOL     OW20920   0.661   0.444   6.135  0.0799 -0.4423 -0.0222
 3095SOL    HW120921   0.696   0.421   6.049 -1.1108 -0.1852 -0.5749
 3095SOL    HW220922   0.726   0.504   6.170  0.8064 -0.7859 -0.7695
 3096SOL     OW20923   1.667   0.141   3.257  0.4852  0.1740 -0.5222
 3096SOL    HW120924   1.704   0.212   3.310 -0.0783  0.2724 -0.2528
 3096SOL    HW220925   1.572   0.146   3.270  0.4350 -1.3594 -0.3137
 3097SOL     OW20926   2.352   4.594   3.934  0.4527 -0.0736  0.3100
 3097SOL    HW120927   2.442   4.561   3.941  0.3484 -0.6626 -1.0518
 3097SOL    HW220928   2.348   4.655   3.860  2.4452  0.4628  0.6342
 3098SOL     OW20929   3.147   3.685   1.108  0.0327  0.6996  0.3264
 3098SOL    HW120930   3.073   3.646   1.062  0.2865  0.7075 -0.0847
 3098SOL    HW220931   3.138   3.777   1.085 -1.1020  0.6137  0.3955
 3099SOL     OW20932   1.594   4.633  11.441 -0.2015 -0.6349  0.1801
 3099SOL    HW120933   1.601   4.719  11.483 -1.1227 -0.6185  0.2993
 3099SOL    HW220934   1.520   4.590  11.484 -0.9331  1.4805  1.0465
 3100SOL     OW20935   2.554   3.797  10.905  0.1080 -0.1816 -0.1539
 3100SOL    HW120936   2.577   3.890  10.895  2.7859 -0.8600 -0.2602
 3100SOL    HW220937   2.629   3.756  10.946  0.2429 -1.8430 -2.0479
 3101SOL     OW20938   4.027   0.606  13.275  0.1948 -0.1983 -0.3188
 3101SOL    HW120939   4.029   0.518  13.238 -3.0387  0.1349 -1.2748
 3101SOL    HW220940   4.030   0.589  13.369 -0.8012  0.1094 -0.2339
 3102SOL     OW20941   0.419   3.383  17.187  0.2455  0.2481 -0.4613
 3102SOL    HW120942   0.452   3.293  17.193  0.5018  0.4585  1.1027
 3102SOL    HW220943   0.400   3.382  17.093 -2.6750 -0.9318  0.1481
 3103SOL     OW20944   2.492   2.203  11.380 -0.1544 -0.0401 -0.1020
 3103SOL    HW120945   2.416   2.250  11.345  0.5735  1.8559  0.8537
 3103SOL    HW220946   2.550   2.199  11.304 -0.3628  0.1524 -0.2705
 3104SOL     OW20947   3.076   2.188   7.059 -0.1063 -1.4193  0.5129
 3104SOL    HW120948   3.147   2.219   7.003  0.4021  0.1729  2.0605
 3104SOL    HW220949   3.099   2.220   7.146  0.6973 -3.2577  0.9553
 3105SOL     OW20950   1.587   2.039   2.545  0.5313  0.4142  0.0764
 3105SOL    HW120951   1.592   1.984   2.467 -1.5244 -0.0148  0.2286
 3105SOL    HW220952   1.676   2.029   2.578  0.0834  0.6557  1.3379
 3106SOL     OW20953   4.181   2.271  15.410  0.1638  0.6545 -0.4826
 3106SOL    HW120954   4.275   2.290  15.414  0.5853 -1.3731 -0.6595
 3106SOL    HW220955   4.178   2.176  15.400 -0.5499  0.5484  0.6937
 3107SOL     OW20956   0.217   4.646   4.333 -0.0278  0.2253  0.0467
 3107SOL    HW120957   0.140   4.663   4.278  1.9758 -1.4963 -3.3011
 3107SOL    HW220958   0.174   4.598   4.404 -0.1914  2.2886  1.3359
 3108SOL     OW20959   3.378   2.078   6.945  0.6974  0.0590  0.2422
 3108SOL    HW120960   3.315   2.023   6.898  0.3767  0.7000 -0.0667
 3108SOL    HW220961   3.439   2.008   6.968 -0.4874 -1.0205  0.1190
 3109SOL     OW20962   1.019   2.894   8.638  0.2658  0.0312 -0.3288
 3109SOL    HW120963   1.114   2.888   8.643  0.4449  1.8729 -1.6467
 3109SOL    HW220964   1.000   2.853   8.554 -0.5413 -0.3981  0.0557
 3110SOL     OW20965   3.655   2.868   0.034  0.2468 -0.1752 -0.3566
 3110SOL    HW120966   3.727   2.914  17.752 -0.5880  0.8092 -0.7040
 3110SOL    HW220967   3.706   2.824   0.102 -0.4995  2.4236  1.9223
 3111SOL     OW20968   2.150   1.741   4.576  0.0140  0.2543  0.3381
 3111SOL    HW120969   2.088   1.696   4.518 -0.5284  0.1100  1.0394
 3111SOL    HW220970   2.231   1.744   4.525 -0.8056  0.7495 -0.9202
 3112SOL     OW20971   2.066   3.675   8.710 -0.4073  0.1207 -0.2068
 3112SOL    HW120972   2.018   3.661   8.629  0.6859  0.3144 -0.8817
 3112SOL    HW220973   2.061   3.588   8.750  1.3915  0.7504  1.4177
 3113SOL     OW20974   3.291   2.433   1.576  0.0075  0.3546 -0.2801
 3113SOL    HW120975   3.359   2.386   1.624 -2.0640 -1.9905  0.2998
 3113SOL    HW220976   3.317   2.525   1.582  2.2788 -0.3263  0.4619
 3114SOL     OW20977   3.163   4.646   2.946  0.2416 -0.1913  0.1031
 3114SOL    HW120978   3.206   4.669   3.029  0.1059  2.1143 -0.4651
 3114SOL    HW220979   3.154   4.554   2.969  1.0493 -0.1493  0.5604
 3115SOL     OW20980   3.315   1.731   3.238 -0.5829 -0.1288 -0.4102
 3115SOL    HW120981   3.255   1.657   3.242 -2.0634  1.1466  1.0060
 3115SOL    HW220982   3.393   1.702   3.286 -1.5457 -0.5161  0.9057
 3116SOL     OW20983   1.118   4.408   1.731 -0.2374 -0.1197  0.5601
 3116SOL    HW120984   1.031   4.385   1.763 -0.3763 -0.3300  0.0383
 3116SOL    HW220985   1.111   4.503   1.725  0.2851 -0.1016  0.1551
 3117SOL     OW20986   4.205   3.006  11.716 -0.8678 -0.0486  0.2138
 3117SOL    HW120987   4.129   2.957  11.684 -0.0342  0.2266 -2.1842
 3117SOL    HW220988   4.166   3.073  11.772  0.2928 -1.2354  2.4245
 3118SOL     OW20989   0.485   1.075   1.773 -0.2871  0.8664  0.3350
 3118SOL    HW120990   0.552   1.106   1.834 -0.0151  1.7944 -0.4385
 3118SOL    HW220991   0.475   0.984   1.802  2.5236  0.6575  0.6737
 3119SOL     OW20992   3.441   2.797  10.144  0.2921 -0.3965 -0.4982
 3119SOL    HW120993   3.365   2.796  10.202 -0.4973 -0.9088 -1.5340
 3119SOL    HW220994   3.503   2.738  10.186  0.4372  0.5142  0.5708
 3120SOL     OW20995   1.853   0.249  16.328 -0.3843 -0.5246  0.3894
 3120SOL    HW120996   1.827   0.158  16.343 -0.9436 -0.2159  1.2481
 3120SOL    HW220997   1.841   0.250  16.233 -3.3714  2.2625  0.7819
 3121SOL     OW20998   3.430   2.676  11.118  0.2132  0.5199 -0.6043
 3121SOL    HW120999   3.433   2.612  11.047  0.5679 -1.2849  1.0459
 3121SOL    HW221000   3.334   2.685  11.124  0.0850 -0.4573 -1.1197
 3122SOL     OW21001   3.606   1.327   8.295 -0.0808  0.5919  0.0719
 3122SOL    HW121002   3.670   1.262   8.325 -0.5602  0.5469  1.0033
 3122SOL    HW221003   3.555   1.270   8.238  1.6786 -0.8734 -0.0540
 3123SOL     OW21004   1.893   1.627   5.770  0.3399  0.0363  0.4469
 3123SOL    HW121005   1.862   1.717   5.767 -0.3089 -0.2229 -0.5293
 3123SOL    HW221006   1.984   1.644   5.797  1.2358 -0.1400 -2.4677
 3124SOL     OW21007   3.147   2.166   7.557 -0.3082 -0.2552  0.8155
 3124SOL    HW121008   3.155   2.111   7.479  1.2469  1.2758 -0.0992
 3124SOL    HW221009   3.136   2.249   7.511 -0.0970  0.0742  1.3688
 3125SOL     OW21010   3.859   0.437   8.331  0.4505  0.1368 -0.3317
 3125SOL    HW121011   3.908   0.519   8.335 -1.0172  0.9398  1.0606
 3125SOL    HW221012   3.921   0.375   8.370  0.0253 -0.5739 -0.7772
 3126SOL     OW21013   2.398   2.786  16.122 -0.0891  0.0580 -0.0302
 3126SOL    HW121014   2.464   2.854  16.104  0.6733 -1.3287 -2.4879
 3126SOL    HW221015   2.425   2.727  16.052  0.1623 -0.1939  0.2798
 3127SOL     OW21016   0.192   2.079  10.937 -0.4109  0.8483 -0.0773
 3127SOL    HW121017   0.276   2.034  10.929 -0.2414  1.4371 -1.6322
 3127SOL    HW221018   0.147   2.029  10.869  2.6683 -1.0423 -0.7293
 3128SOL     OW21019   0.392   4.137   7.405  0.4410  0.0825  0.5031
 3128SOL    HW121020   0.464   4.095   7.453  0.7864 -1.1624 -1.1021
 3128SOL    HW221021   0.442   4.174   7.332 -0.4899  2.4281  1.0629
 3129SOL     OW21022   3.524   4.070   7.496  0.1721 -0.0549  0.4061
 3129SOL    HW121023   3.518   4.142   7.434  0.8016 -1.5343 -1.3831
 3129SOL    HW221024   3.431   4.050   7.506 -0.0125  0.2385 -0.7514
 3130SOL     OW21025   0.661   3.525   3.242  0.4450  0.2078 -0.1282
 3130SOL    HW121026   0.615   3.578   3.308 -0.6740 -1.2800  0.2812
 3130SOL    HW221027   0.693   3.592   3.182  1.2977  0.5408  0.7011
 3131SOL     OW21028   0.737   2.001  10.831 -0.0013  0.0469  0.4941
 3131SOL    HW121029   0.830   2.023  10.823 -0.4750  1.6866 -0.5177
 3131SOL    HW221030   0.741   1.911  10.801 -4.6754 -0.0579  0.2896
 3132SOL     OW21031   4.160   0.853   2.109 -0.3266  0.3201  0.2072
 3132SOL    HW121032   4.084   0.822   2.060 -0.1602 -1.6402  1.1909
 3132SOL    HW221033   4.209   0.916   2.056 -0.4064  0.3663  0.1893
 3133SOL     OW21034   0.218   2.963  11.684 -0.7015  0.3668  0.6780
 3133SOL    HW121035   0.309   2.944  11.704 -1.1401 -1.2133  1.1924
 3133SOL    HW221036   0.210   3.056  11.702  0.4694 -0.2360  4.3942
 3134SOL     OW21037   3.408   4.078  14.330  0.4303  0.5974  0.5429
 3134SOL    HW121038   3.401   4.058  14.424 -3.6409  0.2703  0.1961
 3134SOL    HW221039   3.440   3.996  14.293 -2.4905  0.6185 -2.0069
 3135SOL     OW21040   4.566   4.309   6.600  0.8186  0.3253 -0.0137
 3135SOL    HW121041   4.647   4.271   6.635  1.8405  0.2786 -2.3904
 3135SOL    HW221042   4.527   4.324   6.686  0.6406  0.2319 -0.0794
 3136SOL     OW21043   3.697   0.220   2.477  0.0896 -0.0360  0.4324
 3136SOL    HW121044   3.725   0.224   2.568 -0.5159 -2.5276  0.7258
 3136SOL    HW221045   3.645   0.140   2.480 -1.0282  0.7188  1.0699
 3137SOL     OW21046   4.639   1.520  12.013 -0.4700 -0.0180  0.1211
 3137SOL    HW121047   4.653   1.615  12.021 -2.6800  0.3379 -0.0607
 3137SOL    HW221048   4.687   1.489  12.089 -0.8113  0.4965  0.5507
 3138SOL     OW21049   2.149   1.521   8.609 -0.1847 -0.1234 -0.3297
 3138SOL    HW121050   2.144   1.426   8.594 -0.9535 -0.4692  2.0203
 3138SOL    HW221051   2.240   1.533   8.638 -0.6396 -0.0767  1.0739
 3139SOL     OW21052   0.812   2.466   3.534  0.1712  0.1417 -0.8685
 3139SOL    HW121053   0.832   2.480   3.441  0.8109 -1.6966 -1.0054
 3139SOL    HW221054   0.899   2.451   3.569 -0.8685  1.6138  2.3244
 3140SOL     OW21055   3.370   4.647   6.851  0.5846  0.1270 -0.2403
 3140SOL    HW121056   3.370   4.556   6.881 -0.1781  0.1979 -0.0202
 3140SOL    HW221057   3.278   4.666   6.872  0.6343 -0.4438  0.4871
 3141SOL     OW21058   4.182   2.217   7.100 -0.3722 -0.3725  0.1567
 3141SOL    HW121059   4.110   2.180   7.150 -2.0658  1.3261 -1.0483
 3141SOL    HW221060   4.162   2.310   7.114  0.4356 -0.2960  0.8302
 3142SOL     OW21061   3.142   2.786  13.566 -0.1166  0.3806 -0.3120
 3142SOL    HW121062   3.113   2.695  13.558  1.5206 -0.1509 -0.1884
 3142SOL    HW221063   3.235   2.773  13.583  0.2263  0.6655 -1.9506
 3143SOL     OW21064   3.157   3.781   5.939  0.8186  0.0119 -0.3374
 3143SOL    HW121065   3.064   3.758   5.941  0.7246  0.4614  0.2093
 3143SOL    HW221066   3.178   3.723   5.866  0.7990  0.2874 -0.5622
 3144SOL     OW21067   0.454   1.656  12.016  0.1387  0.0039 -0.2887
 3144SOL    HW121068   0.408   1.597  12.075  0.9927  1.7837  2.1356
 3144SOL    HW221069   0.388   1.725  12.023 -0.7104 -0.8737  0.2612
 3145SOL     OW21070   4.199   4.450   1.965 -0.0809 -0.4531 -0.8213
 3145SOL    HW121071   4.237   4.433   1.879  2.4551  1.0732  0.0167
 3145SOL    HW221072   4.150   4.531   1.959  0.6951  0.0114 -0.8969
 3146SOL     OW21073   0.303   1.386  11.683 -0.0483  0.3345 -0.0141
 3146SOL    HW121074   0.398   1.395  11.696 -0.0767  0.8237 -0.1362
 3146SOL    HW221075   0.283   1.477  11.703 -1.3683  0.1059 -0.3507
 3147SOL     OW21076   4.547   4.451   6.234  0.0975  0.2159 -0.3402
 3147SOL    HW121077   4.493   4.388   6.185  0.9908  0.0355 -1.0872
 3147SOL    HW221078   4.636   4.420   6.219  0.0225  0.9185 -2.2746
 3148SOL     OW21079   0.479   0.244   2.617 -0.2850  0.1896  0.3946
 3148SOL    HW121080   0.413   0.304   2.582 -0.7131 -0.1934  0.5349
 3148SOL    HW221081   0.461   0.165   2.565 -0.2703  1.8638 -2.1390
 3149SOL     OW21082   0.328   0.550   8.637  0.6560 -0.2241  0.0924
 3149SOL    HW121083   0.265   0.617   8.662 -0.4906 -0.7015 -1.4667
 3149SOL    HW221084   0.267   0.479   8.657 -1.0919  1.2438 -0.0268
 3150SOL     OW21085   1.806   1.563   2.451  0.2913  0.4804  0.5673
 3150SOL    HW121086   1.845   1.521   2.528 -0.4246 -1.2636 -0.0286
 3150SOL    HW221087   1.740   1.500   2.423  1.4849 -0.8092  0.6569
 3151SOL     OW21088   1.795   1.824   3.572  0.2142  0.3083  0.0053
 3151SOL    HW121089   1.857   1.865   3.512  0.5364  0.1667  0.2401
 3151SOL    HW221090   1.781   1.735   3.539 -2.4930  1.2706 -1.4752
 3152SOL     OW21091   3.096   1.968   2.165  0.0494  0.4922  0.0394
 3152SOL    HW121092   3.111   1.913   2.088  1.1800 -0.2668  0.8155
 3152SOL    HW221093   3.025   2.024   2.132  0.4840  0.1656 -1.4393
 3153SOL     OW21094   2.668   0.425   4.581  0.4768  0.3867 -0.0065
 3153SOL    HW121095   2.706   0.492   4.637  0.2729  0.6285 -0.1623
 3153SOL    HW221096   2.581   0.462   4.571  0.5318  0.4130 -0.3889
 3154SOL     OW21097   1.593   0.775   1.444  0.1404 -0.5224  0.4012
 3154SOL    HW121098   1.524   0.711   1.461 -0.1922 -0.6199 -1.3172
 3154SOL    HW221099   1.667   0.718   1.421  1.5874  0.9197  1.4385
 3155SOL     OW21100   0.599   2.454  10.062  0.0684 -0.4778 -0.0382
 3155SOL    HW121101   0.604   2.517  10.134  0.6012  0.3603 -0.8026
 3155SOL    HW221102   0.544   2.387  10.102  0.0532 -0.4881 -0.0764
 3156SOL     OW21103   4.249   2.466  16.543  0.3922  0.4431  0.0837
 3156SOL    HW121104   4.258   2.525  16.468  0.9604 -1.3318 -1.2449
 3156SOL    HW221105   4.229   2.524  16.616 -1.2590 -0.4795  0.3703
 3157SOL     OW21106   3.848   2.443   7.855 -0.0074 -0.1293 -0.5532
 3157SOL    HW121107   3.866   2.380   7.924  0.9888  1.8321  0.9870
 3157SOL    HW221108   3.752   2.446   7.853 -0.0808 -1.3383  1.9706
 3158SOL     OW21109   1.651   1.835   2.350 -0.6667  0.3405 -0.3064
 3158SOL    HW121110   1.741   1.815   2.375  0.3384  0.7521 -3.6169
 3158SOL    HW221111   1.616   1.746   2.346 -1.2561  0.6159 -1.1853
 3159SOL     OW21112   0.848   4.422  14.342  0.4484  0.3800 -0.2512
 3159SOL    HW121113   0.823   4.330  14.334  0.2369  0.1061  3.5462
 3159SOL    HW221114   0.871   4.431  14.435  1.4135 -1.6003 -0.3051
 3160SOL     OW21115   0.666   4.532   8.151  0.2633  0.4813 -0.4327
 3160SOL    HW121116   0.678   4.444   8.115 -0.3544 -0.1955  1.0374
 3160SOL    HW221117   0.734   4.583   8.106  2.0262 -2.8778 -1.5560
 3161SOL     OW21118   3.033   2.358   3.472  0.5099 -0.3639  0.1619
 3161SOL    HW121119   3.108   2.403   3.432 -0.2094  0.4429 -0.2703
 3161SOL    HW221120   3.011   2.424   3.538  0.0248  0.1841 -0.5477
 3162SOL     OW21121   3.818   0.803   4.223 -0.5616 -0.3403  0.0301
 3162SOL    HW121122   3.846   0.877   4.278 -2.2415  0.8847 -0.7850
 3162SOL    HW221123   3.869   0.735   4.268 -1.5735 -2.1117 -1.4846
 3163SOL     OW21124   0.574   4.606   3.944 -0.1676  0.2247 -0.7073
 3163SOL    HW121125   0.503   4.543   3.952 -1.8921  2.3178  0.2132
 3163SOL    HW221126   0.645   4.558   3.988  0.9360  3.4655  1.0469
 3164SOL     OW21127   0.787   3.514   4.574  0.2819  0.2342  0.1520
 3164SOL    HW121128   0.773   3.455   4.648  2.3114  0.0121  0.3498
 3164SOL    HW221129   0.732   3.469   4.509  1.0027  0.5607 -0.6758
 3165SOL     OW21130   4.379   0.136   0.837  0.6999 -0.1473 -0.2570
 3165SOL    HW121131   4.417   0.221   0.813 -0.9226  0.7029  0.2200
 3165SOL    HW221132   4.455   0.078   0.838 -0.1515 -1.2137  2.3864
 3166SOL     OW21133   3.211   0.924   2.675  0.7131 -0.4451  0.0939
 3166SOL    HW121134   3.144   0.979   2.715  0.6513 -0.0628 -0.5324
 3166SOL    HW221135   3.289   0.960   2.717  0.0267  0.6160  0.4737
 3167SOL     OW21136   0.606   0.163   3.226 -0.3505 -0.4278  0.2492
 3167SOL    HW121137   0.614   0.209   3.309 -0.2597 -0.3622  0.2040
 3167SOL    HW221138   0.538   0.101   3.251  1.2918 -2.4490 -0.2927
 3168SOL     OW21139   0.400   0.222   6.928  0.2885 -0.4536 -0.6712
 3168SOL    HW121140   0.462   0.294   6.921 -3.4517  2.7233 -1.1380
 3168SOL    HW221141   0.353   0.233   6.845 -0.5351  0.3329 -0.1018
 3169SOL     OW21142   3.519   3.847  14.191 -0.0801 -0.0027  0.3674
 3169SOL    HW121143   3.606   3.831  14.227  0.5745  1.0610 -0.7798
 3169SOL    HW221144   3.494   3.756  14.173  0.7297 -0.4606  1.5597
 3170SOL     OW21145   3.494   2.090   5.347 -0.3823  0.3209  0.2374
 3170SOL    HW121146   3.502   2.133   5.432 -0.1030  0.0542  0.3491
 3170SOL    HW221147   3.556   2.017   5.348 -2.0381 -1.0996 -1.0277
 3171SOL     OW21148   1.282   0.514  13.917  0.1809 -0.3609  0.0903
 3171SOL    HW121149   1.326   0.520  14.002  1.5059  3.0947 -0.8434
 3171SOL    HW221150   1.328   0.578  13.863 -0.9598  1.2470  1.0017
 3172SOL     OW21151   0.125   1.517   2.328  0.3964  0.1216  0.3800
 3172SOL    HW121152   0.206   1.568   2.327 -0.3065  1.1700 -3.5207
 3172SOL    HW221153   0.068   1.583   2.290  0.2418 -0.2347 -0.0130
 3173SOL     OW21154   0.601   3.685   6.215 -0.1275  0.0984  0.0760
 3173SOL    HW121155   0.588   3.715   6.305  0.0523  0.9359 -0.1814
 3173SOL    HW221156   0.510   3.672   6.187  0.2123 -1.7234 -0.1800
 3174SOL     OW21157   3.338   0.203   1.475  0.4582 -0.1502 -0.0998
 3174SOL    HW121158   3.376   0.121   1.508  3.0865  1.5291  1.0752
 3174SOL    HW221159   3.330   0.171   1.386  2.2642 -1.3500  0.1673
 3175SOL     OW21160   0.251   4.626   8.667  0.2800  0.5101  0.1917
 3175SOL    HW121161   0.171   4.618   8.615  1.4363 -0.6484 -1.3749
 3175SOL    HW221162   0.212   4.667   8.744  1.8016  1.8198  0.2648
 3176SOL     OW21163   3.812   2.467   0.127  0.1630 -0.1791 -0.3600
 3176SOL    HW121164   3.820   2.372   0.115 -0.5846 -0.0774 -1.6969
 3176SOL    HW221165   3.718   2.469   0.141  0.3896 -0.4793  1.1536
 3177SOL     OW21166   3.038   1.236   5.427  0.6412 -0.3564 -0.0277
 3177SOL    HW121167   3.059   1.226   5.334 -0.0783 -0.3697 -0.1922
 3177SOL    HW221168   3.121   1.225   5.473  0.9141 -2.1351 -0.9331
 3178SOL     OW21169   4.588   2.322  10.423 -0.1113  0.3935  0.1458
 3178SOL    HW121170   4.562   2.230  10.431 -1.9031  0.9753  0.9995
 3178SOL    HW221171   4.523   2.374  10.470 -1.4822 -1.2812  0.0949
 3179SOL     OW21172   0.387   1.120   1.169  0.3343 -0.3721  0.1106
 3179SOL    HW121173   0.468   1.070   1.182  0.2751 -0.8353 -1.2832
 3179SOL    HW221174   0.364   1.129   1.261 -0.5538 -4.0273  0.2568
 3180SOL     OW21175   1.102   0.575   8.056  0.0159 -0.0069 -0.0432
 3180SOL    HW121176   1.130   0.489   8.087  1.6661  1.2441  1.9596
 3180SOL    HW221177   1.022   0.576   8.109  0.0185 -1.0769 -0.0130
 3181SOL     OW21178   4.191   2.000   4.805 -0.2880  0.6927  0.1808
 3181SOL    HW121179   4.168   2.086   4.840 -0.2679  0.5118  0.6441
 3181SOL    HW221180   4.184   2.016   4.711 -1.4699 -0.8984 -0.0237
 3182SOL     OW21181   2.817   1.748   1.809 -0.6125  0.1504 -0.2630
 3182SOL    HW121182   2.738   1.695   1.800 -0.3212 -0.4392  0.6639
 3182SOL    HW221183   2.863   1.708   1.884  0.3611 -2.3537 -2.1854
 3183SOL     OW21184   3.901   0.074   6.253 -0.3196  0.0440  0.0725
 3183SOL    HW121185   3.830   0.061   6.316 -1.2524 -2.0983 -1.4513
 3183SOL    HW221186   3.965   0.014   6.292 -2.1050 -1.7542  0.2177
 3184SOL     OW21187   1.292   4.262   4.217 -0.1652 -0.1605 -0.5337
 3184SOL    HW121188   1.294   4.237   4.310  2.0891 -2.9163 -1.3168
 3184SOL    HW221189   1.333   4.348   4.216  0.6582 -0.5474  0.0178
 3185SOL     OW21190   3.146   4.048   4.224  0.5051 -0.6385  0.0264
 3185SOL    HW121191   3.175   4.126   4.177 -0.9097 -1.9699 -3.0148
 3185SOL    HW221192   3.112   3.986   4.160 -0.1640  0.8007 -1.0053
 3186SOL     OW21193   2.678   3.132  15.327  1.1948  0.2860 -0.4659
 3186SOL    HW121194   2.668   3.205  15.388 -1.2744 -0.6162  0.2170
 3186SOL    HW221195   2.615   3.068  15.360  0.3043  1.4996  0.1546
 3187SOL     OW21196   2.944   0.466  14.968  0.1513  0.4824  0.2727
 3187SOL    HW121197   2.894   0.472  14.887  0.0725  0.3910  0.3155
 3187SOL    HW221198   3.022   0.515  14.940  0.7987 -0.9122 -0.3493
 3188SOL     OW21199   3.141   2.413  17.136  0.0340 -0.1669 -0.5610
 3188SOL    HW121200   3.224   2.438  17.177 -0.9879 -0.6866  1.8305
 3188SOL    HW221201   3.111   2.486  17.082  1.6162  0.8669 -0.0492
 3189SOL     OW21202   2.347   2.388   4.068 -0.2060 -0.0031 -0.7966
 3189SOL    HW121203   2.292   2.450   4.019 -1.3975 -1.7566 -1.6850
 3189SOL    HW221204   2.295   2.365   4.145  2.3751  0.3021  1.0047
 3190SOL     OW21205   1.054   1.704  11.284  0.3709  0.0570  0.0547
 3190SOL    HW121206   1.043   1.609  11.278  1.8075  0.0195 -1.8233
 3190SOL    HW221207   1.031   1.727  11.194 -1.6216  0.0233  0.5482
 3191SOL     OW21208   3.734   1.682   4.911  0.2235 -0.4988  0.2509
 3191SOL    HW121209   3.716   1.674   5.005 -1.4884 -0.4556 -0.0774
 3191SOL    HW221210   3.698   1.769   4.895 -1.8655 -1.0923  1.7258
 3192SOL     OW21211   1.407   3.975   6.483  0.1172  0.4477 -0.0570
 3192SOL    HW121212   1.401   4.069   6.498  3.1899  0.2932  2.1391
 3192SOL    HW221213   1.382   3.976   6.391  0.6482  2.5720 -0.1652
 3193SOL     OW21214   1.643   4.528   4.977  0.3118  0.0925 -0.6190
 3193SOL    HW121215   1.685   4.559   5.058 -0.5249 -0.3356 -0.0227
 3193SOL    HW221216   1.723   4.510   4.928  0.7601 -1.4352  0.6695
 3194SOL     OW21217   1.964   0.580   7.827  0.0891 -0.4937 -0.1737
 3194SOL    HW121218   1.901   0.526   7.779 -0.5770 -0.0259  0.1794
 3194SOL    HW221219   2.035   0.517   7.835 -0.2374 -0.8824 -0.3304
 3195SOL     OW21220   2.487   1.971   9.971  0.3244  0.2969  0.3464
 3195SOL    HW121221   2.453   2.046  10.019  0.7314  2.5440 -2.8973
 3195SOL    HW221222   2.491   1.911  10.046 -0.1445  1.0917  1.0096
 3196SOL     OW21223   3.132   3.123  12.316  0.1661 -0.2107  0.1962
 3196SOL    HW121224   3.148   3.042  12.366 -1.2969 -2.0959 -2.3639
 3196SOL    HW221225   3.036   3.131  12.319  0.2253  0.7073 -0.6709
 3197SOL     OW21226   3.301   4.592   1.303 -0.3468  0.5198 -0.5737
 3197SOL    HW121227   3.242   4.617   1.231  0.0780  0.0011 -1.0972
 3197SOL    HW221228   3.383   4.618   1.260 -0.6851  3.6662  0.7222
 3198SOL     OW21229   0.422   1.415   7.643  0.1423  0.0440 -0.0479
 3198SOL    HW121230   0.357   1.379   7.582 -0.1284  0.5885 -0.0818
 3198SOL    HW221231   0.466   1.478   7.585 -0.8273 -0.6639 -1.5542
 3199SOL     OW21232   3.204   2.946   4.727 -0.3533 -0.3608  0.1420
 3199SOL    HW121233   3.241   2.946   4.638  1.0186  1.2851  0.7045
 3199SOL    HW221234   3.161   3.031   4.728  0.0768 -0.1264 -0.7001
 3200SOL     OW21235   3.367   0.300   4.734  0.5413  0.0930  0.6856
 3200SOL    HW121236   3.328   0.356   4.667 -1.5546 -0.0482  1.7743
 3200SOL    HW221237   3.293   0.279   4.792  0.3263 -3.1218 -0.7633
 3201SOL     OW21238   4.386   3.321   1.045  0.0047  0.6065 -0.0091
 3201SOL    HW121239   4.477   3.340   1.070  0.1421 -0.3527  0.2176
 3201SOL    HW221240   4.335   3.343   1.122 -1.8148 -1.5107 -0.6130
 3202SOL     OW21241   1.695   2.233   1.376  0.3172 -0.1554 -0.0360
 3202SOL    HW121242   1.629   2.283   1.423 -0.9654 -0.5579 -1.3927
 3202SOL    HW221243   1.771   2.232   1.434  0.4724 -0.1652 -0.2394
 3203SOL     OW21244   1.268   0.467   6.681  0.1024 -0.0799  0.0912
 3203SOL    HW121245   1.295   0.377   6.664  0.2974 -0.3293  1.6552
 3203SOL    HW221246   1.306   0.485   6.767 -0.6920  0.0825  0.4124
 3204SOL     OW21247   4.215   3.037   9.025  0.5782 -0.7425 -0.2452
 3204SOL    HW121248   4.241   2.998   8.942  0.9595  3.2465 -2.0139
 3204SOL    HW221249   4.210   3.126   8.990 -1.4279 -0.1121  1.6471
 3205SOL     OW21250   2.077   2.553  12.314  0.0255  0.4694  0.3904
 3205SOL    HW121251   2.096   2.532  12.405 -0.8852 -0.5775  0.3242
 3205SOL    HW221252   1.991   2.594  12.318 -0.0567  0.5261 -2.1005
 3206SOL     OW21253   1.189   1.502  17.264 -0.4347 -0.2339 -0.1748
 3206SOL    HW121254   1.267   1.557  17.257 -0.1688 -0.5869  0.0241
 3206SOL    HW221255   1.166   1.520  17.355  1.3019  2.5224 -0.2553
 3207SOL     OW21256   3.504   1.157   3.298  1.0456 -0.8160 -0.1636
 3207SOL    HW121257   3.409   1.147   3.304  0.9406 -0.0970 -0.6273
 3207SOL    HW221258   3.525   1.202   3.380  0.0658  2.0102 -1.4831
 3208SOL     OW21259   4.541   4.198  12.417  0.2066 -0.4142 -0.0878
 3208SOL    HW121260   4.477   4.211  12.346  1.7086  1.0256 -1.1643
 3208SOL    HW221261   4.576   4.113  12.388 -0.8914 -0.2636 -1.8843
 3209SOL     OW21262   2.814   0.178  17.174  0.0977  0.7369 -0.3058
 3209SOL    HW121263   2.846   0.152  17.088 -0.5519  0.0503 -0.3377
 3209SOL    HW221264   2.830   0.272  17.182 -0.2579  0.7126  0.8106
 3210SOL     OW21265   3.218   1.327   7.169  0.6737  0.4738 -0.0436
 3210SOL    HW121266   3.193   1.241   7.135 -0.4315  1.1631 -0.9584
 3210SOL    HW221267   3.310   1.305   7.185  0.5001  0.7356  1.3182
 3211SOL     OW21268   1.329   0.104   8.733  0.4498  0.0273 -0.2655
 3211SOL    HW121269   1.289   0.050   8.800 -1.2740  1.0380 -0.4778
 3211SOL    HW221270   1.415   0.062   8.725  0.3002  0.2653 -3.1156
 3212SOL     OW21271   3.811   1.014   3.269 -0.0206  0.8543 -0.1640
 3212SOL    HW121272   3.890   1.027   3.215  0.2704 -2.8661 -0.6244
 3212SOL    HW221273   3.764   0.951   3.214  1.2225 -1.3278  1.3029
 3213SOL     OW21274   0.494   2.279   7.994  0.2112 -0.7111  0.0169
 3213SOL    HW121275   0.564   2.227   7.954  0.9117 -1.1506  1.8189
 3213SOL    HW221276   0.423   2.288   7.929 -0.2318  0.8258  0.7212
 3214SOL     OW21277   1.667   0.800  15.332  0.1046  0.1456 -0.5400
 3214SOL    HW121278   1.660   0.885  15.376 -0.2509 -0.0305 -0.2560
 3214SOL    HW221279   1.725   0.829  15.262 -0.5384  0.4676 -0.9398
 3215SOL     OW21280   2.539   2.774   2.542  0.2768 -0.3171  0.4961
 3215SOL    HW121281   2.625   2.736   2.561  1.5716  2.3424 -0.0528
 3215SOL    HW221282   2.490   2.712   2.488 -0.2042  0.3174  0.2067
 3216SOL     OW21283   0.595   3.854  12.476  0.2852 -0.2486 -0.8896
 3216SOL    HW121284   0.637   3.852  12.562  0.0383 -0.2595 -0.7699
 3216SOL    HW221285   0.652   3.787  12.439  0.3151 -0.5493 -0.3039
 3217SOL     OW21286   1.778   2.570  14.321 -0.1901  0.1094  0.2053
 3217SOL    HW121287   1.815   2.545  14.236  1.5339 -1.3349  1.3866
 3217SOL    HW221288   1.822   2.654  14.334 -1.1427  0.3605  1.7260
 3218SOL     OW21289   1.268   4.524   8.403 -0.1575  0.0836  0.0855
 3218SOL    HW121290   1.272   4.448   8.462  2.7204 -0.2379 -0.5110
 3218SOL    HW221291   1.363   4.535   8.395 -0.1859  0.2698  0.0249
 3219SOL     OW21292   4.152   0.458  16.036 -0.1490 -0.0947 -0.2332
 3219SOL    HW121293   4.126   0.459  16.129 -0.8779  2.7595 -0.4618
 3219SOL    HW221294   4.247   0.454  16.047  0.2847  0.2032 -3.9770
 3220SOL     OW21295   0.475   4.055   0.593  0.2378  0.0773 -0.3851
 3220SOL    HW121296   0.564   4.083   0.616  0.7911 -0.8542 -1.4114
 3220SOL    HW221297   0.473   3.970   0.638 -0.1044  0.6232  0.6362
 3221SOL     OW21298   0.634   4.238  13.047 -0.6806 -0.2526  0.2178
 3221SOL    HW121299   0.636   4.229  12.952  1.9762 -2.3205  0.4459
 3221SOL    HW221300   0.594   4.152  13.063  1.1162 -1.4626 -1.8097
 3222SOL     OW21301   4.229   2.394   7.668  0.8027  0.1330 -0.1598
 3222SOL    HW121302   4.223   2.333   7.741  0.4268 -0.4599 -0.6840
 3222SOL    HW221303   4.276   2.342   7.603 -2.6323 -2.3922 -0.6172
 3223SOL     OW21304   2.265   0.910  15.336  0.2572 -0.2833 -0.2834
 3223SOL    HW121305   2.264   0.830  15.283  0.7586  0.7928 -1.9409
 3223SOL    HW221306   2.191   0.953  15.293 -0.8462 -1.7231  0.1806
 3224SOL     OW21307   3.844   3.094  16.762  0.6042  0.4276  0.0290
 3224SOL    HW121308   3.843   3.061  16.852 -2.0513  1.3964  0.3574
 3224SOL    HW221309   3.758   3.136  16.757 -0.2341 -1.2113  0.5334
 3225SOL     OW21310   4.716   4.177   4.368 -0.6659 -0.0686 -0.4328
 3225SOL    HW121311   0.008   4.202   4.455 -0.7315  1.4684 -0.8476
 3225SOL    HW221312   4.723   4.084   4.387  0.7483  0.1651  0.2451
 3226SOL     OW21313   2.438   4.220   4.411 -0.0782  0.2849 -0.0172
 3226SOL    HW121314   2.515   4.244   4.463 -0.4084  0.0986  0.5508
 3226SOL    HW221315   2.392   4.162   4.471 -1.6181  1.5611  0.0268
 3227SOL     OW21316   2.712   0.200   6.375 -0.2827 -0.6044  0.1385
 3227SOL    HW121317   2.628   0.245   6.373 -0.7887 -1.5708  0.0988
 3227SOL    HW221318   2.685   0.117   6.414  3.1921 -0.9501  1.8484
 3228SOL     OW21319   2.172   0.567  16.926 -0.3549  0.2436 -0.4036
 3228SOL    HW121320   2.145   0.483  16.963  0.5315  0.9088  1.7465
 3228SOL    HW221321   2.116   0.578  16.849  0.8253 -0.2002 -1.3234
 3229SOL     OW21322   3.524   2.233   7.831  0.5471 -0.4735 -0.3655
 3229SOL    HW121323   3.581   2.186   7.893 -0.4175  0.8080  1.5172
 3229SOL    HW221324   3.487   2.166   7.775 -0.5115 -1.0165  0.9789
 3230SOL     OW21325   3.548   1.485  16.254  0.2743 -0.0823 -0.0570
 3230SOL    HW121326   3.507   1.486  16.341  2.0689 -3.7435  0.8364
 3230SOL    HW221327   3.598   1.566  16.255  0.4112 -0.1706  0.2179
 3231SOL     OW21328   2.154   1.044  10.921  0.8098 -0.2925 -0.7941
 3231SOL    HW121329   2.171   1.020  11.012  3.8866 -0.5694 -1.4424
 3231SOL    HW221330   2.191   0.967  10.877 -0.2499 -0.5194 -1.2995
 3232SOL     OW21331   4.667   2.028   7.336 -0.6558  0.1099  0.4862
 3232SOL    HW121332   4.626   2.007   7.420 -1.5017  1.6834  0.4764
 3232SOL    HW221333   0.007   2.069   7.366 -0.3963  0.8223 -1.1826
 3233SOL     OW21334   4.552   0.637  15.454 -0.1015 -0.4893 -0.4550
 3233SOL    HW121335   4.532   0.668  15.366  0.8103 -2.4022 -1.3184
 3233SOL    HW221336   4.594   0.716  15.489  2.2428 -2.4839  1.1592
 3234SOL     OW21337   0.603   4.396   2.594  0.3994 -0.9024 -0.1053
 3234SOL    HW121338   0.677   4.370   2.647  0.6987  1.5319  0.6783
 3234SOL    HW221339   0.594   4.487   2.623  0.9373 -0.9418  0.1826
 3235SOL     OW21340   0.836   1.772   4.874 -0.0134  0.1101  0.2879
 3235SOL    HW121341   0.922   1.753   4.836 -0.4266 -1.0809 -0.0635
 3235SOL    HW221342   0.829   1.705   4.943 -0.0924 -0.5937 -0.3991
 3236SOL     OW21343   0.884   4.090   3.520  0.0683 -0.2653  0.0231
 3236SOL    HW121344   0.928   4.152   3.578  0.4114 -0.6903  0.2166
 3236SOL    HW221345   0.813   4.147   3.492  1.7261 -0.0158 -3.6951
 3237SOL     OW21346   3.341   0.171   1.187  0.3864  0.1682 -0.2201
 3237SOL    HW121347   3.281   0.099   1.165 -0.4173 -0.2630  3.4031
 3237SOL    HW221348   3.335   0.215   1.102 -1.3026 -1.4096 -0.9272
 3238SOL     OW21349   3.571   4.632   7.640 -0.1069  0.2977 -0.4309
 3238SOL    HW121350   3.514   4.555   7.627 -0.5804  0.2286  2.0708
 3238SOL    HW221351   3.614   4.641   7.555 -0.7265  0.1168 -0.7677
 3239SOL     OW21352   2.240   4.127   4.125  0.0999 -0.1818 -0.4213
 3239SOL    HW121353   2.298   4.100   4.053  0.9034 -0.0420  0.1733
 3239SOL    HW221354   2.165   4.072   4.106 -0.2963  0.4717 -0.7638
 3240SOL     OW21355   2.019   1.544   0.075 -0.6447  0.6632  0.0848
 3240SOL    HW121356   2.111   1.553   0.100 -0.0260  0.0701 -1.9234
 3240SOL    HW221357   1.972   1.543   0.158  0.0797  1.2928  0.5025
 3241SOL     OW21358   0.651   4.027   7.020 -0.1728  0.0629 -0.1006
 3241SOL    HW121359   0.718   4.017   7.087 -0.4327 -0.9775  0.0073
 3241SOL    HW221360   0.711   4.069   6.957 -0.4691  0.7563  0.0836
 3242SOL     OW21361   3.080   0.600  15.689 -0.2572  0.4417  0.2573
 3242SOL    HW121362   3.110   0.666  15.626 -0.4945 -0.3632 -0.6899
 3242SOL    HW221363   3.068   0.656  15.766 -0.3641  1.8608 -0.7874
 3243SOL     OW21364   2.980   1.104   3.110 -0.3732 -0.1005 -0.7442
 3243SOL    HW121365   3.039   1.038   3.075 -0.8611 -1.8557  1.7753
 3243SOL    HW221366   3.005   1.103   3.202  0.4746  0.1288 -0.9683
 3244SOL     OW21367   2.259   3.695  14.088  0.1596  0.7175 -0.2136
 3244SOL    HW121368   2.251   3.695  13.993  2.0266  0.1293 -0.3720
 3244SOL    HW221369   2.283   3.606  14.114 -0.0013 -0.0442 -2.7138
 3245SOL     OW21370   0.978   3.362  12.716 -0.4605  0.0710  0.1409
 3245SOL    HW121371   1.064   3.321  12.721  0.1228  1.5533  2.4687
 3245SOL    HW221372   0.997   3.455  12.702 -1.2011  0.1014 -0.6750
 3246SOL     OW21373   0.141   1.388   5.007 -0.0263  0.4383 -0.2767
 3246SOL    HW121374   0.063   1.341   4.978  0.2111 -0.5151  0.6177
 3246SOL    HW221375   0.141   1.394   5.103 -0.0938 -0.9498 -0.1923
 3247SOL     OW21376   0.897   2.121  12.626 -0.0909  0.4012 -0.3376
 3247SOL    HW121377   0.893   2.130  12.530  0.2929  2.3702 -0.1818
 3247SOL    HW221378   0.986   2.093  12.644 -0.8455 -2.2782 -0.8655
 3248SOL     OW21379   2.806   0.250   6.722  0.1700  0.2379  0.0763
 3248SOL    HW121380   2.754   0.170   6.711 -1.0680  1.0226  0.2911
 3248SOL    HW221381   2.727   0.301   6.741 -1.2547 -1.6436 -0.7559
 3249SOL     OW21382   1.938   0.876  15.989  0.4224  0.1259 -0.5620
 3249SOL    HW121383   1.879   0.909  16.056  0.5183  1.4805 -1.1466
 3249SOL    HW221384   1.882   0.883  15.912 -1.1136  2.0915  0.7382
 3250SOL     OW21385   1.190   3.923   9.049 -0.4270  0.2016 -0.1499
 3250SOL    HW121386   1.132   3.935   8.974 -1.2249  1.3278  0.6333
 3250SOL    HW221387   1.134   3.867   9.102  0.3282 -1.2568 -0.9199
 3251SOL     OW21388   2.527   2.032   0.493 -0.2042  0.5657 -0.4234
 3251SOL    HW121389   2.551   1.940   0.480 -1.4235 -0.2112  2.9213
 3251SOL    HW221390   2.451   2.049   0.438 -1.8081  0.1293  1.6621
 3252SOL     OW21391   0.478   4.586   0.397  0.5627 -0.1966 -0.2542
 3252SOL    HW121392   0.502   4.667   0.352  0.5684  0.2335  0.5177
 3252SOL    HW221393   0.394   4.604   0.438  0.5587 -0.8226  0.0252
 3253SOL     OW21394   1.521   1.505   5.538  0.0684  0.0864  0.1569
 3253SOL    HW121395   1.460   1.432   5.532 -0.5262  0.7128 -1.3635
 3253SOL    HW221396   1.481   1.578   5.491  0.4037 -2.3947 -4.0509
 3254SOL     OW21397   2.113   2.932   1.112  0.0477  0.7773  0.1230
 3254SOL    HW121398   2.114   2.854   1.057 -0.6640  1.3530 -0.7222
 3254SOL    HW221399   2.037   2.926   1.171 -1.3524 -1.3264 -1.9210
 3255SOL     OW21400   1.921   1.931   6.975 -0.7050  0.2615  0.5013
 3255SOL    HW121401   1.971   1.986   7.035 -1.0879 -0.5405  1.5495
 3255SOL    HW221402   1.980   1.904   6.905 -0.4048 -0.7448  1.1426
 3256SOL     OW21403   2.186   3.332   8.625  0.0612  0.0256  0.0877
 3256SOL    HW121404   2.192   3.385   8.546  2.0163  2.4676  1.8955
 3256SOL    HW221405   2.098   3.360   8.651  0.0557  0.8310 -0.8105
 3257SOL     OW21406   0.171   4.181   3.666  0.5036  0.0094 -0.4455
 3257SOL    HW121407   0.174   4.106   3.607 -0.3285 -0.2025 -0.2176
 3257SOL    HW221408   0.151   4.136   3.749 -1.4110 -0.9161 -1.4127
 3258SOL     OW21409   2.864   3.345  16.188  0.4519 -0.1195 -0.0030
 3258SOL    HW121410   2.912   3.351  16.271  0.6821  0.0753 -0.1475
 3258SOL    HW221411   2.921   3.293  16.131 -1.3140  1.7051 -3.4548
 3259SOL     OW21412   4.222   3.640   6.569 -0.1069 -0.1089 -0.5220
 3259SOL    HW121413   4.196   3.577   6.502  1.8427 -0.3045 -1.0730
 3259SOL    HW221414   4.275   3.701   6.518  1.6589  0.9728  2.6097
 3260SOL     OW21415   1.463   1.017   1.450  0.2583  0.3202  0.6568
 3260SOL    HW121416   1.507   0.984   1.529  1.4549  1.5384  0.4915
 3260SOL    HW221417   1.479   0.937   1.400  0.7451 -0.4901  2.0985
 3261SOL     OW21418   4.739   3.573  14.796  0.2064 -0.2587 -0.4230
 3261SOL    HW121419   0.078   3.527  14.825  0.3365 -0.1732 -0.6469
 3261SOL    HW221420   0.002   3.642  14.862 -1.4835 -0.3396 -0.2598
 3262SOL     OW21421   2.370   0.800  11.659  0.2001  0.4029  0.2998
 3262SOL    HW121422   2.439   0.736  11.672  0.2846  0.1560 -1.3801
 3262SOL    HW221423   2.315   0.766  11.729 -0.8710 -0.4997 -0.9902
 3263SOL     OW21424   2.354   0.230  13.751 -0.1593 -0.1570  0.0642
 3263SOL    HW121425   2.360   0.136  13.733 -0.0413 -0.4722  1.7271
 3263SOL    HW221426   2.302   0.222  13.831 -0.3999 -2.2230 -0.2913
 3264SOL     OW21427   0.322   3.171  11.473 -0.3226  0.0279 -0.2390
 3264SOL    HW121428   0.320   3.111  11.547 -1.0769  0.9782  0.5037
 3264SOL    HW221429   0.379   3.133  11.406 -0.1412  0.9436 -0.6033
 3265SOL     OW21430   3.006   1.000   7.723 -0.1927  0.1782 -0.3290
 3265SOL    HW121431   2.931   1.058   7.734 -0.5004 -0.3622  0.4002
 3265SOL    HW221432   3.072   1.061   7.756  0.0190 -0.0828 -0.2650
 3266SOL     OW21433   4.665   2.946  17.287  0.3967 -0.0395 -0.0583
 3266SOL    HW121434   4.618   3.015  17.240  1.3521  1.8819  1.8274
 3266SOL    HW221435   0.009   2.990  17.281  0.4370 -0.0900  0.1635
 3267SOL     OW21436   2.059   2.019  14.805 -0.4242 -0.1728 -0.2932
 3267SOL    HW121437   1.989   2.075  14.838 -0.3709 -0.4760  0.3254
 3267SOL    HW221438   2.052   2.038  14.711 -0.2640  3.0096  0.3401
 3268SOL     OW21439   0.970   2.211   4.106 -0.0160 -0.3028 -0.0331
 3268SOL    HW121440   0.877   2.195   4.088 -0.0710 -0.1824  0.1439
 3268SOL    HW221441   1.006   2.247   4.025  2.4188 -1.2271  0.6254
 3269SOL     OW21442   4.672   2.254   1.099 -0.0397  0.4085 -0.4430
 3269SOL    HW121443   4.692   2.217   1.013 -3.3566 -0.2552 -0.9614
 3269SOL    HW221444   4.734   2.327   1.104 -0.9421  1.2437 -1.5268
 3270SOL     OW21445   2.075   0.752   6.003  0.2216  0.5824  0.2245
 3270SOL    HW121446   1.983   0.758   6.028  0.3617  3.0120  0.1054
 3270SOL    HW221447   2.075   0.788   5.914  2.2581 -0.0310 -0.0393
 3271SOL     OW21448   0.305   1.048  10.003  0.0847  0.4103  0.0212
 3271SOL    HW121449   0.305   1.138   9.970  0.5668  0.2822 -0.3349
 3271SOL    HW221450   0.214   1.039  10.029  0.4990 -0.7830  1.0357
 3272SOL     OW21451   4.115   4.162  16.982 -0.2843  0.3722  0.0670
 3272SOL    HW121452   4.176   4.110  17.036 -0.8999  0.7759  1.1493
 3272SOL    HW221453   4.148   4.137  16.896 -0.5520 -1.3768  0.4776
 3273SOL     OW21454   2.954   3.538   0.978  0.4311  0.2391 -0.8937
 3273SOL    HW121455   2.912   3.452   0.980  0.4276  0.2030 -2.3022
 3273SOL    HW221456   3.027   3.521   0.917 -0.6972 -2.0651 -1.6042
 3274SOL     OW21457   3.626   1.176   4.706  0.3323 -0.2636 -0.2714
 3274SOL    HW121458   3.659   1.153   4.792 -0.5694 -1.3283 -0.2126
 3274SOL    HW221459   3.658   1.266   4.715  0.7959 -0.5636  1.0135
 3275SOL     OW21460   4.485   2.024   6.441 -0.0528 -0.3735  0.1421
 3275SOL    HW121461   4.523   2.039   6.527  0.0527 -0.9814  0.2069
 3275SOL    HW221462   4.536   1.955   6.397 -0.5660 -0.4771 -0.2926
 3276SOL     OW21463   1.745   3.916   1.519  0.6142 -0.0183  0.3416
 3276SOL    HW121464   1.679   3.944   1.455  0.1370 -0.1324  0.7894
 3276SOL    HW221465   1.817   3.890   1.462  0.7796  0.3950  0.3655
 3277SOL     OW21466   1.651   3.208  10.548 -0.1053 -0.4688  0.1527
 3277SOL    HW121467   1.648   3.113  10.551 -0.1981 -0.5835 -3.9939
 3277SOL    HW221468   1.571   3.228  10.498 -0.9307 -0.4761  1.4658
 3278SOL     OW21469   4.455   3.071   2.603  0.2636  0.6875  0.6968
 3278SOL    HW121470   4.532   3.052   2.550  0.5351  2.5001  0.4731
 3278SOL    HW221471   4.480   3.062   2.695 -1.7211  5.6913  1.7231
 3279SOL     OW21472   2.962   0.566   2.920  0.1964 -0.3428 -0.2364
 3279SOL    HW121473   2.953   0.614   2.838  1.9938 -0.5761 -0.5790
 3279SOL    HW221474   3.026   0.496   2.901 -0.5328 -1.3887  1.1132
 3280SOL     OW21475   4.044   2.180   7.347 -0.0078 -0.3254  0.2952
 3280SOL    HW121476   3.965   2.128   7.329  0.3895 -0.5629 -0.7650
 3280SOL    HW221477   4.071   2.142   7.431  1.1700  1.1736  0.6093
 3281SOL     OW21478   1.209   1.300   3.546 -0.1325  0.3990  0.1946
 3281SOL    HW121479   1.209   1.216   3.501  0.3071  0.5155 -0.0179
 3281SOL    HW221480   1.266   1.351   3.489  0.4965 -0.0806  0.4012
 3282SOL     OW21481   4.107   1.527   3.587  0.3835 -0.3688  0.2403
 3282SOL    HW121482   4.104   1.535   3.491 -2.6744 -0.0441  0.3678
 3282SOL    HW221483   4.036   1.587   3.606  0.6837  0.3803 -0.9949
 3283SOL     OW21484   1.131   0.170   8.570  0.1296  0.2122  0.2330
 3283SOL    HW121485   1.213   0.175   8.620 -1.5304  2.0723  2.7229
 3283SOL    HW221486   1.158   0.140   8.483  1.0246 -1.1106  0.9682
 3284SOL     OW21487   2.780   2.480   4.194 -0.1601 -0.6614  0.1885
 3284SOL    HW121488   2.771   2.407   4.132  0.7227  0.1603 -0.8875
 3284SOL    HW221489   2.730   2.544   4.143 -2.8775 -1.8364  1.3258
 3285SOL     OW21490   3.702   0.122   9.217  0.1119 -0.1168  0.1044
 3285SOL    HW121491   3.631   0.129   9.282  1.1870 -0.3607  1.3012
 3285SOL    HW221492   3.735   0.212   9.221  0.4729 -0.2234 -0.4682
 3286SOL     OW21493   1.322   0.232  16.775 -0.1945 -0.1041 -0.1236
 3286SOL    HW121494   1.362   0.161  16.824  2.2308  1.9285  0.8566
 3286SOL    HW221495   1.293   0.184  16.698  0.0499 -1.3600  0.5696
 3287SOL     OW21496   0.040   0.108   8.378  0.1146 -0.1245 -0.5349
 3287SOL    HW121497   0.126   0.145   8.398  0.2785 -0.7398 -0.0901
 3287SOL    HW221498   0.061   0.052   8.303 -0.6388 -1.9261  0.5771
 3288SOL     OW21499   1.284   1.885   9.240  0.3108 -0.4181 -0.5254
 3288SOL    HW121500   1.267   1.816   9.175  0.3396  0.1335 -1.1233
 3288SOL    HW221501   1.230   1.949   9.194  1.6401  2.0282  1.3467
 3289SOL     OW21502   3.523   4.477   2.281  0.1068  0.3117  0.3780
 3289SOL    HW121503   3.615   4.474   2.309  0.7371 -0.8173 -1.8666
 3289SOL    HW221504   3.468   4.464   2.359 -0.4119 -1.0216 -0.2074
 3290SOL     OW21505   1.382   0.913   5.350 -0.3847 -0.1120  0.4153
 3290SOL    HW121506   1.382   0.952   5.437  0.2844 -1.3508  0.9642
 3290SOL    HW221507   1.429   0.831   5.367 -1.2762 -0.4637  1.1296
 3291SOL     OW21508   2.076   0.739   2.512  0.0661  0.5811  0.0644
 3291SOL    HW121509   2.118   0.733   2.427 -2.5151  1.2631 -1.2670
 3291SOL    HW221510   2.147   0.704   2.566 -2.9668 -0.9709  3.0985
 3292SOL     OW21511   0.272   1.065   9.677 -0.7918 -0.8384  0.2190
 3292SOL    HW121512   0.322   1.063   9.595  1.4466  0.0456  1.5671
 3292SOL    HW221513   0.318   1.002   9.732  0.3224 -0.4869 -0.3031
 3293SOL     OW21514   0.971   2.105   6.065  0.1533  0.4402 -0.1524
 3293SOL    HW121515   0.887   2.078   6.030  0.4425 -0.6535  0.0027
 3293SOL    HW221516   1.011   2.104   5.979  1.2551 -1.4404  0.3908
 3294SOL     OW21517   0.716   3.915   8.085 -0.0490  0.1619  0.1896
 3294SOL    HW121518   0.799   3.938   8.043  1.6092 -1.9422  2.3088
 3294SOL    HW221519   0.751   3.867   8.160  0.8280  2.4238  1.1959
 3295SOL     OW21520   2.651   0.296   8.580  0.1791 -0.1139  0.1075
 3295SOL    HW121521   2.570   0.268   8.622 -0.7926  2.6453  0.1093
 3295SOL    HW221522   2.660   0.382   8.621 -1.0285  0.0610  0.0146
 3296SOL     OW21523   3.487   3.096  14.284  0.8104  0.4764  0.0294
 3296SOL    HW121524   3.527   3.068  14.366 -1.9692 -2.0382  0.5608
 3296SOL    HW221525   3.552   3.078  14.216 -1.4423 -1.0625 -1.7410
 3297SOL     OW21526   4.242   4.435   7.952 -0.2190 -0.0716  0.4641
 3297SOL    HW121527   4.178   4.421   8.022 -1.5824 -1.6987 -1.0895
 3297SOL    HW221528   4.184   4.416   7.878 -0.6467 -1.1754  1.0820
 3298SOL     OW21529   1.560   0.655  16.996  0.1629 -0.3645  0.0354
 3298SOL    HW121530   1.571   0.728  17.057 -1.8130  0.1085 -0.1749
 3298SOL    HW221531   1.637   0.600  17.012 -0.5599 -0.9759  1.3806
 3299SOL     OW21532   1.280   3.808   7.333 -0.5291 -0.2534 -0.1396
 3299SOL    HW121533   1.351   3.768   7.385 -2.3601 -5.1557 -1.4367
 3299SOL    HW221534   1.313   3.892   7.301 -0.3946  0.1157  0.9695
 3300SOL     OW21535   2.424   3.352   5.424  0.6955  0.0651  0.3216
 3300SOL    HW121536   2.495   3.377   5.484  0.9574  0.0501  0.0200
 3300SOL    HW221537   2.469   3.364   5.341 -0.9777 -1.4532 -0.7902
 3301SOL     OW21538   0.569   2.910   6.769  0.1448 -0.4160  0.4002
 3301SOL    HW121539   0.499   2.953   6.817  0.6115 -1.2625  1.8501
 3301SOL    HW221540   0.630   2.915   6.842  0.1190  1.5602  0.2836
 3302SOL     OW21541   2.546   1.794   7.769 -0.0643 -0.1442 -0.0026
 3302SOL    HW121542   2.550   1.853   7.694  0.7153  1.1261  1.0345
 3302SOL    HW221543   2.498   1.720   7.733 -0.9507 -0.3917  1.6831
 3303SOL     OW21544   3.989   4.290   6.757 -0.3010  0.1046  0.0880
 3303SOL    HW121545   4.017   4.355   6.821 -2.8591  1.6390 -0.3489
 3303SOL    HW221546   3.896   4.312   6.764  0.1458  2.1903 -0.3147
 3304SOL     OW21547   2.455   4.514   8.291 -0.7984 -0.8051  0.4160
 3304SOL    HW121548   2.507   4.439   8.318  0.4688 -1.0701 -2.8430
 3304SOL    HW221549   2.510   4.577   8.244 -1.9311  0.2326  0.4719
 3305SOL     OW21550   2.831   4.314  10.920  0.0632 -0.4809 -0.1516
 3305SOL    HW121551   2.852   4.223  10.940 -2.4835 -1.0163  0.0842
 3305SOL    HW221552   2.917   4.340  10.887 -0.7834  0.5818 -1.5174
 3306SOL     OW21553   3.497   2.881  14.781 -0.0969 -0.2666 -0.4702
 3306SOL    HW121554   3.493   2.969  14.819  0.3687 -0.8589  0.9595
 3306SOL    HW221555   3.569   2.840  14.829  1.4027  2.5252 -0.2777
 3307SOL     OW21556   3.401   4.053   4.521  0.1165  0.3936  0.8666
 3307SOL    HW121557   3.364   4.134   4.486  1.9110 -0.5033 -3.0737
 3307SOL    HW221558   3.480   4.081   4.567 -0.3115  1.6306  0.8435
 3308SOL     OW21559   1.733   3.891  16.297 -0.5685 -0.0963 -0.2458
 3308SOL    HW121560   1.716   3.985  16.296  0.8404  0.1706  0.8922
 3308SOL    HW221561   1.699   3.869  16.384  0.2913 -1.9059 -0.3636
 3309SOL     OW21562   4.023   0.393   3.387  0.1727  0.3929 -0.3898
 3309SOL    HW121563   4.032   0.486   3.367  0.1601  0.3001 -0.8326
 3309SOL    HW221564   4.060   0.396   3.475 -0.6536 -0.6283  0.0043
 3310SOL     OW21565   3.243   1.034   3.708 -0.2828  0.1702  0.1812
 3310SOL    HW121566   3.211   0.975   3.640 -0.1553 -0.4727  0.6739
 3310SOL    HW221567   3.168   1.093   3.704 -0.4196 -0.1993 -2.8777
 3311SOL     OW21568   2.230   3.289   7.500  0.4885 -0.0609 -0.0256
 3311SOL    HW121569   2.278   3.282   7.583  0.4376  2.4482  0.2217
 3311SOL    HW221570   2.279   3.225   7.449  2.1799  1.8155 -0.7507
 3312SOL     OW21571   3.321   0.293   8.544  0.4541  0.4304 -0.0225
 3312SOL    HW121572   3.307   0.315   8.451  0.1630  1.2386  0.2104
 3312SOL    HW221573   3.355   0.377   8.574  1.3506 -0.2712  0.9062
 3313SOL     OW21574   3.358   3.616   6.365  0.0969 -0.4355 -0.4049
 3313SOL    HW121575   3.334   3.563   6.289 -2.0323  1.0059 -0.7542
 3313SOL    HW221576   3.287   3.681   6.367  0.4798  0.0033 -1.4388
 3314SOL     OW21577   0.321   3.420   4.630 -0.1044 -0.0305  0.1064
 3314SOL    HW121578   0.263   3.344   4.628 -0.7677  0.4745  0.6615
 3314SOL    HW221579   0.317   3.436   4.724 -2.6042  1.3415 -0.2406
 3315SOL     OW21580   1.611   1.364   2.391  0.4507 -0.5032 -0.5281
 3315SOL    HW121581   1.536   1.397   2.342  0.7996  0.0762 -0.6658
 3315SOL    HW221582   1.592   1.270   2.390  0.2469 -0.4900  0.8030
 3316SOL     OW21583   4.010   1.654   9.008  0.4731 -0.3406 -0.3345
 3316SOL    HW121584   4.049   1.585   9.062 -3.6836 -2.1332  0.3603
 3316SOL    HW221585   3.967   1.594   8.947 -0.6868  0.1271  0.0065
 3317SOL     OW21586   2.214   2.850  12.608 -0.2108  0.7055 -0.2310
 3317SOL    HW121587   2.131   2.826  12.568  0.3067 -1.6515  0.1292
 3317SOL    HW221588   2.193   2.943  12.607 -1.4672  0.4280  0.8179
 3318SOL     OW21589   1.757   2.880   5.156  0.6134 -0.7431  0.2711
 3318SOL    HW121590   1.707   2.821   5.213  0.2651  0.1655  0.9078
 3318SOL    HW221591   1.687   2.899   5.094  0.7426  0.5739  0.5317
 3319SOL     OW21592   3.572   1.068   1.746  0.0508  0.3998 -0.2532
 3319SOL    HW121593   3.645   1.073   1.685  0.3080 -1.0492 -0.0618
 3319SOL    HW221594   3.538   0.983   1.718 -0.1165  0.1115  0.8142
 3320SOL     OW21595   3.635   2.760  12.513 -0.0828 -0.6868  0.5827
 3320SOL    HW121596   3.686   2.772  12.433 -0.0021 -0.2333  0.7016
 3320SOL    HW221597   3.592   2.677  12.497  0.1865 -0.8666  0.7821
 3321SOL     OW21598   0.694   3.986   5.859 -0.2213  0.1122 -0.1394
 3321SOL    HW121599   0.775   3.974   5.808 -0.9316 -0.4493 -1.1224
 3321SOL    HW221600   0.681   3.913   5.919 -0.8708 -0.3126 -0.7966
 3322SOL     OW21601   0.077   4.367  11.447 -0.2665  0.3492  0.3958
 3322SOL    HW121602   0.021   4.384  11.523 -0.5216 -0.8533  0.4746
 3322SOL    HW221603   0.155   4.339  11.496  0.2985 -1.4528 -1.5412
 3323SOL     OW21604   0.125   4.306   2.673  0.5339 -0.0689  0.2191
 3323SOL    HW121605   0.033   4.280   2.666  0.0699  1.4991  0.5055
 3323SOL    HW221606   0.151   4.235   2.732 -0.3689 -0.5296  0.0694
 3324SOL     OW21607   2.178   3.474   8.375 -0.0719 -0.0031 -0.3751
 3324SOL    HW121608   2.211   3.477   8.285  0.0167  1.2733 -0.2983
 3324SOL    HW221609   2.208   3.562   8.395  0.7448 -0.4891  0.5258
 3325SOL     OW21610   2.799   1.137  16.886 -0.0747  0.5771  0.6992
 3325SOL    HW121611   2.775   1.205  16.949 -0.8382  1.0726 -0.1192
 3325SOL    HW221612   2.713   1.113  16.851  0.3513  0.4209 -0.2381
 3326SOL     OW21613   4.718   3.907   5.083 -0.2701 -0.1685 -1.1233
 3326SOL    HW121614   0.048   3.968   5.062  1.0078 -1.1987  0.1978
 3326SOL    HW221615   4.662   3.953   5.146 -0.2043 -1.9125  0.2309
 3327SOL     OW21616   0.664   2.960   9.706  1.0227  0.3391 -0.0037
 3327SOL    HW121617   0.673   2.948   9.800 -0.7848 -0.7991  0.0368
 3327SOL    HW221618   0.605   3.035   9.696 -1.5070 -1.5274  1.0216
 3328SOL     OW21619   3.129   2.290  16.097  0.9902 -0.0558  0.5453
 3328SOL    HW121620   3.186   2.261  16.026  1.1723 -0.1551  0.7325
 3328SOL    HW221621   3.052   2.242  16.066 -0.4139  2.1357  0.6120
 3329SOL     OW21622   4.249   1.170   1.748 -0.4379  0.0400  0.1000
 3329SOL    HW121623   4.187   1.173   1.675  0.4186  0.2076 -0.6340
 3329SOL    HW221624   4.203   1.230   1.807  1.4358  0.2563  1.3381
 3330SOL     OW21625   3.170   4.550   7.503  0.1201  0.3558  0.3068
 3330SOL    HW121626   3.162   4.480   7.568  2.9007 -1.0178 -0.8233
 3330SOL    HW221627   3.087   4.589   7.531 -1.3572 -1.8662 -0.9413
 3331SOL     OW21628   2.703   1.456  14.436 -0.1223 -0.8230 -0.2417
 3331SOL    HW121629   2.686   1.490  14.523 -2.8370  0.3695 -1.2381
 3331SOL    HW221630   2.664   1.517  14.373 -0.3530  0.4961  1.1908
 3332SOL     OW21631   4.396   2.253   4.684  0.7452 -0.1206  0.4688
 3332SOL    HW121632   4.350   2.320   4.634 -0.6621  0.9896  3.2119
 3332SOL    HW221633   4.420   2.189   4.617 -0.7696 -0.6097  0.3899
 3333SOL     OW21634   4.003   3.187   8.757 -0.4458  0.1304 -0.2656
 3333SOL    HW121635   3.923   3.154   8.798 -1.0651  1.0263 -0.7505
 3333SOL    HW221636   3.966   3.194   8.669 -2.1933 -1.0510  0.3790
 3334SOL     OW21637   3.020   2.370   1.930  0.3130 -0.4628  0.5674
 3334SOL    HW121638   3.074   2.363   2.008 -0.1947  0.8529  1.0281
 3334SOL    HW221639   3.035   2.289   1.881  2.4698  0.9323 -1.0763
 3335SOL     OW21640   1.457   3.129  10.026 -0.0014 -0.6065  0.1944
 3335SOL    HW121641   1.466   3.142  10.120 -0.7602  1.9416 -0.1048
 3335SOL    HW221642   1.372   3.164  10.001 -0.7754 -1.6667  1.3232
 3336SOL     OW21643   0.353   0.277   4.579  0.0948  0.0914  0.4460
 3336SOL    HW121644   0.353   0.286   4.674  1.6112 -0.6003  0.5063
 3336SOL    HW221645   0.261   0.278   4.554  0.7653  0.6349 -1.9722
 3337SOL     OW21646   1.939   4.461   1.695 -0.4984 -0.2951  0.6225
 3337SOL    HW121647   1.981   4.429   1.775 -0.5237 -1.5515  0.1278
 3337SOL    HW221648   1.891   4.383   1.670 -0.5199  0.6983 -2.4283
 3338SOL     OW21649   0.366   0.325   1.903  0.3969  0.7472  0.1084
 3338SOL    HW121650   0.291   0.268   1.887  2.4977 -2.0445  0.0946
 3338SOL    HW221651   0.321   0.408   1.889 -1.0607  0.1310  1.0791
 3339SOL     OW21652   1.937   3.714   8.174 -0.2463  0.0597 -0.0128
 3339SOL    HW121653   1.859   3.759   8.141 -1.9715 -1.0812  2.5317
 3339SOL    HW221654   1.996   3.789   8.172 -1.4210  0.9949  0.7052
 3340SOL     OW21655   2.491   3.519  15.641  0.3911 -0.0982 -0.1344
 3340SOL    HW121656   2.491   3.455  15.713  0.3363 -0.7084 -0.6704
 3340SOL    HW221657   2.543   3.588  15.683  0.0089  1.3249 -2.0289
 3341SOL     OW21658   3.518   0.480   6.415  0.5950  0.1895  0.0556
 3341SOL    HW121659   3.541   0.455   6.504  0.5462 -0.0864 -0.0104
 3341SOL    HW221660   3.465   0.405   6.390 -0.5008  1.2999 -0.9688
 3342SOL     OW21661   1.297   2.798   6.348  0.0425  0.4446 -0.3834
 3342SOL    HW121662   1.212   2.838   6.366 -0.2582 -0.7313  0.7934
 3342SOL    HW221663   1.267   2.737   6.280 -1.4224  0.4946  0.2188
 3343SOL     OW21664   4.286   4.409   5.221 -0.7568  0.1307 -0.2016
 3343SOL    HW121665   4.348   4.458   5.167  0.6169 -1.4029 -0.0196
 3343SOL    HW221666   4.271   4.478   5.285  3.0938 -0.6590  1.5157
 3344SOL     OW21667   3.407   0.339   9.323 -0.0517 -0.1285 -0.0731
 3344SOL    HW121668   3.420   0.257   9.275 -0.7090 -1.3279  1.8288
 3344SOL    HW221669   3.346   0.306   9.389 -0.9298  0.4393 -0.5849
 3345SOL     OW21670   0.772   0.295  11.769 -0.7351 -0.0808  0.3056
 3345SOL    HW121671   0.777   0.388  11.789 -2.8138  0.3125 -1.0335
 3345SOL    HW221672   0.710   0.270  11.838  0.1325 -0.7891  0.8304
 3346SOL     OW21673   4.509   1.497  12.955 -0.3036 -0.1698  0.1428
 3346SOL    HW121674   4.516   1.448  13.037 -0.3437  1.1546  0.9387
 3346SOL    HW221675   4.602   1.514  12.939 -0.2881  0.9584  1.4021
 3347SOL     OW21676   2.034   2.766   5.474  0.1584  0.1151  0.3843
 3347SOL    HW121677   2.048   2.766   5.379 -1.5334 -1.9675  0.1465
 3347SOL    HW221678   2.123   2.748   5.504  0.3738  0.5013 -0.0074
 3348SOL     OW21679   2.093   3.436  10.959 -0.2206 -0.6877 -0.0089
 3348SOL    HW121680   2.039   3.369  10.917  0.8121 -1.3805 -0.2315
 3348SOL    HW221681   2.065   3.439  11.050 -1.5922  4.0170 -0.5850
 3349SOL     OW21682   0.942   2.123  12.346  0.1690  0.0687  0.3561
 3349SOL    HW121683   0.852   2.148  12.365 -0.4929 -0.3164 -2.2932
 3349SOL    HW221684   0.940   2.070  12.267 -0.0309  0.9254 -0.2138
 3350SOL     OW21685   3.016   3.443   3.175 -0.8802 -0.0102  0.2612
 3350SOL    HW121686   3.015   3.373   3.241  0.0810 -0.0980  0.1759
 3350SOL    HW221687   3.022   3.517   3.235 -1.2121 -0.4420  0.8312
 3351SOL     OW21688   0.890   3.425   2.628 -0.3072  0.2924 -0.8296
 3351SOL    HW121689   0.939   3.464   2.700 -3.6886  2.7945  0.1047
 3351SOL    HW221690   0.948   3.454   2.558 -0.1603  0.0675 -0.8014
 3352SOL     OW21691   3.636   2.657   6.250 -0.5703  0.4166  0.2216
 3352SOL    HW121692   3.549   2.623   6.228 -0.0527 -0.4906 -0.4368
 3352SOL    HW221693   3.627   2.745   6.213 -0.8770 -0.8466 -2.7139
 3353SOL     OW21694   0.563   2.501   7.088 -0.5676 -0.1048  0.0528
 3353SOL    HW121695   0.635   2.533   7.033 -0.1126 -0.3582  0.5020
 3353SOL    HW221696   0.488   2.531   7.037 -0.8575  0.6029  0.8924
 3354SOL     OW21697   0.223   1.944   3.321 -0.2286  0.3535 -0.5641
 3354SOL    HW121698   0.185   1.862   3.287 -2.3000  1.4020 -0.7988
 3354SOL    HW221699   0.181   1.959   3.406 -2.1427  1.1185 -1.6383
 3355SOL     OW21700   0.422   0.605   5.602 -0.0559  0.4038  0.0158
 3355SOL    HW121701   0.441   0.641   5.515  2.4814 -0.1169  0.3587
 3355SOL    HW221702   0.394   0.516   5.581 -1.5759  0.1661  3.0789
 3356SOL     OW21703   0.625   2.724  13.184 -0.6855 -0.0766 -0.0373
 3356SOL    HW121704   0.705   2.738  13.132 -0.2423 -4.2046 -0.4649
 3356SOL    HW221705   0.670   2.667  13.246  1.4238  2.2349  0.5729
 3357SOL     OW21706   2.824   2.261   9.912  1.0484  0.3511  0.4490
 3357SOL    HW121707   2.890   2.295   9.853  0.8171 -2.3763 -1.3979
 3357SOL    HW221708   2.787   2.187   9.863  1.3791  0.2669  0.3265
 3358SOL     OW21709   2.335   3.234   7.735 -0.1455  0.2579 -0.3165
 3358SOL    HW121710   2.346   3.140   7.724 -0.1800 -0.0034  2.0400
 3358SOL    HW221711   2.310   3.229   7.827  2.3640 -2.1786  0.2471
 3359SOL     OW21712   2.295   3.532   8.120  0.1377  0.3120 -0.1001
 3359SOL    HW121713   2.272   3.608   8.067  2.1729  0.0457 -1.3385
 3359SOL    HW221714   2.382   3.530   8.081 -0.4463  0.8172 -1.4398
 3360SOL     OW21715   4.373   0.432   3.221  0.1908  0.3583  0.3085
 3360SOL    HW121716   4.455   0.465   3.185  0.8973 -0.8072  0.8638
 3360SOL    HW221717   4.397   0.401   3.308 -1.3809 -0.1982  0.5455
 3361SOL     OW21718   2.562   1.307   5.753 -0.2741  0.1035  0.2458
 3361SOL    HW121719   2.594   1.245   5.818 -0.0949 -0.8955 -0.7979
 3361SOL    HW221720   2.612   1.280   5.677  1.4210 -1.7460  2.0426
 3362SOL     OW21721   0.719   3.878   2.126 -0.1880  0.7780 -0.4035
 3362SOL    HW121722   0.625   3.861   2.133 -0.1002  1.4446  2.4292
 3362SOL    HW221723   0.760   3.818   2.189 -4.1588 -2.1205 -0.5927
 3363SOL     OW21724   0.882   3.004  13.257  0.0754  0.4042 -0.4147
 3363SOL    HW121725   0.865   2.949  13.334  0.7234 -2.1561 -2.0770
 3363SOL    HW221726   0.905   2.933  13.196 -0.8899  0.6182 -1.0295
 3364SOL     OW21727   0.299   3.435   4.913 -0.3830 -0.0713  0.0708
 3364SOL    HW121728   0.251   3.485   4.980 -1.3277  1.4609 -1.7381
 3364SOL    HW221729   0.390   3.457   4.932 -0.8790  0.5099  1.8005
 3365SOL     OW21730   0.540   1.519   5.114 -0.4767  0.3901  0.5606
 3365SOL    HW121731   0.502   1.508   5.201 -0.2403  1.0789  0.7491
 3365SOL    HW221732   0.503   1.448   5.061 -0.1566  1.9813 -1.8030
 3366SOL     OW21733   2.717   4.280   9.779 -0.3009 -0.3487  0.3038
 3366SOL    HW121734   2.697   4.319   9.694 -1.4634 -0.1043  0.6980
 3366SOL    HW221735   2.795   4.226   9.762 -1.0445 -1.3407  0.0729
 3367SOL     OW21736   3.025   2.023   4.949 -0.0288  0.1108 -0.7313
 3367SOL    HW121737   3.072   2.099   4.983  1.0200 -1.4573  1.3751
 3367SOL    HW221738   2.976   2.062   4.877  1.7362  1.1137 -1.3802
 3368SOL     OW21739   3.041   2.829   4.915 -0.6241 -0.4765  0.5613
 3368SOL    HW121740   3.101   2.869   4.852 -1.2793 -0.1019  0.1773
 3368SOL    HW221741   3.105   2.778   4.965 -0.9031 -0.9737  0.4013
 3369SOL     OW21742   0.254   1.878  13.305  0.0627  0.0881 -0.1767
 3369SOL    HW121743   0.215   1.924  13.230 -1.4875 -0.7955  0.0971
 3369SOL    HW221744   0.346   1.901  13.290  0.5074 -1.6466 -0.0604
 3370SOL     OW21745   2.326   1.681   8.105 -0.1945  0.2513  0.6885
 3370SOL    HW121746   2.302   1.592   8.129  0.4987 -0.5107 -1.4427
 3370SOL    HW221747   2.277   1.743   8.159 -0.1067  0.3043  0.7077
 3371SOL     OW21748   1.396   1.395   3.370  0.3781  0.2757  0.4337
 3371SOL    HW121749   1.441   1.366   3.290  1.0555  1.7497  0.2919
 3371SOL    HW221750   1.475   1.417   3.420  1.2541  3.2373 -2.2199
 3372SOL     OW21751   1.911   0.994   5.850 -0.7322 -0.5216  0.3052
 3372SOL    HW121752   1.879   0.931   5.915  0.0004  0.0255  1.1985
 3372SOL    HW221753   1.925   0.935   5.776 -1.1416 -1.5916  1.0900
 3373SOL     OW21754   2.202   2.596  14.175  0.7264  0.2538 -0.5293
 3373SOL    HW121755   2.272   2.622  14.115  1.2901 -0.7540 -0.3132
 3373SOL    HW221756   2.199   2.673  14.232 -2.3221 -0.5304  0.3985
 3374SOL     OW21757   3.336   1.310   9.999  0.2658 -0.0778  0.2642
 3374SOL    HW121758   3.286   1.281   9.922  0.5692  1.2251 -0.4225
 3374SOL    HW221759   3.420   1.341   9.966 -0.4913  1.3259 -0.3530
 3375SOL     OW21760   1.870   2.941  17.310 -0.1141 -0.3125  0.3744
 3375SOL    HW121761   1.891   3.004  17.379  1.5864 -0.8511  0.3537
 3375SOL    HW221762   1.835   2.860  17.346 -1.4243  0.0384 -0.1251
 3376SOL     OW21763   0.233   2.227   8.905 -0.2037 -0.2039 -0.4635
 3376SOL    HW121764   0.277   2.181   8.976  1.9468  2.2254 -0.2440
 3376SOL    HW221765   0.307   2.258   8.853 -1.0766  1.0420 -0.9582
 3377SOL     OW21766   2.658   0.323   1.784  0.0761 -0.3483 -0.3433
 3377SOL    HW121767   2.564   0.309   1.795 -0.0496 -0.8450 -2.0653
 3377SOL    HW221768   2.670   0.394   1.846  1.1512 -0.1144 -0.8208
 3378SOL     OW21769   3.778   1.579   4.028  0.5384 -0.5636 -0.1809
 3378SOL    HW121770   3.776   1.627   3.945  1.8291 -1.2036 -0.5770
 3378SOL    HW221771   3.724   1.500   4.020 -0.1757  0.1677 -2.3874
 3379SOL     OW21772   1.259   0.365   1.454 -0.2574 -0.0801  0.4379
 3379SOL    HW121773   1.220   0.443   1.415 -1.5240 -0.3861  1.1083
 3379SOL    HW221774   1.338   0.399   1.496  0.6650 -0.1511 -1.2467
 3380SOL     OW21775   1.070   3.196  15.531 -0.4778 -0.0809 -0.1844
 3380SOL    HW121776   1.016   3.274  15.543 -0.4253  0.1385 -1.4207
 3380SOL    HW221777   1.114   3.210  15.447  0.1616  0.2160  0.1939
 3381SOL     OW21778   2.971   1.090   1.182 -0.5050  0.1207  0.3216
 3381SOL    HW121779   3.058   1.108   1.146 -1.5326  1.9329 -1.2459
 3381SOL    HW221780   2.909   1.105   1.111 -1.5562 -2.1299  0.7865
 3382SOL     OW21781   0.008   1.575  12.374  0.3215 -0.1012  0.5535
 3382SOL    HW121782   0.066   1.579  12.450  0.8010  2.4706  0.0610
 3382SOL    HW221783   4.692   1.500  12.391 -1.0729  0.7631 -0.2510
 3383SOL     OW21784   0.971   4.215   7.616 -0.6806 -0.1812 -0.2064
 3383SOL    HW121785   0.997   4.250   7.701 -1.7887 -1.7529  0.7811
 3383SOL    HW221786   1.037   4.146   7.613 -2.5287 -2.0213  1.1699
 3384SOL     OW21787   0.245   3.660   2.709 -0.2400  0.6483 -0.2939
 3384SOL    HW121788   0.213   3.659   2.619 -0.4281 -0.6988 -0.2157
 3384SOL    HW221789   0.173   3.636   2.767  2.6192 -1.7481  2.2987
 3385SOL     OW21790   3.053   3.178  13.016 -0.0147 -0.1723 -0.1424
 3385SOL    HW121791   3.014   3.144  12.935 -0.3320  0.8447 -0.4105
 3385SOL    HW221792   3.098   3.256  12.984  0.9450 -0.7146 -0.0982
 3386SOL     OW21793   4.404   2.838   3.709 -0.0865  0.0806  0.6081
 3386SOL    HW121794   4.317   2.850   3.671 -0.5080 -1.4182  1.1099
 3386SOL    HW221795   4.427   2.926   3.680  0.0502 -0.2477 -0.2819
 3387SOL     OW21796   3.398   0.223   2.588 -0.0204  0.1428  0.4772
 3387SOL    HW121797   3.409   0.133   2.617 -1.1688 -0.8450 -2.1924
 3387SOL    HW221798   3.439   0.214   2.502 -1.4995  2.2014 -0.4255
 3388SOL     OW21799   3.748   2.631   5.198  0.3137  0.1225  0.4952
 3388SOL    HW121800   3.671   2.604   5.148 -0.5374 -0.7771  2.2886
 3388SOL    HW221801   3.818   2.606   5.138  0.9996  1.4484  0.7263
 3389SOL     OW21802   1.074   1.023  16.323  0.0150 -0.0336 -0.1927
 3389SOL    HW121803   1.059   0.955  16.389  1.2129 -1.3482 -1.3014
 3389SOL    HW221804   0.981   1.044  16.310 -0.2230 -0.8848  0.1310
 3390SOL     OW21805   2.447   0.709   5.956  0.0626 -0.4030 -0.1415
 3390SOL    HW121806   2.395   0.763   5.897  1.6871 -1.0129 -2.1424
 3390SOL    HW221807   2.418   0.621   5.933 -1.0125  0.6045 -2.6456
 3391SOL     OW21808   4.630   1.586   9.137 -0.1419  0.1815 -0.3443
 3391SOL    HW121809   4.715   1.573   9.181 -0.1860 -0.4006 -0.4441
 3391SOL    HW221810   4.641   1.666   9.085  1.0233 -0.3674 -0.9235
 3392SOL     OW21811   0.678   3.293   8.542 -0.3030  0.6311  0.2143
 3392SOL    HW121812   0.612   3.347   8.497 -0.3559  0.3844 -0.0097
 3392SOL    HW221813   0.635   3.208   8.527  0.3592  0.5217 -1.0745
 3393SOL     OW21814   2.501   1.128  10.740 -0.5569 -0.0889  0.5527
 3393SOL    HW121815   2.494   1.035  10.718 -0.8862 -0.4189  2.0432
 3393SOL    HW221816   2.592   1.140  10.713 -0.6919  0.9447  0.5656
 3394SOL     OW21817   1.448   4.074   9.478  0.0126 -0.2427  0.1489
 3394SOL    HW121818   1.447   4.016   9.402  2.1364  2.6191 -2.0156
 3394SOL    HW221819   1.419   4.018   9.551 -0.2124  2.0832  1.8452
 3395SOL     OW21820   2.178   4.595   4.750  0.2067 -0.3178  0.4433
 3395SOL    HW121821   2.239   4.662   4.720 -2.2280  1.2907 -0.8407
 3395SOL    HW221822   2.224   4.514   4.730  1.1857 -0.0614  1.6845
 3396SOL     OW21823   3.560   0.155   4.248 -0.0515  0.1679  0.4475
 3396SOL    HW121824   3.653   0.174   4.262 -0.4429  1.0066  1.9385
 3396SOL    HW221825   3.522   0.163   4.335 -0.1680  1.0323  0.3209
 3397SOL     OW21826   2.027   2.497  13.776 -0.4560  0.3073  0.3600
 3397SOL    HW121827   1.982   2.516  13.858 -0.8922  1.7742 -0.2115
 3397SOL    HW221828   2.106   2.550  13.781 -1.1272  1.3777 -0.4233
 3398SOL     OW21829   4.233   2.671  16.037  0.2057 -0.1869  0.4399
 3398SOL    HW121830   4.248   2.759  16.072 -0.3792  0.1925 -0.2498
 3398SOL    HW221831   4.300   2.677  15.969  0.8461 -1.1789  0.9760
 3399SOL     OW21832   2.781   4.387   6.592  0.3502 -0.1143 -0.1823
 3399SOL    HW121833   2.797   4.318   6.657 -0.3501 -1.5309 -1.5373
 3399SOL    HW221834   2.820   4.461   6.640 -1.3066 -0.0058  1.0132
 3400SOL     OW21835   1.453   0.103  10.527 -0.0923  1.0613  0.0016
 3400SOL    HW121836   1.371   0.149  10.547 -0.4442  0.4790 -0.0922
 3400SOL    HW221837   1.425   0.045  10.456  0.4158 -1.4978  1.8843
 3401SOL     OW21838   4.193   0.895   3.295  0.1436  0.3254 -0.1822
 3401SOL    HW121839   4.175   0.958   3.365 -0.4708  1.5271 -1.4223
 3401SOL    HW221840   4.148   0.928   3.218 -1.1845 -1.4232 -0.1354
 3402SOL     OW21841   1.282   2.290   0.821  0.0477  0.5403  0.1544
 3402SOL    HW121842   1.199   2.337   0.825 -0.4755 -0.4251  0.5819
 3402SOL    HW221843   1.267   2.210   0.870  0.1240  1.1134  1.1110
 3403SOL     OW21844   1.316   4.324  17.662  0.5133  0.3071 -0.0905
 3403SOL    HW121845   1.272   4.400  17.698  2.5192  1.9069 -1.0164
 3403SOL    HW221846   1.392   4.326  17.720  1.7643  2.2420 -1.8077
 3404SOL     OW21847   3.459   3.965   6.893 -0.1616  0.4162  0.5935
 3404SOL    HW121848   3.455   4.007   6.807  2.4824  2.3540  1.4189
 3404SOL    HW221849   3.545   3.995   6.923  1.1881 -0.6959 -2.1604
 3405SOL     OW21850   3.685   4.211   8.112 -0.0083 -0.5747  0.0037
 3405SOL    HW121851   3.711   4.150   8.042 -0.1582 -0.1779 -0.3968
 3405SOL    HW221852   3.684   4.293   8.063 -1.5308 -0.4124  0.3100
 3406SOL     OW21853   1.042   1.116  13.448 -0.0947 -0.0845  0.4200
 3406SOL    HW121854   1.130   1.111  13.486  0.2029  0.7033 -0.1444
 3406SOL    HW221855   0.991   1.110  13.528 -3.6434  0.9370 -1.7424
 3407SOL     OW21856   1.229   0.302   6.257 -0.0732 -0.5307  0.0780
 3407SOL    HW121857   1.250   0.388   6.220 -0.0953 -0.4036  0.3611
 3407SOL    HW221858   1.196   0.258   6.179 -1.3588  0.7112 -0.0854
 3408SOL     OW21859   2.062   1.048  15.164  0.5943  0.7129  0.5840
 3408SOL    HW121860   2.075   1.130  15.211  1.1181  0.1797  1.3707
 3408SOL    HW221861   2.117   1.074  15.089  0.2256  0.3404  0.1877
 3409SOL     OW21862   0.047   0.211   8.043 -0.2279 -0.2653 -0.0851
 3409SOL    HW121863   4.709   0.191   7.994 -1.4448  1.1853  1.3182
 3409SOL    HW221864   0.024   0.278   8.107 -0.5598  1.0962 -1.6441
 3410SOL     OW21865   0.119   3.494   3.101  0.0857 -0.0597  0.4606
 3410SOL    HW121866   0.199   3.447   3.126  0.2705  1.4545  2.7588
 3410SOL    HW221867   0.120   3.561   3.170 -1.2386  0.5829 -0.1396
 3411SOL     OW21868   1.326   2.937   0.485 -0.0676 -0.1451  0.6727
 3411SOL    HW121869   1.415   2.912   0.511  0.4382  1.0885  0.1162
 3411SOL    HW221870   1.316   3.000   0.556  0.5846 -0.0976  0.7238
 3412SOL     OW21871   0.173   3.190   8.742  0.0763 -0.4044  0.4511
 3412SOL    HW121872   0.117   3.158   8.812  0.9290  0.2932  1.4529
 3412SOL    HW221873   0.134   3.276   8.729 -0.0056 -0.2361  1.8481
 3413SOL     OW21874   3.131   3.028   9.082  0.6039 -0.2887  0.5389
 3413SOL    HW121875   3.046   3.056   9.048  0.8351  1.2811  1.2642
 3413SOL    HW221876   3.145   2.948   9.030 -0.0325  0.7127 -1.1784
 3414SOL     OW21877   0.429   4.210   8.246 -0.2348 -0.1063  0.4823
 3414SOL    HW121878   0.463   4.287   8.293 -0.0473  0.2382 -0.2284
 3414SOL    HW221879   0.354   4.253   8.206 -1.1449  0.0816  2.3831
 3415SOL     OW21880   3.698   4.313   7.805  0.2595 -0.4780  0.1713
 3415SOL    HW121881   3.751   4.387   7.834  1.0543 -1.1245  0.3945
 3415SOL    HW221882   3.650   4.357   7.735 -0.1362  0.9599  1.3476
 3416SOL     OW21883   0.217   0.315   5.934  0.1182  0.2063  0.2336
 3416SOL    HW121884   0.295   0.339   5.984  0.3557  0.2086 -0.1421
 3416SOL    HW221885   0.240   0.318   5.841 -0.0992  0.0463  0.1749
 3417SOL     OW21886   2.813   1.986   1.119 -0.2486  0.0703 -0.1573
 3417SOL    HW121887   2.751   2.037   1.067  0.8389  0.7601 -0.7854
 3417SOL    HW221888   2.753   1.959   1.189 -1.0951  0.3885 -0.7680
 3418SOL     OW21889   1.973   4.395   3.324  0.6146 -0.0372 -0.0791
 3418SOL    HW121890   2.012   4.434   3.402 -0.7230 -0.7187  0.9171
 3418SOL    HW221891   1.927   4.466   3.278 -0.5468 -1.5783 -1.2745
 3419SOL     OW21892   1.958   1.770   5.467  0.4865  0.2332 -0.0478
 3419SOL    HW121893   1.937   1.686   5.508  1.2560 -0.2514 -0.6344
 3419SOL    HW221894   2.045   1.749   5.432  0.6537  0.9060 -0.0388
 3420SOL     OW21895   2.557   2.346   2.518 -0.0601  0.4730 -0.1775
 3420SOL    HW121896   2.594   2.384   2.598 -1.7413 -0.9384  1.2661
 3420SOL    HW221897   2.567   2.422   2.462 -1.3878 -1.4505 -3.0141
 3421SOL     OW21898   4.489   4.291   6.854 -0.4851  0.3613 -0.5692
 3421SOL    HW121899   4.502   4.197   6.870  4.2095  1.3433  1.2209
 3421SOL    HW221900   4.417   4.304   6.916  0.6473  0.5144  0.6992
 3422SOL     OW21901   1.082   0.241   6.016  0.0748  0.7980  0.2379
 3422SOL    HW121902   1.003   0.286   6.045 -0.5580  0.0383 -0.2838
 3422SOL    HW221903   1.056   0.220   5.926 -1.5721 -0.8077  1.0848
 3423SOL     OW21904   3.697   1.121  15.037 -0.0774 -0.0311  0.4351
 3423SOL    HW121905   3.791   1.119  15.017 -0.2912 -1.6391 -0.4618
 3423SOL    HW221906   3.671   1.049  14.979 -0.6440  0.4690  0.0815
 3424SOL     OW21907   3.296   2.549   8.661 -0.2318 -0.3683  0.3812
 3424SOL    HW121908   3.241   2.509   8.594  0.1972 -1.5467  0.7126
 3424SOL    HW221909   3.289   2.492   8.738 -0.6266 -1.4688 -0.4710
 3425SOL     OW21910   1.789   0.388  14.791  0.3186 -0.2591  0.1849
 3425SOL    HW121911   1.822   0.314  14.740  0.2301 -0.7508  0.8366
 3425SOL    HW221912   1.705   0.360  14.828  1.8898 -1.2860  2.9691
 3426SOL     OW21913   0.207   2.794  11.460  0.4075 -0.0207 -0.1539
 3426SOL    HW121914   0.191   2.853  11.533  0.1776 -1.7387  1.1869
 3426SOL    HW221915   0.248   2.844  11.389  0.0947 -1.0003 -1.0259
 3427SOL     OW21916   1.199   4.636   6.116 -0.4170  0.1950  0.4617
 3427SOL    HW121917   1.192   4.687   6.197 -0.1281  0.4492  0.3276
 3427SOL    HW221918   1.294   4.637   6.105 -0.4660 -0.7741 -0.0147
 3428SOL     OW21919   4.352   4.021   1.883 -0.0686  0.5199 -0.4484
 3428SOL    HW121920   4.440   4.018   1.844  0.3908 -1.0683  0.7000
 3428SOL    HW221921   4.362   4.080   1.957 -1.5770  0.6544 -0.3523
 3429SOL     OW21922   1.262   1.536  16.335  0.0943 -0.0275  0.1199
 3429SOL    HW121923   1.200   1.598  16.372  0.3784  0.7490 -0.7045
 3429SOL    HW221924   1.327   1.591  16.290 -1.3858  1.1148 -0.5929
 3430SOL     OW21925   1.324   3.508   2.170 -0.3790 -0.2017  0.1026
 3430SOL    HW121926   1.406   3.486   2.215 -0.0550  0.7947  0.0101
 3430SOL    HW221927   1.287   3.426   2.139  0.7996  0.4349 -3.0374
 3431SOL     OW21928   1.764   3.668   2.052  0.2413  0.5591 -0.8801
 3431SOL    HW121929   1.697   3.628   1.997  1.0353 -0.0988 -1.3601
 3431SOL    HW221930   1.777   3.754   2.012  0.8892  0.5218 -0.7491
 3432SOL     OW21931   4.021   2.325   3.574  0.6235 -0.8333 -0.2389
 3432SOL    HW121932   4.112   2.351   3.561  0.9364 -1.9746 -0.3308
 3432SOL    HW221933   3.978   2.410   3.574  1.0922 -0.5993 -0.4339
 3433SOL     OW21934   0.181   3.891   9.926 -0.6153  0.3075  0.4735
 3433SOL    HW121935   0.243   3.954   9.888  0.3054 -0.3841  0.8148
 3433SOL    HW221936   0.193   3.905  10.020  1.8207  0.3234  0.1656
 3434SOL     OW21937   3.743   4.280  17.365  0.2653 -0.4859  0.2565
 3434SOL    HW121938   3.799   4.202  17.371  3.0456  1.4960  0.3232
 3434SOL    HW221939   3.722   4.297  17.457  1.3831  0.0308  0.4214
 3435SOL     OW21940   4.565   2.632   7.546  0.0524  0.3556  0.3354
 3435SOL    HW121941   4.630   2.566   7.523 -0.2333  0.5529 -1.0065
 3435SOL    HW221942   4.613   2.713   7.561  0.9441  0.3918 -2.7668
 3436SOL     OW21943   1.239   0.023   7.542 -0.0487  0.3024  0.0323
 3436SOL    HW121944   1.215   0.109   7.508  2.5533  0.6676 -0.8872
 3436SOL    HW221945   1.161   4.709   7.532  0.0376 -0.0973  1.5407
 3437SOL     OW21946   1.304   2.952   5.812 -0.4862  0.0102 -0.0381
 3437SOL    HW121947   1.375   2.907   5.858 -0.1976 -0.7774 -1.2373
 3437SOL    HW221948   1.355   3.004   5.751 -0.6027 -0.8758 -0.8858
 3438SOL     OW21949   0.960   4.073   2.568  0.0588  0.1375 -0.3192
 3438SOL    HW121950   0.982   4.025   2.648 -0.1752 -1.7652 -1.4000
 3438SOL    HW221951   1.009   4.025   2.500 -0.0187 -1.0212  0.4345
 3439SOL     OW21952   2.179   2.638   8.161  0.0288 -0.2512 -0.8418
 3439SOL    HW121953   2.085   2.621   8.163  0.4175 -2.2207  0.0681
 3439SOL    HW221954   2.208   2.568   8.103 -1.5254 -0.6282 -1.1370
 3440SOL     OW21955   2.366   2.573   2.276 -0.4213  0.2171 -0.3251
 3440SOL    HW121956   2.438   2.619   2.232 -0.2131 -1.1650 -1.4488
 3440SOL    HW221957   2.288   2.624   2.257 -0.1434  0.7109 -0.1493
 3441SOL     OW21958   0.696   2.653   7.926 -0.2439 -0.2925 -0.0928
 3441SOL    HW121959   0.773   2.602   7.900 -0.5376 -1.1131  0.6422
 3441SOL    HW221960   0.658   2.594   7.990 -3.0307  1.0081 -0.5679
 3442SOL     OW21961   3.598   2.999   2.969  0.4115  0.4071  0.1720
 3442SOL    HW121962   3.634   2.921   2.927 -0.2581 -0.8984  1.9905
 3442SOL    HW221963   3.538   2.958   3.032  0.4842 -1.7446 -1.1684
 3443SOL     OW21964   4.446   0.741   2.080 -0.0556 -0.1528  0.1770
 3443SOL    HW121965   4.400   0.812   2.124  0.0390 -0.8158  1.3447
 3443SOL    HW221966   4.386   0.732   2.006 -0.2156  2.5140 -0.0258
 3444SOL     OW21967   3.673   2.710   3.240 -0.0087  0.4255  0.1379
 3444SOL    HW121968   3.700   2.686   3.151 -1.9666 -1.3930  0.0538
 3444SOL    HW221969   3.732   2.650   3.286 -0.1177  0.5557  0.4413
 3445SOL     OW21970   3.695   1.478   4.708 -0.3958 -0.3252  0.0757
 3445SOL    HW121971   3.701   1.564   4.749  1.7647 -0.8321  0.7888
 3445SOL    HW221972   3.740   1.487   4.624  1.2100 -4.7399  0.4472
 3446SOL     OW21973   2.451   2.097  17.646  0.7780 -0.5210 -0.2290
 3446SOL    HW121974   2.374   2.105  17.589 -0.1366  2.3852  1.4143
 3446SOL    HW221975   2.417   2.056  17.726 -1.8369  0.0475 -1.0332
 3447SOL     OW21976   1.805   3.113   2.219 -0.3040 -0.3844 -0.0207
 3447SOL    HW121977   1.801   3.061   2.300  0.5540  0.4262  0.5403
 3447SOL    HW221978   1.712   3.117   2.196 -0.8344  2.1463  2.4850
 3448SOL     OW21979   0.266   1.565   0.754  0.2683 -0.1241 -0.3074
 3448SOL    HW121980   0.269   1.556   0.658  2.8050 -0.3131 -0.2132
 3448SOL    HW221981   0.263   1.473   0.782  2.8809 -0.0410  0.2012
 3449SOL     OW21982   0.560   1.253   0.013  0.5792  0.3978 -0.2061
 3449SOL    HW121983   0.631   1.190  17.759 -1.3484 -1.6961 -0.4978
 3449SOL    HW221984   0.494   1.212  17.719 -1.0778  1.2974  1.1028
 3450SOL     OW21985   2.853   4.011  11.345  0.0450 -0.0381 -0.0640
 3450SOL    HW121986   2.786   4.066  11.386  1.5686  0.4723  1.7663
 3450SOL    HW221987   2.927   4.072  11.344  0.6655 -0.7671  0.8022
 3451SOL     OW21988   0.605   1.148   7.477 -0.6224  0.1647 -0.1687
 3451SOL    HW121989   0.658   1.120   7.401 -1.6623  0.0349 -0.8458
 3451SOL    HW221990   0.604   1.238   7.444 -0.9609  0.6384  1.1605
 3452SOL     OW21991   1.719   3.188   1.137  0.2334  0.0847 -0.2173
 3452SOL    HW121992   1.701   3.105   1.092  1.5297  1.4728 -3.2866
 3452SOL    HW221993   1.799   3.194   1.085 -1.1780 -1.2342 -2.5611
 3453SOL     OW21994   1.047   1.939   1.670  0.0917  0.2636 -0.0557
 3453SOL    HW121995   0.969   1.994   1.659  0.0616  0.2236 -0.0397
 3453SOL    HW221996   1.113   2.007   1.684  1.5159 -1.1562  0.0794
 3454SOL     OW21997   0.445   1.642  12.645 -0.0314  0.1744  0.5191
 3454SOL    HW121998   0.479   1.716  12.595  0.7623  0.2234  1.1299
 3454SOL    HW221999   0.371   1.680  12.691 -0.0266 -0.8299  1.3670
 3455SOL     OW22000   4.135   2.612   0.586  0.1670  0.0332 -0.5979
 3455SOL    HW122001   4.052   2.583   0.547  0.3171  1.5921 -2.1058
 3455SOL    HW222002   4.166   2.534   0.630  1.8016  0.5581 -0.8218
 3456SOL     OW22003   4.019   0.288   1.381  0.4388  0.6564  0.2480
 3456SOL    HW122004   3.988   0.362   1.328 -0.9314 -0.1999 -0.1561
 3456SOL    HW222005   3.935   0.246   1.398  0.5343 -0.5537 -2.2843
 3457SOL     OW22006   4.663   3.696   4.576 -0.4943  0.7816 -0.5782
 3457SOL    HW122007   4.726   3.654   4.517  0.6891 -0.4663  1.5597
 3457SOL    HW222008   4.664   3.629   4.645  2.6691  1.3617 -0.0645
 3458SOL     OW22009   4.083   2.849  11.325  0.4806 -0.1230  0.3735
 3458SOL    HW122010   4.026   2.776  11.301  0.5788  0.3938 -1.4342
 3458SOL    HW222011   4.018   2.919  11.322  0.0322 -0.5545  0.1579
 3459SOL     OW22012   4.106   2.891   1.993  0.2949 -0.7820 -0.7087
 3459SOL    HW122013   4.056   2.915   2.070 -1.1903  0.0422 -1.9243
 3459SOL    HW222014   4.039   2.859   1.933 -0.4908 -1.1318  0.3657
 3460SOL     OW22015   3.671   3.804   2.762  0.2090  0.4070 -0.2147
 3460SOL    HW122016   3.662   3.899   2.771 -1.3942  0.1622  0.7635
 3460SOL    HW222017   3.748   3.790   2.817 -1.6420 -2.6248  1.5997
 3461SOL     OW22018   4.655   4.010   9.664  0.1733  0.1842 -0.6493
 3461SOL    HW122019   4.677   4.025   9.756 -0.2508  1.8420 -0.8123
 3461SOL    HW222020   4.732   3.964   9.632 -0.6542 -1.9843  0.5175
 3462SOL     OW22021   0.616   4.074   1.691  0.0343 -0.0195  0.0581
 3462SOL    HW122022   0.596   4.162   1.657  0.1727  0.4839  1.2890
 3462SOL    HW222023   0.663   4.042   1.614 -2.4107 -0.8494 -1.0738
 3463SOL     OW22024   4.694   0.839  13.980 -0.3368  0.4200 -0.1167
 3463SOL    HW122025   4.637   0.912  14.003 -1.4701 -0.7178  0.6969
 3463SOL    HW222026   0.005   0.818  14.057  1.0097  0.5779 -0.9821
 3464SOL     OW22027   4.491   3.034  15.759  0.0335  0.2064  0.4346
 3464SOL    HW122028   4.400   3.021  15.787  0.6505 -3.0700  0.9603
 3464SOL    HW222029   4.500   2.953  15.708  0.4902 -0.9509  2.3349
 3465SOL     OW22030   2.774   3.658   7.695 -0.2381  0.0950  0.3998
 3465SOL    HW122031   2.857   3.615   7.715 -0.4140 -0.0605  0.7834
 3465SOL    HW222032   2.717   3.605   7.750  0.5721 -1.2623 -0.0781
 3466SOL     OW22033   1.967   2.473  17.524 -0.1547 -0.3492  0.2191
 3466SOL    HW122034   1.895   2.409  17.528 -0.3493 -0.2182 -1.1750
 3466SOL    HW222035   1.938   2.535  17.590  1.5826 -1.9365  2.4474
 3467SOL     OW22036   0.923   2.733   0.363 -0.1975  0.8114 -0.1527
 3467SOL    HW122037   0.860   2.746   0.292  0.0169 -1.9274 -0.8694
 3467SOL    HW222038   0.911   2.640   0.382  0.4227  0.5594 -0.9996
 3468SOL     OW22039   0.318   3.838   9.472  0.7782  0.8140  0.2600
 3468SOL    HW122040   0.376   3.762   9.473 -1.5774 -0.9772  2.7591
 3468SOL    HW222041   0.344   3.869   9.385  1.4507  0.6813  0.4146
 3469SOL     OW22042   1.134   0.579   5.595  0.4364  0.5310  0.5556
 3469SOL    HW122043   1.052   0.613   5.558  0.2191 -1.3578 -0.6955
 3469SOL    HW222044   1.133   0.485   5.580 -0.7137  0.8999 -1.7921
 3470SOL     OW22045   2.504   2.535   4.999  0.4108  0.1220  0.2454
 3470SOL    HW122046   2.521   2.575   5.084  0.2957  2.0827 -0.6432
 3470SOL    HW222047   2.419   2.563   4.963 -1.5937 -3.4136  2.2520
 3471SOL     OW22048   1.577   2.826   6.407 -0.3096  0.1537 -0.3937
 3471SOL    HW122049   1.553   2.879   6.483 -1.7335  1.4487 -1.7663
 3471SOL    HW222050   1.490   2.802   6.376  0.0751 -1.3945 -0.2822
 3472SOL     OW22051   2.233   0.170   9.418 -0.2801  0.4359  0.4639
 3472SOL    HW122052   2.170   0.241   9.427 -0.5407  0.3167 -0.3387
 3472SOL    HW222053   2.288   0.200   9.346  2.2313 -2.2126  1.3045
 3473SOL     OW22054   2.188   2.151   5.230 -0.5245  0.7607 -0.2990
 3473SOL    HW122055   2.131   2.091   5.278  1.8796 -2.3900 -1.4157
 3473SOL    HW222056   2.244   2.095   5.176  0.1384  1.0493  0.0884
 3474SOL     OW22057   4.277   1.940   7.758  0.5355  0.0913 -0.5518
 3474SOL    HW122058   4.358   1.920   7.710  1.2808  0.0972  0.6910
 3474SOL    HW222059   4.270   1.863   7.815 -0.2596 -0.1420 -0.9709
 3475SOL     OW22060   3.199   1.976   6.770 -0.0920 -0.8324 -0.4113
 3475SOL    HW122061   3.123   1.927   6.801 -1.1044  0.8142 -0.3147
 3475SOL    HW222062   3.205   1.949   6.678  1.1372 -0.8096 -0.3367
 3476SOL     OW22063   2.408   1.040   4.420 -0.3501 -0.3936  0.2282
 3476SOL    HW122064   2.470   0.973   4.391  0.3694 -0.7682  2.6085
 3476SOL    HW222065   2.460   1.097   4.478 -1.0366  0.0676  0.3936
 3477SOL     OW22066   0.839   3.531   2.075  0.2919 -0.7879 -0.0148
 3477SOL    HW122067   0.808   3.459   2.019  2.9231 -0.7908 -1.4756
 3477SOL    HW222068   0.864   3.597   2.010 -0.0599 -1.0299 -0.4002
 3478SOL     OW22069   2.806   4.469   6.095  0.4275 -0.4772  0.2267
 3478SOL    HW122070   2.840   4.446   6.008 -0.5037 -0.7859 -0.0488
 3478SOL    HW222071   2.791   4.381   6.128  1.1669  0.0184  1.8669
 3479SOL     OW22072   2.155   3.065   7.196  0.0359  0.3422  0.2154
 3479SOL    HW122073   2.209   3.057   7.274  2.7303 -2.4828 -1.9669
 3479SOL    HW222074   2.133   2.975   7.175 -2.5138  1.3281 -1.3767
 3480SOL     OW22075   0.963   0.771   5.265 -0.4630 -0.6657  0.1251
 3480SOL    HW122076   0.986   0.807   5.350 -0.4854 -2.0915  0.7186
 3480SOL    HW222077   1.043   0.765   5.213 -0.9376  1.5742 -0.8954
 3481SOL     OW22078   0.224   1.764  12.769  0.2479 -0.2235 -0.2004
 3481SOL    HW122079   0.202   1.836  12.709 -0.6827 -0.3364  0.0072
 3481SOL    HW222080   0.294   1.799  12.823 -0.2388  1.9621 -0.9702
 3482SOL     OW22081   0.178   2.424   3.580 -0.0049 -0.3725  0.3166
 3482SOL    HW122082   0.142   2.414   3.492 -2.4425 -2.5445  1.5504
 3482SOL    HW222083   0.098   2.425   3.633 -0.8503  1.4353 -0.9819
 3483SOL     OW22084   0.096   3.278   5.126 -0.0506  0.0379  0.0249
 3483SOL    HW122085   0.127   3.294   5.215  1.5268 -2.2986 -0.1241
 3483SOL    HW222086   0.073   3.186   5.133 -1.8017  0.4973  0.2809
 3484SOL     OW22087   0.051   2.695   8.326  0.0094 -0.2747  0.0689
 3484SOL    HW122088   4.700   2.668   8.331  0.3814 -1.5410  0.1015
 3484SOL    HW222089   0.085   2.689   8.415  0.9388  0.1162 -0.2611
 3485SOL     OW22090   0.448   4.465   1.908 -0.7392 -0.5236  0.2901
 3485SOL    HW122091   0.461   4.538   1.847 -2.4652  0.4737  1.1068
 3485SOL    HW222092   0.516   4.488   1.972  0.1868 -1.0889 -0.4907
 3486SOL     OW22093   0.443   2.636   3.888 -0.3801  0.1362  0.3320
 3486SOL    HW122094   0.417   2.720   3.851 -0.5069 -0.0742 -0.0616
 3486SOL    HW222095   0.533   2.652   3.918  0.0386 -0.2916 -0.6811
 3487SOL     OW22096   2.848   3.926  16.367  0.0258  0.4586 -0.3014
 3487SOL    HW122097   2.893   3.876  16.299  0.7006  1.3071 -0.4765
 3487SOL    HW222098   2.769   3.952  16.320  0.3414  2.0473  0.0716
 3488SOL     OW22099   4.362   1.056  13.237  0.0801 -0.0350 -0.1569
 3488SOL    HW122100   4.383   1.144  13.269 -0.4744 -0.4469  1.3269
 3488SOL    HW222101   4.268   1.049  13.251  0.2426  0.9431  1.3687
 3489SOL     OW22102   2.947   2.207   3.276 -0.2471  0.4677 -0.3862
 3489SOL    HW122103   2.993   2.264   3.338  0.5269 -0.1624 -0.3891
 3489SOL    HW222104   2.856   2.229   3.296  0.0133 -1.5033  2.9329
 3490SOL     OW22105   4.635   0.636   5.915  0.6179  0.4539 -0.3660
 3490SOL    HW122106   4.695   0.594   5.978  0.2096  0.8901  0.3082
 3490SOL    HW222107   4.597   0.696   5.979 -1.1072  1.3531 -2.2495
 3491SOL     OW22108   2.298   2.357  11.278 -0.1991  0.5679 -0.0929
 3491SOL    HW122109   2.293   2.444  11.239 -0.6480  0.0126 -1.2826
 3491SOL    HW222110   2.205   2.345  11.298 -0.4371 -0.7756 -1.9769
 3492SOL     OW22111   2.859   2.538   4.437  0.3861 -0.1342  0.3188
 3492SOL    HW122112   2.951   2.512   4.427  0.4238 -0.0151  0.3610
 3492SOL    HW222113   2.819   2.512   4.354 -2.1709  1.8310  0.9547
 3493SOL     OW22114   1.507   4.116  15.917  0.6585 -0.0357 -0.1839
 3493SOL    HW122115   1.464   4.082  15.838  1.7886 -1.4579 -0.1917
 3493SOL    HW222116   1.456   4.070  15.984  0.7458  0.2007  0.0446
 3494SOL     OW22117   2.500   4.141   3.669 -0.0852 -0.3563 -0.0311
 3494SOL    HW122118   2.532   4.100   3.749 -1.4935 -1.9848 -0.2909
 3494SOL    HW222119   2.435   4.201   3.706 -0.0279  0.2171 -0.8592
 3495SOL     OW22120   0.171   2.016  13.093 -0.2485 -0.0118 -0.1065
 3495SOL    HW122121   0.132   2.102  13.078 -0.8307 -0.3003 -0.2476
 3495SOL    HW222122   0.126   1.962  13.028  1.2107 -0.8695 -0.4009
 3496SOL     OW22123   0.272   2.818  15.109 -0.3508  0.3638  0.4007
 3496SOL    HW122124   0.362   2.849  15.120  0.6805 -2.1036 -0.8813
 3496SOL    HW222125   0.286   2.744  15.050 -0.7771 -1.1163  2.1576
 3497SOL     OW22126   2.103   2.982  11.551  0.3654 -0.0215  0.3848
 3497SOL    HW122127   2.131   2.904  11.598 -1.2884 -1.1562 -0.5079
 3497SOL    HW222128   2.143   3.035  11.620 -2.9892  0.7988  1.6904
 3498SOL     OW22129   3.963   0.786   6.455  0.2989  0.0072  0.3593
 3498SOL    HW122130   3.936   0.854   6.517  1.7300 -1.2981  2.4018
 3498SOL    HW222131   3.953   0.711   6.513  0.7461  0.1213  0.5767
 3499SOL     OW22132   1.625   1.496   1.269  0.2061 -0.2884 -0.3202
 3499SOL    HW122133   1.581   1.423   1.225 -1.3717 -1.1308  2.6929
 3499SOL    HW222134   1.549   1.553   1.281  1.1551  0.7914  0.5084
 3500SOL     OW22135   3.629   0.519   1.757 -0.5807 -0.0377  0.3820
 3500SOL    HW122136   3.615   0.582   1.828 -0.9617  1.7076 -1.2407
 3500SOL    HW222137   3.541   0.516   1.719 -0.4469  0.4858  0.0385
 3501SOL     OW22138   4.086   1.041   4.212 -0.4512  0.0254 -0.0594
 3501SOL    HW122139   4.016   1.104   4.196  0.5875  1.7389  2.2584
 3501SOL    HW222140   4.063   1.006   4.298  1.0875 -0.7432  0.0430
 3502SOL     OW22141   2.559   4.662  11.052 -0.1323  0.0712 -0.0978
 3502SOL    HW122142   2.560   0.013  11.024 -0.1536 -0.2983 -1.3115
 3502SOL    HW222143   2.471   4.657  11.090  0.4390  3.7032  1.6686
 3503SOL     OW22144   0.617   4.100   8.939  0.0502  0.0282 -0.0434
 3503SOL    HW122145   0.618   4.012   8.978  0.1705  0.3022  0.5552
 3503SOL    HW222146   0.575   4.160   9.000  0.5179 -0.0775  0.3851
 3504SOL     OW22147   1.072   1.244   9.281  0.0548  0.1895 -0.0317
 3504SOL    HW122148   1.010   1.304   9.240  2.8988  2.0031 -1.6651
 3504SOL    HW222149   1.102   1.195   9.204 -0.4472 -1.3181  0.7449
 3505SOL     OW22150   0.668   0.312   3.898 -0.5846  0.4097  0.2095
 3505SOL    HW122151   0.662   0.288   3.990 -0.9017  0.6538  0.2545
 3505SOL    HW222152   0.577   0.314   3.868 -0.0985  0.5353 -1.2654
 3506SOL     OW22153   0.568   3.802   6.466  0.3837  0.0259 -0.0703
 3506SOL    HW122154   0.592   3.895   6.465 -0.1753  0.1370 -2.8953
 3506SOL    HW222155   0.629   3.770   6.532 -1.6922 -0.5606  1.5741
 3507SOL     OW22156   1.027   4.443   7.362  0.2941  0.2647 -0.3923
 3507SOL    HW122157   1.046   4.412   7.450  1.1625 -0.1962 -0.7406
 3507SOL    HW222158   1.073   4.377   7.309  0.3820 -0.4813  0.6263
 3508SOL     OW22159   1.519   4.358  17.061 -0.2143 -0.0245  0.2374
 3508SOL    HW122160   1.548   4.340  16.971 -0.5914  3.0473 -0.4769
 3508SOL    HW222161   1.543   4.449  17.073 -2.2678  0.3664  1.2920
 3509SOL     OW22162   4.121   3.043   1.684 -0.2356  0.3293  0.1503
 3509SOL    HW122163   4.078   2.967   1.642 -4.1811  1.2938  2.4451
 3509SOL    HW222164   4.097   3.118   1.629 -0.5604 -1.3422 -2.0247
 3510SOL     OW22165   3.862   0.623  15.829  0.5817 -0.3611  0.3271
 3510SOL    HW122166   3.864   0.717  15.812  0.9188 -0.3297  0.5510
 3510SOL    HW222167   3.947   0.601  15.791  0.1352 -1.1622 -0.2284
 3511SOL     OW22168   0.801   3.469   1.506 -0.0349 -0.2194 -0.2932
 3511SOL    HW122169   0.890   3.494   1.479 -0.4170  0.5240 -0.8615
 3511SOL    HW222170   0.769   3.558   1.518  1.3480  0.2205  0.1736
 3512SOL     OW22171   3.713   4.648   6.998  0.6998 -0.6946 -0.1677
 3512SOL    HW122172   3.722   0.002   6.988  0.2666 -0.9480 -2.9783
 3512SOL    HW222173   3.682   4.654   7.088 -0.6027 -0.9272 -0.6078
 3513SOL     OW22174   1.884   3.224  10.325 -0.5252 -0.1566  0.2602
 3513SOL    HW122175   1.848   3.140  10.294 -0.6861 -0.0823  0.2490
 3513SOL    HW222176   1.895   3.265  10.239  1.8447 -1.7895 -0.2494
 3514SOL     OW22177   1.832   0.823   4.885 -0.1980 -0.7988 -0.2112
 3514SOL    HW122178   1.842   0.916   4.863 -1.3444 -0.7120 -0.3497
 3514SOL    HW222179   1.852   0.829   4.978 -2.9775  0.1276  0.3141
 3515SOL     OW22180   1.522   2.096  14.257 -0.3809  0.4054  0.1889
 3515SOL    HW122181   1.445   2.130  14.301 -1.7520  0.9358 -2.6138
 3515SOL    HW222182   1.594   2.142  14.300 -1.0366  0.0770  1.6260
 3516SOL     OW22183   3.165   2.480   0.291  0.2025 -0.4342  0.1270
 3516SOL    HW122184   3.250   2.493   0.333  0.0232 -0.4657  0.4913
 3516SOL    HW222185   3.099   2.484   0.360 -0.8608  0.3099 -0.9345
 3517SOL     OW22186   3.042   3.188   1.064 -0.1174 -0.6940 -0.0766
 3517SOL    HW122187   3.072   3.242   0.991  0.5038 -3.0633 -1.5653
 3517SOL    HW222188   2.952   3.170   1.037 -0.2220 -1.0813  0.5130
 3518SOL     OW22189   0.305   2.732  10.176 -0.3821 -0.1469 -0.0013
 3518SOL    HW122190   0.264   2.690  10.100  1.9524  1.5307 -2.1525
 3518SOL    HW222191   0.254   2.813  10.172  0.2736  0.3154  1.0510
 3519SOL     OW22192   3.384   2.870   9.892 -0.0058  0.0542 -0.1102
 3519SOL    HW122193   3.403   2.962   9.910 -0.5567  0.7295 -2.8506
 3519SOL    HW222194   3.389   2.840   9.982  0.1888 -1.6978 -0.7027
 3520SOL     OW22195   2.610   1.933  15.246 -0.0201  0.0598 -0.3765
 3520SOL    HW122196   2.704   1.945  15.238 -0.4354  2.4882 -1.6567
 3520SOL    HW222197   2.575   1.999  15.186  0.2576 -1.2131 -1.9507
 3521SOL     OW22198   4.157   2.028   8.402  0.3687 -0.5009  0.0271
 3521SOL    HW122199   4.250   2.008   8.417  0.2702 -0.2434  0.9824
 3521SOL    HW222200   4.151   2.119   8.431  0.1826 -0.8705  1.1539
 3522SOL     OW22201   0.634   0.309   8.389 -0.2555  0.2507  0.5708
 3522SOL    HW122202   0.608   0.350   8.471 -2.5549  1.7688 -0.9015
 3522SOL    HW222203   0.682   0.233   8.420 -1.0460  0.2564  1.8026
 3523SOL     OW22204   0.638   3.212   8.830  0.0564  0.1727  0.3132
 3523SOL    HW122205   0.695   3.136   8.825 -0.4529 -0.2933  1.7222
 3523SOL    HW222206   0.643   3.255   8.744  3.2482  1.5998  1.2007
 3524SOL     OW22207   0.033   4.621   5.941  0.0952 -0.0206  1.1996
 3524SOL    HW122208   0.101   4.560   5.913  0.5151  0.7265  0.6082
 3524SOL    HW222209   4.689   4.580   5.923  0.0300  1.3043 -1.5334
 3525SOL     OW22210   1.279   4.618   1.938 -0.1544  0.2071 -0.1435
 3525SOL    HW122211   1.260   4.536   1.984 -0.5382  0.3180 -0.1094
 3525SOL    HW222212   1.192   4.637   1.903 -0.1430 -1.4812 -1.0825
 3526SOL     OW22213   3.163   3.537   7.228 -0.2680  0.3439  0.3402
 3526SOL    HW122214   3.246   3.499   7.202  0.3301  3.0206 -1.7199
 3526SOL    HW222215   3.141   3.580   7.145  1.5999  0.6957  0.0295
 3527SOL     OW22216   2.400   0.376   5.442 -0.7155  0.0662 -0.0268
 3527SOL    HW122217   2.364   0.315   5.506 -2.6447  0.7320 -0.4943
 3527SOL    HW222218   2.454   0.317   5.389 -0.2027  1.0251 -0.5706
 3528SOL     OW22219   2.526   2.007   5.665 -0.0164  0.6737  0.6850
 3528SOL    HW122220   2.555   1.918   5.684 -2.2263 -0.2097 -0.1123
 3528SOL    HW222221   2.520   2.001   5.570 -0.9378  1.7833  0.6725
 3529SOL     OW22222   0.902   4.275  16.862 -0.1877  0.0561 -0.0298
 3529SOL    HW122223   0.877   4.355  16.908  0.6852 -0.5131  1.4488
 3529SOL    HW222224   0.956   4.236  16.931 -3.7411 -0.9789  2.1547
 3530SOL     OW22225   3.947   1.581   2.200 -0.3325 -0.0694  0.5012
 3530SOL    HW122226   3.898   1.554   2.122 -1.6270  1.0411  0.9300
 3530SOL    HW222227   3.900   1.662   2.222 -0.7182  0.2995 -1.6818
 3531SOL     OW22228   3.625   0.282   4.818  0.0004 -0.5056  0.5423
 3531SOL    HW122229   3.626   0.329   4.901 -1.2812  1.7466 -0.7230
 3531SOL    HW222230   3.536   0.295   4.785 -0.6840  0.3082  2.7450
 3532SOL     OW22231   0.068   0.131   5.403 -0.4786 -0.4233 -0.2449
 3532SOL    HW122232   0.050   0.156   5.312 -1.8718 -1.6177 -0.2913
 3532SOL    HW222233   0.022   0.192   5.460  0.6296 -1.6158  1.9000
 3533SOL     OW22234   0.790   3.913   7.337 -0.2383 -0.4189 -0.2759
 3533SOL    HW122235   0.776   3.996   7.292 -0.6958 -0.2605  0.1608
 3533SOL    HW222236   0.884   3.903   7.322 -0.4545  0.2272 -2.0669
 3534SOL     OW22237   2.985   2.442   8.765  0.3475  0.6115  0.6759
 3534SOL    HW122238   3.014   2.352   8.782  0.8999  0.9082  1.3018
 3534SOL    HW222239   2.986   2.446   8.669  1.4102 -1.0397  0.6177
 3535SOL     OW22240   1.595   4.099   4.907  0.7860 -0.3001 -0.0460
 3535SOL    HW122241   1.548   4.158   4.848 -0.3186  0.3951  1.5260
 3535SOL    HW222242   1.666   4.063   4.854 -0.5299 -1.0387 -1.2921
 3536SOL     OW22243   0.988   2.143   7.207  0.2954  0.1378  0.0486
 3536SOL    HW122244   0.979   2.049   7.191  1.5819 -0.2910  1.8776
 3536SOL    HW222245   1.080   2.148   7.182  0.1577 -1.6712 -0.8344
 3537SOL     OW22246   0.093   0.566   4.914  0.1986  0.0993 -0.5994
 3537SOL    HW122247   0.179   0.563   4.955 -0.5366 -1.1186  0.8598
 3537SOL    HW222248   0.037   0.557   4.991  0.2845  0.5079 -0.4919
 3538SOL     OW22249   3.949   3.015   0.883 -0.6022  0.2329 -0.3070
 3538SOL    HW122250   4.029   3.064   0.903 -0.0336 -1.9577  2.6837
 3538SOL    HW222251   3.980   2.924   0.879  0.3820  0.6621 -2.6905
 3539SOL     OW22252   4.248   0.578   7.854 -0.2788 -0.3570 -0.4533
 3539SOL    HW122253   4.262   0.638   7.927 -1.9362 -1.6003  0.8739
 3539SOL    HW222254   4.295   0.629   7.788  2.1821 -0.4390  1.2142
 3540SOL     OW22255   1.057   4.664  17.357  0.4337  0.2375  0.1787
 3540SOL    HW122256   1.114   4.733  17.390  0.3863  0.9875 -1.3258
 3540SOL    HW222257   1.047   4.672  17.262  3.0991  0.2302 -0.1074
 3541SOL     OW22258   0.536   1.903  15.469 -0.2805 -0.1913 -0.8292
 3541SOL    HW122259   0.625   1.880  15.444 -0.4451  0.1734 -1.7576
 3541SOL    HW222260   0.539   1.862  15.556 -0.2406 -0.5511 -0.9976
 3542SOL     OW22261   3.335   3.268  17.492  0.6969  0.1510  0.2558
 3542SOL    HW122262   3.296   3.303  17.412  1.2876  2.0049  0.7743
 3542SOL    HW222263   3.324   3.174  17.482  3.4492 -0.1766  0.3332
 3543SOL     OW22264   3.188   0.240   5.236  0.4069 -0.1030 -0.3693
 3543SOL    HW122265   3.250   0.313   5.231 -0.0675  0.2683 -0.8014
 3543SOL    HW222266   3.134   0.261   5.312  3.6280 -1.9786  2.3856
 3544SOL     OW22267   0.074   3.177   0.115  0.4490 -0.0575  0.1645
 3544SOL    HW122268   0.093   3.212   0.203  1.5891 -0.9263  0.2619
 3544SOL    HW222269   0.102   3.255   0.067 -0.9885  1.0121  1.0570
 3545SOL     OW22270   3.630   0.751   3.879  0.6393 -0.1323 -0.2177
 3545SOL    HW122271   3.686   0.827   3.896 -2.6156  2.2492 -0.0879
 3545SOL    HW222272   3.546   0.782   3.845  0.0365 -2.0079 -0.4694
 3546SOL     OW22273   3.380   0.409   7.856  0.4516  0.0258  0.6442
 3546SOL    HW122274   3.285   0.407   7.855  0.4971 -1.5712 -1.1944
 3546SOL    HW222275   3.405   0.495   7.889 -3.7603  1.2012  0.6870
 3547SOL     OW22276   0.053   2.087   9.114 -0.0302  0.0743  0.4484
 3547SOL    HW122277   0.016   2.138   9.043  2.8101 -0.0919 -1.1597
 3547SOL    HW222278   0.023   2.129   9.195 -0.6225  2.2996 -0.9411
 3548SOL     OW22279   0.172   1.648  10.274 -0.6263  0.1289  0.4864
 3548SOL    HW122280   0.124   1.690  10.345  1.1491  0.6410  1.3863
 3548SOL    HW222281   0.107   1.671  10.207  0.0306 -1.7675 -0.8133
 3549SOL     OW22282   2.490   0.151  13.472  0.3175 -0.3581  0.1066
 3549SOL    HW122283   2.524   0.220  13.529 -0.0343 -0.2697  0.2097
 3549SOL    HW222284   2.565   0.147  13.413 -0.6677 -0.8018 -1.1010
 3550SOL     OW22285   4.216   0.279   2.156 -0.2104  0.1264 -0.1615
 3550SOL    HW122286   4.267   0.210   2.113  2.1461  1.9310 -0.2971
 3550SOL    HW222287   4.288   0.341   2.168 -0.0443 -0.3445  1.2214
 3551SOL     OW22288   0.853   1.109   6.529 -0.3342 -0.3318 -0.1159
 3551SOL    HW122289   0.918   1.178   6.524  0.8925 -1.5766 -1.3765
 3551SOL    HW222290   0.861   1.080   6.438  1.2297  0.4795 -0.2226
 3552SOL     OW22291   3.943   0.491   5.146  0.0269 -0.1664  0.0293
 3552SOL    HW122292   3.903   0.421   5.197 -0.1840  1.8454  2.6132
 3552SOL    HW222293   3.958   0.559   5.212  0.9538 -1.2282  0.8907
 3553SOL     OW22294   3.049   3.529   4.237  0.5338  0.1855 -0.1510
 3553SOL    HW122295   3.086   3.457   4.185  0.9744 -0.4327  1.0154
 3553SOL    HW222296   3.120   3.556   4.296  1.3897 -1.4630 -0.4292
 3554SOL     OW22297   0.064   0.754   3.461  0.5609 -0.1934 -0.8338
 3554SOL    HW122298   0.040   0.756   3.553 -1.2381 -1.8872 -1.2759
 3554SOL    HW222299   0.027   0.837   3.432 -1.3391 -1.0902 -0.9348
 3555SOL     OW22300   4.414   4.572   4.188 -0.3059 -0.3262 -0.1838
 3555SOL    HW122301   4.449   4.624   4.261  2.3527 -1.2578 -0.8091
 3555SOL    HW222302   4.445   4.484   4.208 -1.1546 -0.5189  0.2887
 3556SOL     OW22303   1.320   2.651   3.729  0.4446  0.1238 -0.1016
 3556SOL    HW122304   1.275   2.643   3.813 -1.3197 -0.5344 -1.1110
 3556SOL    HW222305   1.246   2.672   3.671  0.1382 -1.1773 -0.1764
 3557SOL     OW22306   1.993   1.372   5.757  0.3376  0.8006  0.1676
 3557SOL    HW122307   1.974   1.460   5.790  0.2737  0.8909 -0.1099
 3557SOL    HW222308   1.991   1.374   5.661 -1.7875  0.8818  0.2280
 3558SOL     OW22309   2.247   4.261   3.496 -0.7182  0.0058  0.2915
 3558SOL    HW122310   2.314   4.279   3.429  0.9684  0.0764  2.0093
 3558SOL    HW222311   2.186   4.223   3.432  1.0308  1.0488 -2.0155
 3559SOL     OW22312   4.211   2.105   2.315 -0.7410  0.8606 -0.8106
 3559SOL    HW122313   4.175   2.033   2.367  0.8546  2.3878  2.4567
 3559SOL    HW222314   4.164   2.085   2.234 -0.4668 -0.1302 -0.7206
 3560SOL     OW22315   3.074   2.332   7.755 -0.0746 -0.3650 -0.1611
 3560SOL    HW122316   3.094   2.277   7.679  1.1626 -0.5350  0.2983
 3560SOL    HW222317   2.995   2.382   7.734 -0.7046 -1.3589 -0.1848
 3561SOL     OW22318   1.639   2.519  15.413  0.2235 -0.3080  0.0973
 3561SOL    HW122319   1.730   2.498  15.391  0.1206 -0.8046  0.1567
 3561SOL    HW222320   1.631   2.601  15.364 -2.7442 -1.3594 -1.1125
 3562SOL     OW22321   4.692   0.701   5.654  0.2825  0.5452  0.1887
 3562SOL    HW122322   4.684   0.686   5.748 -1.8716  1.1017  0.0903
 3562SOL    HW222323   0.024   0.650   5.618  0.8910  0.8436  1.0287
 3563SOL     OW22324   3.880   2.553   6.160 -1.2105  0.4369  0.7308
 3563SOL    HW122325   3.798   2.596   6.182 -0.4026  1.9514  0.7778
 3563SOL    HW222326   3.936   2.581   6.232 -1.9346  2.5331  0.4716
 3564SOL     OW22327   0.250   1.272   0.470 -0.5784  0.0391 -0.0611
 3564SOL    HW122328   0.325   1.235   0.517 -2.5915 -0.7532  2.5795
 3564SOL    HW222329   0.194   1.195   0.464  2.0733 -2.0811  2.4606
 3565SOL     OW22330   3.714   3.576   5.358 -0.0168 -0.5380  0.1421
 3565SOL    HW122331   3.671   3.491   5.356 -0.4201 -0.2919 -1.6635
 3565SOL    HW222332   3.740   3.574   5.266 -1.6063  0.6310 -0.3274
 3566SOL     OW22333   3.599   1.632   6.274  0.0481  0.8255  0.5539
 3566SOL    HW122334   3.583   1.628   6.180  0.9178 -1.5588  0.5036
 3566SOL    HW222335   3.639   1.546   6.293 -0.5875  0.4156  0.0450
 3567SOL     OW22336   2.606   4.047   4.561  0.3934 -0.1306 -0.4542
 3567SOL    HW122337   2.535   3.985   4.577 -0.1397  0.6440  0.2043
 3567SOL    HW222338   2.632   4.039   4.469 -1.7915  0.2231 -1.0841
 3568SOL     OW22339   3.773   4.495   2.396  0.1694 -0.4332  0.9375
 3568SOL    HW122340   3.863   4.466   2.412 -0.1358  0.0039  3.5145
 3568SOL    HW222341   3.736   4.522   2.480 -0.6585  1.6917 -0.1225
 3569SOL     OW22342   2.363   3.609  14.534  0.4585 -0.2237  0.2249
 3569SOL    HW122343   2.418   3.594  14.458 -0.3646 -1.4099 -0.1494
 3569SOL    HW222344   2.273   3.590  14.507  0.9116 -2.5225  0.3168
 3570SOL     OW22345   3.586   3.855   4.792  0.0744 -0.3301 -0.0714
 3570SOL    HW122346   3.648   3.875   4.722  2.1285  0.9428  2.1185
 3570SOL    HW222347   3.543   3.939   4.808 -3.2911 -1.9301 -0.8411
 3571SOL     OW22348   3.196   0.526  14.885  0.1546  0.0198  0.0559
 3571SOL    HW122349   3.263   0.518  14.952  0.8103 -0.0366 -0.6024
 3571SOL    HW222350   3.179   0.441  14.844 -1.7885 -0.0855  1.0739
 3572SOL     OW22351   0.781   1.615   0.429  0.7127 -0.1679 -0.5516
 3572SOL    HW122352   0.869   1.649   0.443  0.5040 -0.2048  0.8300
 3572SOL    HW222353   0.804   1.523   0.413  3.2316 -0.0514  2.2378
 3573SOL     OW22354   2.860   0.060   4.325 -0.2952 -0.2201  0.1136
 3573SOL    HW122355   2.828   0.005   4.397  0.7973 -0.3769  0.4726
 3573SOL    HW222356   2.810   0.141   4.338 -2.5934 -1.1238 -2.8845
 3574SOL     OW22357   0.369   3.609  10.508  0.4187 -0.9192 -0.3663
 3574SOL    HW122358   0.323   3.546  10.564 -1.1121  0.5208 -0.0233
 3574SOL    HW222359   0.440   3.557  10.470  1.7596  1.5113 -1.1293
 3575SOL     OW22360   4.731   3.414   8.550  0.1718 -0.0586 -0.0789
 3575SOL    HW122361   4.696   3.490   8.503  0.7809  0.3924  0.1999
 3575SOL    HW222362   4.664   3.403   8.617  1.5946 -0.1463  1.3145
 3576SOL     OW22363   4.202   2.998  13.996 -0.1032 -0.2788  0.0309
 3576SOL    HW122364   4.250   3.081  13.989 -1.8384  0.4825 -2.7568
 3576SOL    HW222365   4.211   2.951  13.913 -3.4553  0.0650 -0.4977
 3577SOL     OW22366   1.986   3.115  14.904  0.0540  0.0404  0.6474
 3577SOL    HW122367   2.080   3.125  14.913  0.0900 -0.2461  0.6028
 3577SOL    HW222368   1.980   3.165  14.823  1.2592 -1.0286 -0.0929
 3578SOL     OW22369   0.802   3.702   8.729 -0.3850 -0.3887 -0.3833
 3578SOL    HW122370   0.814   3.688   8.635 -1.4575  0.5535 -0.6555
 3578SOL    HW222371   0.712   3.734   8.732 -0.1398  0.5008 -2.0347
 3579SOL     OW22372   2.250   1.176   8.792  0.4029 -0.0487 -0.2255
 3579SOL    HW122373   2.190   1.216   8.855  1.2779 -0.3048  0.7650
 3579SOL    HW222374   2.298   1.119   8.853  1.5769  1.9731  0.7293
 3580SOL     OW22375   2.025   3.416  14.796 -0.1671  0.2073  0.2449
 3580SOL    HW122376   2.087   3.427  14.867 -0.5376 -1.0230  0.7522
 3580SOL    HW222377   1.965   3.489  14.812 -1.0607 -0.7820  1.3791
 3581SOL     OW22378   4.450   3.818  17.156 -0.5509  0.2343  0.2856
 3581SOL    HW122379   4.507   3.742  17.164  1.4192  1.6833  0.0011
 3581SOL    HW222380   4.499   3.870  17.220 -0.6653 -0.5727  1.0245
 3582SOL     OW22381   3.327   3.631   8.640  0.2160  0.7026 -0.1628
 3582SOL    HW122382   3.306   3.599   8.552 -2.4582  1.6013  0.1579
 3582SOL    HW222383   3.391   3.566   8.668  0.7630  0.5279 -1.7882
 3583SOL     OW22384   1.381   2.268   2.291 -0.1790  0.5468  0.2783
 3583SOL    HW122385   1.369   2.285   2.384  1.0409 -1.8424  0.8754
 3583SOL    HW222386   1.402   2.354   2.255 -0.0554  1.4146  2.3894
 3584SOL     OW22387   0.118   3.843   8.940 -0.6050  0.2304  0.8523
 3584SOL    HW122388   0.085   3.911   8.882  0.9209  0.9932  0.9001
 3584SOL    HW222389   0.145   3.889   9.019  2.9380  0.2557 -0.3675
 3585SOL     OW22390   2.441   2.597   4.524  0.7215 -0.1420 -0.1636
 3585SOL    HW122391   2.437   2.670   4.585 -0.6277  0.1229 -0.5751
 3585SOL    HW222392   2.464   2.645   4.444  0.2476  0.9831  0.3765
 3586SOL     OW22393   2.994   4.402   8.944 -0.2540  1.1307 -0.5253
 3586SOL    HW122394   3.015   4.346   8.870 -0.3375  2.1512 -1.3185
 3586SOL    HW222395   3.044   4.479   8.918  1.6025  0.4427  1.0273
 3587SOL     OW22396   0.388   1.075   5.871  0.0965  0.1169 -0.4736
 3587SOL    HW122397   0.339   1.035   5.943 -0.0042 -1.5358 -1.4722
 3587SOL    HW222398   0.323   1.136   5.837 -1.7553 -0.9120  1.2424
 3588SOL     OW22399   4.058   1.869   2.449 -0.0090 -0.1681 -1.0757
 3588SOL    HW122400   4.142   1.823   2.446 -0.5453 -1.3546  2.1368
 3588SOL    HW222401   4.025   1.850   2.361  0.2979  0.9832 -1.4344
 3589SOL     OW22402   3.182   2.000   5.322 -0.1460 -0.2329 -0.0008
 3589SOL    HW122403   3.269   2.000   5.362 -0.4020  0.7298  0.5410
 3589SOL    HW222404   3.159   2.092   5.312  2.5561  0.3985 -0.3790
 3590SOL     OW22405   1.988   4.366  15.355  0.7775 -0.7451 -0.3506
 3590SOL    HW122406   2.012   4.441  15.410  2.1678 -1.4358 -0.0276
 3590SOL    HW222407   2.025   4.292  15.403 -0.4769 -0.8964  0.3991
 3591SOL     OW22408   0.774   3.266   3.486 -0.0859  0.0329  0.3597
 3591SOL    HW122409   0.755   3.269   3.392  1.7897  0.1163 -0.0113
 3591SOL    HW222410   0.742   3.355   3.504  0.6085  0.8933 -2.7346
 3592SOL     OW22411   4.105   3.170   7.450 -0.1554 -0.6974 -0.3128
 3592SOL    HW122412   4.013   3.176   7.476  0.0549 -0.1859  0.3292
 3592SOL    HW222413   4.125   3.083   7.485 -3.3330 -1.5038 -0.4547
 3593SOL     OW22414   3.176   4.587  15.148 -0.0396  0.1290 -0.3869
 3593SOL    HW122415   3.206   4.546  15.229  0.2294  0.0086 -0.5470
 3593SOL    HW222416   3.081   4.578  15.161  0.0746 -1.1235 -0.4278
 3594SOL     OW22417   0.473   0.037   7.312 -0.4525  0.3364 -0.1288
 3594SOL    HW122418   0.545   4.723   7.343  0.1629  0.4686 -1.3402
 3594SOL    HW222419   0.508   0.126   7.322  3.1621 -1.0959 -0.0383
 3595SOL     OW22420   1.189   1.531   2.144  0.3290  0.1326  0.1667
 3595SOL    HW122421   1.160   1.520   2.054  0.5533 -0.9943  0.2356
 3595SOL    HW222422   1.113   1.570   2.189 -0.1289 -0.1718 -0.3363
 3596SOL     OW22423   1.051   1.936  13.184  0.0053 -0.0148  0.6927
 3596SOL    HW122424   1.055   1.881  13.263  3.0718 -0.3185  0.3184
 3596SOL    HW222425   1.013   2.019  13.214  0.6787  0.5866 -0.1231
 3597SOL     OW22426   2.753   1.777   3.820 -0.0832  0.2344 -0.2821
 3597SOL    HW122427   2.834   1.729   3.839 -1.4668 -1.1603  2.0018
 3597SOL    HW222428   2.782   1.861   3.784  1.0343  0.9364  2.2535
 3598SOL     OW22429   1.153   3.485  12.446  0.7514 -0.2671 -0.0082
 3598SOL    HW122430   1.180   3.552  12.384  1.0508 -0.2587  0.1305
 3598SOL    HW222431   1.147   3.533  12.528 -1.1750 -1.2194  0.3881
 3599SOL     OW22432   2.574   4.275   2.158  0.3339  0.2400 -0.1760
 3599SOL    HW122433   2.518   4.216   2.107  0.2275  0.9591 -0.8875
 3599SOL    HW222434   2.515   4.310   2.225  0.1227 -0.0568 -0.2055
 3600SOL     OW22435   3.471   2.678   6.976 -0.0551 -0.5069 -0.6184
 3600SOL    HW122436   3.491   2.589   7.006  0.8758 -0.1787 -0.2595
 3600SOL    HW222437   3.378   2.670   6.957 -0.3004  3.2176 -1.0183
 3601SOL     OW22438   3.772   4.316   8.502  0.6036  0.4246  0.3403
 3601SOL    HW122439   3.814   4.299   8.418 -2.2295 -1.1919 -0.7504
 3601SOL    HW222440   3.685   4.276   8.489  0.4945  1.2600 -1.4227
 3602SOL     OW22441   4.246   2.120   7.963  0.4296  0.1753  0.1170
 3602SOL    HW122442   4.181   2.087   8.026 -1.6739  0.3951 -1.9614
 3602SOL    HW222443   4.278   2.041   7.920 -1.0723 -0.8489  0.8823
 3603SOL     OW22444   1.484   2.849   7.767  0.1829 -0.2222  0.5998
 3603SOL    HW122445   1.489   2.911   7.840  0.1136  1.0149 -0.4465
 3603SOL    HW222446   1.519   2.768   7.803  0.1174 -0.4537  0.1317
 3604SOL     OW22447   2.669   0.016   6.678 -0.3442 -0.1868  0.4434
 3604SOL    HW122448   2.667   4.734   6.585  1.1566 -2.0742  0.8626
 3604SOL    HW222449   2.696   4.669   6.707  1.2880 -0.0668 -0.7417
 3605SOL     OW22450   4.429   1.735  17.365  0.1347 -0.0977  0.4264
 3605SOL    HW122451   4.375   1.701  17.294 -1.3169 -1.3756  2.1222
 3605SOL    HW222452   4.483   1.663  17.397  0.3266 -0.6630 -1.1588
 3606SOL     OW22453   4.340   4.158   4.408 -0.0427  0.3334  0.5599
 3606SOL    HW122454   4.315   4.075   4.368 -2.4670  0.8780  0.9834
 3606SOL    HW222455   4.255   4.185   4.441 -1.7182  0.4415 -3.8265
 3607SOL     OW22456   0.440   0.744  11.496  0.0245  0.0050  0.1888
 3607SOL    HW122457   0.377   0.688  11.450 -1.0871  2.8070 -1.7016
 3607SOL    HW222458   0.427   0.718  11.587  0.6932 -2.3588 -0.4012
 3608SOL     OW22459   0.747   3.480   5.302  0.6731 -0.2844  0.0368
 3608SOL    HW122460   0.765   3.571   5.328 -1.1235 -0.4813  1.9628
 3608SOL    HW222461   0.738   3.433   5.385 -2.2286  0.6538  0.2333
 3609SOL     OW22462   3.996   0.671   8.407 -0.3159  0.5817  0.5067
 3609SOL    HW122463   4.000   0.754   8.455  2.0644  0.4609  0.5286
 3609SOL    HW222464   4.079   0.643   8.444 -0.3539  1.0787  0.9729
 3610SOL     OW22465   2.688   3.292   8.748 -0.1470 -0.0474 -0.4689
 3610SOL    HW122466   2.696   3.369   8.691  1.4870  0.7009  0.7657
 3610SOL    HW222467   2.738   3.318   8.825  0.7092 -0.5556 -0.8438
 3611SOL     OW22468   3.311   0.631   6.629  0.4513  0.1675 -0.3950
 3611SOL    HW122469   3.264   0.633   6.546 -0.2435  0.1970  0.0010
 3611SOL    HW222470   3.345   0.542   6.620  0.6600  0.6096 -3.7526
 3612SOL     OW22471   2.305   3.039  13.828  0.0684  0.0902 -0.0295
 3612SOL    HW122472   2.264   2.957  13.800 -0.8322  0.4943  0.0917
 3612SOL    HW222473   2.378   3.032  13.767 -1.4666 -0.0162 -1.8343
 3613SOL     OW22474   1.907   3.873  15.020  0.2256 -0.6425 -0.0577
 3613SOL    HW122475   1.865   3.954  15.050 -1.1894 -0.1914 -3.1631
 3613SOL    HW222476   1.863   3.800  15.063 -1.8912 -0.5773 -2.0986
 3614SOL     OW22477   0.652   1.989   4.916 -0.1120 -0.5006  0.4907
 3614SOL    HW122478   0.682   2.043   4.989  3.1661 -2.7670  0.8277
 3614SOL    HW222479   0.729   1.932   4.907 -0.2436 -0.7864  1.1827
 3615SOL     OW22480   2.779   3.784  13.712 -0.0572 -0.1358  0.3537
 3615SOL    HW122481   2.874   3.782  13.696  0.4080  5.5071  2.2983
 3615SOL    HW222482   2.760   3.696  13.681  2.0175 -1.1666  1.9259
 3616SOL     OW22483   4.710   0.973   9.107  0.2953 -0.0528  0.1936
 3616SOL    HW122484   4.682   0.962   9.016  1.4857  1.8402 -0.4041
 3616SOL    HW222485   4.632   0.938   9.150  2.6955 -1.6754  3.2009
 3617SOL     OW22486   1.128   0.014   2.157  0.4204  0.5150  0.1376
 3617SOL    HW122487   1.092   4.690   2.096 -0.4884  3.1772 -2.1705
 3617SOL    HW222488   1.071   0.021   2.233  3.6601 -0.4002  2.6026
 3618SOL     OW22489   0.232   0.530  10.110  0.4304 -0.0804  0.4028
 3618SOL    HW122490   0.171   0.590  10.153  0.4690 -3.1566  4.6856
 3618SOL    HW222491   0.291   0.587  10.061 -1.3874 -0.3427 -2.1007
 3619SOL     OW22492   1.044   0.269  12.713 -0.2830 -0.0577 -0.8027
 3619SOL    HW122493   1.040   0.339  12.647 -1.6081  1.3024  0.7149
 3619SOL    HW222494   1.119   0.225  12.673  0.3013 -0.8042  1.1605
 3620SOL     OW22495   4.544   0.391   5.799 -0.7489 -0.4588 -0.5918
 3620SOL    HW122496   4.590   0.467   5.836 -0.6258 -0.4532 -0.7574
 3620SOL    HW222497   4.461   0.388   5.846 -0.0924 -0.3480  0.5942
 3621SOL     OW22498   0.500   3.344   3.670  0.2069 -0.0799  0.0349
 3621SOL    HW122499   0.514   3.416   3.609 -1.3521 -0.1125 -0.3662
 3621SOL    HW222500   0.405   3.344   3.673  0.2240 -1.9586  0.4552
 3622SOL     OW22501   2.371   3.043   5.239  0.5757 -0.0370  0.1146
 3622SOL    HW122502   2.465   3.053   5.222  0.5566  0.8844  0.5002
 3622SOL    HW222503   2.373   3.050   5.334 -2.6889  2.3665  0.0204
 3623SOL     OW22504   2.538   1.435   8.036 -0.0389  0.2160  0.1600
 3623SOL    HW122505   2.454   1.469   8.066 -0.0645 -0.9599  1.4282
 3623SOL    HW222506   2.523   1.350   8.077  2.1366 -1.1083 -1.7109
 3624SOL     OW22507   4.126   0.012   2.584 -0.0416  0.0348 -0.1038
 3624SOL    HW122508   4.076   4.673   2.600  0.9982 -0.4117  0.9303
 3624SOL    HW222509   4.216   4.723   2.599 -0.3033 -0.0597  1.2279
 3625SOL     OW22510   3.574   2.331   5.936 -0.3830  0.5560  0.0167
 3625SOL    HW122511   3.550   2.344   5.844 -0.1139 -1.2662 -0.3226
 3625SOL    HW222512   3.669   2.322   5.930 -0.4742 -0.4728  0.0533
 3626SOL     OW22513   0.598   0.311   0.179 -0.3996  0.3441 -0.4145
 3626SOL    HW122514   0.686   0.332   0.147  0.2523  0.2365  1.2729
 3626SOL    HW222515   0.568   0.399   0.200 -0.5143  0.1759  0.1272
 3627SOL     OW22516   3.653   2.694   2.046  0.4829  0.3594  0.0240
 3627SOL    HW122517   3.620   2.735   1.966 -1.6186 -0.5484  0.4330
 3627SOL    HW222518   3.591   2.710   2.117  1.6412  1.8611  0.6992
 3628SOL     OW22519   1.435   1.748   2.809  0.2952  0.5620  0.2451
 3628SOL    HW122520   1.426   1.703   2.894  2.8177  0.4279  0.4423
 3628SOL    HW222521   1.511   1.697   2.780  0.3780  0.4821  0.5986
 3629SOL     OW22522   0.035   0.545   2.526 -0.7270 -0.4682 -0.3974
 3629SOL    HW122523   4.727   0.514   2.450 -0.0535 -0.1763 -0.9487
 3629SOL    HW222524   4.721   0.623   2.526 -0.2953 -0.1628 -0.5432
 3630SOL     OW22525   0.742   0.686   2.510 -0.4611 -0.2602 -0.3361
 3630SOL    HW122526   0.810   0.718   2.569 -0.7400  2.9291 -1.7823
 3630SOL    HW222527   0.790   0.625   2.453  0.4643 -0.0008  0.1566
 3631SOL     OW22528   1.427   2.443   7.246  0.7238 -0.2229  0.1594
 3631SOL    HW122529   1.480   2.438   7.167  0.0567  1.0804 -0.3778
 3631SOL    HW222530   1.377   2.362   7.251  0.5232 -0.0014  1.8490
 3632SOL     OW22531   1.391   3.159   3.349  0.6105  0.1310 -0.6598
 3632SOL    HW122532   1.451   3.144   3.422 -0.2183 -0.2725 -0.0538
 3632SOL    HW222533   1.388   3.072   3.309  2.1489 -0.7833  1.1860
 3633SOL     OW22534   4.018   3.023   9.282  0.0447  0.1341 -0.0603
 3633SOL    HW122535   4.059   2.942   9.249 -0.9952  0.2026 -1.4811
 3633SOL    HW222536   3.989   2.985   9.365 -0.2776  2.1152  0.7182
 3634SOL     OW22537   0.610   1.500   0.124  0.2253  0.4994 -0.1705
 3634SOL    HW122538   0.589   1.413   0.091  2.0039  0.2183 -0.5657
 3634SOL    HW222539   0.706   1.498   0.124  0.2123 -0.1326 -0.1691
 3635SOL     OW22540   0.516   1.828   6.382 -0.0913  0.0190 -0.0346
 3635SOL    HW122541   0.570   1.848   6.306  2.2850 -2.2185  1.0497
 3635SOL    HW222542   0.460   1.756   6.352  1.5148 -0.7627 -1.1613
 3636SOL     OW22543   0.543   1.008   4.075 -0.3218  0.1273  0.3346
 3636SOL    HW122544   0.581   1.047   4.153  0.0111  0.8638 -0.1893
 3636SOL    HW222545   0.568   1.077   4.014  1.7204  0.2958  1.3612
 3637SOL     OW22546   4.111   2.388   3.269 -0.1259  0.6485  0.3624
 3637SOL    HW122547   4.104   2.294   3.253 -3.5322  0.9883 -0.1322
 3637SOL    HW222548   4.174   2.385   3.341  1.1333 -1.2571 -0.8359
 3638SOL     OW22549   2.285   1.332   2.496 -0.2408  0.5197 -0.3198
 3638SOL    HW122550   2.280   1.270   2.568 -0.3548  1.8085  0.7902
 3638SOL    HW222551   2.201   1.319   2.453 -0.4262 -0.9431  0.4706
 3639SOL     OW22552   4.437   2.934  14.450  0.7420  0.2795  0.5179
 3639SOL    HW122553   4.385   2.921  14.529  1.2619  1.0144  0.9772
 3639SOL    HW222554   4.376   2.982  14.393 -0.1286 -1.1996  0.1977
 3640SOL     OW22555   0.622   3.088   8.180 -1.1217  0.3997 -0.0740
 3640SOL    HW122556   0.644   3.020   8.116  0.9281 -0.0928  1.1546
 3640SOL    HW222557   0.665   3.062   8.261 -0.4874  0.3705 -0.4151
 3641SOL     OW22558   3.135   4.177  13.803  0.1911 -0.1766  0.3600
 3641SOL    HW122559   3.122   4.086  13.776  2.8574 -0.0723 -1.2105
 3641SOL    HW222560   3.172   4.162  13.889 -0.2828  1.1785  0.8005
 3642SOL     OW22561   1.571   0.431  17.407 -0.3090  0.7021  0.2783
 3642SOL    HW122562   1.601   0.515  17.373 -0.1883  1.0979  1.3803
 3642SOL    HW222563   1.637   0.406  17.472 -0.0627 -1.4440 -0.7817
 3643SOL     OW22564   1.194   2.096   0.966  0.0385 -0.4796  0.0207
 3643SOL    HW122565   1.098   2.104   0.964  0.1100  0.2422 -0.5419
 3643SOL    HW222566   1.214   2.003   0.974 -0.4349 -0.4912  1.0488
 3644SOL     OW22567   0.700   4.264   3.436 -0.6266  0.4293  0.4257
 3644SOL    HW122568   0.714   4.347   3.481  0.1467  0.7648 -0.4488
 3644SOL    HW222569   0.622   4.285   3.385  0.6694  1.4923 -1.0934
 3645SOL     OW22570   1.266   3.533   8.827  0.4356  0.0208 -0.0429
 3645SOL    HW122571   1.275   3.597   8.898 -0.0381  0.4197 -0.3398
 3645SOL    HW222572   1.299   3.453   8.868  0.0472  0.2582  0.7419
 3646SOL     OW22573   4.258   2.832  11.964  0.0355 -0.7102  0.3580
 3646SOL    HW122574   4.334   2.851  12.019  0.4384  0.0891 -0.4724
 3646SOL    HW222575   4.205   2.912  11.965 -0.5704 -1.1433  2.8500
 3647SOL     OW22576   3.319   3.936  16.956  0.3314 -0.3884  0.1469
 3647SOL    HW122577   3.398   3.913  17.004 -0.6448 -0.8117  1.5702
 3647SOL    HW222578   3.245   3.909  17.011 -0.5357 -0.1541 -0.9032
 3648SOL     OW22579   0.829   4.226   2.967  0.7712  0.4008  0.1227
 3648SOL    HW122580   0.809   4.259   2.879 -0.2777 -2.2767 -0.6355
 3648SOL    HW222581   0.757   4.270   3.014  1.6315 -1.6614  3.3820
 3649SOL     OW22582   3.543   1.294   3.553  0.3927 -0.2526  0.0314
 3649SOL    HW122583   3.572   1.224   3.613 -0.8429 -1.3599 -0.6603
 3649SOL    HW222584   3.523   1.361   3.618  1.6890 -0.3468  0.5147
 3650SOL     OW22585   2.601   3.176   4.056 -1.2092  0.0671  0.4745
 3650SOL    HW122586   2.574   3.153   3.967  0.1259 -1.5340  0.4903
 3650SOL    HW222587   2.641   3.263   4.063 -0.6687 -0.1517  0.1147
 3651SOL     OW22588   3.532   4.342   3.300  0.3524 -0.5390  0.3025
 3651SOL    HW122589   3.627   4.355   3.298  0.4654 -1.7891 -1.9340
 3651SOL    HW222590   3.498   4.420   3.343 -0.5720 -0.7612 -0.0319
 3652SOL     OW22591   0.833   3.536   3.611 -0.0386  0.1961 -0.1658
 3652SOL    HW122592   0.852   3.495   3.695  1.4266  0.0977 -0.5422
 3652SOL    HW222593   0.917   3.578   3.591  0.2650 -1.1090 -1.6687
 3653SOL     OW22594   4.157   3.112   7.094 -0.2297  0.8718 -0.2371
 3653SOL    HW122595   4.174   3.172   7.166 -0.7505 -0.0907  0.6738
 3653SOL    HW222596   4.063   3.100   7.081 -0.5259  0.7165  2.0499
 3654SOL     OW22597   2.055   1.995   6.137  0.0305 -0.2839 -0.4120
 3654SOL    HW122598   2.082   2.066   6.195 -0.2305 -1.8024  1.5627
 3654SOL    HW222599   1.962   2.016   6.122  0.4596  1.5939 -0.4594
 3655SOL     OW22600   4.005   0.148   5.899 -0.3581  0.1101  0.0981
 3655SOL    HW122601   4.070   0.078   5.911 -1.4112 -0.4282  2.8373
 3655SOL    HW222602   3.928   0.093   5.915 -0.0034 -0.6583 -0.8125
 3656SOL     OW22603   4.173   4.525   7.525 -0.0648  0.6590 -0.3684
 3656SOL    HW122604   4.170   4.465   7.600  0.4517  1.0109 -0.0681
 3656SOL    HW222605   4.178   4.611   7.565  0.7613  0.1438  0.6561
 3657SOL     OW22606   2.924   0.688   2.700  0.4070 -0.4864 -0.2465
 3657SOL    HW122607   2.857   0.647   2.645 -0.7738 -2.0526  2.3961
 3657SOL    HW222608   2.938   0.774   2.660 -1.8134  0.5852  1.2368
 3658SOL     OW22609   4.722   0.832  15.554  0.0171 -0.3197 -0.0463
 3658SOL    HW122610   4.646   0.890  15.559  0.3807  0.0684  0.9071
 3658SOL    HW222611   0.052   0.893  15.532 -1.2272  1.3262  0.5006
 3659SOL     OW22612   0.519   3.782   3.756  0.2890  0.3103  0.0679
 3659SOL    HW122613   0.614   3.787   3.759  0.3295 -1.3265  1.3641
 3659SOL    HW222614   0.500   3.844   3.826 -1.2630 -0.1427  0.0637
 3660SOL     OW22615   3.564   1.027   3.039 -0.3253 -0.0227 -0.4224
 3660SOL    HW122616   3.516   1.045   3.120 -0.6267  3.0915 -1.3102
 3660SOL    HW222617   3.623   0.963   3.080  0.3186  1.4074  0.8927
 3661SOL     OW22618   2.607   3.903   7.688 -0.0042 -0.1259 -0.3037
 3661SOL    HW122619   2.526   3.889   7.639  0.3294 -2.0558 -0.3317
 3661SOL    HW222620   2.642   3.814   7.684  2.8936  0.9166  2.1541
 3662SOL     OW22621   1.626   0.960   2.152  0.5667 -0.5452  0.2560
 3662SOL    HW122622   1.665   0.899   2.089  1.9475  0.7875 -0.1675
 3662SOL    HW222623   1.562   1.004   2.096 -0.5145  0.2488  2.1159
 3663SOL     OW22624   4.296   4.551   6.967 -0.4000  0.3630  0.6567
 3663SOL    HW122625   4.204   4.576   6.974  0.0443  1.9123  1.0178
 3663SOL    HW222626   4.305   4.462   7.004 -0.7927  0.4153  0.8811
 3664SOL     OW22627   0.791   2.253   7.383  0.1778 -0.1079  0.6802
 3664SOL    HW122628   0.845   2.200   7.325  0.5132  0.4273  0.5070
 3664SOL    HW222629   0.831   2.216   7.461 -0.1076 -0.6868  0.5537
 3665SOL     OW22630   2.594   1.687   4.627  0.0970 -0.2693  0.2914
 3665SOL    HW122631   2.629   1.600   4.647  0.2929 -0.2882 -0.1278
 3665SOL    HW222632   2.508   1.682   4.669 -0.3529  0.8089 -0.5079
 3666SOL     OW22633   2.460   0.866   9.169  0.3047  0.6567  0.0500
 3666SOL    HW122634   2.552   0.853   9.189  0.4094  0.1220 -0.7711
 3666SOL    HW222635   2.437   0.909   9.251  2.7870  2.7858 -0.3981
 3667SOL     OW22636   4.263   3.820  16.472 -0.3663  0.8123  1.0632
 3667SOL    HW122637   4.187   3.773  16.437  1.3679 -3.3861  2.9596
 3667SOL    HW222638   4.334   3.770  16.432 -1.6352 -0.4750  0.4393
 3668SOL     OW22639   1.794   2.951   7.141 -0.5819  0.8155  0.1381
 3668SOL    HW122640   1.813   2.979   7.231 -0.4899  0.4576  0.2322
 3668SOL    HW222641   1.885   2.944   7.111 -0.2171  0.2259  1.3740
 3669SOL     OW22642   2.155   2.853   4.489 -0.3750  0.2875  0.1525
 3669SOL    HW122643   2.115   2.848   4.576  0.7371 -1.1038  0.5605
 3669SOL    HW222644   2.244   2.883   4.506  0.4720 -1.7577 -0.7321
 3670SOL     OW22645   0.059   2.921   6.555  0.1334  0.1369 -0.4058
 3670SOL    HW122646   4.713   2.944   6.521 -0.5512 -3.8283 -1.3179
 3670SOL    HW222647   0.116   2.951   6.484  0.4438  1.9172  0.5948
 3671SOL     OW22648   3.832   2.517   6.455 -0.2861  0.6082 -0.3353
 3671SOL    HW122649   3.926   2.509   6.441 -0.4678 -1.5818 -0.3148
 3671SOL    HW222650   3.824   2.612   6.445 -3.0949  0.3893 -0.2237
 3672SOL     OW22651   2.890   0.461   9.348 -0.3885 -0.0356  0.2898
 3672SOL    HW122652   2.830   0.520   9.394 -3.2839 -2.3431 -0.5594
 3672SOL    HW222653   2.939   0.515   9.286 -2.0044  3.6272  2.1604
 3673SOL     OW22654   3.735   0.321   1.368  0.2491  0.1161  0.0201
 3673SOL    HW122655   3.651   0.318   1.324  0.5729  0.6078 -0.6335
 3673SOL    HW222656   3.790   0.360   1.300 -2.2827  0.5520 -1.7732
 3674SOL     OW22657   2.720   1.194   5.177  0.7397 -0.1654  0.0805
 3674SOL    HW122658   2.742   1.122   5.235 -1.5210 -2.3344 -1.7636
 3674SOL    HW222659   2.748   1.273   5.224 -0.6841 -1.1350  2.5550
 3675SOL     OW22660   4.116   0.623   2.693 -0.3893 -0.2307  0.1165
 3675SOL    HW122661   4.134   0.530   2.680  1.0141  0.1429 -0.5796
 3675SOL    HW222662   4.020   0.626   2.702 -0.3789 -1.5062  0.6234
 3676SOL     OW22663   1.070   1.856   5.485  0.1774  0.1359  0.5243
 3676SOL    HW122664   1.160   1.872   5.457 -0.0565  0.7787  0.1450
 3676SOL    HW222665   1.012   1.862   5.410  1.4363 -2.6253 -0.6743
 3677SOL     OW22666   4.425   2.768   8.118  0.5602  0.5032 -0.1917
 3677SOL    HW122667   4.360   2.811   8.062  2.5450  1.0990 -2.0488
 3677SOL    HW222668   4.477   2.728   8.048  1.5943  0.6439  0.4884
 3678SOL     OW22669   4.621   0.228   1.424  0.0997 -0.1928  0.2755
 3678SOL    HW122670   4.647   0.315   1.454 -0.6911 -0.3099  1.3197
 3678SOL    HW222671   4.697   0.170   1.434 -2.8623 -4.2583 -0.7992
 3679SOL     OW22672   2.961   1.339   0.192 -0.1196 -0.1440 -0.0044
 3679SOL    HW122673   2.985   1.416   0.244 -1.4343  0.3293 -0.1145
 3679SOL    HW222674   3.003   1.364   0.110 -1.6948  1.1267 -0.4210
 3680SOL     OW22675   3.148   4.455  10.640 -0.6644  0.6471 -0.2587
 3680SOL    HW122676   3.106   4.401  10.573 -1.0193 -1.0266  1.3293
 3680SOL    HW222677   3.157   4.393  10.712  2.7218  1.5643  0.1101
 3681SOL     OW22678   3.121   2.647   7.630  0.4603 -0.1459  0.1019
 3681SOL    HW122679   3.053   2.581   7.641 -0.0454 -0.0423 -2.4850
 3681SOL    HW222680   3.132   2.646   7.535  0.6563 -1.6403  0.1394
 3682SOL     OW22681   2.553   1.731   5.656 -0.6339  0.1564 -0.0741
 3682SOL    HW122682   2.535   1.674   5.582 -0.3203 -1.6916  1.2797
 3682SOL    HW222683   2.496   1.686   5.718 -1.8117  0.9135 -0.6044
 3683SOL     OW22684   4.622   3.846  15.383 -0.4695  0.2344  0.2602
 3683SOL    HW122685   4.546   3.815  15.334  0.3312 -0.9672 -0.2212
 3683SOL    HW222686   4.690   3.790  15.346 -0.0083 -0.2400  1.8150
 3684SOL     OW22687   4.423   2.814  14.901 -0.0025 -0.0142  0.0964
 3684SOL    HW122688   4.396   2.902  14.926 -0.4284 -0.2524  0.4806
 3684SOL    HW222689   4.475   2.791  14.978 -0.5083 -1.1226  0.1029
 3685SOL     OW22690   3.418   1.111  13.554 -0.4418 -0.2750 -0.4015
 3685SOL    HW122691   3.453   1.129  13.641 -2.6102 -0.3890  0.4911
 3685SOL    HW222692   3.325   1.094  13.571  0.3401 -1.5580  2.6543
 3686SOL     OW22693   3.174   3.637   6.714  0.4575  0.1096  0.2464
 3686SOL    HW122694   3.150   3.622   6.805 -0.3093  0.5050  0.1058
 3686SOL    HW222695   3.215   3.723   6.724  0.9858 -0.1817  0.6270
 3687SOL     OW22696   2.652   3.218   2.982 -0.9349  0.3299  0.3949
 3687SOL    HW122697   2.647   3.305   3.022  0.2051 -0.0845  1.4385
 3687SOL    HW222698   2.563   3.183   2.984 -1.1015  0.7160 -0.2644
 3688SOL     OW22699   4.264   1.123   8.325  0.3133 -0.7462  0.2967
 3688SOL    HW122700   4.205   1.178   8.274  2.5652  2.3461  0.9888
 3688SOL    HW222701   4.349   1.137   8.283 -0.9732  1.4467 -1.6156
 3689SOL     OW22702   2.600   3.822   4.937  0.1675  0.5241  0.0600
 3689SOL    HW122703   2.629   3.745   4.888 -0.5373  0.1415  0.2486
 3689SOL    HW222704   2.524   3.794   4.987  2.1561 -0.0951  2.7377
 3690SOL     OW22705   0.376   1.336   9.731  0.0262  0.4060  0.1439
 3690SOL    HW122706   0.454   1.345   9.677  0.7589  0.6659  1.2391
 3690SOL    HW222707   0.342   1.254   9.697  0.8528 -0.2105  0.7936
 3691SOL     OW22708   0.855   2.698  10.928  0.0551 -0.1984  0.0902
 3691SOL    HW122709   0.916   2.753  10.977  1.7467 -0.3947 -1.8177
 3691SOL    HW222710   0.900   2.615  10.915  0.1114 -0.3685  1.3943
 3692SOL     OW22711   1.759   4.473   7.236 -0.0206  0.8343 -0.0773
 3692SOL    HW122712   1.735   4.488   7.328 -0.1074  1.3141 -0.1808
 3692SOL    HW222713   1.760   4.377   7.243 -0.3225  0.9000  0.8964
 3693SOL     OW22714   4.249   0.095   0.323 -0.1187 -0.5030 -0.0060
 3693SOL    HW122715   4.259   0.184   0.356  0.8128 -0.5198 -0.2311
 3693SOL    HW222716   4.305   0.081   0.246  1.2736  0.1768  0.8825
 3694SOL     OW22717   3.967   3.271   3.010 -0.0379  0.2547 -0.6021
 3694SOL    HW122718   3.948   3.178   3.021  2.4686 -0.3284 -1.3415
 3694SOL    HW222719   3.884   3.298   3.051  1.6513  3.0130  0.9750
 3695SOL     OW22720   0.929   0.272   4.921  0.0306 -0.0255  0.4650
 3695SOL    HW122721   0.958   0.181   4.920 -2.2934 -0.7867  1.7329
 3695SOL    HW222722   0.997   0.324   4.964 -0.1560  1.5443 -1.1655
 3696SOL     OW22723   4.271   2.659  11.102  0.1649 -0.0088 -0.5402
 3696SOL    HW122724   4.231   2.637  11.187  1.6371 -0.7321 -0.0261
 3696SOL    HW222725   4.352   2.708  11.116 -1.0925  1.4181  1.7801
 3697SOL     OW22726   1.732   1.804   1.622  0.1236  0.5673 -0.1566
 3697SOL    HW122727   1.782   1.830   1.544 -2.3898 -1.3414 -2.4128
 3697SOL    HW222728   1.743   1.886   1.671  0.0028  1.1885 -1.1605
 3698SOL     OW22729   3.668   1.897   1.498  0.1047 -0.1246  0.0226
 3698SOL    HW122730   3.577   1.912   1.523  0.1491 -0.9461  0.6969
 3698SOL    HW222731   3.689   1.867   1.586 -1.3387  0.3735  0.5355
 3699SOL     OW22732   1.679   1.909   6.858  0.3276  0.4275 -0.5780
 3699SOL    HW122733   1.675   1.994   6.815  0.0325  0.8017  0.1853
 3699SOL    HW222734   1.756   1.904   6.914  0.7688  1.6791 -1.0908
 3700SOL     OW22735   1.544   0.682   5.376 -0.2421 -0.0187 -0.1714
 3700SOL    HW122736   1.561   0.610   5.437  0.8816  0.2038 -0.2298
 3700SOL    HW222737   1.598   0.666   5.299 -0.7975  0.6270 -0.6956
 3701SOL     OW22738   1.841   1.305  16.938  0.3857  0.2968  0.3475
 3701SOL    HW122739   1.935   1.320  16.950  0.9171 -1.3091 -1.7013
 3701SOL    HW222740   1.827   1.304  16.843 -1.9941 -0.8559  0.7127
 3702SOL     OW22741   1.804   0.771   8.010 -0.1828  0.5352 -0.0358
 3702SOL    HW122742   1.858   0.715   7.954 -0.6683 -0.7047  0.7231
 3702SOL    HW222743   1.730   0.715   8.031  0.5129 -0.8811 -1.3543
 3703SOL     OW22744   3.310   1.994   4.631 -0.1266 -0.4427  0.1674
 3703SOL    HW122745   3.403   1.977   4.613 -0.0669  1.0610 -0.9809
 3703SOL    HW222746   3.278   1.982   4.542 -1.6113 -0.7775  0.7586
 3704SOL     OW22747   3.304   2.971   4.476  0.3209 -0.0473  0.3382
 3704SOL    HW122748   3.359   3.042   4.446  0.5208 -0.7137 -0.8616
 3704SOL    HW222749   3.327   2.893   4.425 -2.7406 -0.7662  0.0132
 3705SOL     OW22750   4.623   2.309  15.682  0.2507  0.0039  0.1556
 3705SOL    HW122751   4.705   2.294  15.635 -0.5213  0.3080 -1.2916
 3705SOL    HW222752   4.579   2.226  15.662  0.5271  0.2718 -1.5491
 3706SOL     OW22753   0.705   1.511   4.003  0.1861  0.1070  0.5403
 3706SOL    HW122754   0.647   1.466   4.065 -1.0273  2.4737  1.1049
 3706SOL    HW222755   0.684   1.601   4.027  1.0520  0.6763 -0.8627
 3707SOL     OW22756   3.264   4.211  16.884 -0.1601  0.4436  0.3468
 3707SOL    HW122757   3.274   4.168  16.800 -0.6642 -0.2883  0.6622
 3707SOL    HW222758   3.303   4.141  16.935 -2.1123 -0.2452  0.9066
 3708SOL     OW22759   3.022   4.432   3.158 -0.3626  0.3259  0.6998
 3708SOL    HW122760   3.054   4.379   3.231 -1.6351  2.5825  2.8749
 3708SOL    HW222761   3.080   4.402   3.088 -1.0688 -1.1090  0.7211
 3709SOL     OW22762   3.266   0.389   2.803 -0.1592  0.3400 -0.5567
 3709SOL    HW122763   3.314   0.329   2.746 -0.0414 -0.6864  0.6098
 3709SOL    HW222764   3.249   0.456   2.737  0.0294 -0.7606 -1.7315
 3710SOL     OW22765   0.921   3.753   8.221  0.2595 -0.2206  0.6824
 3710SOL    HW122766   0.891   3.682   8.164  1.7235 -0.2433 -0.0848
 3710SOL    HW222767   0.963   3.817   8.163 -0.0424 -1.8786 -1.4066
 3711SOL     OW22768   0.926   3.636   4.044 -0.6844 -0.1050 -0.3838
 3711SOL    HW122769   0.944   3.657   3.952  0.7614  2.8510  0.5645
 3711SOL    HW222770   0.987   3.698   4.085 -0.4876 -1.0304  0.6949
 3712SOL     OW22771   2.530   3.451  14.736  0.0655 -0.3849  0.2151
 3712SOL    HW122772   2.454   3.431  14.681 -2.2738  1.1619  2.8645
 3712SOL    HW222773   2.575   3.521  14.690  0.2603 -0.6780 -0.0389
 3713SOL     OW22774   3.972   3.570   4.580 -0.5380 -0.0884 -0.6651
 3713SOL    HW122775   3.885   3.591   4.545 -0.6338  0.6691  0.0180
 3713SOL    HW222776   3.968   3.589   4.674  1.2268  0.2598 -0.6687
 3714SOL     OW22777   3.569   4.549   5.415 -0.3439  0.2419 -0.0090
 3714SOL    HW122778   3.489   4.592   5.385 -0.6554 -0.9907 -0.9728
 3714SOL    HW222779   3.585   4.496   5.337  0.9942  3.4233 -1.8723
 3715SOL     OW22780   0.687   0.408  16.419 -0.4402 -0.2396  0.4444
 3715SOL    HW122781   0.679   0.397  16.514  2.4862 -0.5902  0.6511
 3715SOL    HW222782   0.764   0.463  16.412 -0.6505  0.3011  2.3847
 3716SOL     OW22783   2.462   1.208  15.931 -0.3358  0.3474  0.3939
 3716SOL    HW122784   2.521   1.228  16.003 -0.2131 -0.2187  0.4519
 3716SOL    HW222785   2.524   1.204  15.858 -0.5241 -0.8546  0.2953
 3717SOL     OW22786   0.218   4.183   8.528  0.0830  0.3203 -0.4003
 3717SOL    HW122787   0.268   4.245   8.581 -0.0426 -0.4768  0.6472
 3717SOL    HW222788   0.176   4.236   8.460  3.3969  1.0742 -1.8557
 3718SOL     OW22789   3.101   3.921   0.979 -0.5039 -0.3037 -0.1742
 3718SOL    HW122790   3.103   4.016   0.967 -0.3097 -0.2209  0.5278
 3718SOL    HW222791   3.021   3.920   1.031  1.7126  0.8045  3.2692
 3719SOL     OW22792   4.108   2.538  11.286 -0.0978  0.1503 -0.0203
 3719SOL    HW122793   4.013   2.549  11.294 -0.0795 -0.8486  1.5833
 3719SOL    HW222794   4.119   2.484  11.364 -1.2699 -0.1323 -0.0534
 3720SOL     OW22795   2.128   4.479   6.798  0.5179  0.1536  0.2860
 3720SOL    HW122796   2.120   4.512   6.887 -1.7916 -1.4434  0.6794
 3720SOL    HW222797   2.104   4.388   6.819  1.8436  0.3067  2.5535
 3721SOL     OW22798   2.897   2.309   6.845  0.0859  0.0271  0.1066
 3721SOL    HW122799   2.938   2.340   6.765 -1.3272 -1.6879 -1.2759
 3721SOL    HW222800   2.970   2.280   6.899 -0.3100 -1.0255  0.0791
 3722SOL     OW22801   1.930   0.643   3.718  0.3990 -0.0430 -0.2159
 3722SOL    HW122802   1.979   0.582   3.772 -1.0555 -0.4904  0.5805
 3722SOL    HW222803   1.895   0.589   3.648  0.0848  1.6309 -1.3565
 3723SOL     OW22804   3.699   4.365   4.710 -0.3276  0.0572 -0.2119
 3723SOL    HW122805   3.610   4.397   4.729 -0.0439 -0.8071  2.5049
 3723SOL    HW222806   3.739   4.432   4.654  0.3188  0.7671  1.1051
 3724SOL     OW22807   4.051   1.140   6.015  0.4546 -0.2633  0.1086
 3724SOL    HW122808   4.111   1.214   6.009 -0.8657  0.8283  0.4562
 3724SOL    HW222809   4.111   1.071   5.986  0.4538  0.3338 -1.3214
 3725SOL     OW22810   1.276   0.815  11.379 -0.5122  0.1150 -0.3298
 3725SOL    HW122811   1.313   0.732  11.350  1.0863  0.7292 -0.0338
 3725SOL    HW222812   1.187   0.806  11.343 -0.5065 -3.3848  0.5367
 3726SOL     OW22813   4.236   0.594   9.172  0.0116 -0.0564  0.0613
 3726SOL    HW122814   4.324   0.617   9.203 -0.1976 -1.9875  2.0953
 3726SOL    HW222815   4.247   0.568   9.081 -1.4502 -0.4234 -0.0124
 3727SOL     OW22816   4.630   3.434   5.329 -0.3845 -0.3399  0.6252
 3727SOL    HW122817   4.571   3.410   5.258 -1.5591  2.7643  0.5357
 3727SOL    HW222818   4.697   3.366   5.335 -0.0409  0.1655  2.4107
 3728SOL     OW22819   2.714   0.368   7.321  0.1068  0.2394 -0.3089
 3728SOL    HW122820   2.633   0.396   7.277 -0.3294  0.7167  0.7958
 3728SOL    HW222821   2.680   0.311   7.389 -2.6438 -0.4829 -2.2649
 3729SOL     OW22822   3.974   2.544   5.039  0.2179 -0.0733  0.5056
 3729SOL    HW122823   4.040   2.475   5.045 -0.9205 -0.9579  2.6721
 3729SOL    HW222824   3.894   2.499   5.013 -0.5969  1.7459 -0.1461
 3730SOL     OW22825   0.990   3.916   9.698 -0.0476  0.1372 -0.1615
 3730SOL    HW122826   1.020   3.863   9.772  1.1749 -0.7789 -1.3060
 3730SOL    HW222827   0.901   3.934   9.728  1.1092  1.9603  2.1235
 3731SOL     OW22828   0.087   0.564   3.161 -0.1046  0.3464 -0.5781
 3731SOL    HW122829   0.177   0.532   3.156 -0.0506  0.4734 -0.4180
 3731SOL    HW222830   0.112   0.657   3.159  0.0484  0.3206  0.1250
 3732SOL     OW22831   2.002   2.217   0.470  0.3017 -0.2579  0.5954
 3732SOL    HW122832   1.908   2.236   0.475  0.3723  0.0731  0.6141
 3732SOL    HW222833   2.039   2.301   0.444 -0.0381 -0.6291 -1.0712
 3733SOL     OW22834   0.738   0.795  10.138  0.5195 -0.5247  0.2139
 3733SOL    HW122835   0.720   0.878  10.093  0.1136 -0.4459  0.5122
 3733SOL    HW222836   0.816   0.769  10.090  0.0573  0.2404 -0.9604
 3734SOL     OW22837   2.484   1.638   0.963  0.0780  0.4765  0.2230
 3734SOL    HW122838   2.439   1.628   1.047  0.1329 -1.8253 -0.0385
 3734SOL    HW222839   2.418   1.649   0.895  2.9264 -0.1201 -2.6442
 3735SOL     OW22840   1.141   4.263  12.631 -0.4907  0.2179 -0.1408
 3735SOL    HW122841   1.122   4.320  12.705 -1.6704 -0.9048  0.4372
 3735SOL    HW222842   1.117   4.178  12.670 -0.4908  0.0047 -0.6040
 3736SOL     OW22843   2.740   4.641   9.784 -0.0579  0.3203  0.0016
 3736SOL    HW122844   2.792   4.721   9.794 -1.0305  0.9399  0.0505
 3736SOL    HW222845   2.804   4.578   9.817 -0.1414  0.4849  0.4890
 3737SOL     OW22846   1.410   0.795   1.847  0.3148  0.1186  0.4734
 3737SOL    HW122847   1.353   0.767   1.919  0.7335  0.0454  0.7729
 3737SOL    HW222848   1.500   0.787   1.878  1.1029  0.9335 -1.6471
 3738SOL     OW22849   3.920   0.999   2.069 -0.2642 -0.2813  0.0866
 3738SOL    HW122850   4.015   1.009   2.061 -0.4327 -1.4089 -3.1505
 3738SOL    HW222851   3.900   0.931   2.006  2.2130 -0.8088 -0.1438
 3739SOL     OW22852   0.763   0.755   8.690  0.0685 -0.1580  0.6292
 3739SOL    HW122853   0.746   0.749   8.596 -0.4380 -2.6830  0.8843
 3739SOL    HW222854   0.854   0.729   8.701  0.2500  0.5361  0.7439
 3740SOL     OW22855   1.190   1.932   4.642  0.0934 -0.1545 -0.2262
 3740SOL    HW122856   1.221   1.869   4.577  0.0265 -0.0797 -0.3313
 3740SOL    HW222857   1.219   1.894   4.725 -0.9028  0.6285  0.4940
 3741SOL     OW22858   3.974   0.004   5.609  0.1420 -0.1415 -0.1266
 3741SOL    HW122859   3.956   4.652   5.627  0.4658  0.0416  1.0914
 3741SOL    HW222860   3.956   0.016   5.515  0.8538  1.3319 -0.0688
 3742SOL     OW22861   4.681   1.068   4.706  0.2226 -0.1978 -0.1236
 3742SOL    HW122862   4.689   0.986   4.659 -3.0782  0.1874 -1.4042
 3742SOL    HW222863   4.681   1.136   4.638  0.2786  1.0565  1.1145
 3743SOL     OW22864   0.966   3.069   7.889 -0.3599  0.1577  0.0737
 3743SOL    HW122865   0.951   3.040   7.798  0.6365 -0.3742  0.0835
 3743SOL    HW222866   0.987   2.991   7.940  1.7848  0.4650 -0.3509
 3744SOL     OW22867   0.615   2.590   2.138 -0.2379  0.3714  0.6421
 3744SOL    HW122868   0.523   2.581   2.113 -0.0809 -2.7763  1.2542
 3744SOL    HW222869   0.655   2.587   2.051  1.0426  2.4891  1.1400
 3745SOL     OW22870   2.577   2.465  10.334 -0.5075  0.8495  0.1995
 3745SOL    HW122871   2.624   2.404  10.278  0.5215  0.3000  1.6679
 3745SOL    HW222872   2.563   2.536  10.270  0.5999  1.7599  0.9702
 3746SOL     OW22873   2.040   4.727   8.041 -0.0591  0.4041 -0.2495
 3746SOL    HW122874   2.014   4.733   7.949  2.0529 -1.5982 -0.9760
 3746SOL    HW222875   2.127   0.027   8.039 -0.0708  0.3055 -3.1658
 3747SOL     OW22876   4.077   4.289   6.004 -0.3619 -0.3069 -0.1787
 3747SOL    HW122877   4.020   4.336   6.064 -1.3239 -0.5145 -0.9157
 3747SOL    HW222878   4.112   4.358   5.948 -0.4376  0.4747  0.7439
 3748SOL     OW22879   0.284   4.484   5.364  0.2700  0.1532  0.1749
 3748SOL    HW122880   0.379   4.478   5.355  0.1065 -0.1482 -1.4239
 3748SOL    HW222881   0.268   4.398   5.403 -3.3379  0.4527 -0.6708
 3749SOL     OW22882   1.933   3.788   5.701 -0.6333 -0.4270 -0.1771
 3749SOL    HW122883   1.870   3.716   5.713  0.1495 -0.3218  4.3531
 3749SOL    HW222884   2.000   3.762   5.638 -0.0984 -1.5011  0.8216
 3750SOL     OW22885   1.874   0.258  10.466 -0.1571  0.5386  0.3177
 3750SOL    HW122886   1.862   0.164  10.482 -0.0074  0.3706 -0.5856
 3750SOL    HW222887   1.784   0.292  10.459  0.2193  1.3213 -0.7169
 3751SOL     OW22888   3.343   2.180   9.440 -0.0051  0.1585  0.4539
 3751SOL    HW122889   3.324   2.263   9.397 -2.0449 -0.1376  0.8191
 3751SOL    HW222890   3.438   2.192   9.451  0.3032 -1.9370  0.0083
 3752SOL     OW22891   2.714   0.736   8.454  0.3148 -0.3579 -0.1716
 3752SOL    HW122892   2.736   0.716   8.363  0.4539 -2.8174  0.3960
 3752SOL    HW222893   2.624   0.767   8.450  0.7927  1.0345 -0.2683
 3753SOL     OW22894   4.686   3.974   2.563 -0.5866 -0.0383 -0.4319
 3753SOL    HW122895   4.734   3.955   2.482  1.6311 -0.6521  1.0354
 3753SOL    HW222896   4.659   3.885   2.588  0.1219  0.1074  0.8292
 3754SOL     OW22897   1.980   4.535   8.840  0.5006 -0.1258  0.8372
 3754SOL    HW122898   2.045   4.469   8.864  2.5568  1.4783 -0.2739
 3754SOL    HW222899   2.035   4.602   8.799  0.2307  0.2200  1.0408
 3755SOL     OW22900   2.341   0.545   1.770 -1.2309  0.3752 -0.0100
 3755SOL    HW122901   2.267   0.577   1.719 -0.4359  1.2447 -0.6276
 3755SOL    HW222902   2.332   0.591   1.854  1.1648 -0.5421  0.7470
 3756SOL     OW22903   3.684   2.970   7.628  0.3775  0.5366 -0.6381
 3756SOL    HW122904   3.593   2.947   7.610  0.2511  1.1919 -0.8455
 3756SOL    HW222905   3.664   3.060   7.654 -0.8471  0.3180 -0.8290
 3757SOL     OW22906   1.544   4.318   7.856  0.1126  0.0988 -0.2637
 3757SOL    HW122907   1.565   4.380   7.926  0.6990 -1.3114  0.8179
 3757SOL    HW222908   1.612   4.335   7.791 -2.2741  0.0192 -2.7412
 3758SOL     OW22909   0.025   2.236  14.982  0.0805  0.2539  0.1061
 3758SOL    HW122910   4.734   2.263  14.897  0.2343  1.2824  0.3773
 3758SOL    HW222911   0.095   2.175  14.959 -0.9616 -0.6881 -0.5610
 3759SOL     OW22912   3.192   4.451   6.219 -0.4691  0.0399 -0.4908
 3759SOL    HW122913   3.247   4.473   6.294  1.7089 -2.2668 -1.3820
 3759SOL    HW222914   3.106   4.476   6.254  1.3369  1.3934  3.0095
 3760SOL     OW22915   2.238   1.588  17.114 -0.5591 -0.4407  0.0838
 3760SOL    HW122916   2.316   1.641  17.095 -0.5476 -0.6240 -0.3971
 3760SOL    HW222917   2.183   1.637  17.052 -1.2672 -0.7310  0.4957
 3761SOL     OW22918   0.219   3.649   8.412  0.0052  0.3556  0.3475
 3761SOL    HW122919   0.225   3.742   8.390 -1.0038 -0.0354 -1.5570
 3761SOL    HW222920   0.209   3.650   8.508 -0.0015  0.7786  0.3417
 3762SOL     OW22921   1.669   2.542  11.712 -0.5260  0.1597  0.3735
 3762SOL    HW122922   1.747   2.598  11.703 -0.4369 -0.0724 -0.3073
 3762SOL    HW222923   1.705   2.465  11.755 -0.7239  0.8340  1.7286
 3763SOL     OW22924   0.460   3.582   5.407 -1.0493 -0.0700 -0.2277
 3763SOL    HW122925   0.465   3.500   5.357  0.1942  0.8927 -1.6865
 3763SOL    HW222926   0.405   3.556   5.481 -0.3675 -1.0113 -0.0594
 3764SOL     OW22927   0.859   3.502   5.945  0.2738 -0.2239 -0.6248
 3764SOL    HW122928   0.879   3.526   5.854 -0.4134 -1.1210 -1.0209
 3764SOL    HW222929   0.858   3.406   5.940  0.3032 -0.2992  0.8737
 3765SOL     OW22930   3.816   2.437   4.490 -0.3787  0.0174  0.0523
 3765SOL    HW122931   3.807   2.497   4.564  1.3589 -0.6223  0.7755
 3765SOL    HW222932   3.901   2.394   4.498 -0.1314  0.3306 -0.9355
 3766SOL     OW22933   1.192   2.735   2.497 -0.5404  0.0267 -0.5925
 3766SOL    HW122934   1.252   2.808   2.483 -1.3385  1.2818  2.6228
 3766SOL    HW222935   1.215   2.687   2.417  1.5709 -0.5401  0.3432
 3767SOL     OW22936   3.638   2.023   4.293  1.1090  0.1186 -0.5930
 3767SOL    HW122937   3.617   1.942   4.246  1.9304 -0.1541 -0.4802
 3767SOL    HW222938   3.613   2.080   4.219  1.8179 -1.4215 -2.0207
 3768SOL     OW22939   4.149   3.460   9.493 -0.0325 -0.6230  0.5124
 3768SOL    HW122940   4.154   3.402   9.417 -0.8713  1.4769 -1.1662
 3768SOL    HW222941   4.053   3.455   9.500 -0.0923 -0.0598  0.0988
 3769SOL     OW22942   2.595   0.661   1.759 -0.4752 -0.3265 -0.8718
 3769SOL    HW122943   2.641   0.606   1.823 -2.2805  1.3521  1.8839
 3769SOL    HW222944   2.523   0.603   1.735 -1.4998  1.9459 -3.2932
 3770SOL     OW22945   2.824   2.295   2.296 -0.0157 -0.1182  0.0425
 3770SOL    HW122946   2.867   2.379   2.309  0.3317  0.2309 -3.2499
 3770SOL    HW222947   2.887   2.244   2.347  1.2763  1.6829  0.2298
 3771SOL     OW22948   3.027   1.238  14.360  0.5235 -0.1084 -0.5568
 3771SOL    HW122949   3.108   1.190  14.378 -0.5805 -0.8241  2.4097
 3771SOL    HW222950   3.040   1.244  14.265  0.3253 -0.6455 -0.6164
 3772SOL     OW22951   2.798   2.911   4.261  0.8670  0.1169  0.0997
 3772SOL    HW122952   2.738   2.868   4.199  0.3512 -2.9204  2.7086
 3772SOL    HW222953   2.889   2.888   4.243  0.3832 -1.0286 -0.8458
 3773SOL     OW22954   1.296   2.419   6.674 -0.3457  0.2395 -0.2513
 3773SOL    HW122955   1.308   2.511   6.695  0.7706 -0.3321  1.5129
 3773SOL    HW222956   1.276   2.378   6.758 -0.3737  0.3057 -0.2262
 3774SOL     OW22957   0.702   1.904   7.729 -0.5403  0.3407 -0.1419
 3774SOL    HW122958   0.766   1.860   7.786 -1.5022  1.4389  1.7624
 3774SOL    HW222959   0.721   1.868   7.642 -0.6076  1.4044 -0.5879
 3775SOL     OW22960   2.014   3.823   6.257  0.8578  0.5522 -0.1950
 3775SOL    HW122961   2.109   3.816   6.251  0.9247  1.5165 -0.3202
 3775SOL    HW222962   1.977   3.772   6.185 -0.2229  2.2118 -0.8278
 3776SOL     OW22963   1.800   3.024   3.613 -0.1779 -0.1992 -0.0881
 3776SOL    HW122964   1.803   3.077   3.693  1.4027  0.4220 -0.5782
 3776SOL    HW222965   1.803   2.934   3.645  0.9972 -0.4318 -0.8968
 3777SOL     OW22966   3.551   0.292   6.628  0.2545 -0.1481  0.0348
 3777SOL    HW122967   3.645   0.289   6.643  0.3183 -2.0157 -0.7759
 3777SOL    HW222968   3.517   0.321   6.713  1.5225 -2.0067  1.1434
 3778SOL     OW22969   1.855   3.555   4.284  0.5056  0.3780  0.2803
 3778SOL    HW122970   1.857   3.516   4.371  0.1283  1.2462  0.6772
 3778SOL    HW222971   1.880   3.643   4.310 -0.1509  0.2147  1.4798
 3779SOL     OW22972   2.234   1.867   1.436 -0.5007  0.3800  0.3286
 3779SOL    HW122973   2.295   1.798   1.459  0.4899  1.2927  0.4330
 3779SOL    HW222974   2.293   1.932   1.399 -2.0751  1.7626  0.2088
 3780SOL     OW22975   1.820   0.634   7.414  0.1224 -0.0056  0.1309
 3780SOL    HW122976   1.763   0.602   7.484 -1.1345  2.7769  0.3820
 3780SOL    HW222977   1.751   0.643   7.348  0.5864  0.7365 -0.2496
 3781SOL     OW22978   0.989   4.437   8.197  0.1625  0.0087  0.0203
 3781SOL    HW122979   0.961   4.348   8.218  1.4687 -0.4215 -0.0770
 3781SOL    HW222980   0.970   4.439   8.103  0.7101  0.0464 -0.0899
 3782SOL     OW22981   4.480   1.645   3.333 -0.4846  0.2571  0.5709
 3782SOL    HW122982   4.470   1.568   3.388  0.9946 -1.0583 -1.0373
 3782SOL    HW222983   4.547   1.619   3.271  0.0618  0.9046  0.8928
 3783SOL     OW22984   4.733   3.707   9.834 -0.2149  0.2832  0.3546
 3783SOL    HW122985   4.738   3.747   9.747 -1.6358  0.2855  0.2816
 3783SOL    HW222986   0.057   3.759   9.881  0.3666 -0.4148  0.3369
 3784SOL     OW22987   1.360   2.950   8.617  0.5374  0.1304  0.0201
 3784SOL    HW122988   1.341   3.043   8.619  3.6238  0.7284  1.0520
 3784SOL    HW222989   1.348   2.919   8.528  0.1927  0.6623 -0.1150
 3785SOL     OW22990   1.298   4.072   1.974  0.0163  0.6430  0.0239
 3785SOL    HW122991   1.358   4.038   1.907  0.2375  1.6563 -0.2981
 3785SOL    HW222992   1.341   4.157   1.979 -0.5742  1.0633 -2.0013
 3786SOL     OW22993   4.333   2.439   8.322  0.3735 -0.6205  0.0302
 3786SOL    HW122994   4.262   2.380   8.347 -0.9886  0.7328 -0.6575
 3786SOL    HW222995   4.328   2.422   8.228 -3.9321 -0.3074  0.2058
 3787SOL     OW22996   3.340   3.980   7.757  0.0710 -0.1490  0.1114
 3787SOL    HW122997   3.261   4.002   7.708 -0.7895  0.8059  1.9369
 3787SOL    HW222998   3.320   4.022   7.841  2.4982  0.9175  0.1840
 3788SOL     OW22999   1.584   1.687  11.887  0.7390  0.2633  0.0054
 3788SOL    HW123000   1.561   1.638  11.966 -0.2361  1.2773  0.3381
 3788SOL    HW223001   1.510   1.671  11.828 -0.9933  1.2721  1.9227
 3789SOL     OW23002   0.710   0.578   3.026 -0.3934  0.5196 -0.4673
 3789SOL    HW123003   0.715   0.485   3.003 -0.0961 -0.0978  2.1274
 3789SOL    HW223004   0.800   0.589   2.997  0.1815 -1.8421  0.4724
 3790SOL     OW23005   2.457   0.993  14.975  0.0739  0.1231 -0.3369
 3790SOL    HW123006   2.455   0.908  15.020 -1.4324  0.0526 -0.5415
 3790SOL    HW223007   2.544   0.992  14.936 -0.1406  2.3156 -0.8621
 3791SOL     OW23008   2.829   0.048   2.450  0.2957 -0.1582  0.2051
 3791SOL    HW123009   2.757   0.081   2.504  0.7122 -0.4564  0.9455
 3791SOL    HW223010   2.859   0.129   2.409 -1.3684 -0.3896 -1.5123
 3792SOL     OW23011   1.489   2.056   4.539 -0.6859  0.5374 -0.0967
 3792SOL    HW123012   1.544   2.036   4.464 -0.0587  0.9747  0.2475
 3792SOL    HW223013   1.417   2.102   4.496 -0.7786  0.4002 -0.0917
 3793SOL     OW23014   2.663   1.288  17.080 -0.2737 -0.3230  0.2047
 3793SOL    HW123015   2.654   1.344  17.158  3.2808 -0.3511  0.6475
 3793SOL    HW223016   2.592   1.334  17.036  0.9505 -0.6336 -2.0809
 3794SOL     OW23017   3.499   3.366  10.990  0.2880  0.4433  0.2471
 3794SOL    HW123018   3.490   3.433  10.921 -0.2031 -0.4249 -0.5312
 3794SOL    HW223019   3.413   3.380  11.029 -0.1371 -0.9254 -0.2208
 3795SOL     OW23020   0.814   1.608  14.571 -0.0330 -0.3316  0.0924
 3795SOL    HW123021   0.816   1.668  14.646  2.2314 -1.6923  1.1110
 3795SOL    HW223022   0.905   1.610  14.544 -0.1016 -0.8683 -0.1822
 3796SOL     OW23023   2.751   3.317   4.815 -0.1095 -0.2644  0.0729
 3796SOL    HW123024   2.773   3.294   4.725 -1.2531 -1.4533  0.0955
 3796SOL    HW223025   2.658   3.297   4.813 -0.5543  1.7199  1.2103
 3797SOL     OW23026   2.241   2.774  13.837 -0.1571 -0.1440 -0.4214
 3797SOL    HW123027   2.289   2.754  13.757 -0.1412  0.7720 -0.6423
 3797SOL    HW223028   2.311   2.748  13.897  0.6413  1.6267 -0.5878
 3798SOL     OW23029   4.427   3.943   8.401  0.3169  0.7162  0.8633
 3798SOL    HW123030   4.331   3.937   8.395  0.5380 -0.9527 -0.9341
 3798SOL    HW223031   4.439   3.894   8.483  0.7136  0.9429  0.9415
 3799SOL     OW23032   2.849   0.961   8.901 -0.1406  0.7404  0.2698
 3799SOL    HW123033   2.941   0.946   8.923  0.1098 -1.8560 -2.4832
 3799SOL    HW223034   2.858   0.971   8.806  1.7401 -0.4630  0.3161
 3800SOL     OW23035   2.855   3.857   8.891 -0.5526 -0.1765  0.6190
 3800SOL    HW123036   2.830   3.903   8.971  0.0257  0.8100  0.2281
 3800SOL    HW223037   2.945   3.838   8.918  0.1320 -1.4292 -2.5402
 3801SOL     OW23038   1.433   1.580  11.574 -0.6157  0.0069 -0.1553
 3801SOL    HW123039   1.501   1.541  11.629 -0.7525 -0.5822 -0.4141
 3801SOL    HW223040   1.358   1.533  11.609  1.2165 -2.6943  0.1718
 3802SOL     OW23041   3.824   4.029  17.120  0.1711 -0.3551  0.1316
 3802SOL    HW123042   3.879   4.048  17.044  0.0230 -0.7186 -0.0665
 3802SOL    HW223043   3.876   4.061  17.194  0.5877  3.4899 -1.8062
 3803SOL     OW23044   1.997   1.136   7.721 -0.2554 -0.8284  0.7263
 3803SOL    HW123045   2.092   1.136   7.716 -0.1327 -3.7145  2.9319
 3803SOL    HW223046   1.973   1.045   7.705  0.9117 -0.7381 -1.4118
 3804SOL     OW23047   2.788   1.763   9.315 -0.3553 -0.0657  0.2144
 3804SOL    HW123048   2.773   1.853   9.283 -1.0747 -1.1456 -2.5461
 3804SOL    HW223049   2.718   1.751   9.379 -1.1131 -0.5686 -0.7020
 3805SOL     OW23050   1.277   4.244   2.304 -0.5151  0.4972  0.0854
 3805SOL    HW123051   1.309   4.167   2.350 -3.3180  0.0197  1.2390
 3805SOL    HW223052   1.345   4.310   2.319 -1.5779  2.3027 -2.8888
 3806SOL     OW23053   0.491   4.138   6.387  0.3631 -0.3753 -0.2421
 3806SOL    HW123054   0.433   4.166   6.458  0.2553  0.4083 -0.6300
 3806SOL    HW223055   0.562   4.116   6.448  1.2194  1.5330 -0.5178
 3807SOL     OW23056   1.085   0.797   2.453  0.2274 -0.9475 -0.0291
 3807SOL    HW123057   1.166   0.751   2.435 -0.0079 -1.8680  1.3184
 3807SOL    HW223058   1.071   0.852   2.375  0.4882 -2.0404 -0.8402
 3808SOL     OW23059   0.216   1.928   6.112  0.0006  0.3228  0.1197
 3808SOL    HW123060   0.158   1.944   6.037  0.4384 -0.2732 -0.3498
 3808SOL    HW223061   0.267   2.008   6.102  1.2353 -0.5837 -0.7652
 3809SOL     OW23062   4.610   2.685  17.349  0.3172 -0.0169  0.3211
 3809SOL    HW123063   4.669   2.676  17.423  0.7112  0.4710  0.0695
 3809SOL    HW223064   4.633   2.774  17.324 -1.0192 -0.0217 -0.9405
 3810SOL     OW23065   4.509   4.571   8.296 -0.9294 -0.4107  0.0026
 3810SOL    HW123066   4.497   4.504   8.229  0.0809 -0.1894 -0.3957
 3810SOL    HW223067   4.590   4.613   8.268 -1.0590 -0.0982  0.0926
 3811SOL     OW23068   1.033   0.865   1.528  0.3196  0.0998  0.3068
 3811SOL    HW123069   1.106   0.886   1.585  1.3722  1.7850 -1.6641
 3811SOL    HW223070   1.046   0.775   1.498  0.5827 -0.7583  3.0237
 3812SOL     OW23071   1.066   1.971   2.345 -0.2614 -0.6628  0.0580
 3812SOL    HW123072   1.028   2.047   2.390 -0.6240  0.5931 -2.3589
 3812SOL    HW223073   1.125   1.934   2.411  1.8123  2.7710  0.1315
 3813SOL     OW23074   2.165   3.205  10.296 -0.5311  0.0079  0.4804
 3813SOL    HW123075   2.083   3.241  10.329  0.7366  0.7797  2.7943
 3813SOL    HW223076   2.235   3.239  10.351  0.5043 -0.2622 -0.6491
 3814SOL     OW23077   2.439   3.781   8.997 -0.9613  0.1617  0.2244
 3814SOL    HW123078   2.399   3.740   8.920 -0.2507  2.7404 -1.5389
 3814SOL    HW223079   2.403   3.868   8.978  1.6414  1.0530 -0.6659
 3815SOL     OW23080   3.364   2.251  13.583 -0.3160 -0.3521  0.3018
 3815SOL    HW123081   3.458   2.242  13.574 -0.0730 -1.4760  4.0690
 3815SOL    HW223082   3.353   2.215  13.671 -1.5681 -0.1439  0.2329
 3816SOL     OW23083   4.520   4.463   8.545 -0.3946 -0.0758 -0.5876
 3816SOL    HW123084   4.514   4.505   8.460 -0.1878  1.0080 -0.0656
 3816SOL    HW223085   4.460   4.516   8.598  0.0964 -0.5059  0.4012
 3817SOL     OW23086   0.075   1.824   3.603  0.4813  0.0619 -0.1600
 3817SOL    HW123087   0.049   1.830   3.695 -0.3592  0.6131 -0.4346
 3817SOL    HW223088   0.001   1.869   3.561  0.8445 -0.6649 -1.5949
 3818SOL     OW23089   2.114   2.686   2.808  0.3319  0.7834  1.0573
 3818SOL    HW123090   2.107   2.679   2.713  2.2467  0.4667  0.9248
 3818SOL    HW223091   2.090   2.599   2.841 -0.9836  0.4668 -0.7181
 3819SOL     OW23092   4.248   1.598   8.214  0.0483 -0.0168  0.4983
 3819SOL    HW123093   4.321   1.541   8.240  1.7519  2.6374  1.5398
 3819SOL    HW223094   4.244   1.652   8.293 -0.8673  0.2903  0.2456
 3820SOL     OW23095   1.372   3.953  17.245 -0.0479 -0.3189  0.3448
 3820SOL    HW123096   1.377   4.048  17.255 -1.2696 -0.3085  0.7851
 3820SOL    HW223097   1.412   3.946  17.158 -0.8912  4.0873 -0.3921
 3821SOL     OW23098   4.261   3.923  16.803  0.4195 -0.3735  0.1566
 3821SOL    HW123099   4.294   3.867  16.731  0.0493 -1.6031  0.9413
 3821SOL    HW223100   4.215   3.991  16.754  0.3199 -0.3721  0.2537
 3822SOL     OW23101   1.690   1.783   7.585  0.1116 -0.3575 -0.4378
 3822SOL    HW123102   1.607   1.745   7.612  0.3533 -1.5927 -1.4760
 3822SOL    HW223103   1.754   1.724   7.627 -0.6640 -1.8732 -1.3968
 3823SOL     OW23104   1.433   2.296   0.577 -0.4598  0.0796 -0.3134
 3823SOL    HW123105   1.386   2.241   0.515  1.7390 -1.5325 -0.5524
 3823SOL    HW223106   1.372   2.294   0.650 -0.9735  2.7507 -0.6753
 3824SOL     OW23107   3.812   0.780  15.088 -0.2254 -0.0513  0.1833
 3824SOL    HW123108   3.756   0.703  15.084 -1.7803  1.1995 -2.0432
 3824SOL    HW223109   3.773   0.835  15.020  1.5344  0.0520 -0.7524
 3825SOL     OW23110   0.854   2.066   6.302 -0.4289  0.4690  0.0739
 3825SOL    HW123111   0.790   2.137   6.311 -0.7583  0.2566 -0.6325
 3825SOL    HW223112   0.916   2.104   6.240 -3.2013 -0.0306 -3.0179
 3826SOL     OW23113   2.301   0.339   2.149 -0.3449 -0.2386  0.0311
 3826SOL    HW123114   2.296   0.338   2.245 -3.3520 -0.6538 -0.1177
 3826SOL    HW223115   2.213   0.368   2.126  0.7650  1.8059 -1.5515
 3827SOL     OW23116   3.647   3.194   3.929 -0.0666  0.2274  0.6704
 3827SOL    HW123117   3.567   3.235   3.898 -0.3111  0.7252  1.9425
 3827SOL    HW223118   3.705   3.222   3.859  1.3187 -2.1347  0.8505
 3828SOL     OW23119   3.332   0.198   0.599 -0.0780  0.4934 -0.7221
 3828SOL    HW123120   3.326   0.294   0.593 -0.7344  0.4432 -0.8903
 3828SOL    HW223121   3.401   0.188   0.664  0.3993 -0.1820 -1.3406
 3829SOL     OW23122   0.077   2.576   9.108  0.5645  0.3545  0.2425
 3829SOL    HW123123   0.089   2.529   9.190  2.3250  2.2262  1.0491
 3829SOL    HW223124   0.027   2.517   9.050  0.6032 -0.4986  1.0770
 3830SOL     OW23125   2.552   0.442  14.338 -0.1846 -0.1748  0.3791
 3830SOL    HW123126   2.603   0.518  14.312 -0.8058  0.6597  1.5674
 3830SOL    HW223127   2.471   0.451  14.288 -0.3933 -2.6101  0.2576
 3831SOL     OW23128   4.462   3.816   9.878  0.1240  0.0778 -0.0855
 3831SOL    HW123129   4.511   3.747   9.921  0.7288  0.5103 -0.0880
 3831SOL    HW223130   4.524   3.889   9.882 -0.2033  0.3296  0.3913
 3832SOL     OW23131   2.835   0.891   2.954 -0.1464  0.1147  0.0410
 3832SOL    HW123132   2.772   0.838   2.904 -0.4761  0.4051  0.1445
 3832SOL    HW223133   2.876   0.824   3.008  1.5592  0.2828 -1.0630
 3833SOL     OW23134   3.690   1.988  16.253 -0.3336  0.1526  0.5680
 3833SOL    HW123135   3.757   2.053  16.274 -0.0499 -0.1320  0.5422
 3833SOL    HW223136   3.729   1.928  16.190 -0.0578  1.6429 -0.6704
 3834SOL     OW23137   0.232   1.283  17.154  0.7073 -0.3808 -1.0430
 3834SOL    HW123138   0.257   1.359  17.102  0.4405  0.7342  0.4361
 3834SOL    HW223139   0.313   1.236  17.176  1.9004  2.1308 -0.1385
 3835SOL     OW23140   1.882   3.605   6.400  0.0961 -0.2472 -0.1094
 3835SOL    HW123141   1.911   3.688   6.362 -0.4343 -0.0448 -0.0659
 3835SOL    HW223142   1.808   3.629   6.455 -0.1629 -4.0594  1.2169
 3836SOL     OW23143   0.163   4.511   9.111  0.7896 -0.1222  0.0892
 3836SOL    HW123144   0.138   4.469   9.194  1.3101  1.2904  0.9574
 3836SOL    HW223145   0.079   4.517   9.066 -0.1857 -3.8457  1.3869
 3837SOL     OW23146   0.349   1.102   7.319  0.1773  0.7299 -0.6362
 3837SOL    HW123147   0.314   1.063   7.398 -1.2899  1.8492 -0.7268
 3837SOL    HW223148   0.427   1.144   7.354  0.0592  0.2667  0.1739
 3838SOL     OW23149   0.854   0.384   7.100 -0.2282  0.3072  0.2401
 3838SOL    HW123150   0.906   0.318   7.147  1.6380  1.2890 -0.4641
 3838SOL    HW223151   0.831   0.438   7.176 -1.2417  1.7157 -1.0825
 3839SOL     OW23152   3.097   0.849   8.659  0.4659 -0.1024 -0.3324
 3839SOL    HW123153   3.022   0.908   8.660  0.4179 -0.1520 -0.9134
 3839SOL    HW223154   3.134   0.862   8.747  0.6851  0.8010 -0.5593
 3840SOL     OW23155   0.560   0.328   2.095 -0.2784 -0.2006  0.2796
 3840SOL    HW123156   0.495   0.330   2.024  3.1206  1.0790 -2.7821
 3840SOL    HW223157   0.506   0.372   2.161  2.1870  0.3398  1.9208
 3841SOL     OW23158   0.499   2.405   6.207 -0.3938 -0.6934  0.3553
 3841SOL    HW123159   0.453   2.480   6.169 -1.7984 -1.2771  0.8824
 3841SOL    HW223160   0.515   2.350   6.130  0.8755 -0.7246  0.6521
 3842SOL     OW23161   1.428   1.593   6.831 -0.4110 -0.0097  0.0053
 3842SOL    HW123162   1.437   1.566   6.923 -0.7420 -0.8087 -0.1908
 3842SOL    HW223163   1.351   1.649   6.828 -1.1169 -0.9473  0.5884
 3843SOL     OW23164   4.278   0.142   9.554  0.2592  0.0945  0.1915
 3843SOL    HW123165   4.301   0.065   9.607 -1.6871 -0.4727  0.2119
 3843SOL    HW223166   4.209   0.183   9.606  1.3377  1.1700  0.7784
 3844SOL     OW23167   0.192   1.443   6.233  0.1521  0.6991  0.0642
 3844SOL    HW123168   0.250   1.504   6.187 -0.1370  2.6009  2.2206
 3844SOL    HW223169   0.160   1.486   6.312 -0.0539 -0.1124  0.4167
 3845SOL     OW23170   3.419   0.777   5.116 -0.5573 -0.2162  0.6363
 3845SOL    HW123171   3.470   0.709   5.160 -2.3663 -1.1560  1.2791
 3845SOL    HW223172   3.383   0.823   5.192  1.6389  0.5841  1.2084
 3846SOL     OW23173   3.823   3.209   5.616  0.2581  0.5621 -0.4348
 3846SOL    HW123174   3.803   3.197   5.523 -2.2373 -0.0852  0.2029
 3846SOL    HW223175   3.826   3.305   5.616 -1.4250  0.6021  1.2980
 3847SOL     OW23176   3.756   4.004   7.604  0.5080 -0.2029  0.3328
 3847SOL    HW123177   3.675   4.039   7.568  1.1416  2.3230  1.3707
 3847SOL    HW223178   3.788   3.970   7.521 -0.0686 -2.2101  0.9421
 3848SOL     OW23179   3.833   3.005  11.816  0.2098  0.3858 -1.0413
 3848SOL    HW123180   3.869   3.013  11.727  2.9837 -1.6584 -0.0867
 3848SOL    HW223181   3.906   3.045  11.863 -0.1772  0.9853 -0.9486
 3849SOL     OW23182   1.779   4.046   4.393  0.5640  0.0900 -0.7454
 3849SOL    HW123183   1.778   4.132   4.352 -0.6547 -0.4796 -1.9041
 3849SOL    HW223184   1.724   3.998   4.331 -0.4582  0.2141  0.0587
 3850SOL     OW23185   3.289   2.406   4.770  0.1321 -0.2765 -0.2168
 3850SOL    HW123186   3.233   2.339   4.732  0.2710 -0.6133  0.1605
 3850SOL    HW223187   3.373   2.361   4.785  0.7359  0.3277 -1.7895
 3851SOL     OW23188   2.299   3.226   8.005  0.0314  0.7068 -0.2948
 3851SOL    HW123189   2.380   3.266   8.038  0.2005  0.5722 -0.5494
 3851SOL    HW223190   2.229   3.260   8.060  0.1480  2.2152 -1.0833
 3852SOL     OW23191   4.209   3.527   7.935  0.2837 -0.3028 -0.3896
 3852SOL    HW123192   4.175   3.616   7.942 -0.3409 -0.5283 -0.5130
 3852SOL    HW223193   4.235   3.529   7.843  1.2651 -0.0878 -0.1034
 3853SOL     OW23194   1.130   0.514   4.769 -0.2495 -0.1692  0.2394
 3853SOL    HW123195   1.202   0.577   4.771 -1.4758  1.2788 -1.2504
 3853SOL    HW223196   1.106   0.497   4.861 -1.4340  0.1977 -0.0035
 3854SOL     OW23197   2.990   4.259   3.713  0.2251 -0.7432 -0.1371
 3854SOL    HW123198   2.900   4.274   3.742  0.1885  0.6338 -0.9733
 3854SOL    HW223199   3.010   4.342   3.670 -1.7462  0.5553  1.4465
 3855SOL     OW23200   4.718   0.547   6.690 -0.3954 -0.8055  0.1729
 3855SOL    HW123201   4.644   0.606   6.704  1.1641  1.6014 -1.7864
 3855SOL    HW223202   4.738   0.531   6.782 -0.0898 -0.4700  0.1643
 3856SOL     OW23203   2.665   1.553  16.936 -0.2907  0.2849  0.0876
 3856SOL    HW123204   2.749   1.594  16.919  0.5094 -0.7049  1.6676
 3856SOL    HW223205   2.610   1.571  16.859 -0.3781 -0.9132 -0.1305
 3857SOL     OW23206   0.609   0.827  10.376  0.0066 -0.2151 -0.3102
 3857SOL    HW123207   0.643   0.801  10.290 -0.6158 -0.8910 -0.3489
 3857SOL    HW223208   0.522   0.789  10.373  0.2592 -0.9290  1.1790
 3858SOL     OW23209   0.969   1.829   0.853 -0.2924  0.1215  0.2794
 3858SOL    HW123210   0.893   1.885   0.866  0.4423  1.2286 -0.1670
 3858SOL    HW223211   1.014   1.874   0.781  2.3370 -0.2089  1.7344
 3859SOL     OW23212   3.065   4.106   4.492  0.0366  0.1314  0.0163
 3859SOL    HW123213   3.040   4.016   4.471  0.3511 -0.3964  1.8580
 3859SOL    HW223214   3.093   4.142   4.409  2.0297  2.3281  1.6374
 3860SOL     OW23215   0.674   4.726   8.662  0.2745  0.1323 -0.3321
 3860SOL    HW123216   0.594   0.007   8.710  0.6428 -2.0022  1.2776
 3860SOL    HW223217   0.720   4.667   8.721  1.9948  2.8012  0.9621
 3861SOL     OW23218   1.708   2.194   0.208 -0.0590 -0.0214  0.4790
 3861SOL    HW123219   1.766   2.200   0.132  0.9646 -1.2239  1.1448
 3861SOL    HW223220   1.626   2.229   0.174  1.4831  3.4706  0.3762
 3862SOL     OW23221   1.552   0.320   9.299 -0.0838 -0.6036 -0.1091
 3862SOL    HW123222   1.579   0.362   9.380 -1.0865  0.7378 -0.4823
 3862SOL    HW223223   1.601   0.238   9.295 -2.0360 -1.9564  2.9448
 3863SOL     OW23224   3.354   1.912   6.525 -0.2145 -0.7847 -0.1407
 3863SOL    HW123225   3.390   1.871   6.603  0.5509 -1.6154 -0.9273
 3863SOL    HW223226   3.426   1.925   6.462 -2.2377 -3.3193 -2.9247
 3864SOL     OW23227   0.189   0.213   3.970  0.1676  0.2669 -0.2861
 3864SOL    HW123228   0.130   0.161   4.025  1.8751  0.0029  1.3132
 3864SOL    HW223229   0.265   0.155   3.970 -1.5261 -1.9432 -1.1292
 3865SOL     OW23230   4.039   4.265   9.480  0.3703 -1.1053  0.4329
 3865SOL    HW123231   4.089   4.332   9.527  0.7012 -0.0107 -1.4806
 3865SOL    HW223232   3.949   4.296   9.493  0.7390 -0.0071  0.3935
 3866SOL     OW23233   0.967   4.695   6.935 -0.6809 -0.0938  0.0409
 3866SOL    HW123234   0.913   4.703   6.856  0.7268  2.4517 -0.6537
 3866SOL    HW223235   1.000   0.039   6.964 -0.6079 -0.5524  1.2680
 3867SOL     OW23236   2.045   1.912   1.254  0.9595  0.4469  0.0903
 3867SOL    HW123237   2.110   1.899   1.322 -0.0657 -0.5342  0.8819
 3867SOL    HW223238   2.041   1.826   1.213 -2.9257  1.2060 -1.2014
 3868SOL     OW23239   1.934   1.112   4.969  0.5523  0.1139 -0.1588
 3868SOL    HW123240   1.880   1.178   4.927 -1.3527  0.8227  3.3939
 3868SOL    HW223241   1.950   1.145   5.057  0.6061  0.6558 -0.3734
 3869SOL     OW23242   3.051   3.653   8.728  0.4752  0.0070  0.5093
 3869SOL    HW123243   3.067   3.684   8.818  3.4464  0.8153 -0.2804
 3869SOL    HW223244   3.141   3.641   8.698  0.9294 -1.3862  2.3993
 3870SOL     OW23245   4.257   1.986  12.597 -0.2818  0.5998 -0.0240
 3870SOL    HW123246   4.233   2.021  12.511  0.4248  0.9727 -0.0704
 3870SOL    HW223247   4.257   1.891  12.583 -0.1172  0.2798  2.2016
 3871SOL     OW23248   0.583   3.278   7.210  0.1445  0.0970 -0.1313
 3871SOL    HW123249   0.548   3.189   7.202 -0.9161  0.3211  2.1284
 3871SOL    HW223250   0.651   3.263   7.275 -0.1298 -3.3592 -0.5982
 3872SOL     OW23251   0.640   2.455  10.756  0.4432  0.2354 -0.2687
 3872SOL    HW123252   0.594   2.473  10.674 -1.8890 -1.3737  0.6874
 3872SOL    HW223253   0.727   2.430  10.724  0.3972  0.1078 -0.2904
 3873SOL     OW23254   2.388   1.959  13.625 -0.0623  0.2406  0.4027
 3873SOL    HW123255   2.331   1.973  13.550  0.4070 -0.3737 -0.0703
 3873SOL    HW223256   2.387   1.863  13.628 -3.3880  0.2156 -1.7358
 3874SOL     OW23257   3.061   3.838   4.081  0.5052 -0.4007  0.4092
 3874SOL    HW123258   3.068   3.743   4.086  0.5219 -0.3889  0.6122
 3874SOL    HW223259   2.973   3.854   4.047  0.0600 -1.6441  0.9889
 3875SOL     OW23260   3.511   0.975  14.078  0.5602 -0.4278 -0.4412
 3875SOL    HW123261   3.428   0.976  14.127  0.8078 -1.0994 -0.0068
 3875SOL    HW223262   3.555   1.036  14.137 -1.1826 -0.0234  0.4447
 3876SOL     OW23263   0.772   1.865   8.153 -0.5798 -0.4179  0.3327
 3876SOL    HW123264   0.814   1.949   8.169  0.6278 -1.1244  0.8560
 3876SOL    HW223265   0.685   1.901   8.134 -0.8302 -1.4246 -0.4380
 3877SOL     OW23266   2.875   1.420   9.260  0.7510 -0.1034  0.6439
 3877SOL    HW123267   2.791   1.465   9.271 -0.1638 -0.8232 -3.4292
 3877SOL    HW223268   2.930   1.498   9.267  1.2867 -0.3497 -0.7255
 3878SOL     OW23269   2.874   0.120  16.913  0.4231  0.8664 -0.1449
 3878SOL    HW123270   2.877   0.055  16.843 -1.2314 -0.0454  0.6243
 3878SOL    HW223271   2.955   0.171  16.907  1.7914 -1.4320 -1.1202
 3879SOL     OW23272   0.348   3.341   0.495 -0.1163 -0.3233  0.3341
 3879SOL    HW123273   0.415   3.287   0.453 -0.0607 -0.9343  1.2103
 3879SOL    HW223274   0.385   3.428   0.504  0.2496 -0.4615  0.1693
 3880SOL     OW23275   4.587   3.562  13.585  0.1742  0.0430  0.2660
 3880SOL    HW123276   4.500   3.595  13.609 -0.5511 -1.6890 -0.0143
 3880SOL    HW223277   4.618   3.603  13.504 -0.7350 -0.1739 -0.1985
 3881SOL     OW23278   3.134   0.759  15.447 -0.0007  0.4451 -0.2464
 3881SOL    HW123279   3.116   0.846  15.483  1.0235  1.1470 -1.4388
 3881SOL    HW223280   3.110   0.780  15.357 -1.2037 -1.4978 -0.3649
 3882SOL     OW23281   2.678   2.097   2.486  0.2377 -0.5724 -0.0231
 3882SOL    HW123282   2.752   2.091   2.427  0.0745  2.5818 -0.5079
 3882SOL    HW223283   2.641   2.185   2.488  0.0679 -0.6669  1.8253
 3883SOL     OW23284   2.900   2.201   8.284 -0.8199 -0.1876  0.1161
 3883SOL    HW123285   2.823   2.146   8.298 -1.7026  0.9401 -0.3512
 3883SOL    HW223286   2.960   2.182   8.356 -0.7090 -0.4410 -0.0402
 3884SOL     OW23287   2.866   1.605  12.624  0.0666 -0.0803 -0.3973
 3884SOL    HW123288   2.889   1.695  12.600 -1.3193  0.5725  0.6593
 3884SOL    HW223289   2.952   1.567  12.639 -0.3172 -1.2611 -1.2163
 3885SOL     OW23290   1.556   1.031  15.139 -0.1358  0.6404  0.0438
 3885SOL    HW123291   1.648   1.009  15.126 -1.4755 -3.4532 -2.5539
 3885SOL    HW223292   1.500   0.954  15.145 -0.8335  1.1033 -0.6287
 3886SOL     OW23293   0.296   4.646   1.634 -0.1118  0.0129 -0.2584
 3886SOL    HW123294   0.328   4.563   1.600 -0.2576  0.8668 -2.4533
 3886SOL    HW223295   0.372   4.690   1.673  0.5912 -0.8969 -0.6120
 3887SOL     OW23296   4.656   1.815   9.560 -0.0992 -0.2335  0.0753
 3887SOL    HW123297   4.737   1.766   9.543  0.5937  0.8730  0.2239
 3887SOL    HW223298   4.679   1.868   9.636  3.8478 -1.2400 -0.3636
 3888SOL     OW23299   2.472   3.834   2.849 -0.2713  0.4596 -0.0340
 3888SOL    HW123300   2.516   3.799   2.927  0.2675  0.0758 -0.5126
 3888SOL    HW223301   2.456   3.752   2.801 -0.6125  0.4637  0.0692
 3889SOL     OW23302   0.080   0.672  14.984  0.2470  0.5949 -0.6649
 3889SOL    HW123303   0.137   0.660  15.061 -1.5666 -1.1259  0.4001
 3889SOL    HW223304   0.016   0.601  14.987  1.6270 -0.6499 -0.3764
 3890SOL     OW23305   3.354   1.022   6.141  0.3129 -0.5879 -0.2579
 3890SOL    HW123306   3.345   0.962   6.067 -1.4328 -0.6435  0.0010
 3890SOL    HW223307   3.268   1.026   6.185 -0.1050  0.6264 -1.1894
 3891SOL     OW23308   4.334   0.887   9.072 -0.0830  0.1699  0.3289
 3891SOL    HW123309   4.261   0.905   9.131 -1.0155 -1.2708 -0.3691
 3891SOL    HW223310   4.396   0.862   9.140  2.1675  0.1519 -1.6958
 3892SOL     OW23311   3.883   4.284   0.814  0.5819  0.1754  0.0370
 3892SOL    HW123312   3.926   4.288   0.729 -0.0107 -0.4279 -0.2951
 3892SOL    HW223313   3.962   4.277   0.868  1.6396  1.8239 -1.2968
 3893SOL     OW23314   1.814   0.716   8.329 -0.0161  0.0592 -0.0224
 3893SOL    HW123315   1.811   0.648   8.261  0.9295 -0.6127  0.6147
 3893SOL    HW223316   1.722   0.742   8.330  0.4717  1.7574  0.3169
 3894SOL     OW23317   2.512   3.561   3.672  0.6189  0.3355 -0.4176
 3894SOL    HW123318   2.494   3.503   3.746 -0.8892 -0.0486 -1.0701
 3894SOL    HW223319   2.424   3.558   3.633  0.1487 -0.8843  0.7431
 3895SOL     OW23320   1.626   0.435   9.068 -0.0659 -0.1087  0.2041
 3895SOL    HW123321   1.558   0.499   9.087  1.3293  0.5883  2.8300
 3895SOL    HW223322   1.607   0.390   9.150 -0.4498  2.0553  1.3070
 3896SOL     OW23323   2.785   0.082   9.000  0.1701  0.0420  0.7021
 3896SOL    HW123324   2.825   0.032   8.928 -1.1787  0.1818 -0.1558
 3896SOL    HW223325   2.732   0.013   9.040 -0.8743  0.6563  0.3924
 3897SOL     OW23326   2.416   1.570  13.301 -1.0003 -0.2677  0.4375
 3897SOL    HW123327   2.331   1.584  13.342 -1.8409  0.8214 -1.6637
 3897SOL    HW223328   2.446   1.658  13.280  0.6151 -0.9022  0.0835
 3898SOL     OW23329   3.270   1.751   6.022  0.3355 -0.1149 -0.2882
 3898SOL    HW123330   3.205   1.821   6.011 -0.5630 -0.8632  0.2113
 3898SOL    HW223331   3.242   1.706   6.102  0.1330  2.4445  1.0872
 3899SOL     OW23332   3.435   1.159   7.259  0.2532 -0.2552 -0.0767
 3899SOL    HW123333   3.507   1.188   7.314  0.4552  0.9133 -0.9472
 3899SOL    HW223334   3.386   1.106   7.321 -0.0531 -0.2772 -0.3374
 3900SOL     OW23335   1.786   0.369   4.877 -0.1301  0.0158  0.2098
 3900SOL    HW123336   1.733   0.342   4.803  0.1478 -0.3035  0.1305
 3900SOL    HW223337   1.779   0.294   4.936  0.6861  0.1829  0.5221
 3901SOL     OW23338   3.277   2.282   4.261 -0.3116 -0.4400  0.3610
 3901SOL    HW123339   3.213   2.342   4.299  0.2751 -0.1902  0.9423
 3901SOL    HW223340   3.329   2.288   4.341 -1.9166 -1.0257  1.4521
 3902SOL     OW23341   2.089   3.954   2.342  0.5219 -0.7450  0.6330
 3902SOL    HW123342   2.064   4.020   2.406  0.0373  2.9057 -3.3108
 3902SOL    HW223343   2.183   3.967   2.354  0.7418 -0.1057 -1.7516
 3903SOL     OW23344   4.704   2.439   3.735 -0.3740 -0.3813  0.0758
 3903SOL    HW123345   4.724   2.490   3.814  3.3266  0.8496 -1.7057
 3903SOL    HW223346   4.609   2.449   3.727 -0.4494 -0.0149  1.4322
 3904SOL     OW23347   4.696   0.640   4.696  0.1807 -0.1717 -0.2077
 3904SOL    HW123348   0.011   0.613   4.768 -2.5139  0.8681  2.3083
 3904SOL    HW223349   4.664   0.555   4.666  0.0100 -1.2773  3.1789
 3905SOL     OW23350   2.079   0.768  13.499  0.4697 -0.7433 -0.5231
 3905SOL    HW123351   2.096   0.861  13.518  0.0816 -0.7584 -0.0992
 3905SOL    HW223352   2.087   0.769  13.404  2.9228 -1.7560 -0.3095
 3906SOL     OW23353   4.546   0.713   2.550  0.0981  0.6306 -0.5272
 3906SOL    HW123354   4.484   0.684   2.617  0.0510  3.5434  0.7137
 3906SOL    HW223355   4.524   0.806   2.549  3.0859  1.3117 -1.8571
 3907SOL     OW23356   2.696   4.073   1.813  0.0107 -0.1255 -0.2339
 3907SOL    HW123357   2.706   4.094   1.720 -0.9050 -0.3346 -0.3733
 3907SOL    HW223358   2.678   3.979   1.806 -0.9942  0.1309 -0.9443
 3908SOL     OW23359   2.266   0.515   8.543 -0.5872  0.4629  0.0127
 3908SOL    HW123360   2.192   0.455   8.531  0.0156 -0.0019 -1.3263
 3908SOL    HW223361   2.266   0.538   8.636 -0.7932 -3.0589  0.8939
 3909SOL     OW23362   2.571   4.521   3.636  0.1261  0.0879  0.2193
 3909SOL    HW123363   2.573   4.524   3.732 -1.2844 -2.8026  0.3402
 3909SOL    HW223364   2.479   4.505   3.615  0.3992  0.4637 -1.2555
 3910SOL     OW23365   0.184   0.907   8.265  0.4021 -0.4795  0.2997
 3910SOL    HW123366   0.244   0.866   8.327 -0.2023  0.2002  1.3441
 3910SOL    HW223367   0.151   0.835   8.212 -0.5967 -0.9919  1.5983
 3911SOL     OW23368   1.757   0.558   6.965  0.2413 -0.2843  0.0974
 3911SOL    HW123369   1.766   0.535   6.873  0.7042  1.0393 -0.1898
 3911SOL    HW223370   1.735   0.650   6.948 -0.1967 -0.3933  0.0754
 3912SOL     OW23371   1.764   3.979   9.538  0.6724 -0.6989 -0.0095
 3912SOL    HW123372   1.689   3.993   9.481 -1.2878  0.1811  2.8283
 3912SOL    HW223373   1.753   3.887   9.562  1.4298 -0.6398  0.5669
 3913SOL     OW23374   4.488   2.591  14.771  0.1772  0.2756  0.3874
 3913SOL    HW123375   4.480   2.550  14.857 -0.6194  0.7486  0.5437
 3913SOL    HW223376   4.449   2.674  14.797 -3.7558 -0.9497 -1.5952
 3914SOL     OW23377   2.360   0.812  16.696  0.3374  0.2561  0.4214
 3914SOL    HW123378   2.314   0.791  16.777  2.1480  0.3250  1.4568
 3914SOL    HW223379   2.351   0.726  16.654 -1.3227  0.1361  1.0281
 3915SOL     OW23380   2.535   3.217   4.714 -0.1951 -0.3108  0.0660
 3915SOL    HW123381   2.489   3.163   4.649  2.0936 -2.4386  0.2231
 3915SOL    HW223382   2.468   3.220   4.782  0.3480  1.1819  0.5228
 3916SOL     OW23383   2.805   3.037  13.280 -0.0597  0.2892 -0.0515
 3916SOL    HW123384   2.739   2.970  13.298 -0.3548  0.4928 -0.3803
 3916SOL    HW223385   2.841   3.001  13.199 -0.6501 -1.0184  0.2613
 3917SOL     OW23386   0.244   0.016   3.039 -1.1385  0.2969 -0.0688
 3917SOL    HW123387   0.274   4.731   2.952  1.3853 -0.9525  1.1502
 3917SOL    HW223388   0.222   0.108   3.032 -1.0894  0.3181  0.0535
 3918SOL     OW23389   1.519   3.619   4.997 -0.0924 -0.1790  0.1487
 3918SOL    HW123390   1.459   3.653   5.064  0.8689  0.3185  0.7624
 3918SOL    HW223391   1.456   3.623   4.925 -2.1678  3.1707  2.1663
 3919SOL     OW23392   1.935   1.204   4.065  0.1431 -0.2926 -0.2198
 3919SOL    HW123393   1.903   1.122   4.103  2.8968 -1.5013 -0.4953
 3919SOL    HW223394   1.863   1.263   4.087  1.3205  0.7970  0.7343
 3920SOL     OW23395   1.037   4.270   6.802 -0.2777  0.2609 -0.0381
 3920SOL    HW123396   1.095   4.325   6.854  1.6187 -0.7609 -1.0590
 3920SOL    HW223397   1.071   4.283   6.713 -1.4606  2.0999 -0.2088
 3921SOL     OW23398   4.626   3.438   9.880  0.4567 -0.4427  1.0106
 3921SOL    HW123399   4.537   3.468   9.862 -0.4994 -2.5449  2.1993
 3921SOL    HW223400   4.674   3.507   9.835 -1.3810 -0.6354 -1.2488
 3922SOL     OW23401   1.167   4.406   4.450  0.1810 -0.4157 -0.3011
 3922SOL    HW123402   1.092   4.391   4.507  0.0883 -0.5925 -0.4704
 3922SOL    HW223403   1.227   4.343   4.490  3.1192  1.8230 -1.1501
 3923SOL     OW23404   0.822   3.133   7.319 -0.0155 -0.3862  0.2529
 3923SOL    HW123405   0.870   3.050   7.324  2.0867  0.7726 -0.3756
 3923SOL    HW223406   0.841   3.166   7.406  0.5682 -1.5546  0.5745
 3924SOL     OW23407   3.137   2.475  11.934 -0.0798 -0.1188  0.4078
 3924SOL    HW123408   3.216   2.425  11.917 -1.3009 -1.7344 -0.5178
 3924SOL    HW223409   3.166   2.510  12.018  1.0244  0.2935 -0.1515
 3925SOL     OW23410   1.889   2.545   5.711 -0.0596 -0.4837 -0.2103
 3925SOL    HW123411   1.865   2.571   5.800  2.2588 -1.2560  0.6367
 3925SOL    HW223412   1.864   2.452   5.706  0.0833 -0.4961 -0.6972
 3926SOL     OW23413   3.247   0.932   0.598  0.4729  0.0272 -0.0846
 3926SOL    HW123414   3.197   0.854   0.621 -0.8138  1.5675  2.3222
 3926SOL    HW223415   3.172   0.989   0.581 -0.1373 -1.6078 -2.7354
 3927SOL     OW23416   2.603   4.650   5.253 -0.0309  0.2235 -0.2326
 3927SOL    HW123417   2.646   4.626   5.336 -0.6209 -1.4901 -0.4271
 3927SOL    HW223418   2.526   4.594   5.253  0.0803  0.0711 -0.1218
 3928SOL     OW23419   4.709   1.886   6.319 -0.0346  0.7008  0.4853
 3928SOL    HW123420   0.013   1.967   6.295 -2.5370  1.1914 -2.4899
 3928SOL    HW223421   0.047   1.850   6.361 -0.1668 -4.4868 -3.7844
 3929SOL     OW23422   0.274   2.364  11.832  0.2622  0.5062 -0.8453
 3929SOL    HW123423   0.198   2.357  11.774 -0.7920  1.4142  0.4346
 3929SOL    HW223424   0.300   2.455  11.815 -1.2572  1.1419  0.3117
 3930SOL     OW23425   1.801   3.038  17.058  0.4058  0.1631  0.2140
 3930SOL    HW123426   1.837   3.006  17.141 -0.8617  1.6772  1.3534
 3930SOL    HW223427   1.828   2.963  17.004  0.8317 -0.4254  1.2328
 3931SOL     OW23428   3.912   4.356   8.771  0.0831 -0.0463  0.6920
 3931SOL    HW123429   3.970   4.282   8.753 -1.2528 -0.6116 -1.3510
 3931SOL    HW223430   3.886   4.377   8.682 -0.1581 -0.9522  0.5460
 3932SOL     OW23431   2.282   0.701  15.131 -0.5540  0.3382 -0.5586
 3932SOL    HW123432   2.208   0.648  15.161  0.8157 -0.5096  1.3206
 3932SOL    HW223433   2.267   0.705  15.037  2.4601  1.1918 -1.0082
 3933SOL     OW23434   4.146   0.934   5.608  0.1228 -0.6741  0.4011
 3933SOL    HW123435   4.069   0.878   5.605  0.3490 -0.8721 -1.4098
 3933SOL    HW223436   4.150   0.972   5.520 -2.5651 -2.4666 -0.4902
 3934SOL     OW23437   2.968   0.504   3.963 -0.1877 -0.1786  0.7355
 3934SOL    HW123438   2.944   0.590   3.930  0.7043  0.3109  1.3845
 3934SOL    HW223439   2.879   0.470   3.966 -0.9206  1.5721 -1.0479
 3935SOL     OW23440   2.296   4.681  17.033  0.4170  0.4130 -0.6056
 3935SOL    HW123441   2.343   0.006  16.983  1.0881 -0.9037 -1.6985
 3935SOL    HW223442   2.363   4.676  17.101  0.6258 -2.2554 -0.9828
 3936SOL     OW23443   4.059   1.496   6.689 -0.8750  0.2972 -1.1937
 3936SOL    HW123444   4.110   1.577   6.687 -1.1168  0.5020  1.8641
 3936SOL    HW223445   3.987   1.506   6.626 -0.3742  0.8997 -1.6617
 3937SOL     OW23446   0.567   1.408   9.215 -0.4021  0.2236 -0.3809
 3937SOL    HW123447   0.561   1.368   9.128  0.0451 -0.1376 -0.2467
 3937SOL    HW223448   0.659   1.392   9.235 -0.4374  1.4088  0.7240
 3938SOL     OW23449   2.603   0.908   4.079 -0.0932  0.1986  0.1067
 3938SOL    HW123450   2.671   0.890   4.014  1.0144  2.2477  0.6887
 3938SOL    HW223451   2.549   0.830   4.065  0.9679  0.0614 -3.2432
 3939SOL     OW23452   0.796   1.063   7.302  0.0002 -0.2253 -0.3903
 3939SOL    HW123453   0.846   0.982   7.305  0.9483  0.3605 -0.2758
 3939SOL    HW223454   0.757   1.053   7.215 -0.3226  0.7169 -0.3590
 3940SOL     OW23455   4.217   4.018  13.929 -0.2278  0.7812  0.0182
 3940SOL    HW123456   4.197   4.082  13.860  0.1210  0.3522 -0.4820
 3940SOL    HW223457   4.198   3.942  13.874 -1.9291  1.0405  0.2653
 3941SOL     OW23458   2.197   4.052   5.619 -0.3525 -0.2065  0.1198
 3941SOL    HW123459   2.285   4.042   5.584 -1.1652 -3.3613 -0.9736
 3941SOL    HW223460   2.220   4.073   5.710 -0.7520  0.4275  0.0749
 3942SOL     OW23461   0.943   3.143   9.007  0.1283 -0.1950  0.1206
 3942SOL    HW123462   0.899   3.108   8.929 -1.0624  2.5577 -0.4596
 3942SOL    HW223463   0.951   3.237   8.987 -1.2150  0.3672  2.3519
 3943SOL     OW23464   2.143   1.972   2.849  0.7094  0.6430  0.3624
 3943SOL    HW123465   2.075   1.986   2.914  1.0111  4.9195 -0.2684
 3943SOL    HW223466   2.230   1.978   2.890  1.1772  0.8737 -0.6615
 3944SOL     OW23467   4.523   3.576   0.600  0.2778 -0.5293 -0.2579
 3944SOL    HW123468   4.466   3.500   0.613 -0.8516  0.4140  0.3040
 3944SOL    HW223469   4.602   3.522   0.606 -0.1721 -0.8411  2.6815
 3945SOL     OW23470   1.417   1.823   9.469 -0.5175  0.1922 -0.3134
 3945SOL    HW123471   1.430   1.911   9.504  2.5545  0.1074 -1.2192
 3945SOL    HW223472   1.383   1.842   9.382 -1.0802  0.5697 -0.0088
 3946SOL     OW23473   3.015   0.876  13.838  0.2041 -0.0181 -0.3672
 3946SOL    HW123474   3.092   0.820  13.829  0.8458  0.9234 -0.8209
 3946SOL    HW223475   2.944   0.813  13.828 -0.1732  0.2270  0.7350
 3947SOL     OW23476   1.143   4.468  15.895 -0.0466  0.0157 -0.1810
 3947SOL    HW123477   1.100   4.400  15.844 -2.6103  1.5389 -0.0904
 3947SOL    HW223478   1.234   4.440  15.903  0.3939  0.7215 -2.8252
 3948SOL     OW23479   3.486   4.437   8.709  0.4668 -0.3902 -0.2663
 3948SOL    HW123480   3.432   4.501   8.662  2.0104  1.4992  0.5113
 3948SOL    HW223481   3.444   4.359   8.674  1.4507 -1.8454  1.8148
 3949SOL     OW23482   4.591   2.269  14.485 -0.7568  0.1831  0.2455
 3949SOL    HW123483   4.597   2.330  14.411 -1.2158  0.4455  0.4258
 3949SOL    HW223484   4.675   2.223  14.477 -0.3103  0.9565  0.4728
 3950SOL     OW23485   2.311   1.897   5.891  0.1169  0.1608  0.0648
 3950SOL    HW123486   2.272   1.984   5.883  0.7147  0.5604  1.3813
 3950SOL    HW223487   2.394   1.916   5.848  0.1212  0.3370  0.1503
 3951SOL     OW23488   3.018   1.816  12.564 -0.8373 -0.1505  0.0052
 3951SOL    HW123489   3.011   1.906  12.595 -1.2261 -0.1873  0.0156
 3951SOL    HW223490   3.111   1.798  12.579 -1.1479 -1.1802  0.7030
 3952SOL     OW23491   2.623   1.000  14.550 -0.4577  0.3087  0.4583
 3952SOL    HW123492   2.549   0.993  14.490 -0.2576  3.7963 -0.1823
 3952SOL    HW223493   2.690   1.051  14.505 -0.9703  0.1523 -0.4675
 3953SOL     OW23494   2.631   3.477   9.479  0.4295  0.1881  0.3083
 3953SOL    HW123495   2.671   3.492   9.394 -0.7305 -0.5530 -0.3691
 3953SOL    HW223496   2.544   3.447   9.453 -0.3604  1.9593  0.8693
 3954SOL     OW23497   3.773   0.588   8.611  0.6934  0.2778  0.5562
 3954SOL    HW123498   3.701   0.612   8.552  1.0003 -0.5789 -0.1583
 3954SOL    HW223499   3.844   0.603   8.550 -0.3376 -0.2413 -0.7742
 3955SOL     OW23500   2.296   4.360   5.607  0.0409 -0.2273  0.1846
 3955SOL    HW123501   2.254   4.362   5.522 -0.5686 -1.7077  0.4567
 3955SOL    HW223502   2.230   4.345   5.674 -1.3565 -1.9586 -1.5777
 3956SOL     OW23503   3.361   3.000   3.570  0.2164  0.0519  0.5380
 3956SOL    HW123504   3.367   2.987   3.475  1.0635 -2.1535  0.8933
 3956SOL    HW223505   3.342   3.093   3.561 -1.4185 -0.3941 -0.8169
 3957SOL     OW23506   0.702   2.157   2.619  0.1586  0.3139  0.2271
 3957SOL    HW123507   0.628   2.204   2.581  1.8749  1.7213 -1.3310
 3957SOL    HW223508   0.694   2.175   2.713  0.4057  1.0119  0.1139
 3958SOL     OW23509   4.569   1.981  10.233 -0.7105  0.3599 -0.0082
 3958SOL    HW123510   4.591   1.986  10.326  0.0830  0.6496 -0.2160
 3958SOL    HW223511   4.545   2.069  10.205  0.5741 -0.2211 -2.8428
 3959SOL     OW23512   2.920   2.778   3.232  0.3072  0.2596  0.0328
 3959SOL    HW123513   2.935   2.817   3.318 -1.1419  0.6875  0.0999
 3959SOL    HW223514   2.992   2.806   3.176 -0.5777  2.5798  0.0502
 3960SOL     OW23515   3.397   2.685   7.666  0.1381 -0.4965  0.0421
 3960SOL    HW123516   3.306   2.655   7.667  0.1589 -0.3742  3.4394
 3960SOL    HW223517   3.444   2.611   7.704 -0.5172 -0.7745  0.3077
 3961SOL     OW23518   0.933   1.275   9.919  0.2283 -0.0154 -0.5621
 3961SOL    HW123519   0.877   1.351   9.927  0.2318  0.2020 -2.4692
 3961SOL    HW223520   0.941   1.248  10.010 -1.6470  0.7788 -0.1660
 3962SOL     OW23521   3.974   2.484   5.776 -0.0413  0.0873  0.7742
 3962SOL    HW123522   3.983   2.404   5.724  0.8521  0.1481  0.8241
 3962SOL    HW223523   4.063   2.488   5.811  0.5630  0.2566 -0.7521
 3963SOL     OW23524   4.151   1.744   4.368  0.0838 -0.0357  0.0632
 3963SOL    HW123525   4.113   1.780   4.288  1.0621  1.6472  0.3577
 3963SOL    HW223526   4.134   1.650   4.368 -0.5266  0.0686 -1.1022
 3964SOL     OW23527   1.163   4.087   1.639  0.7269  0.1592  0.0649
 3964SOL    HW123528   1.203   4.169   1.667 -0.2719  0.1428  1.5727
 3964SOL    HW223529   1.232   4.047   1.587 -0.9302 -1.3054 -1.0255
 3965SOL     OW23530   3.539   2.391   5.687  0.7045  0.4203  0.3366
 3965SOL    HW123531   3.500   2.462   5.636  1.4753  0.9985  0.5450
 3965SOL    HW223532   3.594   2.342   5.626  0.9269 -0.9099  1.6006
 3966SOL     OW23533   1.081   1.517   3.865 -0.5188 -0.1657  0.2464
 3966SOL    HW123534   1.174   1.534   3.851 -0.4970  0.7412  1.5759
 3966SOL    HW223535   1.040   1.601   3.845 -0.0044  0.6047  2.5432
 3967SOL     OW23536   1.268   3.427   7.469  0.1997  0.1163  0.2982
 3967SOL    HW123537   1.273   3.384   7.384 -0.6533 -1.1554  0.9007
 3967SOL    HW223538   1.187   3.392   7.506  0.4724  1.3075  2.0132
 3968SOL     OW23539   3.488   3.331   3.095 -0.1778  0.2591  0.4713
 3968SOL    HW123540   3.420   3.325   3.028  1.0303 -0.8656 -0.6697
 3968SOL    HW223541   3.502   3.425   3.088 -2.3957  0.7234  2.1383
 3969SOL     OW23542   3.120   2.600   4.066 -0.3109  0.1157  0.1393
 3969SOL    HW123543   3.068   2.587   4.145  3.3299  0.1632  2.5270
 3969SOL    HW223544   3.211   2.592   4.093  0.4000  0.1547 -2.1993
 3970SOL     OW23545   3.287   2.350  16.878  0.6243 -0.0608  0.2761
 3970SOL    HW123546   3.223   2.371  16.946  0.2980  1.1500 -0.4136
 3970SOL    HW223547   3.327   2.437  16.873  2.4345 -0.8448  1.1679
 3971SOL     OW23548   0.199   1.527   8.271  0.0834 -0.1514 -0.1219
 3971SOL    HW123549   0.268   1.508   8.334 -1.3407 -2.1044  0.8646
 3971SOL    HW223550   0.160   1.439   8.268 -0.3947 -0.0169  2.4415
 3972SOL     OW23551   0.262   3.275   5.355  0.0764 -0.0738 -0.3785
 3972SOL    HW123552   0.285   3.194   5.401  0.0133 -0.3924 -0.9122
 3972SOL    HW223553   0.284   3.338   5.424 -4.7495  1.9461 -0.7172
 3973SOL     OW23554   1.762   2.181  16.547 -0.6817  0.1660 -0.4099
 3973SOL    HW123555   1.841   2.226  16.577 -0.8916  0.2288  0.0411
 3973SOL    HW223556   1.787   2.091  16.568 -1.2120 -0.0677 -0.7825
 3974SOL     OW23557   2.849   3.000  17.172  0.0098 -0.5269  0.1664
 3974SOL    HW123558   2.917   3.053  17.130  1.0530 -0.7975  1.4694
 3974SOL    HW223559   2.841   2.931  17.106 -0.1078 -0.2691 -0.0885
 3975SOL     OW23560   3.576   4.630   6.664  0.1966 -0.5864 -0.1467
 3975SOL    HW123561   3.487   4.649   6.692 -0.0825 -4.1854  1.4418
 3975SOL    HW223562   3.618   4.644   6.749  0.3676  1.3889 -0.5701
 3976SOL     OW23563   2.432   3.592  11.064 -0.4986 -0.6372 -0.5594
 3976SOL    HW123564   2.523   3.612  11.086 -0.5654 -0.4372 -0.4748
 3976SOL    HW223565   2.423   3.648  10.987  0.5993 -0.0377 -0.2467
 3977SOL     OW23566   0.531   3.504   5.011  0.1835  0.1333 -0.5379
 3977SOL    HW123567   0.535   3.592   5.050 -1.2935 -0.2739  0.5653
 3977SOL    HW223568   0.620   3.472   5.023  0.6360  0.5648 -2.8805
 3978SOL     OW23569   2.379   3.376   6.042  0.4407 -0.2194 -0.7003
 3978SOL    HW123570   2.353   3.393   6.132  1.2376 -2.8251  0.0307
 3978SOL    HW223571   2.302   3.412   5.999 -0.9087  0.6550  2.4339
 3979SOL     OW23572   2.940   0.410   6.901  0.1449 -0.4099 -0.2244
 3979SOL    HW123573   2.993   0.467   6.846  0.4840  1.0035  1.5768
 3979SOL    HW223574   2.898   0.344   6.845  2.3783 -1.4504 -0.6976
 3980SOL     OW23575   2.213   1.620  12.396 -0.2565  0.1162 -0.4648
 3980SOL    HW123576   2.210   1.615  12.492 -0.2814 -2.8246 -0.6007
 3980SOL    HW223577   2.295   1.571  12.383  0.6883  0.8773  2.5025
 3981SOL     OW23578   0.966   2.715  17.096 -0.0679 -0.9267  0.2748
 3981SOL    HW123579   0.961   2.624  17.065 -0.4233 -0.4973 -0.8925
 3981SOL    HW223580   1.060   2.721  17.113 -0.1313 -2.9483  1.4178
 3982SOL     OW23581   2.846   0.101   8.198 -0.1196 -0.4976 -0.2010
 3982SOL    HW123582   2.922   0.064   8.154  0.1199  0.2069 -0.3751
 3982SOL    HW223583   2.823   0.167   8.132 -1.3100  0.3607  1.0644
 3983SOL     OW23584   2.724   4.686   1.093 -0.0473  0.3703 -0.6152
 3983SOL    HW123585   2.798   4.696   1.152  1.9114  0.1827 -3.0305
 3983SOL    HW223586   2.716   0.030   1.049 -2.0335 -0.5503 -2.0824
 3984SOL     OW23587   2.040   4.231   6.828  0.1240 -0.0092 -0.1013
 3984SOL    HW123588   2.037   4.205   6.920 -1.6083 -1.5078 -0.5960
 3984SOL    HW223589   1.981   4.171   6.784 -1.7513  0.7398  1.3948
 3985SOL     OW23590   1.889   4.593   8.450 -0.2635  0.2764  0.4283
 3985SOL    HW123591   1.975   4.629   8.429 -0.3741  1.5413  2.1434
 3985SOL    HW223592   1.885   4.513   8.398 -0.3239  1.1865 -0.9450
 3986SOL     OW23593   4.469   0.969   2.356  0.0044 -0.5009  0.1210
 3986SOL    HW123594   4.564   0.976   2.351 -0.1518 -0.5923 -3.0050
 3986SOL    HW223595   4.456   0.998   2.446  0.1770  0.0090 -0.0231
 3987SOL     OW23596   2.483   2.258   5.629 -0.1028  0.2773 -0.5051
 3987SOL    HW123597   2.391   2.263   5.601 -0.3217 -1.5439 -0.1045
 3987SOL    HW223598   2.486   2.173   5.673  0.0183  0.3376 -0.3968
 3988SOL     OW23599   2.973   1.433   4.800 -0.3777  0.2160  0.1962
 3988SOL    HW123600   2.888   1.389   4.810  0.1197 -0.8344 -0.1461
 3988SOL    HW223601   3.009   1.430   4.889  2.7725  2.2324 -1.0437
 3989SOL     OW23602   0.419   4.660   2.353  0.2567  0.0311 -0.6035
 3989SOL    HW123603   0.355   4.686   2.286  0.2855 -0.1375 -0.6960
 3989SOL    HW223604   0.362   4.610   2.411 -0.4381  2.8431  1.1649
 3990SOL     OW23605   2.988   3.857   4.390 -0.0323 -0.5053  0.0064
 3990SOL    HW123606   3.018   3.890   4.305 -2.2108  0.8389 -0.2524
 3990SOL    HW223607   3.044   3.780   4.390 -1.0140 -1.2414 -3.7562
 3991SOL     OW23608   1.055   2.853   2.927  0.3130 -0.2748 -0.1965
 3991SOL    HW123609   0.961   2.850   2.947 -0.0080  0.8105 -1.5454
 3991SOL    HW223610   1.059   2.810   2.841 -1.0052  0.5930 -0.6844
 3992SOL     OW23611   3.409   2.963   4.933  0.0586  0.3087 -0.4394
 3992SOL    HW123612   3.495   2.990   4.901 -0.1578 -0.1810 -1.4389
 3992SOL    HW223613   3.361   2.986   4.853  0.8730  1.5949 -0.5586
 3993SOL     OW23614   0.684   0.100   7.699  0.5527 -0.4254  0.2661
 3993SOL    HW123615   0.771   0.107   7.737  0.6653  0.0591 -0.0889
 3993SOL    HW223616   0.627   0.118   7.774  0.3516  0.9961 -0.2216
 3994SOL     OW23617   1.388   3.174   0.637  1.1072  0.2306  0.5541
 3994SOL    HW123618   1.342   3.232   0.698 -1.0815 -0.3960 -0.5045
 3994SOL    HW223619   1.481   3.174   0.661  0.8670  1.0322  1.5064
 3995SOL     OW23620   1.273   3.707   1.969  0.1837  0.0479  0.2070
 3995SOL    HW123621   1.192   3.677   1.929  0.5083  1.9965 -1.9390
 3995SOL    HW223622   1.296   3.625   2.012  0.6365  0.2135  0.2789
 3996SOL     OW23623   1.141   0.395   5.045 -0.0924 -0.4679 -0.1615
 3996SOL    HW123624   1.158   0.438   5.129  1.7328  0.5880 -1.0640
 3996SOL    HW223625   1.217   0.337   5.045  0.3846  0.1681  1.0351
 3997SOL     OW23626   0.674   2.128   5.776  0.4381  0.1932  0.0335
 3997SOL    HW123627   0.700   2.057   5.836  0.8048  0.3673  0.0823
 3997SOL    HW223628   0.599   2.092   5.728  0.0690 -1.1126  1.5913
 3998SOL     OW23629   1.339   2.087   6.002  0.3266  0.3000 -0.1087
 3998SOL    HW123630   1.310   2.032   6.075  1.1545 -2.3088 -1.7494
 3998SOL    HW223631   1.310   2.043   5.922  0.7590  0.4059 -0.3219
 3999SOL     OW23632   1.003   2.943   7.336 -0.1203 -0.2023 -0.1230
 3999SOL    HW123633   1.010   2.887   7.259 -1.6704  1.3704 -1.4049
 3999SOL    HW223634   1.097   2.948   7.356  0.6982 -1.7249 -3.5858
 4000SOL     OW23635   3.499   1.988   0.841 -0.0226  0.0157 -0.1063
 4000SOL    HW123636   3.406   1.985   0.817 -0.2440  1.4533  0.5537
 4000SOL    HW223637   3.525   1.898   0.823  0.8453  0.2824 -0.1649
 4001SOL     OW23638   3.995   1.311  15.449  0.0027  0.4814 -0.1337
 4001SOL    HW123639   3.935   1.383  15.427  0.5616  0.9994  0.0366
 4001SOL    HW223640   4.072   1.367  15.462 -0.7596  1.2658  1.0325
 4002SOL     OW23641   1.955   2.753   0.907 -0.0449 -0.0085  0.1423
 4002SOL    HW123642   1.905   2.674   0.888  1.1670 -0.4789 -1.0699
 4002SOL    HW223643   2.048   2.735   0.894 -0.5568 -0.9635 -2.2925
 4003SOL     OW23644   4.231   1.461   3.185  0.1998  0.0785  0.3610
 4003SOL    HW123645   4.303   1.525   3.192 -0.5116  0.6840  1.8917
 4003SOL    HW223646   4.161   1.493   3.241 -0.4562  0.8160 -0.8873
 4004SOL     OW23647   1.551   3.699   2.279 -0.4592 -0.5599 -0.5029
 4004SOL    HW123648   1.604   3.682   2.201  2.3024 -0.3125  1.3283
 4004SOL    HW223649   1.497   3.771   2.246  2.2917  1.6590 -0.1553
 4005SOL     OW23650   3.349   1.264   5.966  0.3087 -0.2879 -0.0006
 4005SOL    HW123651   3.375   1.174   5.984  0.4064 -0.2896 -0.1454
 4005SOL    HW223652   3.258   1.252   5.991  0.0623  2.1924  0.3265
 4006SOL     OW23653   2.707   2.802   7.852 -0.3714 -0.2354  0.1157
 4006SOL    HW123654   2.735   2.757   7.772  0.1662  0.2285  0.0407
 4006SOL    HW223655   2.769   2.769   7.918  2.1573  1.3575 -1.4483
 4007SOL     OW23656   4.166   4.063   1.684 -0.3625  0.1763 -0.4358
 4007SOL    HW123657   4.207   4.015   1.756  1.6312 -0.6076 -2.1039
 4007SOL    HW223658   4.075   4.062   1.713  0.2609  0.2972  1.5808
 4008SOL     OW23659   2.420   3.484  16.014  0.0356 -0.4224 -0.0455
 4008SOL    HW123660   2.439   3.570  15.975 -0.9801 -0.7326 -1.2417
 4008SOL    HW223661   2.351   3.506  16.076 -1.9486  1.8679 -3.0202
 4009SOL     OW23662   0.407   2.150  12.524 -0.0515 -0.1482  0.2848
 4009SOL    HW123663   0.341   2.219  12.519  2.1479  1.8053 -1.5738
 4009SOL    HW223664   0.473   2.185  12.584 -0.7440  0.1447  0.8762
 4010SOL     OW23665   2.198   4.433   4.451 -0.4900 -0.7396 -0.2812
 4010SOL    HW123666   2.112   4.391   4.458 -0.0838 -1.6525 -0.6815
 4010SOL    HW223667   2.244   4.389   4.522 -1.3986 -0.6426  0.3525
 4011SOL     OW23668   4.058   3.812   5.327  0.4638 -0.1866 -0.7164
 4011SOL    HW123669   4.115   3.753   5.376  2.8904  2.3100 -0.5289
 4011SOL    HW223670   3.974   3.781   5.360  1.3400 -2.4654 -0.6018
 4012SOL     OW23671   2.068   2.136   7.144  0.1605 -0.2099 -0.7108
 4012SOL    HW123672   2.144   2.164   7.094  0.4866  1.0310  0.4924
 4012SOL    HW223673   2.111   2.094   7.219 -1.1502  1.3707  0.9235
 4013SOL     OW23674   4.514   0.053  10.425  0.3274 -0.2101  0.3971
 4013SOL    HW123675   4.590   0.103  10.453 -0.2659  1.3119 -0.7096
 4013SOL    HW223676   4.550   4.706  10.437  2.5197  0.0766 -4.4805
 4014SOL     OW23677   3.172   1.375   8.122 -0.2752  0.8254  0.6319
 4014SOL    HW123678   3.162   1.314   8.049 -1.5884  0.6654  0.9539
 4014SOL    HW223679   3.180   1.312   8.194 -1.5332 -0.9223 -0.7707
 4015SOL     OW23680   2.756   1.799  13.403 -0.1787 -0.0323 -0.2524
 4015SOL    HW123681   2.743   1.710  13.436  0.2846 -0.6255 -1.6837
 4015SOL    HW223682   2.664   1.826  13.408 -0.9024 -2.5623  0.1888
 4016SOL     OW23683   3.725   1.062   7.792 -0.8302  0.3368  0.3704
 4016SOL    HW123684   3.653   1.000   7.779 -0.6730  0.5659 -1.6918
 4016SOL    HW223685   3.680   1.143   7.816 -2.0823  0.0283 -0.9211
 4017SOL     OW23686   2.302   0.263  13.303 -0.6888  0.3865  0.1693
 4017SOL    HW123687   2.358   0.237  13.377 -1.0985  1.9726  1.0336
 4017SOL    HW223688   2.345   0.208  13.238 -1.3712  0.2880 -0.2043
 4018SOL     OW23689   1.970   0.199  11.885 -0.2489  0.4758  0.3137
 4018SOL    HW123690   1.918   0.276  11.860 -0.9360 -0.3838 -0.9005
 4018SOL    HW223691   1.950   0.184  11.977 -1.6345  5.1017  0.7691
 4019SOL     OW23692   0.457   0.962  14.680 -0.6085  0.4862 -0.3724
 4019SOL    HW123693   0.490   1.051  14.668 -1.6929  0.8480 -0.7319
 4019SOL    HW223694   0.533   0.925  14.637 -0.0183  0.8741  0.3388
 4020SOL     OW23695   0.218   3.305   3.452 -0.3882 -0.4703 -0.1083
 4020SOL    HW123696   0.179   3.241   3.394  0.1213 -0.8191 -0.0629
 4020SOL    HW223697   0.239   3.264   3.536  0.6097 -1.4424 -0.8409
 4021SOL     OW23698   4.635   2.638  15.224  0.2479  0.4003 -0.2490
 4021SOL    HW123699   4.697   2.698  15.266  0.0210 -0.4148  1.2469
 4021SOL    HW223700   4.562   2.698  15.214 -0.5079 -0.2138  1.6333
 4022SOL     OW23701   2.650   1.108   5.904 -0.0931  0.4658 -0.1562
 4022SOL    HW123702   2.667   1.015   5.890 -1.0731  0.0318  1.6092
 4022SOL    HW223703   2.711   1.130   5.974 -0.1386  3.3780 -1.0054
 4023SOL     OW23704   2.304   2.489   1.639  0.3562  0.0819  0.2993
 4023SOL    HW123705   2.331   2.491   1.731 -1.9187 -2.3466  1.0059
 4023SOL    HW223706   2.316   2.579   1.607 -0.4932  0.8761  2.2240
 4024SOL     OW23707   3.809   1.374   2.769 -0.1367  0.2906 -0.2102
 4024SOL    HW123708   3.811   1.334   2.856 -0.9173  1.3693  0.3100
 4024SOL    HW223709   3.714   1.364   2.761 -0.1566 -0.3867  0.8455
 4025SOL     OW23710   3.226   0.446   0.489  0.2860 -0.3827  0.7369
 4025SOL    HW123711   3.208   0.536   0.463  1.8604 -0.4308 -0.5004
 4025SOL    HW223712   3.188   0.396   0.417 -0.1544 -0.8439  1.2782
 4026SOL     OW23713   0.247   2.867   9.193 -0.3425  0.0681  0.0308
 4026SOL    HW123714   0.156   2.841   9.179  0.2471 -1.9219 -0.1621
 4026SOL    HW223715   0.231   2.960   9.183  0.5534  0.2115 -0.0828
 4027SOL     OW23716   3.573   3.980   9.937  0.4088  0.0572  0.3862
 4027SOL    HW123717   3.655   4.005   9.894 -0.3897  1.6352 -0.1991
 4027SOL    HW223718   3.507   4.042   9.909  0.5638  0.0149 -0.0688
 4028SOL     OW23719   0.193   0.212   3.369  0.4891 -0.6488 -0.3276
 4028SOL    HW123720   0.272   0.165   3.341  1.4311 -0.4088  1.9819
 4028SOL    HW223721   0.204   0.294   3.321  2.8009  0.1146  1.4820
 4029SOL     OW23722   4.048   0.526   4.651  0.3434 -0.4956 -0.0884
 4029SOL    HW123723   4.077   0.616   4.633 -0.4767 -0.1741  0.2178
 4029SOL    HW223724   3.999   0.539   4.732 -0.4503  0.7213 -0.7704
 4030SOL     OW23725   4.198   1.177  14.249 -0.8497 -0.3457 -0.2312
 4030SOL    HW123726   4.151   1.146  14.326 -0.2013  0.6812  0.5903
 4030SOL    HW223727   4.220   1.266  14.278 -0.9975 -0.4916  0.3312
 4031SOL     OW23728   2.569   1.679   7.238  0.3578 -0.1554 -0.0156
 4031SOL    HW123729   2.530   1.592   7.232  1.6089 -0.8678  2.3332
 4031SOL    HW223730   2.616   1.686   7.156  0.5568 -3.5488 -0.1785
 4032SOL     OW23731   2.699   4.116  16.802  0.0560 -0.0830  0.3524
 4032SOL    HW123732   2.770   4.052  16.811  0.0599 -0.1849 -0.4476
 4032SOL    HW223733   2.666   4.105  16.713 -0.1545 -3.0466  0.7975
 4033SOL     OW23734   2.349   4.610   6.696  0.5619 -0.1258 -0.1879
 4033SOL    HW123735   2.395   4.534   6.661 -1.3349 -1.9456  1.3323
 4033SOL    HW223736   2.267   4.565   6.715  0.3518 -0.0864 -0.9866
 4034SOL     OW23737   2.108   3.979  15.169 -0.2356  0.3123  0.0609
 4034SOL    HW123738   2.023   4.005  15.204  0.0331  0.6789  0.4511
 4034SOL    HW223739   2.095   3.949  15.079  1.0645  0.9996 -0.3618
 4035SOL     OW23740   3.893   1.227   4.127  0.4973  0.1262  0.2973
 4035SOL    HW123741   3.931   1.306   4.088 -2.2254  0.3969 -1.7947
 4035SOL    HW223742   3.819   1.210   4.069  0.3835 -0.5322  0.6354
 4036SOL     OW23743   3.630   4.607   9.429  0.3484  1.0178  0.0682
 4036SOL    HW123744   3.677   4.540   9.380 -0.5029  2.0558 -2.2106
 4036SOL    HW223745   3.551   4.554   9.441  1.6051 -0.2459  2.7684
 4037SOL     OW23746   3.039   4.006   6.449 -0.4164 -0.0815  0.5853
 4037SOL    HW123747   3.061   4.082   6.395  0.6721 -1.1458 -0.4484
 4037SOL    HW223748   3.077   4.025   6.535 -2.6061 -2.6581  2.1213
 4038SOL     OW23749   3.157   2.674   7.344  0.6540 -0.3911 -0.0664
 4038SOL    HW123750   3.216   2.605   7.315 -0.6657 -2.1759  1.5175
 4038SOL    HW223751   3.107   2.689   7.263  1.2923 -0.9760 -0.5696
 4039SOL     OW23752   4.114   2.483   9.792 -0.3831  0.0771 -0.0414
 4039SOL    HW123753   4.060   2.511   9.718  2.3860  2.7330 -1.0638
 4039SOL    HW223754   4.199   2.528   9.786 -0.1782 -0.4041 -0.7222
 4040SOL     OW23755   3.165   0.951   2.990 -0.2918 -0.1130 -0.0153
 4040SOL    HW123756   3.175   0.899   3.070  2.5701 -0.5080 -0.6571
 4040SOL    HW223757   3.250   0.983   2.961 -0.5207  0.5919  0.0952
 4041SOL     OW23758   3.680   1.689   2.592 -0.1037  0.3474  0.0583
 4041SOL    HW123759   3.585   1.674   2.594 -0.2299  1.0572 -0.9485
 4041SOL    HW223760   3.717   1.604   2.567  2.6021  1.7402 -0.6434
 4042SOL     OW23761   1.994   4.322   2.685  0.2711 -0.4220 -0.4727
 4042SOL    HW123762   1.957   4.237   2.663 -2.7671  0.7127  0.2247
 4042SOL    HW223763   2.058   4.291   2.748  1.2170  1.2793 -0.5788
 4043SOL     OW23764   4.372   1.278  11.704  0.1888 -0.4163 -0.3151
 4043SOL    HW123765   4.385   1.362  11.660 -0.6291 -0.2866 -0.3161
 4043SOL    HW223766   4.450   1.280  11.760  1.2464 -0.5681 -1.7921
 4044SOL     OW23767   4.441   0.679   7.703 -0.0457 -0.4165  0.0154
 4044SOL    HW123768   4.471   0.595   7.737  1.4793  0.5634  1.0524
 4044SOL    HW223769   4.465   0.653   7.614  0.1866  0.1712 -0.0927
 4045SOL     OW23770   1.746   3.931   7.005  0.3666  0.3594  0.1213
 4045SOL    HW123771   1.763   3.900   7.094  0.5047  1.4392  0.4721
 4045SOL    HW223772   1.806   3.869   6.963 -0.8500 -0.0480 -1.0188
 4046SOL     OW23773   2.781   2.553   3.292  0.3639 -0.2983  0.2764
 4046SOL    HW123774   2.842   2.626   3.283  2.1048 -1.8832 -0.9539
 4046SOL    HW223775   2.833   2.484   3.334  0.5201 -1.5448 -1.9434
 4047SOL     OW23776   0.193   1.123   2.099 -0.1015 -0.1691  0.4028
 4047SOL    HW123777   0.210   1.168   2.016  0.0047  0.3847  0.7229
 4047SOL    HW223778   0.223   1.035   2.077  0.6911  0.6650 -1.8971
 4048SOL     OW23779   3.627   4.343   5.856 -0.2438 -0.0213  0.3378
 4048SOL    HW123780   3.709   4.298   5.879 -0.4044 -0.3505  0.2510
 4048SOL    HW223781   3.618   4.300   5.771 -0.7972  0.7708  0.0024
 4049SOL     OW23782   4.131   2.406  11.523  0.3091  0.2078 -0.1798
 4049SOL    HW123783   4.146   2.321  11.563 -0.6098  0.0934 -0.0839
 4049SOL    HW223784   4.065   2.451  11.576 -0.9662  0.4491 -1.9801
 4050SOL     OW23785   1.575   0.338   6.545 -0.7416  0.1123 -0.2145
 4050SOL    HW123786   1.608   0.309   6.460  1.1653  0.1586  0.4961
 4050SOL    HW223787   1.512   0.274   6.577 -0.2606  0.9240  2.3915
 4051SOL     OW23788   2.913   3.848   4.937 -0.3647  0.0148  0.7106
 4051SOL    HW123789   2.870   3.828   4.853 -0.1897  1.9058  0.1657
 4051SOL    HW223790   2.910   3.943   4.926 -1.1725  0.0651  1.3688
 4052SOL     OW23791   0.815   3.234  16.880 -0.4163  0.7840  0.3818
 4052SOL    HW123792   0.870   3.302  16.920  1.9767 -1.1948  0.4120
 4052SOL    HW223793   0.844   3.244  16.789 -0.1515 -1.3531  0.2437
 4053SOL     OW23794   3.705   2.755   6.805  0.4253  0.7723  0.0793
 4053SOL    HW123795   3.771   2.760   6.874 -1.2949 -3.0906  1.9614
 4053SOL    HW223796   3.630   2.725   6.856  0.0242  1.4224 -0.1274
 4054SOL     OW23797   1.916   3.073  10.646 -0.0015 -0.3117 -0.1943
 4054SOL    HW123798   1.901   2.990  10.601 -1.2637 -0.1983  0.0053
 4054SOL    HW223799   1.888   3.139  10.583  0.3049  0.7768  0.8052
 4055SOL     OW23800   1.333   2.699  17.398 -0.1923  0.1912 -0.1912
 4055SOL    HW123801   1.301   2.773  17.450  0.0341 -0.1997  0.4943
 4055SOL    HW223802   1.410   2.686  17.453 -0.3327  0.5314  0.0891
 4056SOL     OW23803   2.808   0.543   5.760  0.0535 -0.4299  0.4835
 4056SOL    HW123804   2.901   0.522   5.757  0.0163 -0.5514  0.1620
 4056SOL    HW223805   2.791   0.555   5.853  0.2180  2.0250  0.2036
 4057SOL     OW23806   2.071   4.463   5.732 -0.5376 -0.3067  0.7155
 4057SOL    HW123807   2.014   4.398   5.772  1.7253 -2.8034 -0.1284
 4057SOL    HW223808   2.005   4.493   5.670 -1.3362  0.2502  1.8293
 4058SOL     OW23809   0.088   3.024  11.271  0.2602  0.0307  0.3351
 4058SOL    HW123810   0.129   3.106  11.245 -1.0266  0.8143  0.7497
 4058SOL    HW223811   0.028   3.009  11.197  0.8658 -0.2212 -0.1034
 4059SOL     OW23812   3.301   3.856   4.364  0.3492  0.1316 -0.4849
 4059SOL    HW123813   3.237   3.912   4.321  0.0116  0.9793  1.1159
 4059SOL    HW223814   3.349   3.918   4.419  0.2376 -0.3945  0.2096
 4060SOL     OW23815   2.182   4.231   2.856 -0.5567  0.1239  0.0812
 4060SOL    HW123816   2.154   4.256   2.945  0.6984  1.5127  0.0894
 4060SOL    HW223817   2.269   4.196   2.878 -0.5266  0.0484 -0.1617
 4061SOL     OW23818   1.874   1.810   2.866  0.1119 -1.0636  0.3027
 4061SOL    HW123819   1.963   1.779   2.880  0.5600 -0.7522 -1.8781
 4061SOL    HW223820   1.863   1.871   2.939 -1.8679 -1.3164  0.2318
 4062SOL     OW23821   2.287   0.098   8.272 -0.3352 -0.0615  0.8435
 4062SOL    HW123822   2.349   0.171   8.278  0.7505 -1.0491  1.5512
 4062SOL    HW223823   2.265   0.108   8.179  0.2173  0.3467  0.7537
 4063SOL     OW23824   1.690   0.626   8.804 -0.2703 -0.0073  0.1186
 4063SOL    HW123825   1.697   0.702   8.861  0.0814  0.2252 -0.2335
 4063SOL    HW223826   1.687   0.558   8.871  1.3464 -0.1873 -0.0054
 4064SOL     OW23827   3.539   0.202   2.070  0.7545 -0.5511 -0.0345
 4064SOL    HW123828   3.590   0.123   2.092  4.2660  1.2029 -1.8298
 4064SOL    HW223829   3.506   0.181   1.983 -1.9970 -0.4230  1.0071
 4065SOL     OW23830   2.588   4.676   8.113  0.0981  0.0272  0.2096
 4065SOL    HW123831   2.584   0.012   8.169  2.8060 -1.2427  2.1616
 4065SOL    HW223832   2.616   4.720   8.033 -1.1971  1.0690  0.3357
 4066SOL     OW23833   3.695   1.994   7.913  0.2417  0.1203  0.2060
 4066SOL    HW123834   3.700   1.932   7.986  1.2244 -2.7146 -2.2569
 4066SOL    HW223835   3.773   1.973   7.861 -0.9762 -0.8761 -1.1883
 4067SOL     OW23836   3.321   0.883   5.347 -0.1751 -0.4356  0.3697
 4067SOL    HW123837   3.378   0.924   5.412 -1.5993  1.0796  0.6263
 4067SOL    HW223838   3.284   0.812   5.400 -0.3236 -1.1999 -0.7649
 4068SOL     OW23839   3.068   3.311   2.688  0.2029 -0.5600  0.9128
 4068SOL    HW123840   3.137   3.377   2.679  0.4701 -0.5707  2.8210
 4068SOL    HW223841   3.049   3.311   2.782  0.7143  0.9011  1.0243
 4069SOL     OW23842   3.416   2.694   4.813 -0.4681 -0.0710 -0.8486
 4069SOL    HW123843   3.408   2.721   4.721 -1.1829  0.9063 -0.4858
 4069SOL    HW223844   3.395   2.780   4.848  0.0895 -0.0084 -0.6586
 4070SOL     OW23845   0.233   1.361   4.145  0.4011  0.6320 -0.0781
 4070SOL    HW123846   0.161   1.423   4.142 -0.3377 -0.2770 -1.2456
 4070SOL    HW223847   0.233   1.311   4.063 -2.5151 -0.0522  0.3197
 4071SOL     OW23848   4.478   0.188   2.414  0.4147  0.3878  0.1892
 4071SOL    HW123849   4.419   0.126   2.371 -0.0686  1.2054 -0.3416
 4071SOL    HW223850   4.556   0.132   2.415  1.7804  2.2850  0.0222
 4072SOL     OW23851   3.989   4.279   2.056  0.1443 -0.1710  0.3401
 4072SOL    HW123852   4.060   4.327   2.013 -1.0413 -0.4667 -1.9891
 4072SOL    HW223853   4.043   4.212   2.097  0.5532  0.1870  0.3806
 4073SOL     OW23854   0.898   0.617  17.229  0.1658 -0.1127  0.3020
 4073SOL    HW123855   0.810   0.581  17.242  0.0449 -0.7571 -2.1533
 4073SOL    HW223856   0.935   0.598  17.315  2.2616 -3.0429 -1.2303
 4074SOL     OW23857   2.246   3.766   8.354 -0.6207  0.1085 -0.4923
 4074SOL    HW123858   2.289   3.843   8.392  2.3821 -1.8092  0.0018
 4074SOL    HW223859   2.276   3.762   8.263  3.4037 -0.1920  0.8386
 4075SOL     OW23860   0.171   1.516  12.601 -0.2574 -0.3255 -0.0141
 4075SOL    HW123861   0.222   1.436  12.587 -1.0827 -1.0291  0.9574
 4075SOL    HW223862   0.209   1.565  12.673 -1.0542  0.3643 -0.0656
 4076SOL     OW23863   1.830   4.612   4.073 -0.0156  0.4146  1.0183
 4076SOL    HW123864   1.793   4.526   4.090  0.1522  0.1711  0.1453
 4076SOL    HW223865   1.924   4.596   4.085  0.2141  0.1054 -1.0966
 4077SOL     OW23866   3.052   1.152  13.817 -0.5037 -0.6491 -0.2631
 4077SOL    HW123867   2.971   1.200  13.797 -0.0555 -0.2086 -1.0373
 4077SOL    HW223868   3.017   1.063  13.827 -1.1108 -0.6823 -2.6219
 4078SOL     OW23869   3.048   3.697   2.474  0.1701 -0.2196  0.1808
 4078SOL    HW123870   3.133   3.735   2.496 -1.2156  1.1452  3.2782
 4078SOL    HW223871   3.006   3.689   2.560 -0.5165  2.1895  0.0694
 4079SOL     OW23872   0.517   1.889  12.513  0.1079  0.4877  0.7419
 4079SOL    HW123873   0.477   1.975  12.524  0.3236  0.8237 -1.1215
 4079SOL    HW223874   0.602   1.910  12.551 -0.3638 -0.3979  2.2996
 4080SOL     OW23875   2.759   4.540   6.816 -0.0501  0.6481 -0.0135
 4080SOL    HW123876   2.764   4.447   6.835 -3.6147  0.5877  0.7708
 4080SOL    HW223877   2.771   4.572   6.906 -0.1693 -1.4929  0.7791
 4081SOL     OW23878   0.846   2.449   7.791 -0.3762  0.2688  0.4870
 4081SOL    HW123879   0.798   2.480   7.715 -0.4650 -3.4358 -0.9928
 4081SOL    HW223880   0.872   2.365   7.753  2.3641 -0.1196  3.2470
 4082SOL     OW23881   3.896   2.138  16.332  0.2361 -0.1871 -0.6821
 4082SOL    HW123882   3.915   2.190  16.409 -1.5835 -1.4369  0.5945
 4082SOL    HW223883   3.972   2.170  16.282  0.1362 -0.5395 -1.0567
 4083SOL     OW23884   2.185   0.462  11.054  0.0079  0.5306 -0.4429
 4083SOL    HW123885   2.243   0.389  11.076  0.4923  1.3601  1.0099
 4083SOL    HW223886   2.154   0.447  10.965  1.4237 -0.5311 -0.7497
 4084SOL     OW23887   4.599   3.675   8.615 -0.1934 -0.2349  0.2475
 4084SOL    HW123888   4.527   3.670   8.552  2.0417 -3.7658 -2.0045
 4084SOL    HW223889   4.553   3.713   8.690  1.7948  2.4244  0.1290
 4085SOL     OW23890   0.591   1.334   9.570  0.1975  0.3410  0.4344
 4085SOL    HW123891   0.679   1.351   9.604  0.5909  1.1156 -0.9787
 4085SOL    HW223892   0.611   1.273   9.500 -1.0174  2.0138 -1.3829
 4086SOL     OW23893   3.860   4.523   4.554  0.2446 -0.1467 -0.3767
 4086SOL    HW123894   3.872   4.616   4.534 -1.0054 -0.3975 -2.3533
 4086SOL    HW223895   3.953   4.502   4.565  0.9090  2.8312 -0.2982
 4087SOL     OW23896   2.090   1.709   4.154 -0.6821  0.0682  0.5166
 4087SOL    HW123897   2.147   1.773   4.197  1.2426 -1.5688  0.3814
 4087SOL    HW223898   2.030   1.778   4.124  1.1135  1.0209 -0.8664
 4088SOL     OW23899   3.432   1.646   1.797  0.4408 -0.3125 -0.8779
 4088SOL    HW123900   3.369   1.697   1.746 -0.2319 -0.5282 -0.2602
 4088SOL    HW223901   3.382   1.639   1.878  2.1009 -2.0255 -0.0024
 4089SOL     OW23902   2.908   0.955  11.108  0.0446 -0.4189 -1.0583
 4089SOL    HW123903   2.900   0.944  11.203 -0.6128  3.4231 -0.6689
 4089SOL    HW223904   2.991   0.907  11.102 -0.0268 -0.4045 -2.0841
 4090SOL     OW23905   1.856   1.356   7.646  0.2266  0.0514 -0.6148
 4090SOL    HW123906   1.917   1.283   7.658 -0.2858 -0.6347 -2.2631
 4090SOL    HW223907   1.783   1.318   7.695  0.7948 -0.4671 -0.1813
 4091SOL     OW23908   3.350   0.395   6.109  0.3816  0.3767  0.8880
 4091SOL    HW123909   3.358   0.329   6.178  1.8414  0.7333  1.0635
 4091SOL    HW223910   3.255   0.407   6.111  0.6690  2.6740  1.8472
 4092SOL     OW23911   1.833   2.103   2.178 -0.3216  0.5810  0.2600
 4092SOL    HW123912   1.925   2.111   2.155 -0.1554  1.7342  1.3385
 4092SOL    HW223913   1.813   2.143   2.263  1.3635  0.2974  0.7804
 4093SOL     OW23914   3.302   0.005   4.064  0.6372  0.1746  0.3321
 4093SOL    HW123915   3.365   0.076   4.054  0.4526  0.0021 -1.9608
 4093SOL    HW223916   3.255   0.037   4.141  0.5381 -0.4169  0.5171
 4094SOL     OW23917   2.372   2.842   8.105 -0.2781  0.5738 -0.0124
 4094SOL    HW123918   2.363   2.782   8.178 -1.1808 -0.0138 -0.6116
 4094SOL    HW223919   2.312   2.910   8.135 -0.9692  0.0816 -0.2809
 4095SOL     OW23920   0.780   1.531  11.475  0.2227  0.1269 -0.5937
 4095SOL    HW123921   0.691   1.565  11.476  0.1956  0.0698 -0.9879
 4095SOL    HW223922   0.799   1.515  11.568 -1.5159  0.6628 -0.1555
 4096SOL     OW23923   3.912   4.634   5.346  0.1442 -0.0391  0.0094
 4096SOL    HW123924   3.862   4.556   5.372 -0.1838 -0.3839 -1.6595
 4096SOL    HW223925   3.847   4.702   5.335  1.0932  0.6218 -1.5360
 4097SOL     OW23926   3.980   2.145   9.577 -0.2529 -0.0876  0.3390
 4097SOL    HW123927   3.916   2.101   9.522 -0.8839 -0.3268  1.2718
 4097SOL    HW223928   3.994   2.073   9.639 -1.6714 -1.2300 -0.6757
 4098SOL     OW23929   2.256   3.192   2.213 -0.5367  0.3193  0.0836
 4098SOL    HW123930   2.338   3.235   2.237  1.5506 -1.6806 -3.4350
 4098SOL    HW223931   2.231   3.240   2.134  0.9078  2.0827  0.7026
 4099SOL     OW23932   1.717   3.723   7.744  0.3137  0.3390 -0.0830
 4099SOL    HW123933   1.728   3.782   7.819  0.1207  0.3364 -0.0533
 4099SOL    HW223934   1.742   3.636   7.777 -1.3982 -0.0117  0.2932
 4100SOL     OW23935   0.104   4.357   8.333 -0.0021 -0.1271  0.0680
 4100SOL    HW123936   0.179   4.357   8.275  0.6222 -1.4164  0.8727
 4100SOL    HW223937   0.030   4.318   8.286 -0.6726 -0.7528  1.6130
 4101SOL     OW23938   4.339   0.319  16.690 -0.1455 -0.3304 -0.1165
 4101SOL    HW123939   4.391   0.241  16.673  1.8711  1.2258 -1.1498
 4101SOL    HW223940   4.410   0.381  16.709 -0.7365 -0.1251  1.4269
 4102SOL     OW23941   1.462   2.501  16.677  0.3092 -0.6847 -0.3730
 4102SOL    HW123942   1.501   2.555  16.608  0.5222 -0.0820  0.2181
 4102SOL    HW223943   1.393   2.561  16.707 -0.0109 -0.3738 -1.7302
 4103SOL     OW23944   2.058   2.908   5.744  0.3803 -0.1767 -0.2033
 4103SOL    HW123945   2.137   2.863   5.773 -0.5837 -2.1538 -0.6396
 4103SOL    HW223946   2.062   2.882   5.652 -1.1984 -0.4309 -0.1979
 4104SOL     OW23947   1.873   1.162   8.834  0.1314  0.1474 -0.1858
 4104SOL    HW123948   1.910   1.091   8.781  0.6221 -1.9087  2.9213
 4104SOL    HW223949   1.951   1.209   8.863 -2.0458  2.4857  1.8489
 4105SOL     OW23950   4.683   4.664  10.755  0.2555  0.3027 -0.2823
 4105SOL    HW123951   4.678   4.601  10.683 -1.7516  1.5990 -1.2634
 4105SOL    HW223952   0.034   4.647  10.777  0.6066  3.2855  0.4548
 4106SOL     OW23953   3.848   0.234   7.987 -0.1250 -0.2902  0.1951
 4106SOL    HW123954   3.933   0.249   7.946 -1.0430 -1.7190 -2.1755
 4106SOL    HW223955   3.870   0.205   8.076 -1.5237 -0.7697  0.3872
 4107SOL     OW23956   1.653   2.376  15.049 -0.3746 -0.2280 -0.1221
 4107SOL    HW123957   1.566   2.358  15.083 -1.1452  1.8890 -0.9786
 4107SOL    HW223958   1.681   2.448  15.105  0.9546 -1.3412  0.6426
 4108SOL     OW23959   0.295   0.494  14.950 -0.0085 -0.2848  0.5901
 4108SOL    HW123960   0.379   0.449  14.962 -0.4178 -1.7762 -2.0045
 4108SOL    HW223961   0.308   0.533  14.863  1.1087  1.5191  1.5732
 4109SOL     OW23962   1.203   4.060   4.780  0.3249 -0.2535 -0.9129
 4109SOL    HW123963   1.252   4.078   4.701  0.9872  1.6335 -0.0764
 4109SOL    HW223964   1.263   4.010   4.835 -1.7984 -1.9499 -0.1297
 4110SOL     OW23965   2.409   0.653   8.975 -0.5830 -0.6576 -0.4065
 4110SOL    HW123966   2.401   0.696   9.060 -1.4434  1.4828 -1.5647
 4110SOL    HW223967   2.488   0.698   8.945 -1.8871  1.2557 -0.9867
 4111SOL     OW23968   1.937   3.457   5.531  0.3315 -0.3308 -0.5791
 4111SOL    HW123969   2.001   3.475   5.462 -2.3466  0.7909 -2.7637
 4111SOL    HW223970   1.931   3.365   5.554  1.2470 -0.2295  0.0928
 4112SOL     OW23971   4.654   3.549  12.742  0.9366 -0.1610  0.1882
 4112SOL    HW123972   4.721   3.610  12.710  0.1729 -0.4152 -1.9222
 4112SOL    HW223973   4.678   3.536  12.833 -0.1534  0.9182  0.6338
 4113SOL     OW23974   3.198   2.534  10.795 -1.0318  0.1294 -0.1938
 4113SOL    HW123975   3.115   2.493  10.771 -1.3706  0.8539 -0.2608
 4113SOL    HW223976   3.192   2.614  10.847  0.2181 -1.5095  2.4380
 4114SOL     OW23977   2.964   3.635   8.224 -0.0219 -0.5462 -0.3673
 4114SOL    HW123978   3.058   3.620   8.240  0.2818  1.4934 -0.2269
 4114SOL    HW223979   2.951   3.589   8.141 -1.4302 -1.5259  0.4054
 4115SOL     OW23980   3.502   3.687   4.232  0.1199 -0.5648 -0.1311
 4115SOL    HW123981   3.422   3.724   4.271  0.1682 -1.2262  0.5886
 4115SOL    HW223982   3.471   3.602   4.202 -0.7326 -0.7531  1.3003
 4116SOL     OW23983   0.204   3.143   9.073 -0.6770 -0.3717 -0.3417
 4116SOL    HW123984   0.115   3.178   9.080  0.1516  1.7650 -0.7759
 4116SOL    HW223985   0.203   3.088   8.994  1.5041  1.1344 -1.4167
 4117SOL     OW23986   4.262   2.820   5.324  0.8695 -0.2839  0.4797
 4117SOL    HW123987   4.218   2.798   5.406  0.3861 -1.5596 -0.1273
 4117SOL    HW223988   4.341   2.765   5.324  0.2229 -1.2117  3.2501
 4118SOL     OW23989   1.274   3.394   5.097 -0.1282  0.6016  0.2033
 4118SOL    HW123990   1.346   3.367   5.155  0.8024  0.6293 -0.9470
 4118SOL    HW223991   1.207   3.392   5.165  0.1732  0.5251  0.5028
 4119SOL     OW23992   1.562   1.412  13.838  0.2674 -0.1989 -0.2750
 4119SOL    HW123993   1.652   1.384  13.825  0.7224  1.3017 -0.4096
 4119SOL    HW223994   1.508   1.342  13.801  0.6693 -0.8777  0.4409
 4120SOL     OW23995   0.747   2.913   4.821 -0.6195  0.4178  0.1064
 4120SOL    HW123996   0.755   2.881   4.731 -0.5561 -0.6173  0.4794
 4120SOL    HW223997   0.781   2.997   4.789  1.0340  0.6478  2.4533
 4121SOL     OW23998   1.333   2.037   6.285  0.2360  0.0078 -0.1135
 4121SOL    HW123999   1.299   2.122   6.312 -0.9195 -1.0476  1.7335
 4121SOL    HW224000   1.376   2.005   6.364 -2.5678 -0.5763  1.1492
 4122SOL     OW24001   0.885   2.014   8.604  0.7425 -0.1373  1.0248
 4122SOL    HW124002   0.908   1.950   8.536 -0.0645 -0.2619  0.8629
 4122SOL    HW224003   0.855   2.091   8.556 -1.0664 -1.4332  0.0521
 4123SOL     OW24004   4.196   0.877   8.236  0.2128  0.4268 -0.4238
 4123SOL    HW124005   4.232   0.959   8.268 -2.0175  2.0257 -2.0634
 4123SOL    HW224006   4.234   0.808   8.291 -0.4314  1.7565  1.6642
 4124SOL     OW24007   3.579   0.851   3.463  0.2355 -0.3658 -0.1477
 4124SOL    HW124008   3.636   0.917   3.424 -0.8745 -1.2196 -3.1850
 4124SOL    HW224009   3.549   0.805   3.384 -1.6220  2.0682 -0.8305
 4125SOL     OW24010   0.541   1.765   3.104  0.6358  0.4559 -0.1807
 4125SOL    HW124011   0.503   1.849   3.130 -0.0668 -0.3086  1.2696
 4125SOL    HW224012   0.634   1.775   3.126 -0.0560  1.8150  2.0468
 4126SOL     OW24013   0.251   2.581   7.987 -0.4390  0.1005  0.2764
 4126SOL    HW124014   0.195   2.536   8.050 -2.2154  3.3178  0.9617
 4126SOL    HW224015   0.216   2.670   7.993  0.0237  0.1738  1.8540
 4127SOL     OW24016   2.190   1.210  10.705  0.0065 -0.4777 -0.3881
 4127SOL    HW124017   2.285   1.219  10.715  0.0489 -2.3219  0.8061
 4127SOL    HW224018   2.166   1.195  10.796 -0.8906 -1.3661 -0.7741
 4128SOL     OW24019   0.718   3.848   9.043 -0.2061  0.6311  0.2474
 4128SOL    HW124020   0.803   3.854   9.000 -1.1871  2.1580 -1.4725
 4128SOL    HW224021   0.704   3.757   9.014 -0.9508  1.4257 -1.8727
 4129SOL     OW24022   2.875   1.538  16.578 -0.5558  0.0781  0.4866
 4129SOL    HW124023   2.872   1.569  16.669 -1.5314  2.7358 -0.4602
 4129SOL    HW224024   2.841   1.449  16.576  1.7503 -0.8531  1.9325
 4130SOL     OW24025   0.276   2.837   0.077 -0.4293  0.3478 -0.3496
 4130SOL    HW124026   0.317   2.756   0.045  0.5185  0.0053  1.7299
 4130SOL    HW224027   0.345   2.903   0.076 -0.3484  0.2921  2.0576
 4131SOL     OW24028   0.830   1.382   6.733  0.4541  0.1163 -0.1396
 4131SOL    HW124029   0.855   1.447   6.667  0.7757 -0.7114 -0.8377
 4131SOL    HW224030   0.866   1.424   6.811  0.0235  0.8031 -0.3037
 4132SOL     OW24031   1.977   1.581   8.185  0.3456 -0.3401  0.1699
 4132SOL    HW124032   1.931   1.550   8.107  1.3798  0.0151 -0.6002
 4132SOL    HW224033   1.908   1.570   8.250 -1.8720 -0.8984 -2.2730
 4133SOL     OW24034   2.174   1.603  16.775 -0.0651  0.6577  0.1080
 4133SOL    HW124035   2.140   1.663  16.708 -3.8534 -2.0801 -0.4444
 4133SOL    HW224036   2.265   1.617  16.749 -0.3380 -0.2603 -1.3246
 4134SOL     OW24037   4.528   0.630   8.826  0.7740 -0.1035 -0.0527
 4134SOL    HW124038   4.580   0.589   8.895  0.7872 -1.2542 -0.7558
 4134SOL    HW224039   4.530   0.566   8.755  0.2653 -1.4402  1.1442
 4135SOL     OW24040   0.191   3.794  11.245 -0.4618 -0.6510  0.0714
 4135SOL    HW124041   0.099   3.774  11.263 -0.7110 -1.0644 -1.6565
 4135SOL    HW224042   0.194   3.870  11.303  0.9294  0.6632 -1.7506
 4136SOL     OW24043   2.491   0.354   6.146 -0.1917 -0.1405 -0.2488
 4136SOL    HW124044   2.412   0.318   6.186  0.5321  1.2293  2.3960
 4136SOL    HW224045   2.480   0.449   6.155 -0.5606 -0.3579  1.4536
 4137SOL     OW24046   1.680   4.493   3.417 -0.1512  0.1370 -0.2786
 4137SOL    HW124047   1.688   4.483   3.322 -1.3121 -0.4545 -0.3167
 4137SOL    HW224048   1.723   4.574   3.446 -0.5982 -0.4338  1.9420
 4138SOL     OW24049   4.672   0.865   0.449 -0.0635  0.1496  0.4135
 4138SOL    HW124050   4.599   0.843   0.507  0.2905  0.9222  1.1547
 4138SOL    HW224051   4.653   0.847   0.357  1.0125  2.0888 -0.1782
 4139SOL     OW24052   0.415   0.943   3.685  0.2414 -0.1703 -0.0149
 4139SOL    HW124053   0.403   0.887   3.761 -1.3368  0.5299  0.2466
 4139SOL    HW224054   0.407   0.881   3.613  1.5970 -1.2488  0.7796
 4140SOL     OW24055   0.718   2.514   4.453 -0.0211  0.0917 -0.3939
 4140SOL    HW124056   0.750   2.578   4.389 -0.2699  0.4173 -0.1912
 4140SOL    HW224057   0.799   2.468   4.478 -0.8981 -0.4919  1.3045
 4141SOL     OW24058   4.158   1.133   2.287 -0.2600  0.3208  0.1102
 4141SOL    HW124059   4.137   1.068   2.353 -0.7248  0.5698  0.2074
 4141SOL    HW224060   4.237   1.099   2.244 -2.8105 -0.7442 -3.7612
 4142SOL     OW24061   0.301   4.739   9.485  0.2648 -0.4816 -0.1284
 4142SOL    HW124062   0.396   0.007   9.470  0.2679 -0.5195 -0.1316
 4142SOL    HW224063   0.303   0.043   9.569 -1.8365 -1.3191  0.3702
 4143SOL     OW24064   4.623   1.300   4.494 -0.3164 -0.1231  0.2563
 4143SOL    HW124065   4.528   1.312   4.503 -0.1638  1.0112  0.3875
 4143SOL    HW224066   4.630   1.302   4.399  1.4723  3.3624  0.4725
 4144SOL     OW24067   1.718   1.988   7.892 -0.2725 -0.0999 -0.2248
 4144SOL    HW124068   1.661   2.005   7.817 -0.1864  1.3288  0.0339
 4144SOL    HW224069   1.682   1.904   7.920 -1.2152  1.3628  2.9080
 4145SOL     OW24070   4.167   2.523  14.387 -0.6810 -0.4801  0.4172
 4145SOL    HW124071   4.243   2.505  14.331 -0.7806  0.3235  0.0335
 4145SOL    HW224072   4.146   2.615  14.373  2.2604 -0.1470 -1.9395
 4146SOL     OW24073   2.865   0.531   6.595  0.1820 -0.0878 -0.4434
 4146SOL    HW124074   2.911   0.489   6.522  2.4542  0.2360  0.7936
 4146SOL    HW224075   2.942   0.551   6.648 -1.1322  2.2311  0.5939
 4147SOL     OW24076   1.794   3.312   7.455 -0.3266 -0.4522  0.2779
 4147SOL    HW124077   1.773   3.246   7.390  0.1057 -0.2871 -0.0297
 4147SOL    HW224078   1.714   3.317   7.507  0.1679 -1.5990  1.1381
 4148SOL     OW24079   3.659   3.344   8.547 -0.2363  0.0176 -0.2685
 4148SOL    HW124080   3.615   3.277   8.598  1.0792 -0.1116  0.6916
 4148SOL    HW224081   3.620   3.418   8.594 -0.5819 -1.1223  1.2089
 4149SOL     OW24082   0.810   4.436   7.797 -0.2562  0.2498 -0.2521
 4149SOL    HW124083   0.742   4.479   7.744 -0.0328 -0.9463 -1.4963
 4149SOL    HW224084   0.783   4.345   7.791 -1.5746  0.6198 -0.0323
 4150SOL     OW24085   3.013   3.054   8.209 -0.0379  1.2644  0.3881
 4150SOL    HW124086   2.935   3.057   8.154 -1.7979 -0.7797  2.8084
 4150SOL    HW224087   2.966   3.045   8.292 -1.7914  2.3656 -0.4945
 4151SOL     OW24088   3.992   4.433   9.248  0.7778  0.6487  0.0482
 4151SOL    HW124089   3.903   4.401   9.234  1.6956 -1.2569 -1.4447
 4151SOL    HW224090   4.044   4.355   9.269 -1.2864 -1.2977 -2.0309
 4152SOL     OW24091   3.682   3.594   3.524 -0.4454  0.2345  0.7400
 4152SOL    HW124092   3.611   3.647   3.488 -1.1104 -0.3557  1.1859
 4152SOL    HW224093   3.738   3.657   3.570  0.7733 -0.2444 -0.1169
 4153SOL     OW24094   2.373   1.064   3.964 -0.7570  0.0280 -0.0806
 4153SOL    HW124095   2.287   1.023   3.956 -1.4231  1.3319  0.4642
 4153SOL    HW224096   2.417   1.016   4.033 -1.1733  0.5152  0.5186
 4154SOL     OW24097   2.553   1.694   6.900  0.2940 -0.4990 -0.2091
 4154SOL    HW124098   2.477   1.675   6.845  0.0840 -1.2307  0.3312
 4154SOL    HW224099   2.574   1.608   6.935  1.1471 -0.2803 -0.1877
 4155SOL     OW24100   4.737   2.179   6.246 -0.4342 -0.1379  0.4160
 4155SOL    HW124101   4.690   2.259   6.221  3.1789  0.9467 -2.8487
 4155SOL    HW224102   0.017   2.212   6.333  0.0869 -0.2359  0.3243
 4156SOL     OW24103   1.549   2.208  17.628  0.3742 -0.0072 -0.0620
 4156SOL    HW124104   1.574   2.125  17.587  0.4133 -0.3538  0.6502
 4156SOL    HW224105   1.455   2.202  17.646  0.3811  3.0179  0.9209
 4157SOL     OW24106   4.301   1.907   5.602  0.0299  0.7223  0.1744
 4157SOL    HW124107   4.359   1.853   5.656  0.1516 -1.0660 -1.7686
 4157SOL    HW224108   4.272   1.838   5.542 -0.5994 -0.6377  2.0130
 4158SOL     OW24109   2.565   2.576   1.493  0.3043 -0.0379 -0.3978
 4158SOL    HW124110   2.573   2.590   1.587 -0.1967  0.4560 -0.4274
 4158SOL    HW224111   2.658   2.564   1.472 -0.0717 -0.5961 -1.8032
 4159SOL     OW24112   3.458   0.808   2.647 -0.3790  0.2911  0.2095
 4159SOL    HW124113   3.370   0.845   2.636 -0.4677 -0.3868 -1.3216
 4159SOL    HW224114   3.512   0.876   2.606 -0.4596 -0.2694 -0.8128
 4160SOL     OW24115   1.238   2.010  14.793  0.2811  0.4063 -0.0450
 4160SOL    HW124116   1.278   2.001  14.880 -1.1744 -1.4174  0.4662
 4160SOL    HW224117   1.259   1.922  14.761 -0.3227 -0.0271  0.7224
 4161SOL     OW24118   4.540   3.513   6.509 -0.1777  0.4234 -0.3305
 4161SOL    HW124119   4.464   3.454   6.518  0.1487  0.0590  0.0674
 4161SOL    HW224120   4.545   3.557   6.594 -0.8924 -1.8348  0.8724
 4162SOL     OW24121   2.825   2.939   5.587 -0.3580  0.1412 -0.2237
 4162SOL    HW124122   2.865   3.015   5.630  0.5968 -1.2922  1.4180
 4162SOL    HW224123   2.765   2.902   5.652 -1.0068  1.6384  0.0308
 4163SOL     OW24124   1.121   2.601   0.657  0.2122  0.3255 -0.7501
 4163SOL    HW124125   1.207   2.623   0.621  0.5096  2.3013  1.1967
 4163SOL    HW224126   1.090   2.688   0.682 -0.4731  0.8463 -3.3721
 4164SOL     OW24127   0.304   1.664   6.103 -0.5638 -0.0460 -0.0673
 4164SOL    HW124128   0.236   1.621   6.051  0.0842 -1.2836  0.1357
 4164SOL    HW224129   0.266   1.751   6.120 -0.6321 -0.2354  0.7430
 4165SOL     OW24130   0.490   3.869   2.637 -0.2368  0.1862  0.4254
 4165SOL    HW124131   0.402   3.901   2.617 -0.6749 -1.1921  0.1858
 4165SOL    HW224132   0.489   3.799   2.572  1.4207 -0.7702  1.4162
 4166SOL     OW24133   3.986   1.325   2.371  0.2740  0.1268 -0.2211
 4166SOL    HW124134   4.037   1.251   2.337  0.0323 -1.5732  3.0951
 4166SOL    HW224135   3.989   1.382   2.295 -0.9882  0.3583 -0.0830
 4167SOL     OW24136   2.833   3.158   3.811 -0.3018  0.2883  0.4809
 4167SOL    HW124137   2.761   3.174   3.750  0.0435  1.9247  0.5005
 4167SOL    HW224138   2.902   3.186   3.750  0.2039 -2.2987 -0.1395
 4168SOL     OW24139   2.644   2.336   3.087  0.1835 -0.1842  0.1798
 4168SOL    HW124140   2.585   2.379   3.149 -2.2650 -0.3208 -2.0630
 4168SOL    HW224141   2.681   2.416   3.050 -0.1435 -0.3602 -0.5305
 4169SOL     OW24142   0.039   1.034  10.100  0.5892 -0.2057 -0.2880
 4169SOL    HW124143   4.725   0.979  10.156 -0.2751  1.2961  0.3392
 4169SOL    HW224144   4.729   1.115  10.094  1.8263  0.7015  1.3465
 4170SOL     OW24145   4.409   3.764  15.234  0.2416  0.6699 -0.0675
 4170SOL    HW124146   4.323   3.759  15.277 -1.4615 -0.0393 -3.6136
 4170SOL    HW224147   4.431   3.671  15.225  0.5393  0.6007  1.3634
 4171SOL     OW24148   3.644   3.646   6.724  0.2949  1.1621 -0.6146
 4171SOL    HW124149   3.658   3.556   6.692  1.0462  0.4065  1.7825
 4171SOL    HW224150   3.597   3.702   6.663 -0.1625  1.2591 -0.1773
 4172SOL     OW24151   4.176   0.668  12.079  0.7509  0.0877  0.2608
 4172SOL    HW124152   4.166   0.658  11.984 -0.8844  0.4994  0.3895
 4172SOL    HW224153   4.101   0.721  12.106 -0.7229 -1.7748 -0.1681
 4173SOL     OW24154   2.139   3.861  14.805 -0.7120 -0.2264 -0.2638
 4173SOL    HW124155   2.172   3.776  14.834 -3.3729 -1.4192 -0.7234
 4173SOL    HW224156   2.059   3.867  14.858  0.5728  0.0403  1.6388
 4174SOL     OW24157   0.830   0.033   6.715 -0.2517 -0.1845  0.0422
 4174SOL    HW124158   0.866   0.010   6.630 -2.0083 -1.9278 -0.2167
 4174SOL    HW224159   0.756   0.093   6.702  0.7193  0.6066 -1.8350
 4175SOL     OW24160   2.027   1.807   0.742  0.8176 -0.2654 -0.5536
 4175SOL    HW124161   2.047   1.883   0.797 -0.4090  1.6392 -2.7249
 4175SOL    HW224162   1.998   1.852   0.662  0.1399  0.2647 -0.0086
 4176SOL     OW24163   3.547   2.455   7.697  0.1471  0.5445  0.4881
 4176SOL    HW124164   3.549   2.372   7.746 -0.4859 -0.3001 -0.9235
 4176SOL    HW224165   3.570   2.411   7.616  1.8745 -1.0990  1.8573
 4177SOL     OW24166   4.238   1.418   8.528 -0.6519 -0.4696  0.3515
 4177SOL    HW124167   4.283   1.363   8.463 -0.4490 -1.9138  1.7011
 4177SOL    HW224168   4.311   1.438   8.586 -1.4713 -1.8090  1.8415
 4178SOL     OW24169   0.813   0.022   4.246  0.1659 -0.1506 -0.1325
 4178SOL    HW124170   0.812   4.675   4.284  0.3783 -0.9071 -1.8783
 4178SOL    HW224171   0.832   0.078   4.322  0.2780  0.2539 -0.4581
 4179SOL     OW24172   2.966   1.249   8.517  0.4103  0.6708 -0.0831
 4179SOL    HW124173   2.916   1.328   8.498 -3.1175 -1.4189  0.5168
 4179SOL    HW224174   2.967   1.205   8.432 -1.3628  0.0396  0.2253
 4180SOL     OW24175   2.000   0.439   6.577 -0.1176  0.2522 -0.0197
 4180SOL    HW124176   2.030   0.501   6.644 -0.8007 -0.0412  0.5597
 4180SOL    HW224177   2.077   0.441   6.521 -0.8589 -0.5117 -1.0411
 4181SOL     OW24178   0.928   1.422   3.476 -0.2579  0.3762 -0.2163
 4181SOL    HW124179   0.880   1.444   3.556  1.8589 -1.1474  1.4697
 4181SOL    HW224180   1.002   1.371   3.509 -1.8474 -0.0177  2.7003
 4182SOL     OW24181   2.534   2.159   9.278  0.0706  0.3697 -0.2222
 4182SOL    HW124182   2.479   2.225   9.319 -0.8806 -0.0797 -0.7772
 4182SOL    HW224183   2.561   2.214   9.204  0.1570  1.0243  0.2991
 4183SOL     OW24184   4.166   4.073   9.034  0.1834 -0.1754 -0.3365
 4183SOL    HW124185   4.146   4.077   9.128 -0.5386 -3.1350 -0.3626
 4183SOL    HW224186   4.257   4.095   9.053  0.5302 -2.9295  1.0775
 4184SOL     OW24187   2.224   4.512   7.808 -0.5716 -0.4688  0.3252
 4184SOL    HW124188   2.312   4.478   7.792  0.6744  1.8497  2.1839
 4184SOL    HW224189   2.228   4.497   7.902  4.2793 -0.0271  0.1821
 4185SOL     OW24190   2.125   0.763  13.193  0.4342 -0.3650 -0.5628
 4185SOL    HW124191   2.163   0.677  13.208 -1.0646 -0.9717 -0.2634
 4185SOL    HW224192   2.049   0.751  13.137  1.9335 -2.1686 -2.2086
 4186SOL     OW24193   0.811   0.135   4.581  0.4411 -0.1208 -0.1770
 4186SOL    HW124194   0.775   0.087   4.656  2.0209  0.2181  0.8029
 4186SOL    HW224195   0.899   0.096   4.582  0.5325  0.0924  0.5433
 4187SOL     OW24196   1.638   4.499   7.492  0.6016  0.1987 -0.6528
 4187SOL    HW124197   1.679   4.474   7.575  0.9172 -0.2990 -0.9583
 4187SOL    HW224198   1.566   4.438   7.479  2.3439 -2.1310  0.5995
 4188SOL     OW24199   4.580   0.573   9.463 -0.1105  0.3103  0.5768
 4188SOL    HW124200   4.652   0.511   9.471 -0.1765  0.2396  0.6245
 4188SOL    HW224201   4.511   0.509   9.443 -0.0957  0.2234  0.8045
 4189SOL     OW24202   3.704   0.386   3.469  0.1037 -0.2692 -0.0147
 4189SOL    HW124203   3.680   0.472   3.504 -1.7042 -0.2943 -1.1651
 4189SOL    HW224204   3.627   0.366   3.416  1.1099 -1.8682 -0.8523
 4190SOL     OW24205   4.544   1.825   4.402  0.0043 -0.1710  0.0120
 4190SOL    HW124206   4.636   1.842   4.421 -0.6871 -0.5159  3.5670
 4190SOL    HW224207   4.549   1.749   4.344  1.4035  0.6078 -0.9080
 4191SOL     OW24208   4.073   2.104   4.160  0.2565  0.0404 -0.1616
 4191SOL    HW124209   4.007   2.066   4.102 -0.6891 -0.7482  1.4572
 4191SOL    HW224210   4.052   2.076   4.248  1.4988 -1.0306 -0.2016
 4192SOL     OW24211   3.457   3.969   8.520  0.1364 -0.0320 -0.1884
 4192SOL    HW124212   3.550   3.983   8.539  0.1532  0.2389 -0.4709
 4192SOL    HW224213   3.429   3.910   8.591  1.7836  0.8711  1.2086
 4193SOL     OW24214   0.730   2.353   3.770  0.4938  0.3339 -0.2392
 4193SOL    HW124215   0.734   2.386   3.680 -3.3634 -0.7562 -0.8046
 4193SOL    HW224216   0.819   2.342   3.804  0.6385 -0.0164 -0.7384
 4194SOL     OW24217   1.949   3.208   5.081 -0.0188 -0.2294 -0.2147
 4194SOL    HW124218   1.885   3.141   5.054  1.7364 -1.0014 -2.4298
 4194SOL    HW224219   1.993   3.173   5.158 -0.9713  1.2422  0.9919
 4195SOL     OW24220   0.335   0.718   3.486 -0.8239  0.4609 -0.3210
 4195SOL    HW124221   0.244   0.720   3.455 -1.0056 -1.7511  0.1363
 4195SOL    HW224222   0.373   0.753   3.406  1.2573 -2.2203 -0.4982
 4196SOL     OW24223   0.509   2.693   4.554 -0.0088 -0.2781  0.0316
 4196SOL    HW124224   0.538   2.768   4.502  1.9349 -0.9566  0.1431
 4196SOL    HW224225   0.568   2.625   4.519  1.6647  0.9424  0.4900
 4197SOL     OW24226   3.084   1.216  14.070  0.9527  0.6589  0.6209
 4197SOL    HW124227   3.171   1.257  14.066  1.1180  0.3200  0.7016
 4197SOL    HW224228   3.071   1.191  13.979  0.1761  1.5660  0.4836
 4198SOL     OW24229   3.381   0.752   8.932 -0.2310  0.2508  0.3413
 4198SOL    HW124230   3.456   0.793   8.975  0.8497  0.0427 -1.3491
 4198SOL    HW224231   3.394   0.766   8.838 -0.5816 -0.2653  0.2185
 4199SOL     OW24232   0.919   3.391  10.481  0.2478 -0.0912 -0.3263
 4199SOL    HW124233   0.825   3.394  10.500 -0.1103  1.0118 -2.2813
 4199SOL    HW224234   0.948   3.461  10.541 -2.9217  0.9539 -0.0140
 4200SOL     OW24235   0.667   3.314  10.798  0.7064 -0.0489 -0.3492
 4200SOL    HW124236   0.672   3.386  10.735 -0.6421  2.7544  2.6910
 4200SOL    HW224237   0.689   3.371  10.872 -0.1033 -1.7536  1.2089
 4201SOL     OW24238   0.947   3.617   7.298  0.4307  0.1763 -0.0241
 4201SOL    HW124239   1.000   3.692   7.272 -0.5592  0.6061 -0.8583
 4201SOL    HW224240   0.926   3.632   7.390 -0.6987 -2.1180  0.0918
 4202SOL     OW24241   0.909   0.718   2.110  0.3639  0.1421  0.2403
 4202SOL    HW124242   0.862   0.635   2.100  1.2518 -0.6488  2.6539
 4202SOL    HW224243   0.836   0.780   2.113 -0.9332 -1.4445  1.4831
 4203SOL     OW24244   3.133   1.491  12.568  0.7517 -0.2855 -0.2902
 4203SOL    HW124245   3.175   1.536  12.494 -0.7896  2.2829  0.4406
 4203SOL    HW224246   3.156   1.400  12.548  0.8847  0.0791 -1.8249
 4204SOL     OW24247   0.215   2.727   4.658  0.1178  0.1689 -0.7001
 4204SOL    HW124248   0.307   2.735   4.681  0.1823 -2.1512 -0.1386
 4204SOL    HW224249   0.200   2.636   4.685  2.4932  0.3711  1.2634
 4205SOL     OW24250   3.132   3.128   1.319 -0.4849 -0.5386  0.0682
 4205SOL    HW124251   3.090   3.161   1.239  1.2521  0.6286 -0.3634
 4205SOL    HW224252   3.201   3.069   1.287  0.3718  0.7402 -0.4647
 4206SOL     OW24253   2.508   0.149   8.983  0.1589 -0.0506  0.1428
 4206SOL    HW124254   2.603   0.159   8.974 -0.0001  0.7063 -0.6969
 4206SOL    HW224255   2.500   0.057   8.960  1.4126 -0.3842  1.0032
 4207SOL     OW24256   2.208   1.053   4.609 -0.3244 -0.1234  0.3818
 4207SOL    HW124257   2.263   1.000   4.667 -0.3951 -0.5912  0.0187
 4207SOL    HW224258   2.258   1.046   4.528 -2.8880  0.3721 -1.2443
 4208SOL     OW24259   4.160   4.049   6.170  0.0694  0.0490 -0.2128
 4208SOL    HW124260   4.146   4.066   6.263 -0.2453 -0.9424 -0.0854
 4208SOL    HW224261   4.135   4.133   6.131 -2.6439  0.1901  1.8775
 4209SOL     OW24262   0.137   4.378   3.963  0.3711 -0.1401  0.4283
 4209SOL    HW124263   0.079   4.304   3.982 -0.2770 -0.1025 -1.3794
 4209SOL    HW224264   0.093   4.441   4.020  2.6213  0.8410  1.1114
 4210SOL     OW24265   2.570   2.233   2.186  0.7536  0.7498 -0.6019
 4210SOL    HW124266   2.604   2.153   2.144  0.5444 -0.1644  0.9575
 4210SOL    HW224267   2.647   2.268   2.231  0.9011 -1.5641  0.9713
 4211SOL     OW24268   1.794   3.500  13.738 -0.1132 -0.0365  0.0603
 4211SOL    HW124269   1.857   3.540  13.797 -0.1398 -1.3332  0.9598
 4211SOL    HW224270   1.849   3.425  13.718  1.1283  1.7551 -3.2467
 4212SOL     OW24271   0.175   2.053  12.722  0.2687 -0.3361  0.0641
 4212SOL    HW124272   0.170   2.145  12.751 -2.6290 -0.6879  0.6355
 4212SOL    HW224273   0.257   2.063  12.673 -0.6187  1.4931 -1.0502
 4213SOL     OW24274   3.589   4.330   0.748  0.0474  0.7922 -0.0222
 4213SOL    HW124275   3.620   4.377   0.670  1.7990 -0.3055  0.0112
 4213SOL    HW224276   3.676   4.310   0.781  0.5600  1.5636 -0.8986
 4214SOL     OW24277   3.220   0.052   5.928 -0.5876  0.3268 -0.1780
 4214SOL    HW124278   3.285   0.108   5.886  0.1445  0.2265  0.8056
 4214SOL    HW224279   3.269   4.711   5.928 -0.3838  0.4454  0.9508
 4215SOL     OW24280   4.334   3.335   6.525 -0.4546 -0.4192  0.3919
 4215SOL    HW124281   4.377   3.264   6.572 -1.1631 -1.0836  0.0298
 4215SOL    HW224282   4.259   3.353   6.581 -0.9418 -2.0293  0.2455
 4216SOL     OW24283   1.072   2.167  12.890  0.0567  0.5430 -0.5476
 4216SOL    HW124284   1.081   2.074  12.867  1.1267 -0.1014  2.4390
 4216SOL    HW224285   1.157   2.186  12.931 -0.4815 -1.2380  1.4007
 4217SOL     OW24286   2.904   2.180   4.778  0.1076 -0.2346 -0.1493
 4217SOL    HW124287   2.825   2.234   4.779 -0.9313 -1.7785  1.1895
 4217SOL    HW224288   2.965   2.242   4.739  3.0003 -2.2155  1.2654
 4218SOL     OW24289   2.764   1.443   9.660 -0.0220 -0.4596  0.1172
 4218SOL    HW124290   2.845   1.474   9.620  0.3850 -1.3072  0.2832
 4218SOL    HW224291   2.798   1.404   9.741 -0.5873 -0.8244  0.1813
 4219SOL     OW24292   3.832   0.196   4.081 -0.1369  0.2839 -0.4363
 4219SOL    HW124293   3.874   0.114   4.108 -1.7443  0.9288  3.9425
 4219SOL    HW224294   3.826   0.244   4.163  1.9010 -2.0774  1.1091
 4220SOL     OW24295   4.056   3.258   2.213  0.0862  0.1555 -0.4804
 4220SOL    HW124296   4.043   3.299   2.299 -2.2229 -1.5228 -0.0363
 4220SOL    HW224297   3.974   3.211   2.199  0.9153 -1.6800  0.8292
 4221SOL     OW24298   2.916   2.228   6.558  0.4916  0.4050  0.0618
 4221SOL    HW124299   2.858   2.154   6.542 -0.0597  1.2073 -1.6421
 4221SOL    HW224300   2.998   2.207   6.513  0.7329 -0.8827  1.0959
 4222SOL     OW24301   1.732   2.095   0.460  0.0959 -0.0625  0.1480
 4222SOL    HW124302   1.728   2.118   0.367 -2.5452 -0.2637  0.2107
 4222SOL    HW224303   1.715   2.181   0.497 -0.1531 -0.0440 -0.0041
 4223SOL     OW24304   2.518   0.237   7.951  0.0031  0.1587  0.2098
 4223SOL    HW124305   2.593   0.259   7.896 -0.5435  1.3595 -0.0498
 4223SOL    HW224306   2.507   0.309   8.012  2.0177 -0.5856  1.4315
 4224SOL     OW24307   1.387   2.671   4.472 -0.2384  0.5801  0.2335
 4224SOL    HW124308   1.309   2.666   4.417  1.6993  0.4724 -2.5426
 4224SOL    HW224309   1.430   2.589   4.448  1.5666  0.9518  2.1706
 4225SOL     OW24310   1.715   3.733   9.096  0.3313 -0.0672  0.3153
 4225SOL    HW124311   1.801   3.759   9.062  1.3973 -2.7361  0.9603
 4225SOL    HW224312   1.723   3.638   9.108 -2.3274 -0.4219 -0.8362
 4226SOL     OW24313   0.316   4.677  16.391  0.5893  0.1100 -0.0605
 4226SOL    HW124314   0.351   4.588  16.393 -0.6719 -0.3080  3.0691
 4226SOL    HW224315   0.323   4.698  16.298 -0.2932  0.6548 -0.0059
 4227SOL     OW24316   2.494   4.393   6.606 -0.0195 -0.6314  0.1765
 4227SOL    HW124317   2.466   4.315   6.559  0.7520  1.3451 -3.5522
 4227SOL    HW224318   2.590   4.391   6.604 -0.0411 -2.9239  1.6660
 4228SOL     OW24319   1.582   2.823   5.814  0.0983  0.1327  0.2858
 4228SOL    HW124320   1.539   2.753   5.863 -0.0711 -0.1630 -0.2854
 4228SOL    HW224321   1.612   2.777   5.736  0.0901  2.2387 -0.9697
 4229SOL     OW24322   4.458   1.209  14.161  0.0891  0.0136  0.0415
 4229SOL    HW124323   4.365   1.194  14.173 -0.0113  1.6542  1.2973
 4229SOL    HW224324   4.452   1.294  14.118 -0.0287  0.0932  0.2142
 4230SOL     OW24325   0.649   0.333   4.904 -0.3013 -0.2628  0.4729
 4230SOL    HW124326   0.742   0.352   4.913  0.6386 -3.4333 -2.2206
 4230SOL    HW224327   0.656   0.238   4.892 -1.3770 -0.5947  2.4603
 4231SOL     OW24328   1.887   1.020   2.431  0.0241 -1.0017  0.0704
 4231SOL    HW124329   1.793   1.033   2.424  0.3061  0.7529 -0.5455
 4231SOL    HW224330   1.913   1.099   2.383 -0.2435  0.7104  2.7521
 4232SOL     OW24331   3.177   2.787  12.833  0.1150  0.2143  0.1438
 4232SOL    HW124332   3.141   2.722  12.773  0.0759  2.0775 -1.8428
 4232SOL    HW224333   3.265   2.786  12.795  0.9381  0.7145  2.0459
 4233SOL     OW24334   2.699   2.095   8.924 -0.1466  0.4055 -0.0360
 4233SOL    HW124335   2.748   2.019   8.893 -0.1028  0.2563  0.3982
 4233SOL    HW224336   2.763   2.137   8.981 -0.8229 -2.3982  2.8067
 4234SOL     OW24337   3.497   0.171   3.596  0.2509  0.0320 -0.1457
 4234SOL    HW124338   3.408   0.207   3.594  0.9958  1.7634 -2.1444
 4234SOL    HW224339   3.528   0.151   3.508 -0.8400  0.4156 -0.6183
 4235SOL     OW24340   0.002   1.611   3.441  0.2618 -0.3668  0.5105
 4235SOL    HW124341   4.665   1.567   3.475  0.3309 -0.7125  0.2264
 4235SOL    HW224342   0.019   1.690   3.492 -0.0800  0.3560 -0.4850
 4236SOL     OW24343   1.425   3.738   2.975 -0.2019 -0.1537  0.0677
 4236SOL    HW124344   1.341   3.723   2.932 -0.4217  0.0603  0.4231
 4236SOL    HW224345   1.406   3.796   3.048  2.4533 -1.8776  2.1676
 4237SOL     OW24346   3.505   0.141   4.537 -0.5698  0.1586 -0.2427
 4237SOL    HW124347   3.463   0.205   4.594  0.3296  0.1419  0.4412
 4237SOL    HW224348   3.532   0.084   4.609 -0.9147  0.5169  0.1747
 4238SOL     OW24349   1.856   3.185   8.445  0.4135  0.0510  0.7228
 4238SOL    HW124350   1.781   3.176   8.504 -1.8805  1.0360 -2.0405
 4238SOL    HW224351   1.818   3.201   8.359 -1.0502  0.5473  1.4564
 4239SOL     OW24352   2.246   1.748   7.612  0.8491 -0.4000 -0.0881
 4239SOL    HW124353   2.263   1.747   7.518  3.2369  1.5411  0.3122
 4239SOL    HW224354   2.221   1.657   7.628  0.0964 -0.1521  0.1347
 4240SOL     OW24355   4.240   1.912  17.421  0.7803  0.8351 -0.4082
 4240SOL    HW124356   4.250   1.980  17.355  0.5933  0.7389 -0.5354
 4240SOL    HW224357   4.321   1.866  17.400  0.7265  0.4726  0.2029
 4241SOL     OW24358   0.316   3.852   2.910 -0.0987  0.3446 -0.3784
 4241SOL    HW124359   0.321   3.795   2.834  0.6805  3.2373 -2.5194
 4241SOL    HW224360   0.387   3.813   2.960  0.0921  1.0548 -0.0926
 4242SOL     OW24361   4.420   0.803  14.112  0.0533  0.2965 -0.0989
 4242SOL    HW124362   4.490   0.809  14.177 -1.0248 -0.9416  1.1868
 4242SOL    HW224363   4.357   0.756  14.166  2.3686 -1.2821  1.1945
 4243SOL     OW24364   3.965   2.957   5.880  0.7756 -0.4156  0.1380
 4243SOL    HW124365   3.981   3.025   5.947  2.0690 -0.4851 -0.1044
 4243SOL    HW224366   3.880   2.992   5.851 -0.4167 -2.1600  1.4894
 4244SOL     OW24367   2.961   2.949   8.770 -0.2203 -0.0822 -0.0130
 4244SOL    HW124368   2.982   3.038   8.742 -1.0258  0.3828  0.8313
 4244SOL    HW224369   2.873   2.936   8.735  0.0492  0.5539 -0.9260
 4245SOL     OW24370   2.959   4.593   5.665 -0.3136 -0.4491 -0.9255
 4245SOL    HW124371   2.945   4.529   5.735  1.1084  2.2580  1.8316
 4245SOL    HW224372   3.050   4.569   5.649  0.1527  0.1063  0.7885
 4246SOL     OW24373   2.599   2.502  13.938 -0.3803  0.5221 -0.4413
 4246SOL    HW124374   2.689   2.469  13.948 -1.0488 -1.0054  0.4637
 4246SOL    HW224375   2.571   2.428  13.886  0.8978 -0.1074 -0.2523
 4247SOL     OW24376   0.970   0.488   6.705 -0.4774  0.1896  0.2328
 4247SOL    HW124377   1.063   0.509   6.703 -0.4596  0.0129 -0.8007
 4247SOL    HW224378   0.950   0.466   6.614  1.3931  0.6441 -0.2901
 4248SOL     OW24379   0.921   4.316  12.393 -0.0861  0.5999 -0.1456
 4248SOL    HW124380   0.983   4.269  12.337  0.6399 -1.4192  2.3430
 4248SOL    HW224381   0.980   4.319  12.469 -1.4730 -1.3836  1.0142
 4249SOL     OW24382   0.070   2.607   3.225 -0.1384  0.0193  0.2522
 4249SOL    HW124383   0.098   2.522   3.257  1.4934 -0.8996 -3.6542
 4249SOL    HW224384   0.141   2.639   3.170 -1.4149  0.7187 -0.9922
 4250SOL     OW24385   4.415   2.688   6.563  0.1799  0.2626 -0.5219
 4250SOL    HW124386   4.447   2.730   6.484  1.9758  0.0890  0.1047
 4250SOL    HW224387   4.485   2.708   6.625 -0.8644 -1.9139  1.3640
 4251SOL     OW24388   1.842   3.473   2.789  0.5255 -0.0482  0.1172
 4251SOL    HW124389   1.819   3.561   2.818  0.3033  0.5917 -2.0241
 4251SOL    HW224390   1.833   3.421   2.869  1.5929 -1.3560 -0.6275
 4252SOL     OW24391   1.939   1.981  11.512 -0.5699  0.2381  0.1622
 4252SOL    HW124392   1.867   2.042  11.526 -0.3050  0.4749  0.4716
 4252SOL    HW224393   1.996   2.048  11.474  1.5942 -1.1762  0.9484
 4253SOL     OW24394   2.188   2.234   5.827  0.1586  0.5838  0.6395
 4253SOL    HW124395   2.186   2.233   5.731 -0.3042 -0.8873  0.6614
 4253SOL    HW224396   2.121   2.166   5.842 -1.3034  1.6235 -1.1823
 4254SOL     OW24397   1.773   2.663   7.582 -0.3239  0.5263  0.3697
 4254SOL    HW124398   1.751   2.689   7.672 -0.4132  0.1697  0.4507
 4254SOL    HW224399   1.702   2.706   7.534 -1.4256 -0.2303  1.3162
 4255SOL     OW24400   0.001   2.298  10.855  0.2287  0.0230  0.0517
 4255SOL    HW124401   4.736   2.372  10.915 -1.8640  0.4302 -0.6773
 4255SOL    HW224402   0.063   2.250  10.911 -0.6701  0.5695  1.5032
 4256SOL     OW24403   0.271   1.481   3.360 -0.0771 -0.2991  0.0410
 4256SOL    HW124404   0.181   1.476   3.393 -0.2210  1.5781 -0.0803
 4256SOL    HW224405   0.275   1.550   3.294  1.0490  0.0719  0.4994
 4257SOL     OW24406   1.418   0.277   5.846 -0.4009 -0.2162 -0.4599
 4257SOL    HW124407   1.491   0.337   5.864 -2.2653  1.7156  0.6047
 4257SOL    HW224408   1.344   0.335   5.859 -0.2729 -0.6390  2.2160
 4258SOL     OW24409   3.869   4.397   2.801 -0.3007  0.3954  0.2071
 4258SOL    HW124410   3.822   4.350   2.871  0.6308 -2.8338 -1.3117
 4258SOL    HW224411   3.878   4.484   2.839 -2.5319  0.6204  0.1975
 4259SOL     OW24412   1.830   4.575   3.788  0.1293  0.3384  0.1355
 4259SOL    HW124413   1.746   4.545   3.754  0.2264 -0.9541  1.0343
 4259SOL    HW224414   1.828   4.578   3.884  2.9039 -3.8178  0.2823
 4260SOL     OW24415   0.033   1.751  13.416  0.0232 -0.4082 -0.1867
 4260SOL    HW124416   4.741   1.767  13.328  1.8208  0.5528 -0.6831
 4260SOL    HW224417   0.122   1.783  13.406  0.4558 -1.7795 -0.7836
 4261SOL     OW24418   4.551   0.788   6.097 -0.1714  0.7910  0.3658
 4261SOL    HW124419   4.500   0.859   6.136  1.7889  1.4281  1.7274
 4261SOL    HW224420   4.624   0.790   6.158 -0.2212  2.5603  0.3540
 4262SOL     OW24421   0.686   2.478   4.746  0.1644 -0.4875  0.5792
 4262SOL    HW124422   0.603   2.472   4.700 -0.1138  1.2967  0.8362
 4262SOL    HW224423   0.743   2.430   4.686 -0.4833 -1.2084  0.5451
 4263SOL     OW24424   2.429   3.367   7.143  0.3954  0.0407 -0.0495
 4263SOL    HW124425   2.471   3.283   7.160 -0.4221 -0.6818 -1.5205
 4263SOL    HW224426   2.348   3.337   7.101 -0.6664 -0.6584  2.5340
 4264SOL     OW24427   2.371   0.014   4.688 -0.3025 -0.1064  0.3959
 4264SOL    HW124428   2.383   0.099   4.646 -1.1938  0.0322  0.4360
 4264SOL    HW224429   2.455   4.710   4.674  0.6923  1.7513  0.4223
 4265SOL     OW24430   2.542   2.403  16.863  0.4142  0.1020 -0.1926
 4265SOL    HW124431   2.493   2.323  16.846 -1.5016  0.9050  1.5071
 4265SOL    HW224432   2.474   2.462  16.829  0.1823 -0.6998 -1.1309
 4266SOL     OW24433   4.072   3.007   2.393 -0.1100  0.4909  0.1548
 4266SOL    HW124434   4.129   3.077   2.361  1.1882  0.5471  2.6189
 4266SOL    HW224435   4.118   2.971   2.468 -1.8829  0.5618  1.2811
 4267SOL     OW24436   1.672   4.046   4.650 -0.3071 -0.6174  0.1150
 4267SOL    HW124437   1.598   4.009   4.602 -0.3540 -0.3708 -0.0033
 4267SOL    HW224438   1.728   4.068   4.575  0.5327 -0.4101  0.8119
 4268SOL     OW24439   0.850   0.975   5.972  0.2726 -0.5631 -0.8036
 4268SOL    HW124440   0.777   1.024   5.936 -0.7675 -0.4738  1.4930
 4268SOL    HW224441   0.818   0.891   5.938  0.5174  0.0851 -2.6754
 4269SOL     OW24442   4.095   1.245   4.515 -0.0064 -0.4252 -0.2525
 4269SOL    HW124443   4.073   1.233   4.608 -0.6694 -0.4027 -0.4067
 4269SOL    HW224444   4.082   1.158   4.477  0.7808 -0.9115  0.5761
 4270SOL     OW24445   4.445   4.590  17.090 -0.2725  0.3153 -0.0303
 4270SOL    HW124446   4.370   4.605  17.033 -0.9934 -2.2747  0.2202
 4270SOL    HW224447   4.403   4.569  17.173  0.7846 -0.9396  0.1905
 4271SOL     OW24448   4.242   4.026   7.026 -0.0380  0.6476  0.1413
 4271SOL    HW124449   4.170   3.965   7.040  0.4186  0.2980  0.9398
 4271SOL    HW224450   4.313   3.968   7.053 -0.4318  0.0312 -0.1473
 4272SOL     OW24451   4.435   4.527   4.862 -0.0971  0.2168 -0.5874
 4272SOL    HW124452   4.421   4.621   4.852 -1.5788  0.0534 -0.0553
 4272SOL    HW224453   4.455   4.527   4.956 -1.4069 -3.2066 -0.3031
 4273SOL     OW24454   3.040   4.509  13.201  0.0411  0.1877 -0.2738
 4273SOL    HW124455   3.093   4.508  13.281  1.6563  0.6404 -1.3486
 4273SOL    HW224456   2.985   4.587  13.208 -0.3001  0.0830 -1.8034
 4274SOL     OW24457   1.894   1.205  15.931  0.0997  0.2332  0.1874
 4274SOL    HW124458   1.874   1.223  16.022  2.1963 -1.0571  0.9059
 4274SOL    HW224459   1.990   1.208  15.934  0.0814  0.5752  0.3846
 4275SOL     OW24460   4.674   0.296   5.551  0.3440 -0.0844 -0.3496
 4275SOL    HW124461   4.648   0.329   5.637  0.1658  0.9477 -0.8013
 4275SOL    HW224462   4.584   0.278   5.526  0.1571 -1.7796  1.5439
 4276SOL     OW24463   2.796   4.450  16.531 -0.0789  0.0680  0.4009
 4276SOL    HW124464   2.840   4.387  16.588 -0.9681 -1.5777 -0.7391
 4276SOL    HW224465   2.776   4.393  16.457  0.5659  0.2176  0.1060
 4277SOL     OW24466   1.835   0.439   8.241 -0.1252 -0.1530  0.7827
 4277SOL    HW124467   1.800   0.383   8.311 -3.7241 -0.9819 -1.6627
 4277SOL    HW224468   1.785   0.399   8.170 -0.7219 -2.1562  2.3074
 4278SOL     OW24469   3.565   3.444   4.099  0.7454 -0.1958 -0.0723
 4278SOL    HW124470   3.622   3.475   4.028 -0.0265  3.1362  0.7592
 4278SOL    HW224471   3.608   3.362   4.121  0.3132 -0.0803  1.1711
 4279SOL     OW24472   0.034   0.605  15.694  0.4356  0.5187  0.1355
 4279SOL    HW124473   4.700   0.628  15.749  0.1782 -0.7490  0.3347
 4279SOL    HW224474   4.735   0.643  15.616  0.5141 -0.6344 -0.4777
 4280SOL     OW24475   3.221   3.176   0.459  0.5534 -0.3267  0.2653
 4280SOL    HW124476   3.270   3.253   0.491  0.1693  0.1092 -0.2066
 4280SOL    HW224477   3.289   3.118   0.425  1.2055  1.6361 -1.7509
 4281SOL     OW24478   1.100   4.062   7.034 -0.0356  0.0261  0.2059
 4281SOL    HW124479   1.078   4.142   7.080 -1.6368  0.1728 -0.8106
 4281SOL    HW224480   1.153   4.084   6.957  0.2257  2.6696  1.1733
 4282SOL     OW24481   3.311   2.716  12.423  0.2963 -0.1366 -0.2433
 4282SOL    HW124482   3.321   2.715  12.518  0.0584  1.5847 -0.2091
 4282SOL    HW224483   3.347   2.799  12.393 -0.0585  0.6568  1.5780
 4283SOL     OW24484   3.048   3.006   1.706  0.2422  0.0328 -0.7021
 4283SOL    HW124485   2.959   3.011   1.672 -0.4388 -1.3335  0.8878
 4283SOL    HW224486   3.092   2.940   1.653  2.7353  0.1412  1.2080
 4284SOL     OW24487   3.704   0.791   3.186 -0.0409 -0.6721 -0.5267
 4284SOL    HW124488   3.737   0.719   3.240  2.0501  1.2569  0.8043
 4284SOL    HW224489   3.640   0.748   3.130 -1.5207 -1.7335  2.0259
 4285SOL     OW24490   3.012   3.590   6.491  0.0240 -0.5944 -0.0471
 4285SOL    HW124491   3.071   3.600   6.565 -0.4523  0.3818  0.2092
 4285SOL    HW224492   3.063   3.641   6.427 -0.7926 -1.1798 -1.1614
 4286SOL     OW24493   4.640   0.982   5.529 -0.7640  0.0352  0.7042
 4286SOL    HW124494   4.658   0.896   5.568  0.8980  1.1616  2.3827
 4286SOL    HW224495   4.627   0.939   5.444  0.3997 -1.2665  1.1923
 4287SOL     OW24496   3.851   1.004   8.574 -0.1518  0.0379 -0.3197
 4287SOL    HW124497   3.865   1.051   8.656  1.8787 -1.3144  0.0912
 4287SOL    HW224498   3.930   0.950   8.567  0.0617  0.6579 -2.6587
 4288SOL     OW24499   2.050   0.032   0.033  0.0163  0.3651  0.6490
 4288SOL    HW124500   2.115   0.048  17.726  0.1701 -0.1186  0.6856
 4288SOL    HW224501   2.057   4.678   0.046  0.4893  0.1734 -1.0186
 4289SOL     OW24502   3.225   0.994   9.689  0.6141 -0.0666  0.2922
 4289SOL    HW124503   3.278   0.917   9.711 -0.0800  0.7630  4.8660
 4289SOL    HW224504   3.236   1.048   9.767 -1.1497  1.0105 -0.2158
 4290SOL     OW24505   3.393   0.117   7.026 -0.2303 -0.0014  0.5135
 4290SOL    HW124506   3.431   0.068   6.953  1.5439  1.0022  0.7916
 4290SOL    HW224507   3.301   0.090   7.017 -0.4323  1.4997 -1.8824
 4291SOL     OW24508   3.829   4.509   1.628 -0.2115  0.6889  0.1513
 4291SOL    HW124509   3.801   4.420   1.652  0.9623  0.5774  1.1269
 4291SOL    HW224510   3.759   4.556   1.673  0.8191  2.2104  0.1622
 4292SOL     OW24511   2.435   0.884   2.635  0.1660  0.3723 -0.2858
 4292SOL    HW124512   2.520   0.919   2.606  1.0670 -1.0805  0.5974
 4292SOL    HW224513   2.447   0.790   2.647 -0.4125  0.5029  1.3539
 4293SOL     OW24514   2.750   2.960   2.350 -0.4617 -0.0825 -0.6310
 4293SOL    HW124515   2.778   2.962   2.441  1.2117 -1.7373 -1.1069
 4293SOL    HW224516   2.815   3.009   2.301 -0.2041 -3.0656 -3.2452
 4294SOL     OW24517   3.589   3.134   6.540 -0.9488 -0.2308 -0.7782
 4294SOL    HW124518   3.652   3.123   6.611 -1.0453  1.0219 -0.5095
 4294SOL    HW224519   3.556   3.044   6.534 -0.7365 -0.4009  0.5957
 4295SOL     OW24520   3.823   0.587  17.071  0.2874 -0.2258  0.0214
 4295SOL    HW124521   3.752   0.555  17.015 -1.5323  1.1191  1.5691
 4295SOL    HW224522   3.880   0.510  17.071  0.6083  0.0117  0.2538
 4296SOL     OW24523   3.374   3.621   5.272 -0.1439  0.1565  0.6041
 4296SOL    HW124524   3.375   3.688   5.204  0.8910 -1.2853 -0.7998
 4296SOL    HW224525   3.400   3.675   5.347 -2.3114  2.3882 -0.2552
 4297SOL     OW24526   3.912   0.952   4.428  0.5892 -0.1334  0.0656
 4297SOL    HW124527   3.858   0.957   4.507  4.6864  0.1238  2.8458
 4297SOL    HW224528   3.989   0.905   4.459  1.1343 -0.1736 -1.3416
 4298SOL     OW24529   4.272   2.787   2.948  0.2781  0.1071  0.1601
 4298SOL    HW124530   4.215   2.787   3.025 -3.0591  1.5465 -2.2864
 4298SOL    HW224531   4.219   2.735   2.887  0.2645 -0.2298  0.4581
 4299SOL     OW24532   4.084   0.242   2.422  0.0062 -0.1237 -0.8628
 4299SOL    HW124533   4.133   0.262   2.342  1.9641  0.8799  0.6103
 4299SOL    HW224534   4.107   0.152   2.446  2.2919  0.1487 -2.0484
 4300SOL     OW24535   3.239   0.333   3.519  0.0518 -0.0448 -0.1055
 4300SOL    HW124536   3.148   0.319   3.492  0.5747  0.5546 -2.2170
 4300SOL    HW224537   3.227   0.348   3.612 -0.2995 -0.9646 -0.0081
 4301SOL     OW24538   0.686   3.508  10.624 -0.5119 -0.8492  0.0627
 4301SOL    HW124539   0.677   3.530  10.532 -0.3091  0.3903  0.3409
 4301SOL    HW224540   0.642   3.579  10.671  0.8639  0.2314 -0.2950
 4302SOL     OW24541   0.767   0.965   2.168  0.1080  0.4723  0.2257
 4302SOL    HW124542   0.764   1.022   2.091  1.1646  1.4913  0.9464
 4302SOL    HW224543   0.744   1.038   2.225  2.8470  1.8385 -0.4077
 4303SOL     OW24544   1.955   2.377   0.117  0.2018 -0.0784  0.5099
 4303SOL    HW124545   2.001   2.458   0.095 -2.1287  1.4409  1.2291
 4303SOL    HW224546   1.869   2.401   0.150  0.3399  0.6345  0.3584
 4304SOL     OW24547   1.186   3.486   6.785 -0.0100  0.2021 -0.3670
 4304SOL    HW124548   1.116   3.505   6.724  0.4520  1.1437 -0.5991
 4304SOL    HW224549   1.208   3.572   6.820 -0.0587 -0.0192  0.2167
 4305SOL     OW24550   2.792   1.470   8.196  0.2253 -0.3538 -0.1773
 4305SOL    HW124551   2.854   1.531   8.156 -0.6757  0.0452 -0.9653
 4305SOL    HW224552   2.714   1.489   8.143 -0.9311  1.4840  2.2132
 4306SOL     OW24553   0.411   1.495   2.072  0.0268  0.1094 -0.2556
 4306SOL    HW124554   0.406   1.560   2.142  0.4829 -1.2792  1.0663
 4306SOL    HW224555   0.436   1.410   2.107 -1.7230  0.1519  1.0792
 4307SOL     OW24556   2.937   4.431   9.540  0.5874 -0.0119 -0.3983
 4307SOL    HW124557   2.860   4.466   9.495 -0.4847 -0.1438  1.3044
 4307SOL    HW224558   2.961   4.363   9.477 -0.2431  0.6864 -1.4728
 4308SOL     OW24559   0.742   0.031  14.244  0.0136 -0.1048  0.0854
 4308SOL    HW124560   0.753   4.724  14.326 -0.5901 -0.8984 -0.2893
 4308SOL    HW224561   0.653   0.061  14.263 -1.5126 -4.1128 -0.6783
 4309SOL     OW24562   4.062   0.534   7.164  0.2761  0.4732  0.1793
 4309SOL    HW124563   4.018   0.524   7.248  0.5176 -1.5256  0.0694
 4309SOL    HW224564   4.128   0.598   7.191  0.3375  0.7161 -0.5350
 4310SOL     OW24565   1.190   2.965  15.644 -0.6584  0.1950  0.0836
 4310SOL    HW124566   1.176   3.057  15.619 -1.3950  0.5678  1.8231
 4310SOL    HW224567   1.100   2.936  15.633  0.3363 -2.3478 -1.3490
 4311SOL     OW24568   3.653   4.618   5.679 -0.5092  0.3518 -0.3280
 4311SOL    HW124569   3.733   4.570   5.700  0.1777  1.5906 -0.1302
 4311SOL    HW224570   3.620   4.588   5.594 -1.8928  2.3776 -0.5121
 4312SOL     OW24571   2.893   3.433   8.956  0.1953  0.6878  0.1560
 4312SOL    HW124572   2.825   3.477   9.008  1.1252  0.2904  1.7073
 4312SOL    HW224573   2.885   3.347   8.997 -0.1328  0.6085 -0.0764
 4313SOL     OW24574   3.710   3.245   4.226  0.4571  0.6168 -0.0639
 4313SOL    HW124575   3.754   3.219   4.145 -1.9101 -1.8310 -0.6106
 4313SOL    HW224576   3.770   3.227   4.298 -0.6787  0.6722  0.8941
 4314SOL     OW24577   4.276   4.327  12.670  0.4806  0.2652  0.1143
 4314SOL    HW124578   4.345   4.261  12.664  0.2035 -0.0201  0.0652
 4314SOL    HW224579   4.204   4.281  12.628  0.3140 -0.5128  1.2484
 4315SOL     OW24580   3.524   0.149  10.129  0.0376  0.4302  0.0013
 4315SOL    HW124581   3.530   0.084  10.060 -0.1408  1.8415 -1.3493
 4315SOL    HW224582   3.527   0.091  10.205 -2.4050 -0.4506 -0.5627
 4316SOL     OW24583   3.945   2.811   1.604  0.3135  0.1807  0.1488
 4316SOL    HW124584   3.937   2.717   1.586 -1.9002  0.3115  0.4796
 4316SOL    HW224585   3.911   2.819   1.693 -1.6472  1.4451 -0.7330
 4317SOL     OW24586   1.249   2.831   8.965  0.1289 -0.3064  0.2968
 4317SOL    HW124587   1.246   2.799   9.055 -1.0353 -0.3127  0.2606
 4317SOL    HW224588   1.184   2.773   8.926  3.3759 -4.2823  0.8237
 4318SOL     OW24589   0.846   1.358   9.668  0.1220  0.2541  0.4969
 4318SOL    HW124590   0.899   1.301   9.613  0.3068  0.1742  0.7556
 4318SOL    HW224591   0.897   1.355   9.749 -0.4239  0.7763  0.8606
 4319SOL     OW24592   1.763   1.059   2.829 -0.3683 -0.5092  0.0774
 4319SOL    HW124593   1.705   0.984   2.817 -2.6456  1.1101  0.9712
 4319SOL    HW224594   1.727   1.131   2.777  0.5506 -1.4065 -1.8405
 4320SOL     OW24595   1.552   3.684   6.924  0.3017 -0.0198  0.7080
 4320SOL    HW124596   1.597   3.648   6.848  0.2294  0.3649  0.4831
 4320SOL    HW224597   1.617   3.746   6.957  0.4475 -0.4039  1.1516
 4321SOL     OW24598   0.545   4.413   5.301 -0.7705 -0.1746  0.1377
 4321SOL    HW124599   0.563   4.401   5.208 -3.4726 -1.3777 -0.2072
 4321SOL    HW224600   0.576   4.329   5.336  0.5244  0.1834 -0.1573
 4322SOL     OW24601   0.992   2.269   5.075  0.1274  0.1799  0.2937
 4322SOL    HW124602   0.965   2.327   5.004 -2.0380 -0.1971  0.7811
 4322SOL    HW224603   1.033   2.202   5.021  1.3302  3.0066 -2.2786
 4323SOL     OW24604   0.181   0.537   7.934 -0.1482  0.5462  0.2521
 4323SOL    HW124605   0.252   0.538   7.999  0.0388 -0.2091  0.0603
 4323SOL    HW224606   0.218   0.480   7.866 -0.7920 -2.4397  2.3667
 4324SOL     OW24607   4.107   2.534   9.052  0.2634  0.0516  0.2440
 4324SOL    HW124608   4.168   2.558   8.982 -0.2744 -2.5490 -1.1401
 4324SOL    HW224609   4.131   2.442   9.062  0.9394  0.1255 -0.6686
 4325SOL     OW24610   0.676   0.931   4.672 -0.0137  0.0664 -0.1187
 4325SOL    HW124611   0.718   0.969   4.595 -0.2758  0.4583 -0.0640
 4325SOL    HW224612   0.690   0.837   4.655 -1.6612 -0.1084 -0.4593
 4326SOL     OW24613   2.042   0.686   1.232  0.0783 -0.1527 -0.2490
 4326SOL    HW124614   2.015   0.603   1.193  2.1104 -1.4705  1.1145
 4326SOL    HW224615   2.127   0.660   1.269 -0.5383 -0.9883  0.5880
 4327SOL     OW24616   3.747   3.158   7.180  0.3950  0.4803 -0.0108
 4327SOL    HW124617   3.661   3.137   7.144 -0.3942 -3.2552  4.1772
 4327SOL    HW224618   3.806   3.084   7.166  0.8062  0.9148 -0.6000
 4328SOL     OW24619   0.001   3.099   7.956  0.4940 -0.6476  0.2522
 4328SOL    HW124620   4.675   3.048   7.912 -1.5937  1.0978  1.3740
 4328SOL    HW224621   4.717   3.076   8.046  2.5751 -2.3247  0.4135
 4329SOL     OW24622   2.786   0.936   5.338 -0.0265 -0.1604 -0.2928
 4329SOL    HW124623   2.882   0.937   5.343 -0.1834  0.6563  2.7112
 4329SOL    HW224624   2.772   0.926   5.432 -1.2521  2.1349 -0.2466
 4330SOL     OW24625   1.151   3.971   3.707 -0.1765 -0.0993  0.5221
 4330SOL    HW124626   1.131   4.019   3.626  0.8283  0.6470  0.7177
 4330SOL    HW224627   1.230   4.018   3.734  0.3170  0.1445 -1.3672
 4331SOL     OW24628   4.535   2.448   6.170 -0.0889  0.5949 -0.4545
 4331SOL    HW124629   4.532   2.415   6.260 -2.4447 -1.5090 -1.3029
 4331SOL    HW224630   4.451   2.494   6.171 -0.7830 -0.6644  0.6044
 4332SOL     OW24631   2.386   3.010   5.738 -0.6999 -0.2481  0.4063
 4332SOL    HW124632   2.453   2.948   5.710 -1.5891 -1.9911  2.1492
 4332SOL    HW224633   2.338   2.955   5.800  0.1210 -1.2133  0.1903
 4333SOL     OW24634   4.693   2.389   5.930 -0.0891  0.0060 -0.4418
 4333SOL    HW124635   4.613   2.382   5.983  0.0830  1.5924  0.0097
 4333SOL    HW224636   0.022   2.413   5.989 -0.4795  0.4106 -0.1473
 4334SOL     OW24637   2.596   2.010  11.562 -0.2067  0.1975  0.5042
 4334SOL    HW124638   2.566   2.094  11.527  1.7348  0.3259 -0.9008
 4334SOL    HW224639   2.622   2.035  11.651  1.0456 -0.0306  0.1991
 4335SOL     OW24640   1.315   4.479   7.832 -0.6205  0.4530  0.8545
 4335SOL    HW124641   1.386   4.417   7.842 -0.9666  0.0628  0.9028
 4335SOL    HW224642   1.274   4.476   7.919 -0.0212  1.1197  1.1557
 4336SOL     OW24643   2.458   1.423   2.675 -0.5927 -0.2261  0.2362
 4336SOL    HW124644   2.376   1.419   2.626  0.4643 -0.6018 -1.5070
 4336SOL    HW224645   2.506   1.492   2.628  0.3482 -1.1174 -0.1310
 4337SOL     OW24646   2.861   0.630   7.302  0.0742 -0.4120  0.4086
 4337SOL    HW124647   2.776   0.674   7.299  0.4016  0.3483  1.7536
 4337SOL    HW224648   2.824   0.544   7.321 -2.3996  0.5475 -0.0275
 4338SOL     OW24649   4.348   2.728   9.313 -0.1027 -0.1335 -0.1048
 4338SOL    HW124650   4.350   2.633   9.325  0.9024 -0.1701 -0.5591
 4338SOL    HW224651   4.411   2.755   9.380 -1.4453 -2.1428  1.9406
 4339SOL     OW24652   1.888   2.465   0.777  0.0098 -0.2852  0.1543
 4339SOL    HW124653   1.976   2.431   0.764  0.6569  0.6734  2.1143
 4339SOL    HW224654   1.875   2.446   0.870 -0.3355  3.3408  0.8251
 4340SOL     OW24655   2.049   0.949   2.659 -0.1934  0.0192  0.1174
 4340SOL    HW124656   2.069   0.875   2.603 -0.5445  0.4629 -0.5903
 4340SOL    HW224657   1.963   0.967   2.622 -0.0244  0.1770 -0.1959
 4341SOL     OW24658   3.639   1.309   1.825  0.3132  0.4236 -0.1681
 4341SOL    HW124659   3.615   1.218   1.806  2.4674 -0.1465 -0.1041
 4341SOL    HW224660   3.648   1.356   1.743  0.2773  0.5963 -0.0741
 4342SOL     OW24661   0.439   1.429   6.583  0.6744 -0.0411 -0.0883
 4342SOL    HW124662   0.492   1.370   6.529 -1.1984 -2.2192  0.4405
 4342SOL    HW224663   0.377   1.460   6.516  1.0613  2.2016  0.5900
 4343SOL     OW24664   1.792   2.386   7.493 -0.1984  0.0729 -0.4265
 4343SOL    HW124665   1.760   2.468   7.529 -0.6172 -0.2240 -0.1290
 4343SOL    HW224666   1.841   2.368   7.573 -2.7681 -0.2612  1.0438
 4344SOL     OW24667   0.521   4.170   2.127  0.4199 -0.2133 -0.4513
 4344SOL    HW124668   0.472   4.236   2.176  2.4388 -0.3981  1.8134
 4344SOL    HW224669   0.569   4.122   2.194 -0.2431 -0.0257  0.1617
 4345SOL     OW24670   1.019   1.749   7.437  0.3920  0.1460 -0.4530
 4345SOL    HW124671   1.056   1.716   7.519 -0.7462  1.5383  0.6094
 4345SOL    HW224672   0.998   1.666   7.394 -1.4348  0.7841 -0.8139
 4346SOL     OW24673   1.622   3.878  17.299 -0.5835 -0.0825  0.4833
 4346SOL    HW124674   1.540   3.917  17.269 -1.0858 -0.4643  1.3558
 4346SOL    HW224675   1.673   3.882  17.218 -0.5866 -2.8539  0.3384
 4347SOL     OW24676   2.920   2.188  15.962 -0.1410 -0.1009  0.2886
 4347SOL    HW124677   2.858   2.241  16.013  0.9770 -0.5012  2.0439
 4347SOL    HW224678   2.897   2.097  15.977 -1.4236  0.4261  1.5195
 4348SOL     OW24679   0.146   0.203   1.682 -0.2708 -0.0150 -0.2161
 4348SOL    HW124680   0.101   0.283   1.709 -0.5482 -0.6033  1.0687
 4348SOL    HW224681   0.116   0.174   1.596  0.9210 -1.6220 -0.0932
 4349SOL     OW24682   2.602   2.705  16.768  0.8179  0.2803  0.3397
 4349SOL    HW124683   2.543   2.768  16.727 -0.4700  0.1193  1.9477
 4349SOL    HW224684   2.681   2.707  16.714  0.3396 -2.8214 -0.4749
 4350SOL     OW24685   1.273   1.515  10.784  0.2366  0.4513  0.0029
 4350SOL    HW124686   1.296   1.433  10.828  0.8882  1.6864  1.9729
 4350SOL    HW224687   1.305   1.574  10.853  0.9615 -1.1219  1.0310
 4351SOL     OW24688   0.959   0.908  16.843 -0.4975  0.0395  0.4620
 4351SOL    HW124689   0.927   0.994  16.871  1.4279  0.6812  0.7297
 4351SOL    HW224690   1.052   0.929  16.830 -0.2573 -1.1975  0.1193
 4352SOL     OW24691   4.513   2.639   8.361 -0.6213  0.3446 -0.2857
 4352SOL    HW124692   4.468   2.710   8.315 -2.1364 -0.9570 -0.8304
 4352SOL    HW224693   4.453   2.569   8.333  0.5019 -0.9897  0.6267
 4353SOL     OW24694   0.977   4.528   2.297 -0.0143  0.3636 -0.1753
 4353SOL    HW124695   0.952   4.565   2.382 -2.8039  1.0946 -1.2952
 4353SOL    HW224696   0.897   4.477   2.281  2.3512 -3.1072 -0.9275
 4354SOL     OW24697   3.364   0.087   6.599  0.1646  0.3621  0.0417
 4354SOL    HW124698   3.291   0.108   6.658 -0.7569 -2.1571 -0.1836
 4354SOL    HW224699   3.435   0.149   6.616  0.2635  0.9836 -2.6233
 4355SOL     OW24700   2.606   1.768   8.139  0.2022  0.1023  0.3238
 4355SOL    HW124701   2.529   1.723   8.104  1.0708 -1.6618  0.6808
 4355SOL    HW224702   2.561   1.840   8.183 -0.6445 -0.3355  0.1663
 4356SOL     OW24703   4.429   4.510   7.728 -0.1322  0.2517 -0.1653
 4356SOL    HW124704   4.435   4.480   7.819  2.1119 -1.8644 -1.0050
 4356SOL    HW224705   4.431   4.435   7.668 -0.2178  0.8078 -0.8695
 4357SOL     OW24706   3.947   4.631   3.307  0.0681  0.0537 -0.3235
 4357SOL    HW124707   4.028   4.640   3.257 -1.1063  1.1247 -2.0230
 4357SOL    HW224708   3.957   4.714   3.355 -0.3399 -1.1270  1.8079
 4358SOL     OW24709   0.853   1.497  16.385 -0.7160 -0.2002  0.1233
 4358SOL    HW124710   0.905   1.431  16.339  0.9850 -0.4178  2.3814
 4358SOL    HW224711   0.799   1.535  16.315 -0.8098  1.2727  1.0001
 4359SOL     OW24712   2.873   1.553  10.220 -0.3292 -0.0462 -0.4459
 4359SOL    HW124713   2.953   1.528  10.173 -0.5123  0.2784 -0.9318
 4359SOL    HW224714   2.806   1.488  10.198  0.3127 -1.3380  1.4153
 4360SOL     OW24715   0.048   2.730   5.207 -0.4040 -0.1661  0.8402
 4360SOL    HW124716   0.100   2.650   5.220  0.5179  0.8775  3.3544
 4360SOL    HW224717   0.089   2.772   5.131 -1.6283  1.3175  1.0186
 4361SOL     OW24718   1.353   1.740   5.107 -0.2286 -0.6376  0.0478
 4361SOL    HW124719   1.381   1.650   5.123  2.7106  0.5129  1.2571
 4361SOL    HW224720   1.431   1.787   5.077 -1.5947  0.6430 -1.5153
 4362SOL     OW24721   1.791   1.705   1.896  0.1026 -0.2569 -0.7912
 4362SOL    HW124722   1.758   1.707   1.806 -0.8974  0.0489 -0.4176
 4362SOL    HW224723   1.709   1.688   1.943 -1.2542 -0.1514 -3.1226
 4363SOL     OW24724   3.422   4.341   4.477 -0.3967 -0.0324  0.1127
 4363SOL    HW124725   3.510   4.368   4.452 -0.2740  0.7236  1.3758
 4363SOL    HW224726   3.418   4.373   4.567 -0.7297  0.8247 -0.2025
 4364SOL     OW24727   1.732   3.533   4.010  0.3189  0.3041  0.3000
 4364SOL    HW124728   1.733   3.544   4.105 -1.1324  0.3625  0.2992
 4364SOL    HW224729   1.646   3.499   3.987  0.1193  0.6658  0.4989
 4365SOL     OW24730   1.417   4.247   3.431  0.2159 -0.9763 -0.0906
 4365SOL    HW124731   1.510   4.238   3.454  0.2000 -0.6865  0.0827
 4365SOL    HW224732   1.372   4.244   3.515 -0.3397 -2.4063 -0.4302
 4366SOL     OW24733   1.574   3.232  10.823  0.7708 -0.1326  0.0160
 4366SOL    HW124734   1.614   3.317  10.842 -1.7926  0.8987  0.7429
 4366SOL    HW224735   1.604   3.215  10.734  0.7626  0.3661 -0.0804
 4367SOL     OW24736   3.056   4.372   7.264 -0.3585  0.1596  0.1565
 4367SOL    HW124737   3.032   4.371   7.356 -0.8478 -0.4620  0.0234
 4367SOL    HW224738   2.970   4.387   7.225  0.2355  0.2056 -1.1353
 4368SOL     OW24739   3.029   0.586   8.668  0.2436 -0.4199  0.3545
 4368SOL    HW124740   3.124   0.584   8.664  0.2331 -0.9484  0.3426
 4368SOL    HW224741   3.006   0.678   8.651  1.0639  0.1427  2.3544
 4369SOL     OW24742   0.472   3.008  10.006  0.2354  0.1076 -0.3229
 4369SOL    HW124743   0.566   2.989  10.008  0.0710 -0.6312  0.4477
 4369SOL    HW224744   0.460   3.103  10.004 -1.6859 -0.1579 -1.4553
 4370SOL     OW24745   4.134   1.761   2.989 -0.0702 -0.4960 -0.0559
 4370SOL    HW124746   4.076   1.685   3.002  2.8599 -2.5896  0.6575
 4370SOL    HW224747   4.199   1.731   2.926 -2.1818 -0.9890 -2.0255
 4371SOL     OW24748   1.067   2.793   5.786  0.4782 -1.2390  0.4661
 4371SOL    HW124749   1.145   2.843   5.810  0.5822 -0.5163 -1.3720
 4371SOL    HW224750   1.022   2.804   5.869  1.2583  1.0223  0.5706
 4372SOL     OW24751   1.320   1.155  15.995 -0.1269  0.1451  0.3942
 4372SOL    HW124752   1.232   1.120  16.010  0.0647 -1.2650 -1.8356
 4372SOL    HW224753   1.314   1.245  16.028  0.5938 -0.1277  1.2624
 4373SOL     OW24754   1.089   2.195   3.185  0.7370  0.3257 -0.0567
 4373SOL    HW124755   1.050   2.198   3.097  0.0319  0.0841  0.2460
 4373SOL    HW224756   1.181   2.179   3.165  1.5287  1.1823  3.0446
 4374SOL     OW24757   2.341   1.543   3.703 -0.8236  0.7919  0.4732
 4374SOL    HW124758   2.377   1.597   3.773  2.6221 -1.1678  0.1978
 4374SOL    HW224759   2.347   1.455   3.740  1.1483  0.9475  0.5125
 4375SOL     OW24760   2.684   3.309   7.417 -0.1188  0.3360  0.6067
 4375SOL    HW124761   2.698   3.383   7.358  0.1125 -0.1180  0.0831
 4375SOL    HW224762   2.605   3.347   7.456  0.9726  2.2969  0.8751
 4376SOL     OW24763   1.337   2.670   6.740  0.7167  0.7925  0.2585
 4376SOL    HW124764   1.345   2.736   6.809 -0.2154  2.5327 -1.3044
 4376SOL    HW224765   1.262   2.705   6.692  0.7227  1.4930  0.7710
 4377SOL     OW24766   3.683   3.814   3.270 -0.0824  0.1955  0.1087
 4377SOL    HW124767   3.771   3.782   3.252  0.5341  2.6743 -1.3506
 4377SOL    HW224768   3.692   3.894   3.323  0.8162  0.0720  0.1364
 4378SOL     OW24769   0.521   4.204   7.191  0.2119 -0.0563 -0.5784
 4378SOL    HW124770   0.493   4.273   7.131 -2.5761  2.6821  3.8430
 4378SOL    HW224771   0.557   4.141   7.129 -3.1557 -1.5859 -1.0102
 4379SOL     OW24772   0.666   3.736   4.649  0.0362 -0.2468  0.2593
 4379SOL    HW124773   0.712   3.661   4.612  3.8486  1.2476  1.9416
 4379SOL    HW224774   0.595   3.754   4.587 -0.1878  0.8739  0.8453
 4380SOL     OW24775   1.496   1.522  17.313  0.2113  0.4667  0.8992
 4380SOL    HW124776   1.585   1.537  17.346 -0.3716  1.7891  1.8681
 4380SOL    HW224777   1.513   1.505  17.221 -2.7543  0.6075  0.3285
 4381SOL     OW24778   0.410   1.996   9.885 -0.6302 -0.6040  0.1237
 4381SOL    HW124779   0.409   1.949   9.969 -0.0821 -1.8812 -0.5856
 4381SOL    HW224780   0.502   2.005   9.862 -0.9028 -1.0677 -1.1028
 4382SOL     OW24781   2.822   3.724   7.003  0.1198 -0.1521  0.1332
 4382SOL    HW124782   2.737   3.687   6.981  1.0741 -1.8446 -0.7579
 4382SOL    HW224783   2.860   3.750   6.919  0.4256  1.9542  0.9174
 4383SOL     OW24784   2.816   1.928   2.872 -0.2178 -0.7624  0.2497
 4383SOL    HW124785   2.760   1.858   2.839  0.3191 -1.7272  1.4123
 4383SOL    HW224786   2.835   1.883   2.954 -4.5429 -2.2989  0.3934
 4384SOL     OW24787   0.109   3.950   6.205 -0.2928 -0.3140 -0.6619
 4384SOL    HW124788   0.061   3.978   6.283  0.8296 -1.7161  0.5150
 4384SOL    HW224789   0.200   3.955   6.234 -0.5386 -0.2026  0.0932
 4385SOL     OW24790   2.222   2.380   3.064  0.4502 -0.6470 -0.5833
 4385SOL    HW124791   2.249   2.470   3.083  0.4705 -1.2305  2.2093
 4385SOL    HW224792   2.306   2.347   3.033  0.2392 -1.9036  0.1851
 4386SOL     OW24793   4.464   1.861   3.652  0.2329  0.2589 -0.7646
 4386SOL    HW124794   4.419   1.841   3.734  0.6681 -0.6035 -0.7403
 4386SOL    HW224795   4.422   1.941   3.621 -0.3343  1.2140  2.4074
 4387SOL     OW24796   0.238   1.665   3.074  0.0757 -0.8461 -0.1184
 4387SOL    HW124797   0.309   1.730   3.071  0.0603 -0.8532 -0.6230
 4387SOL    HW224798   0.203   1.656   2.985  1.6566  0.2672 -0.8573
 4388SOL     OW24799   1.309   3.459  11.175 -0.1899 -0.2253  0.7397
 4388SOL    HW124800   1.341   3.412  11.252 -0.5602 -0.5341  0.7023
 4388SOL    HW224801   1.278   3.537  11.221 -0.1599  0.5482 -0.5359
 4389SOL     OW24802   3.238   2.106   8.553 -0.1321  0.0321 -0.6043
 4389SOL    HW124803   3.203   2.127   8.466  1.7114  1.2486 -1.0537
 4389SOL    HW224804   3.223   2.012   8.554  0.6952 -0.1095 -1.1280
 4390SOL     OW24805   0.543   3.911   4.453 -0.3982  0.6927 -0.4021
 4390SOL    HW124806   0.607   3.981   4.444  2.0596 -1.2321  1.9553
 4390SOL    HW224807   0.522   3.893   4.361  0.1055  0.8467 -0.5469
 4391SOL     OW24808   0.880   3.195   5.933  0.3192 -0.3740 -0.0751
 4391SOL    HW124809   0.857   3.167   5.844 -1.1679 -0.9992  0.4904
 4391SOL    HW224810   0.962   3.147   5.942  0.5641  0.2088  0.7293
 4392SOL     OW24811   3.450   3.091   8.426 -0.5828  0.2321 -0.9282
 4392SOL    HW124812   3.416   3.022   8.369 -1.2174  0.6764 -1.0879
 4392SOL    HW224813   3.384   3.160   8.412 -1.8731 -1.0501 -1.1626
 4393SOL     OW24814   1.819   3.827   4.181 -0.4317  0.0710 -0.6608
 4393SOL    HW124815   1.813   3.797   4.090  0.9083  3.1736 -1.7612
 4393SOL    HW224816   1.741   3.784   4.215 -0.4576 -0.1371 -0.9819
 4394SOL     OW24817   4.178   3.299   8.934  0.3651  0.3719  0.1168
 4394SOL    HW124818   4.106   3.270   8.879  0.3462  2.5863 -1.0320
 4394SOL    HW224819   4.126   3.370   8.971  0.2414 -0.8637  2.3235
 4395SOL     OW24820   0.160   2.240   5.376 -0.1277  0.5372  0.4259
 4395SOL    HW124821   0.067   2.217   5.376  0.6729 -2.7486  0.1272
 4395SOL    HW224822   0.201   2.159   5.343 -1.1785  0.3670 -0.4619
 4396SOL     OW24823   1.216   4.531   5.516 -0.0690 -0.3982  0.1356
 4396SOL    HW124824   1.250   4.619   5.501 -1.8958 -0.2157 -3.0910
 4396SOL    HW224825   1.129   4.537   5.475  0.5196  1.2535 -0.8629
 4397SOL     OW24826   2.308   2.177   8.625  0.5033  0.3396  0.2892
 4397SOL    HW124827   2.247   2.172   8.698 -0.2088 -1.7555 -0.4772
 4397SOL    HW224828   2.389   2.200   8.672 -0.2800  0.9017  1.3578
 4398SOL     OW24829   0.932   0.109   7.806  0.0273  0.7344 -0.2821
 4398SOL    HW124830   0.977   0.151   7.733  0.3466 -1.7460 -1.5391
 4398SOL    HW224831   0.937   0.182   7.867 -0.6446 -0.8158  1.6322
 4399SOL     OW24832   0.828   0.289   9.136 -0.0883  0.4991 -0.4355
 4399SOL    HW124833   0.881   0.296   9.216 -0.5517 -3.1328  0.2313
 4399SOL    HW224834   0.868   0.212   9.096 -2.4374 -1.8059  1.5948
 4400SOL     OW24835   1.672   0.224   1.679 -0.2606  0.1098  0.4634
 4400SOL    HW124836   1.759   0.247   1.709 -0.8015 -1.5269  3.2372
 4400SOL    HW224837   1.663   0.139   1.722  3.6223 -0.5363 -0.0129
 4401SOL     OW24838   1.289   0.224   2.352 -0.0505  0.6122 -0.2658
 4401SOL    HW124839   1.374   0.241   2.391 -0.3206 -1.8374  1.4012
 4401SOL    HW224840   1.292   0.128   2.346  3.9222  0.6665  0.9100
 4402SOL     OW24841   3.822   0.384  11.467  0.1603 -0.1399  0.1766
 4402SOL    HW124842   3.732   0.356  11.487  0.9060 -0.2496  3.3294
 4402SOL    HW224843   3.808   0.467  11.421 -1.3899  0.1668  1.1749
 4403SOL     OW24844   3.668   0.642   5.405  0.2465 -0.0810  0.3526
 4403SOL    HW124845   3.636   0.625   5.494  2.5985 -0.0047  1.2106
 4403SOL    HW224846   3.676   0.737   5.400 -3.5616  0.2052 -0.3705
 4404SOL     OW24847   4.031   2.254  15.649 -0.0993  0.1851 -0.3351
 4404SOL    HW124848   4.065   2.280  15.564  0.5539  0.2287 -0.0598
 4404SOL    HW224849   4.114   2.255  15.697  0.7481  0.8633 -1.8315
 4405SOL     OW24850   4.716   2.981   5.097 -0.0057  0.0275  0.1264
 4405SOL    HW124851   4.656   2.909   5.081 -0.6933  0.6296 -0.0249
 4405SOL    HW224852   0.051   2.945   5.053  1.3653  1.3739  1.3534
 4406SOL     OW24853   4.465   0.263   5.081  0.4157  0.1327 -0.0350
 4406SOL    HW124854   4.468   0.335   5.017  0.6132  0.3161  0.1798
 4406SOL    HW224855   4.393   0.286   5.140 -0.3111  0.0494 -0.8840
 4407SOL     OW24856   2.652   1.540   2.204 -0.2259  0.4873 -0.1182
 4407SOL    HW124857   2.575   1.487   2.184  1.2987 -1.4257 -0.9448
 4407SOL    HW224858   2.723   1.486   2.168 -0.2844 -1.4361  2.6713
 4408SOL     OW24859   1.106   3.487   1.927  0.0289 -0.0115  0.3704
 4408SOL    HW124860   1.043   3.431   1.882  1.0186 -0.8473  0.0252
 4408SOL    HW224861   1.123   3.427   1.999 -3.4631  0.5647  1.6756
 4409SOL     OW24862   4.186   1.160  14.506  0.1103 -0.5811  0.0919
 4409SOL    HW124863   4.155   1.122  14.589  1.3172  1.7937  1.6155
 4409SOL    HW224864   4.222   1.243  14.537 -0.5197 -0.5282  0.6991
 4410SOL     OW24865   4.493   0.461  16.962 -0.0036  0.5575  0.4236
 4410SOL    HW124866   4.458   0.482  17.048  1.3131  1.8062  0.6703
 4410SOL    HW224867   4.549   0.385  16.975 -0.9275  0.0099  1.1425
 4411SOL     OW24868   3.072   3.015   3.011 -0.5069 -0.3920  0.2170
 4411SOL    HW124869   3.142   3.040   2.951 -1.7925 -0.5296 -1.3470
 4411SOL    HW224870   3.007   2.962   2.964  0.2460  0.7506 -2.0851
 4412SOL     OW24871   0.966   3.949   8.613 -0.0243  0.2807 -0.5433
 4412SOL    HW124872   0.939   3.861   8.589  2.4479 -0.4900 -0.5421
 4412SOL    HW224873   0.937   4.002   8.539 -1.6870  0.1161  0.0004
 4413SOL     OW24874   0.837   2.904   2.193  0.9651  0.0447 -0.0963
 4413SOL    HW124875   0.760   2.886   2.247  0.8022 -2.2311 -1.0621
 4413SOL    HW224876   0.899   2.908   2.265  1.6903  1.7274 -0.8010
 4414SOL     OW24877   0.806   3.780   0.749  0.2529  0.1079  0.6890
 4414SOL    HW124878   0.824   3.868   0.716  1.9945 -0.8624 -0.9372
 4414SOL    HW224879   0.800   3.725   0.671 -0.5378  1.2649 -0.0595
 4415SOL     OW24880   4.500   3.730  16.667 -0.0117 -0.6257  0.3591
 4415SOL    HW124881   4.559   3.783  16.721 -0.6888 -0.0921  0.5778
 4415SOL    HW224882   4.503   3.785  16.589 -1.8270  1.1100  1.5361
 4416SOL     OW24883   3.302   2.189   4.016 -0.2699 -0.5078 -0.2430
 4416SOL    HW124884   3.228   2.129   4.000 -0.4684 -0.9990  2.5077
 4416SOL    HW224885   3.282   2.220   4.104  1.6082 -1.0473  0.3697
 4417SOL     OW24886   3.687   1.163   8.764  0.0391  0.3210 -0.2583
 4417SOL    HW124887   3.642   1.127   8.687 -0.8358 -0.9614  0.8558
 4417SOL    HW224888   3.622   1.159   8.834 -2.8461 -1.3100 -3.0102
 4418SOL     OW24889   4.227   1.712  12.611 -0.1313 -0.1444 -0.0969
 4418SOL    HW124890   4.160   1.711  12.679 -0.1416  2.4227 -0.0454
 4418SOL    HW224891   4.219   1.622  12.580 -0.2204  0.4723 -1.8869
 4419SOL     OW24892   1.095   1.570   8.213 -0.0228 -0.4570 -0.1478
 4419SOL    HW124893   1.006   1.536   8.206  0.3321 -1.3933 -0.0772
 4419SOL    HW224894   1.123   1.572   8.122 -0.9597 -1.3237 -0.4615
 4420SOL     OW24895   4.161   1.083   8.941 -0.2241  0.9464 -0.1700
 4420SOL    HW124896   4.168   1.153   8.876 -0.4127 -0.7532 -2.0512
 4420SOL    HW224897   4.224   1.019   8.909 -0.0277  1.2726 -0.4324
 4421SOL     OW24898   0.069   2.279  15.951 -0.8349  0.0275  0.2215
 4421SOL    HW124899   4.735   2.311  16.000 -1.2393  0.8251 -0.9294
 4421SOL    HW224900   0.108   2.364  15.932 -0.2355 -1.2148 -4.1469
 4422SOL     OW24901   4.443   3.363  13.377  0.8338 -0.2360 -0.2731
 4422SOL    HW124902   4.441   3.330  13.467  2.1129 -0.3716 -0.3010
 4422SOL    HW224903   4.349   3.379  13.370  0.4908 -2.1339  0.0125
 4423SOL     OW24904   1.131   2.118   2.105 -0.7650  0.1399 -0.0503
 4423SOL    HW124905   1.113   2.097   2.197  1.4451 -0.7023  0.1919
 4423SOL    HW224906   1.119   2.032   2.066 -2.7064  0.7146 -0.6894
 4424SOL     OW24907   2.454   0.622   6.217  0.0110  0.3679  0.0013
 4424SOL    HW124908   2.519   0.654   6.155 -0.0998  2.2990  0.8849
 4424SOL    HW224909   2.385   0.685   6.197 -0.0482  0.0212 -0.8809
 4425SOL     OW24910   3.061   3.670   8.997  0.2758 -0.0640  0.5136
 4425SOL    HW124911   3.023   3.588   8.965 -1.4373  0.8170  0.3199
 4425SOL    HW224912   3.044   3.673   9.091  0.4934  0.0559  0.5487
 4426SOL     OW24913   2.603   3.260  13.505  0.1283  0.3178 -0.4772
 4426SOL    HW124914   2.529   3.206  13.478  1.3030 -1.0593 -0.9434
 4426SOL    HW224915   2.662   3.190  13.534 -3.0282 -1.6830  1.1770
 4427SOL     OW24916   0.889   0.363   7.922  0.4918  0.4344  0.5210
 4427SOL    HW124917   0.861   0.336   8.009 -1.0177  0.4133  0.0186
 4427SOL    HW224918   0.849   0.446   7.896  0.8519 -0.0227 -1.4686
 4428SOL     OW24919   2.723   2.085   6.819 -0.7098  0.1438 -0.4719
 4428SOL    HW124920   2.759   2.174   6.810  1.6232 -0.6481  0.9034
 4428SOL    HW224921   2.796   2.050   6.870  1.0193  0.5341 -2.7038
 4429SOL     OW24922   1.363   1.685   5.401 -0.6856  0.1944 -0.0064
 4429SOL    HW124923   1.320   1.701   5.317 -2.7997  1.0724  1.2293
 4429SOL    HW224924   1.420   1.762   5.407 -1.1786  0.4509  1.5547
 4430SOL     OW24925   1.781   4.399   7.751 -0.1277  0.3922 -0.4592
 4430SOL    HW124926   1.869   4.404   7.715  0.4975 -0.8700  0.8794
 4430SOL    HW224927   1.806   4.359   7.834  0.9195 -1.9947 -1.9330
 4431SOL     OW24928   3.677   1.054  12.309 -0.0298  0.1105 -0.5249
 4431SOL    HW124929   3.613   1.067  12.379  1.7154  0.2673  1.0349
 4431SOL    HW224930   3.629   1.083  12.231  1.4850 -0.6381 -1.7395
 4432SOL     OW24931   3.201   1.164   2.315  0.8671 -0.0652  0.1632
 4432SOL    HW124932   3.131   1.147   2.378 -0.1365 -0.3484 -1.0410
 4432SOL    HW224933   3.188   1.086   2.261 -2.0297  0.4506  0.0850
 4433SOL     OW24934   3.820   2.123   2.496 -0.1423  0.3886 -0.2978
 4433SOL    HW124935   3.768   2.131   2.416  0.5327  1.9828 -0.5674
 4433SOL    HW224936   3.877   2.051   2.467  0.1986  0.2155  0.8014
 4434SOL     OW24937   4.013   0.237  15.902 -0.2997  0.2407 -0.1951
 4434SOL    HW124938   4.095   0.188  15.895 -0.5376 -0.2780  0.6175
 4434SOL    HW224939   4.038   0.306  15.965 -0.3889 -0.9805  1.1913
 4435SOL     OW24940   2.509   0.598   0.541 -0.2105 -0.6136  0.2491
 4435SOL    HW124941   2.548   0.622   0.625 -1.9862  3.3724 -0.0583
 4435SOL    HW224942   2.518   0.503   0.551  2.3738 -0.4499 -0.7017
 4436SOL     OW24943   3.442   4.345   5.031  0.4914 -0.3694 -0.1442
 4436SOL    HW124944   3.359   4.355   5.078  1.5009 -2.1694  2.0392
 4436SOL    HW224945   3.490   4.425   5.052  1.3955 -0.7099 -0.9311
 4437SOL     OW24946   0.600   0.361   9.664  0.4822 -0.2794 -0.4040
 4437SOL    HW124947   0.621   0.395   9.577  0.1054 -1.0403 -0.7936
 4437SOL    HW224948   0.589   0.267   9.649 -0.7723 -0.5324  2.2848
 4438SOL     OW24949   3.241   0.083   8.723  0.1023  0.3079  0.0132
 4438SOL    HW124950   3.185   0.159   8.737  0.0266 -0.2799  2.8936
 4438SOL    HW224951   3.270   0.111   8.636 -1.3310 -0.1028 -0.6028
 4439SOL     OW24952   3.140   2.256   5.318  0.0648  0.1888 -0.0798
 4439SOL    HW124953   3.092   2.306   5.384 -0.7705 -2.6594  1.4566
 4439SOL    HW224954   3.120   2.311   5.242  0.4252  0.3975 -0.0254
 4440SOL     OW24955   4.478   1.932   8.010  0.2371 -0.0738  1.2061
 4440SOL    HW124956   4.529   1.915   8.089  1.6680 -1.4035 -0.0134
 4440SOL    HW224957   4.445   1.844   7.991 -2.6334  1.2417  0.0619
 4441SOL     OW24958   3.971   3.162   6.465 -0.3371  0.3315  0.0944
 4441SOL    HW124959   4.029   3.087   6.473  1.1869  1.3273 -1.7506
 4441SOL    HW224960   3.902   3.129   6.408  0.0246  1.6828 -1.1356
 4442SOL     OW24961   4.579   0.764   4.938 -0.1530  0.2154 -0.2102
 4442SOL    HW124962   4.672   0.754   4.921  0.4538  0.2199  3.0870
 4442SOL    HW224963   4.579   0.803   5.026 -2.6543  0.9034 -0.5148
 4443SOL     OW24964   2.199   3.477  16.126 -0.1361 -0.2849  0.0079
 4443SOL    HW124965   2.118   3.507  16.085 -0.0110  0.9916  0.6912
 4443SOL    HW224966   2.184   3.503  16.217  1.5606  1.4511 -0.2099
 4444SOL     OW24967   1.932   1.872  15.419  0.1372 -0.3445  0.2156
 4444SOL    HW124968   1.874   1.905  15.350  0.1151  0.5214  0.6471
 4444SOL    HW224969   2.013   1.892  15.372 -0.7513 -1.4637 -1.7764
 4445SOL     OW24970   3.330   3.811   2.466 -0.0111  0.3237  0.0631
 4445SOL    HW124971   3.424   3.819   2.481 -0.2044  1.6360  0.6001
 4445SOL    HW224972   3.330   3.826   2.371  1.2190 -0.5434 -0.0666
 4446SOL     OW24973   0.277   2.996   2.909  0.4075  0.0740  0.1679
 4446SOL    HW124974   0.247   2.961   2.993  0.5656  0.8374  0.5415
 4446SOL    HW224975   0.325   3.070   2.945  1.5590 -1.0300  0.9001
 4447SOL     OW24976   3.058   1.196   9.300  0.1255  0.3211 -0.0315
 4447SOL    HW124977   3.089   1.216   9.211 -0.3203  2.7672  0.3431
 4447SOL    HW224978   2.996   1.269   9.303 -0.8402 -0.6045  1.8174
 4448SOL     OW24979   2.829   2.982   6.381  0.0030  0.1002  0.1367
 4448SOL    HW124980   2.838   2.999   6.287  1.6080 -0.0057  0.2622
 4448SOL    HW224981   2.920   2.959   6.402  0.1445  0.6014  0.0598
 4449SOL     OW24982   1.510   4.315   5.970  0.0033 -0.3594 -0.1459
 4449SOL    HW124983   1.551   4.287   6.052  0.3436  1.6143  0.3583
 4449SOL    HW224984   1.428   4.266   5.972  0.4733 -1.1794 -1.5738
 4450SOL     OW24985   2.742   1.878   7.939  0.0908 -0.3875 -0.2156
 4450SOL    HW124986   2.712   1.828   8.016 -0.0280  1.3005  0.8352
 4450SOL    HW224987   2.676   1.851   7.876  0.5437 -0.6661 -0.5656
 4451SOL     OW24988   0.054   4.183   2.096 -1.1786 -0.4186 -0.0802
 4451SOL    HW124989   0.101   4.210   2.017  0.6193 -1.8021  0.5255
 4451SOL    HW224990   0.063   4.246   2.166  1.1445 -1.3366  0.4410
 4452SOL     OW24991   2.758   0.218  17.632 -0.2604 -0.1487 -0.0324
 4452SOL    HW124992   2.737   0.309  17.656 -1.5497 -0.5329  0.3011
 4452SOL    HW224993   2.817   0.237  17.559  1.5953 -1.0528  1.2379
 4453SOL     OW24994   0.494   1.888   2.769 -0.8010  0.0952 -0.0509
 4453SOL    HW124995   0.416   1.843   2.802 -0.4526 -2.0863 -2.2283
 4453SOL    HW224996   0.472   1.981   2.771  0.5264  0.4387 -1.1668
 4454SOL     OW24997   4.300   0.668   8.458  0.5977 -0.1513  0.3191
 4454SOL    HW124998   4.390   0.696   8.441  0.7893 -0.8871  0.1347
 4454SOL    HW224999   4.326   0.615   8.533 -2.1797 -0.1885  1.2630
 4455SOL     OW25000   3.163   2.831   8.899 -0.5706 -0.6247  0.1094
 4455SOL    HW125001   3.220   2.821   8.823 -0.1800 -0.3690  0.3677
 4455SOL    HW225002   3.086   2.867   8.855 -0.5948 -2.0500 -1.0099
 4456SOL     OW25003   3.050   0.751   4.559 -0.1567  0.3176  0.0351
 4456SOL    HW125004   2.960   0.783   4.554 -1.0059 -2.2611 -1.5414
 4456SOL    HW225005   3.091   0.824   4.513 -0.3244  0.9240  0.8528
 4457SOL     OW25006   4.667   1.790   7.229  0.2304 -0.3610 -0.0200
 4457SOL    HW125007   4.606   1.797   7.155 -0.8261 -1.8390  0.7225
 4457SOL    HW225008   4.679   1.878   7.265  1.3754 -0.4043 -0.3002
 4458SOL     OW25009   2.795   3.099   7.556  0.3606  0.3499 -0.0056
 4458SOL    HW125010   2.886   3.092   7.528  1.2546 -0.2346  3.0336
 4458SOL    HW225011   2.758   3.158   7.491 -0.2121 -0.5159 -0.4704
 4459SOL     OW25012   0.953   2.159   2.496 -0.3401 -0.0493 -0.0627
 4459SOL    HW125013   0.978   2.243   2.458 -0.7323  0.3582  0.5740
 4459SOL    HW225014   0.861   2.165   2.523 -0.7013  1.7332 -1.6697
 4460SOL     OW25015   1.661   4.439   4.436  0.6587  0.3110 -0.1281
 4460SOL    HW125016   1.583   4.401   4.476  2.5021 -3.1286  0.1576
 4460SOL    HW225017   1.665   4.523   4.481  1.0442  0.3076 -0.1566
 4461SOL     OW25018   1.932   0.948  11.452 -0.2273 -0.4130  0.0838
 4461SOL    HW125019   1.935   1.041  11.475  1.6036 -0.5596  0.4170
 4461SOL    HW225020   2.024   0.925  11.462  0.4822  2.4090  0.1453
 4462SOL     OW25021   0.428   0.099   4.007 -1.1325 -0.2549 -0.1606
 4462SOL    HW125022   0.483   0.021   4.011 -1.2295 -0.2886  0.4169
 4462SOL    HW225023   0.483   0.149   4.067  0.3004 -0.9473 -0.9067
 4463SOL     OW25024   2.340   3.051   7.421  0.2852 -0.5406 -0.3567
 4463SOL    HW125025   2.423   3.035   7.375  1.9431  3.8839  1.0884
 4463SOL    HW225026   2.363   3.000   7.499  1.1960  0.5700  0.1031
 4464SOL     OW25027   0.774   2.342   6.302  0.1853 -0.2911 -0.3494
 4464SOL    HW125028   0.685   2.364   6.275  0.7877  1.2724 -1.0568
 4464SOL    HW225029   0.827   2.404   6.251 -0.3220  1.7504  1.5999
 4465SOL     OW25030   0.175   4.218  16.538 -0.2288  0.7521  0.1953
 4465SOL    HW125031   0.087   4.187  16.561  0.3352 -0.7310  0.3645
 4465SOL    HW225032   0.209   4.250  16.621 -1.2293  2.5466 -0.0843
 4466SOL     OW25033   1.751   2.352   0.543  0.5137 -0.0968 -0.4856
 4466SOL    HW125034   1.661   2.385   0.548  0.6146  0.2012 -0.6568
 4466SOL    HW225035   1.789   2.369   0.629 -0.1934 -0.5486 -0.0807
 4467SOL     OW25036   3.333   0.187  15.221 -0.2729  0.2605  0.4409
 4467SOL    HW125037   3.268   0.116  15.221  1.2262 -1.1341  2.9816
 4467SOL    HW225038   3.345   0.185  15.316  3.2384 -1.7419 -0.0305
 4468SOL     OW25039   3.512   2.368   1.722 -0.0183  0.0610  0.4959
 4468SOL    HW125040   3.598   2.332   1.703  0.5921  1.9408 -0.2978
 4468SOL    HW225041   3.526   2.403   1.810  3.7393  2.3697 -1.0274
 4469SOL     OW25042   2.728   1.439   5.325  0.8263 -1.4315  0.1027
 4469SOL    HW125043   2.771   1.524   5.313 -0.3840 -0.6143  1.5221
 4469SOL    HW225044   2.639   1.461   5.353  1.3193  1.0942 -0.2822
 4470SOL     OW25045   1.860   1.978   4.341  0.8969 -0.3935  0.2635
 4470SOL    HW125046   1.905   1.951   4.421  1.1860 -2.3209 -0.5398
 4470SOL    HW225047   1.935   2.031   4.313  1.1929 -1.3726 -0.8335
 4471SOL     OW25048   2.603   4.145  17.510  0.4904  0.2268  0.3017
 4471SOL    HW125049   2.611   4.051  17.495  1.4005  0.5019 -1.0155
 4471SOL    HW225050   2.512   4.156  17.535 -0.0949 -3.1379 -0.3461
 4472SOL     OW25051   2.195   3.665   7.021  0.1898 -0.7117 -0.1276
 4472SOL    HW125052   2.126   3.731   7.009 -0.7645 -1.4690  1.1482
 4472SOL    HW225053   2.255   3.726   7.063 -2.4691  0.1744  2.4108
 4473SOL     OW25054   4.187   1.322   4.065  0.2521 -0.0189 -0.3245
 4473SOL    HW125055   4.192   1.229   4.043  0.5126  0.0140 -0.4141
 4473SOL    HW225056   4.153   1.358   3.983 -1.0199 -0.0901  0.1757
 4474SOL     OW25057   2.460   2.466   3.241  0.1753 -0.1875 -0.3832
 4474SOL    HW125058   2.516   2.543   3.247 -0.1599  0.0485 -0.2626
 4474SOL    HW225059   2.419   2.478   3.326 -0.3942  3.5931 -1.1531
 4475SOL     OW25060   3.625   3.139   4.890 -0.3833 -0.1091  0.2719
 4475SOL    HW125061   3.571   3.186   4.827  1.2268  0.7700 -0.4377
 4475SOL    HW225062   3.710   3.182   4.876 -1.2123  1.9099  1.4547
 4476SOL     OW25063   0.375   0.798   3.976  0.1853  0.0227 -0.3978
 4476SOL    HW125064   0.421   0.716   3.994  0.0880 -0.2846 -1.5826
 4476SOL    HW225065   0.427   0.864   4.022  2.1492 -2.0082  0.2975
 4477SOL     OW25066   2.010   4.638   4.969  0.4591 -0.1381 -0.0380
 4477SOL    HW125067   2.076   4.617   4.902  0.4482  1.0243 -0.4114
 4477SOL    HW225068   2.014   4.733   4.969 -2.0024 -0.0576 -4.0876
 4478SOL     OW25069   3.905   3.455   5.537 -0.8165 -0.4676 -0.0973
 4478SOL    HW125070   3.972   3.522   5.526 -2.2215  0.8210 -0.7211
 4478SOL    HW225071   3.854   3.480   5.460  0.1652 -0.7235 -0.8364
 4479SOL     OW25072   2.181   2.425   0.713  0.2828 -0.3271  0.3549
 4479SOL    HW125073   2.240   2.382   0.650 -0.1964  1.3125 -1.2241
 4479SOL    HW225074   2.217   2.393   0.796  0.1480 -1.4418 -0.0103
 4480SOL     OW25075   0.385   2.910   7.889 -0.4844  0.0101 -0.0795
 4480SOL    HW125076   0.473   2.941   7.871 -0.1865  0.1831  1.6453
 4480SOL    HW225077   0.332   2.976   7.843 -2.2484 -1.2992  0.0531
 4481SOL     OW25078   4.077   2.365   4.075 -0.0842  0.4662  0.4966
 4481SOL    HW125079   4.041   2.348   3.988  0.8069  0.6823  0.0864
 4481SOL    HW225080   4.077   2.282   4.124  2.0822 -0.7154 -1.4866
 4482SOL     OW25081   3.721   2.447  16.141 -0.1418  0.2221  0.1340
 4482SOL    HW125082   3.679   2.531  16.161  0.1987  0.3858  0.1701
 4482SOL    HW225083   3.651   2.398  16.183 -1.0392  0.4866 -1.0510
 4483SOL     OW25084   2.595   0.677   9.513 -0.4974  0.1386 -0.2431
 4483SOL    HW125085   2.597   0.624   9.433  0.4440 -1.5700  0.9059
 4483SOL    HW225086   2.629   0.759   9.479  1.3192 -0.7338 -0.4994
 4484SOL     OW25087   0.928   0.972   9.134  0.0370  0.4382 -0.7633
 4484SOL    HW125088   0.903   1.011   9.050 -0.5384  0.2058 -0.7040
 4484SOL    HW225089   1.021   0.989   9.127 -0.1602  0.8689 -2.2281
 4485SOL     OW25090   1.565   0.039   2.169 -0.3311  0.5323 -0.2242
 4485SOL    HW125091   1.519   4.732   2.238  0.1964  0.2123 -0.0936
 4485SOL    HW225092   1.491   0.075   2.120  0.4696  0.0821 -1.7772
 4486SOL     OW25093   4.174   3.830  17.760  0.0625  0.0984  0.4872
 4486SOL    HW125094   4.175   3.790   0.086  0.4622  1.1861  0.9798
 4486SOL    HW225095   4.195   3.919   0.025 -0.0638 -0.6451  3.1191
 4487SOL     OW25096   1.139   1.719  11.569  0.0769 -0.6148 -0.8451
 4487SOL    HW125097   1.129   1.729  11.474  1.3820 -0.1920 -0.9447
 4487SOL    HW225098   1.049   1.690  11.585  0.5316 -1.5575  0.0302
 4488SOL     OW25099   2.164   2.017   4.205 -0.1330 -0.1526  0.0684
 4488SOL    HW125100   2.204   2.033   4.290 -0.8737 -1.3130  0.6438
 4488SOL    HW225101   2.235   1.985   4.150 -0.2159  2.3475 -1.4711
 4489SOL     OW25102   3.034   1.611   0.161  0.6199 -0.4100  0.3461
 4489SOL    HW125103   3.083   1.661   0.226  0.8131 -0.8251  0.5173
 4489SOL    HW225104   2.951   1.659   0.157  0.0377 -1.4654 -0.1438
 4490SOL     OW25105   2.787   0.009   4.061 -0.7298 -0.2893  0.0666
 4490SOL    HW125106   2.822   0.010   4.150 -0.5775  2.0721 -0.0207
 4490SOL    HW225107   2.720   0.078   4.059  1.2418  1.5966 -1.7590
 4491SOL     OW25108   2.108   2.165   2.105 -0.0653  0.2646 -0.4127
 4491SOL    HW125109   2.112   2.220   2.027  0.0373  3.1807  1.6509
 4491SOL    HW225110   2.186   2.190   2.154  1.1882 -1.8268 -1.3423
 4492SOL     OW25111   2.417   3.079   4.518 -0.2291  0.1024 -0.3508
 4492SOL    HW125112   2.347   3.098   4.454 -0.6886  0.4686  0.2536
 4492SOL    HW225113   2.488   3.091   4.455  0.2068 -2.5285 -0.3560
 4493SOL     OW25114   0.537   2.966  13.281 -0.4058  0.4915  0.1838
 4493SOL    HW125115   0.559   2.887  13.232 -2.0459 -0.0671  0.3440
 4493SOL    HW225116   0.561   3.036  13.221 -0.6452  0.8049  0.4516
 4494SOL     OW25117   1.014   0.823   8.823  0.5079  0.4890 -0.4346
 4494SOL    HW125118   0.965   0.764   8.880  0.4411  2.2068  1.2740
 4494SOL    HW225119   1.098   0.803   8.865 -0.7242 -3.8548 -0.0915
 4495SOL     OW25120   3.094   1.823   5.146 -0.9341  0.1167 -0.0137
 4495SOL    HW125121   3.138   1.894   5.194 -2.1475 -1.5941  3.6283
 4495SOL    HW225122   3.055   1.874   5.075  0.2191  1.8090  0.5768
 4496SOL     OW25123   1.971   3.573  17.712  0.6019  0.1374 -0.5067
 4496SOL    HW125124   1.906   3.542  17.650  1.0772 -0.7874 -0.5387
 4496SOL    HW225125   1.943   3.528   0.031 -1.8088  0.9762 -0.8716
 4497SOL     OW25126   0.542   2.276   2.460  0.1761 -0.5994 -0.2140
 4497SOL    HW125127   0.566   2.206   2.399  1.7488  1.6172 -2.1178
 4497SOL    HW225128   0.508   2.327   2.386  1.9596 -0.7803 -1.1666
 4498SOL     OW25129   4.110   1.835  12.999 -0.7578 -0.4416  0.0437
 4498SOL    HW125130   4.155   1.911  12.962  3.0757 -2.8565 -0.2573
 4498SOL    HW225131   4.190   1.782  13.004 -2.8638 -3.3338  2.8481
 4499SOL     OW25132   2.727   4.598   5.520 -0.7494 -0.6795  0.5750
 4499SOL    HW125133   2.818   4.589   5.547 -1.2984 -0.2830  2.6081
 4499SOL    HW225134   2.690   4.510   5.527 -2.9081  0.0754 -1.5471
 4500SOL     OW25135   4.463   2.340  15.352 -0.3621 -0.6488  0.5195
 4500SOL    HW125136   4.527   2.292  15.299  1.4275  2.3531 -0.0987
 4500SOL    HW225137   4.520   2.387  15.413  0.5772 -1.9405  0.6434
 4501SOL     OW25138   2.590   1.122   4.222  0.2806 -0.8633 -0.1166
 4501SOL    HW125139   2.576   1.041   4.173 -2.1940 -1.5495  1.7370
 4501SOL    HW225140   2.667   1.095   4.272  0.5259 -0.0606 -0.0485
 4502SOL     OW25141   0.350   0.327   5.204  0.4277 -0.4802  0.2351
 4502SOL    HW125142   0.375   0.239   5.176 -0.2676 -0.0107 -1.8547
 4502SOL    HW225143   0.431   0.369   5.173 -1.2260  0.6836 -2.5187
 4503SOL     OW25144   3.122   1.114   8.941 -0.5253 -0.0573 -0.3142
 4503SOL    HW125145   3.142   1.165   8.863 -1.0913 -0.1999 -0.5558
 4503SOL    HW225146   3.122   1.179   9.011  0.1090 -2.2449  1.7195
 4504SOL     OW25147   4.607   1.319  11.844 -0.0324 -0.0179  0.0001
 4504SOL    HW125148   4.692   1.310  11.801  0.6372  2.7157  0.7866
 4504SOL    HW225149   4.625   1.391  11.904  0.7207  0.1880 -0.4744
 4505SOL     OW25150   1.555   1.342   0.436 -0.6666 -0.2552  0.1658
 4505SOL    HW125151   1.594   1.306   0.515  0.2652  2.0829  0.7629
 4505SOL    HW225152   1.609   1.302   0.368 -0.2779  1.3881 -0.4965
 4506SOL     OW25153   0.105   1.361   5.281  0.2289  0.2187 -0.0914
 4506SOL    HW125154   0.010   1.356   5.279  0.1568  2.1854 -1.5304
 4506SOL    HW225155   0.116   1.378   5.375 -0.2020 -2.5064  0.4470
 4507SOL     OW25156   3.374   0.507  15.110 -0.2701  0.1131 -0.5075
 4507SOL    HW125157   3.431   0.434  15.136 -0.1243 -0.0639 -1.3336
 4507SOL    HW225158   3.307   0.499  15.178 -1.0156  1.3547 -1.1156
 4508SOL     OW25159   2.295   1.915  11.349  0.6350 -0.5638  0.1072
 4508SOL    HW125160   2.348   1.932  11.427 -1.9262 -0.0814  1.7732
 4508SOL    HW225161   2.328   1.987  11.295 -0.4656 -1.0948 -1.2658
 4509SOL     OW25162   0.196   3.142   7.443  0.3678  0.0307 -0.9878
 4509SOL    HW125163   0.160   3.149   7.531  3.4990 -1.5924  0.4188
 4509SOL    HW225164   0.164   3.226   7.412 -0.8911  0.0538  0.4005
 4510SOL     OW25165   2.216   4.588   2.499 -0.4089 -0.1203 -0.2674
 4510SOL    HW125166   2.240   4.501   2.531 -0.5108  0.7325  2.1124
 4510SOL    HW225167   2.259   4.647   2.561 -0.8219 -1.2699  1.1132
 4511SOL     OW25168   3.775   3.523   8.774 -0.0082  0.3025  0.1702
 4511SOL    HW125169   3.770   3.486   8.862  2.0949 -0.4203  0.0022
 4511SOL    HW225170   3.869   3.539   8.764  0.1039 -1.8207 -2.1470
 4512SOL     OW25171   3.883   1.898   2.964 -0.6158 -0.3936 -0.5909
 4512SOL    HW125172   3.978   1.885   2.968 -0.8213 -2.1955 -1.7044
 4512SOL    HW225173   3.873   1.888   2.869  3.1769  3.7027 -1.4472
 4513SOL     OW25174   3.428   1.606   5.699 -0.1235 -0.1758  0.5134
 4513SOL    HW125175   3.457   1.515   5.694 -0.7839 -0.3954  0.7058
 4513SOL    HW225176   3.345   1.608   5.651  0.6353  0.2146 -0.7900
 4514SOL     OW25177   2.509   1.002  11.789 -0.1632 -0.0319 -0.1454
 4514SOL    HW125178   2.482   0.983  11.879 -2.1382 -1.3899 -1.0231
 4514SOL    HW225179   2.477   0.927  11.740 -0.2892  0.4751 -0.8342
 4515SOL     OW25180   0.065   0.507   6.087 -0.1666 -0.9194  0.4411
 4515SOL    HW125181   0.090   0.564   6.160 -0.8923  1.0269 -0.8696
 4515SOL    HW225182   0.147   0.469   6.056 -0.3388 -0.7018 -0.2667
 4516SOL     OW25183   2.728   3.032   8.630 -0.3600 -0.0892 -0.5559
 4516SOL    HW125184   2.689   3.103   8.681  0.7023  0.0032  0.1349
 4516SOL    HW225185   2.661   3.001   8.569 -1.1654  0.3927  0.0795
 4517SOL     OW25186   0.481   3.333   9.716 -0.3680 -0.6911 -0.1305
 4517SOL    HW125187   0.424   3.268   9.758 -0.8425 -1.5200 -2.0302
 4517SOL    HW225188   0.460   3.413   9.764 -0.8908 -0.1866 -1.2004
 4518SOL     OW25189   4.636   2.348  11.400  0.1279 -0.1559  0.5814
 4518SOL    HW125190   4.549   2.387  11.406  0.3938  0.8704 -2.2633
 4518SOL    HW225191   4.691   2.426  11.414  1.3527 -0.6828 -1.3754
 4519SOL     OW25192   0.580   1.120   6.516 -0.3516 -0.2643  0.1682
 4519SOL    HW125193   0.666   1.130   6.558  0.2184  1.6098 -1.4483
 4519SOL    HW225194   0.587   1.187   6.448  1.9974  1.0466  1.6652
 4520SOL     OW25195   2.451   2.696  15.884 -0.2913  0.2404 -0.1722
 4520SOL    HW125196   2.378   2.709  15.824 -1.0147  0.6233  0.7771
 4520SOL    HW225197   2.465   2.601  15.875 -0.4746  0.0733  1.1934
 4521SOL     OW25198   4.730   0.181   5.129 -0.0650  0.3964 -0.0559
 4521SOL    HW125199   0.033   0.131   5.060  0.3986  0.0944  0.4649
 4521SOL    HW225200   4.646   0.193   5.084  0.0530  0.1542 -0.3417
 4522SOL     OW25201   0.908   0.517  10.862 -0.0695 -0.3218 -0.1572
 4522SOL    HW125202   0.918   0.599  10.911 -1.3734 -0.5144  0.4303
 4522SOL    HW225203   0.831   0.476  10.902 -0.5163  0.2349 -0.4432
 4523SOL     OW25204   2.327   0.556   3.399 -0.0928 -0.1303  0.5130
 4523SOL    HW125205   2.360   0.538   3.487  0.7854 -0.3364  0.1394
 4523SOL    HW225206   2.318   0.651   3.411  0.0608  0.0426 -0.7625
 4524SOL     OW25207   1.053   1.261   7.897  0.0064 -0.1221 -0.2274
 4524SOL    HW125208   1.100   1.179   7.880  1.7803  0.3837  2.1690
 4524SOL    HW225209   0.967   1.236   7.930  0.0385 -0.0420 -0.0841
 4525SOL     OW25210   3.977   0.041  10.487  0.4632  0.2906 -0.0575
 4525SOL    HW125211   3.931   0.113  10.529  2.6726 -0.2626  3.3553
 4525SOL    HW225212   4.031   0.079  10.418  1.0261  0.2829  0.3794
 4526SOL     OW25213   2.434   1.334  13.103 -0.0104 -0.0531  0.7561
 4526SOL    HW125214   2.439   1.331  13.199 -0.4167  1.9182  0.8523
 4526SOL    HW225215   2.409   1.424  13.081  0.1927 -0.2533 -0.2821
 4527SOL     OW25216   2.765   0.661   6.025 -0.4279  0.8179 -0.3083
 4527SOL    HW125217   2.855   0.683   6.050  0.0099 -1.3312  0.0366
 4527SOL    HW225218   2.734   0.739   5.979 -1.0227 -1.2234 -3.3769
 4528SOL     OW25219   0.239   2.314   5.869  0.2963 -0.3291 -0.2570
 4528SOL    HW125220   0.171   2.283   5.928  1.7736 -1.3622  0.9088
 4528SOL    HW225221   0.197   2.379   5.812  0.6935 -0.1604 -0.3646
 4529SOL     OW25222   2.105   4.037   4.856  0.2434  0.0083 -0.5163
 4529SOL    HW125223   2.085   3.984   4.933  3.4942 -0.7732 -0.2448
 4529SOL    HW225224   2.035   4.018   4.793  0.1854  2.3909 -1.1757
 4530SOL     OW25225   2.234   0.508  10.260  0.0170 -0.1076 -0.0258
 4530SOL    HW125226   2.328   0.521  10.248 -0.3609  0.7091 -2.1742
 4530SOL    HW225227   2.215   0.477  10.171  1.5380 -0.6825 -0.1429
 4531SOL     OW25228   3.925   1.024   9.062  0.5367  0.3055 -0.5951
 4531SOL    HW125229   3.944   0.936   9.095  0.7481  0.6332  0.1454
 4531SOL    HW225230   4.012   1.048   9.030  1.1967 -0.9146  0.2916
 4532SOL     OW25231   2.211   2.886   2.502 -0.4503  0.3980  0.0847
 4532SOL    HW125232   2.148   2.955   2.521  2.0037  2.7624 -0.2454
 4532SOL    HW225233   2.165   2.804   2.520  0.6597 -0.2462  0.0346
 4533SOL     OW25234   2.734   0.862   9.238 -0.2693  0.0015 -0.3533
 4533SOL    HW125235   2.740   0.948   9.197 -3.5341 -0.8713 -2.6211
 4533SOL    HW225236   2.822   0.850   9.274 -0.6117 -0.6780  0.2764
 4534SOL     OW25237   3.143   3.488   5.426  0.2465  0.4130 -0.1015
 4534SOL    HW125238   3.108   3.571   5.395 -0.9166  1.1384  3.1135
 4534SOL    HW225239   3.208   3.473   5.358  0.7592 -1.2845  0.7435
 4535SOL     OW25240   2.162   2.896   6.736 -0.3153 -0.4406  0.4388
 4535SOL    HW125241   2.210   2.941   6.666 -1.0042 -0.8721 -0.3049
 4535SOL    HW225242   2.205   2.811   6.740  2.3632  1.0367  2.8925
 4536SOL     OW25243   1.209   4.527   3.210 -0.1498  0.6846 -0.1824
 4536SOL    HW125244   1.122   4.508   3.173  0.2415  0.1979 -0.8572
 4536SOL    HW225245   1.232   4.615   3.182  1.9926  1.0718  2.8214
 4537SOL     OW25246   3.946   2.464  11.706 -0.3984  0.3243 -0.0728
 4537SOL    HW125247   3.857   2.432  11.724 -0.8605  0.2607 -2.5111
 4537SOL    HW225248   3.950   2.546  11.755 -2.9502  0.6558 -0.4151
 4538SOL     OW25249   3.575   0.477   3.954 -0.5519 -0.6580  0.6507
 4538SOL    HW125250   3.669   0.466   3.945 -0.2814  0.5420  1.9289
 4538SOL    HW225251   3.562   0.571   3.968 -2.7211 -0.6234 -1.5478
 4539SOL     OW25252   1.150   1.484   8.877  0.7454  0.1026 -0.2101
 4539SOL    HW125253   1.192   1.504   8.794  0.8532 -3.1666 -0.9263
 4539SOL    HW225254   1.077   1.546   8.878 -0.2917 -1.1188 -0.0545
 4540SOL     OW25255   0.099   3.301   0.384 -0.4012 -0.0832  0.0042
 4540SOL    HW125256   0.049   3.292   0.465 -1.6081 -2.5292 -1.0135
 4540SOL    HW225257   0.183   3.323   0.424 -0.8730  0.6258  0.6034
 4541SOL     OW25258   0.965   1.869   7.187 -0.4175 -0.1770  0.0009
 4541SOL    HW125259   0.925   1.792   7.146  1.2452 -0.4612 -1.0695
 4541SOL    HW225260   1.001   1.828   7.265  0.1760 -2.5854 -1.5296
 4542SOL     OW25261   3.309   3.049   9.529  0.3996  0.4271 -0.0936
 4542SOL    HW125262   3.389   3.005   9.500 -0.3239 -0.1633 -1.2105
 4542SOL    HW225263   3.265   3.044   9.444  0.7610 -0.9281 -0.2092
 4543SOL     OW25264   3.909   3.699   6.548 -0.1036 -0.1060 -0.6156
 4543SOL    HW125265   3.985   3.757   6.554 -1.0757  0.8543  2.0506
 4543SOL    HW225266   3.944   3.610   6.551 -0.7498 -0.3133  0.8083
 4544SOL     OW25267   1.838   1.657   7.107 -0.0574  0.0704 -0.0430
 4544SOL    HW125268   1.863   1.748   7.091 -0.1454  0.2759  0.9456
 4544SOL    HW225269   1.870   1.644   7.196  0.6830  2.7921  0.0948
 4545SOL     OW25270   2.889   4.052  17.121 -0.1721 -0.1578  0.6635
 4545SOL    HW125271   2.930   4.119  17.067 -0.5713  0.2181  0.8253
 4545SOL    HW225272   2.810   4.096  17.154 -1.0452  0.8038 -2.6872
 4546SOL     OW25273   4.614   1.100  13.978  0.5864  0.0233  0.3125
 4546SOL    HW125274   4.682   1.156  14.018 -0.2871  0.6423  0.9399
 4546SOL    HW225275   4.548   1.118  14.045  0.3016  0.6371 -0.1281
 4547SOL     OW25276   4.037   2.319   4.541 -0.8902 -0.1497  0.1292
 4547SOL    HW125277   4.120   2.365   4.552 -1.3647  0.7581 -0.1095
 4547SOL    HW225278   4.063   2.228   4.559 -0.5579 -0.0567  0.1284
 4548SOL     OW25279   3.736   1.399   8.630  0.0404  0.0557  0.4930
 4548SOL    HW125280   3.725   1.309   8.660 -0.8950 -0.6504 -2.0550
 4548SOL    HW225281   3.659   1.444   8.664 -1.3059 -2.7816  1.2259
 4549SOL     OW25282   0.152   4.620  14.795 -0.1388 -0.5041  0.3219
 4549SOL    HW125283   0.124   4.689  14.856  1.5261 -0.1990  0.7278
 4549SOL    HW225284   0.139   4.538  14.843 -0.0594 -0.6745  0.0528
 4550SOL     OW25285   1.315   0.672   1.454 -0.4457 -0.0542  0.3715
 4550SOL    HW125286   1.278   0.644   1.370  1.9656  0.9040 -1.0062
 4550SOL    HW225287   1.249   0.638   1.514 -0.5899 -0.3292  0.0595
 4551SOL     OW25288   2.351   1.764  15.712 -0.4939 -0.3967 -0.5467
 4551SOL    HW125289   2.389   1.679  15.692  0.5139 -0.0968  0.0780
 4551SOL    HW225290   2.387   1.809  15.636 -0.0170  0.6081  0.2780
 4552SOL     OW25291   3.503   0.653  13.070  0.1727 -0.3034  0.5228
 4552SOL    HW125292   3.518   0.717  13.000  1.6345 -0.4350  0.7027
 4552SOL    HW225293   3.585   0.655  13.120  0.7752 -1.5158 -0.4234
 4553SOL     OW25294   1.839   2.450   5.111  0.0278  0.4985 -0.0856
 4553SOL    HW125295   1.912   2.394   5.084 -0.3140  0.0144  0.0072
 4553SOL    HW225296   1.867   2.464   5.201  1.0151  0.8766 -0.4395
 4554SOL     OW25297   2.784   0.837   1.966  0.2574 -0.1046 -0.0742
 4554SOL    HW125298   2.721   0.892   1.921  1.9495  1.7266 -0.2193
 4554SOL    HW225299   2.856   0.895   1.993  0.3659  0.1689 -0.9571
 4555SOL     OW25300   3.421   3.799   5.512  0.0116  0.4715 -0.1099
 4555SOL    HW125301   3.332   3.808   5.545 -1.4690 -0.5866 -3.8956
 4555SOL    HW225302   3.456   3.887   5.529 -0.8898  0.5885  1.1438
 4556SOL     OW25303   2.367   3.566   3.190 -0.0303 -0.3313 -0.2625
 4556SOL    HW125304   2.318   3.648   3.180  0.3642 -0.3229 -2.2520
 4556SOL    HW225305   2.399   3.555   3.100  0.9923  2.1031 -0.2152
 4557SOL     OW25306   2.580   0.186   7.515  0.1223  0.3324 -0.4521
 4557SOL    HW125307   2.637   0.111   7.532 -0.2286  0.2933  0.5660
 4557SOL    HW225308   2.525   0.175   7.593  0.0016  1.4378 -0.3767
 4558SOL     OW25309   0.205   2.490   5.253 -0.2304 -0.5295  0.6822
 4558SOL    HW125310   0.295   2.465   5.232  0.1838 -1.5688  3.6682
 4558SOL    HW225311   0.175   2.400   5.269  1.5147 -1.3183 -0.4479
 4559SOL     OW25312   4.368   1.539   8.724 -0.1926  0.3409  0.0376
 4559SOL    HW125313   4.463   1.523   8.718 -0.1869  0.7170 -0.9928
 4559SOL    HW225314   4.364   1.594   8.802  2.0204 -0.2906  0.5994
 4560SOL     OW25315   1.857   2.371  12.065 -0.4509  0.0402  0.4587
 4560SOL    HW125316   1.815   2.312  12.127 -1.0787 -0.2502 -0.2476
 4560SOL    HW225317   1.837   2.453  12.111 -0.4504  0.5555 -0.4686
 4561SOL     OW25318   4.095   1.468   4.326 -0.4200 -0.2534  0.2641
 4561SOL    HW125319   4.146   1.416   4.264  1.1601 -0.5359  1.8242
 4561SOL    HW225320   4.074   1.401   4.391 -1.6630  0.8642  1.0138
 4562SOL     OW25321   4.084   3.663   8.221  0.3063 -0.0023 -0.4843
 4562SOL    HW125322   4.113   3.676   8.131  1.3461 -1.7534 -0.4154
 4562SOL    HW225323   4.137   3.730   8.265  0.7868 -0.1884 -0.7793
 4563SOL     OW25324   2.930   4.360   2.251 -0.0642  0.0526 -0.1768
 4563SOL    HW125325   2.993   4.406   2.306 -1.1854  0.6790  0.5921
 4563SOL    HW225326   2.850   4.372   2.302 -0.9272  0.6098 -1.6790
 4564SOL     OW25327   4.665   3.859  10.930 -0.6247  0.2022 -0.5715
 4564SOL    HW125328   4.688   3.947  10.902 -0.1498  0.0265 -0.7320
 4564SOL    HW225329   0.010   3.817  10.923 -0.3010  1.3217 -3.1332
 4565SOL     OW25330   2.163   0.074   8.500  0.5377  0.0808  0.4210
 4565SOL    HW125331   2.216   0.088   8.422  1.6413 -0.3361  1.0946
 4565SOL    HW225332   2.096   0.138   8.478  1.0600  0.3378 -0.4346
 4566SOL     OW25333   0.804   1.225   7.954 -0.4692  0.4705 -0.1272
 4566SOL    HW125334   0.791   1.198   7.863 -0.0621 -1.9028  0.5371
 4566SOL    HW225335   0.725   1.277   7.969  1.3367  2.1522  3.5941
 4567SOL     OW25336   4.378   4.610  17.693 -0.2842  0.4420  0.0964
 4567SOL    HW125337   4.472   4.613  17.676 -0.3142 -0.0085 -0.1459
 4567SOL    HW225338   4.369   4.697  17.731 -0.7782  0.4154  0.0301
 4568SOL     OW25339   2.626   3.691   9.876 -0.0868  0.3281 -0.3378
 4568SOL    HW125340   2.544   3.648   9.853 -0.1859 -0.4304  1.4058
 4568SOL    HW225341   2.641   3.757   9.809 -0.4961  0.7987  0.0301
 4569SOL     OW25342   2.130   1.719  12.898 -0.2444 -0.0090 -0.2452
 4569SOL    HW125343   2.100   1.651  12.958  0.3238 -0.5361 -0.5517
 4569SOL    HW225344   2.172   1.783  12.956  0.3830  1.7919 -2.6571
 4570SOL     OW25345   1.389   3.335   7.162  0.1647 -0.2485 -0.2231
 4570SOL    HW125346   1.363   3.427   7.171  2.1164  0.3744 -0.9711
 4570SOL    HW225347   1.465   3.353   7.106  1.1593  0.2658  1.2954
 4571SOL     OW25348   3.404   3.227   6.737  0.2500 -0.1995  0.2800
 4571SOL    HW125349   3.481   3.191   6.693  2.2616  2.7115  1.4429
 4571SOL    HW225350   3.384   3.300   6.679  2.3208 -2.0891 -2.8042
 4572SOL     OW25351   3.361   1.013   7.624 -0.5589 -0.6087 -0.0228
 4572SOL    HW125352   3.324   1.004   7.536  1.6545 -1.5170 -0.8580
 4572SOL    HW225353   3.285   1.058   7.663  0.3731  1.5116 -0.6194
 4573SOL     OW25354   0.224   3.404  10.310  0.0489 -0.6647  0.1011
 4573SOL    HW125355   0.230   3.311  10.288  0.7618 -0.3443 -1.0963
 4573SOL    HW225356   0.301   3.417  10.365 -0.0742  0.6466 -0.0526
 4574SOL     OW25357   3.514   0.463   5.902 -0.1527 -0.4114  0.1076
 4574SOL    HW125358   3.558   0.524   5.960 -2.5587  0.0372  1.4756
 4574SOL    HW225359   3.443   0.439   5.962  0.3953 -1.0771  0.4826
 4575SOL     OW25360   0.553   3.077   2.153 -0.3344 -0.0930 -0.1261
 4575SOL    HW125361   0.625   3.111   2.205 -2.2769  2.9802  0.5780
 4575SOL    HW225362   0.478   3.100   2.208 -0.5928 -1.0543 -0.0782
 4576SOL     OW25363   3.191   1.059   4.909 -0.4757  0.0358 -0.2768
 4576SOL    HW125364   3.277   1.087   4.942 -1.1182  0.8819  0.6689
 4576SOL    HW225365   3.148   1.018   4.983 -1.2213  1.8949  0.3207
 4577SOL     OW25366   1.755   0.472   3.615 -0.5371 -0.3838 -0.3507
 4577SOL    HW125367   1.700   0.410   3.663 -1.6359 -0.6881 -1.9847
 4577SOL    HW225368   1.693   0.545   3.608  1.7515  1.7418  1.8613
 4578SOL     OW25369   3.644   2.387  16.671  0.3262  0.1961  0.5055
 4578SOL    HW125370   3.737   2.395  16.653  0.2389  0.9678  0.4198
 4578SOL    HW225371   3.614   2.472  16.641 -0.1754 -0.6137 -1.2790
 4579SOL     OW25372   3.949   1.785   6.115 -0.0665 -0.5263  0.5641
 4579SOL    HW125373   3.888   1.788   6.041 -0.6200 -2.7398  0.9175
 4579SOL    HW225374   3.965   1.691   6.119  1.4157 -0.3674 -1.4564
 4580SOL     OW25375   2.704   3.214   6.464 -0.0248 -0.3710 -0.0867
 4580SOL    HW125376   2.722   3.121   6.446  1.4036 -0.2741  0.7902
 4580SOL    HW225377   2.642   3.197   6.536 -0.2867  0.3253 -0.1549
 4581SOL     OW25378   4.198   1.856   6.194  0.0072 -0.0465 -0.0324
 4581SOL    HW125379   4.120   1.837   6.142 -0.1682  0.5541  0.0105
 4581SOL    HW225380   4.170   1.934   6.242 -0.3731  1.0695 -2.0666
 4582SOL     OW25381   2.837   3.810   6.687 -0.7600 -0.1287  0.2849
 4582SOL    HW125382   2.802   3.871   6.622 -0.8328 -0.1706  0.2849
 4582SOL    HW225383   2.894   3.752   6.638  1.1345  1.3304  0.7840
 4583SOL     OW25384   0.841   1.095   5.134  0.8903 -0.1953  0.4838
 4583SOL    HW125385   0.816   1.018   5.084  4.0371 -2.6220  2.6629
 4583SOL    HW225386   0.796   1.084   5.217  1.1689  0.5686  0.7391
 4584SOL     OW25387   3.578   3.078  11.732  0.0017  0.4481  0.2436
 4584SOL    HW125388   3.669   3.064  11.759  0.1188  0.6935 -0.0153
 4584SOL    HW225389   3.537   3.107  11.813  1.2585 -1.1760  1.4627
 4585SOL     OW25390   1.111   3.908   4.393 -0.3162  0.0920 -0.5273
 4585SOL    HW125391   1.091   3.850   4.320  0.8593  0.7991 -1.4072
 4585SOL    HW225392   1.077   3.866   4.473 -0.9754  1.0011 -0.3356
 4586SOL     OW25393   3.720   1.575   8.340 -0.0858 -0.1235  0.1359
 4586SOL    HW125394   3.663   1.510   8.299 -1.2794  0.8629  0.2226
 4586SOL    HW225395   3.793   1.518   8.360 -0.5717 -1.2256 -1.2412
 4587SOL     OW25396   1.357   1.889  12.010 -0.2663  1.0681 -0.7211
 4587SOL    HW125397   1.313   1.838  12.078  2.9459 -2.0300 -0.9811
 4587SOL    HW225398   1.351   1.830  11.935  1.6146  0.6703 -0.5751
 4588SOL     OW25399   3.691   1.928  10.529  0.4929  0.9207  0.5004
 4588SOL    HW125400   3.636   1.980  10.588 -1.0590 -0.7879  0.5591
 4588SOL    HW225401   3.716   1.854  10.584  0.0387 -0.2802 -0.8832
 4589SOL     OW25402   4.636   0.945   6.498  0.2699 -0.2223  0.2922
 4589SOL    HW125403   4.586   0.899   6.566  0.5948 -1.4283 -0.2899
 4589SOL    HW225404   4.645   1.036   6.529 -1.4162  0.2395 -0.5417
 4590SOL     OW25405   0.975   3.275   1.831 -0.1495  0.4481 -0.0938
 4590SOL    HW125406   0.996   3.198   1.780  1.8392  0.8146  0.1902
 4590SOL    HW225407   0.914   3.229   1.890  0.4544 -1.4319 -0.9482
 4591SOL     OW25408   0.631   3.373   9.459 -0.2638  0.0072  0.0514
 4591SOL    HW125409   0.706   3.314   9.457 -1.8689 -1.9802 -2.2473
 4591SOL    HW225410   0.579   3.332   9.529 -1.8278 -0.3247 -1.3058
 4592SOL     OW25411   1.529   1.368   1.872  0.4220 -0.2150  0.0701
 4592SOL    HW125412   1.608   1.381   1.820  0.1137 -1.2371 -0.6510
 4592SOL    HW225413   1.497   1.457   1.857 -0.0594 -0.5617 -1.0291
 4593SOL     OW25414   0.020   0.084   2.820 -0.9987 -0.9889 -0.2557
 4593SOL    HW125415   4.687   0.120   2.770  0.1898  0.0389 -1.2912
 4593SOL    HW225416   0.073   0.162   2.837 -1.9467  0.0836 -2.1950
 4594SOL     OW25417   3.398   3.369   1.617 -0.4678 -0.0443 -0.2780
 4594SOL    HW125418   3.350   3.440   1.659 -0.5633 -0.4760  0.3330
 4594SOL    HW225419   3.486   3.406   1.609 -0.8236  0.4342 -1.9098
 4595SOL     OW25420   3.337   3.883   5.116 -0.3508 -0.1057  0.2015
 4595SOL    HW125421   3.333   3.913   5.025 -1.3634 -1.4231 -0.1870
 4595SOL    HW225422   3.248   3.849   5.115  0.8547 -3.2619 -0.2148
 4596SOL     OW25423   4.136   4.088   9.297 -0.5173  0.0218  0.2732
 4596SOL    HW125424   4.176   4.012   9.340 -1.6946 -0.5721  0.3320
 4596SOL    HW225425   4.137   4.155   9.365 -1.8415  1.4175 -1.0833
 4597SOL     OW25426   0.661   4.582   7.350  0.2227 -0.1153  0.3145
 4597SOL    HW125427   0.691   4.493   7.370  0.2416 -0.1103  0.3084
 4597SOL    HW225428   0.691   4.596   7.261  0.0616 -2.5511 -0.1282
 4598SOL     OW25429   2.754   2.591   8.625  0.1021  0.0436 -0.7568
 4598SOL    HW125430   2.781   2.558   8.711  1.1138 -0.2373 -1.1744
 4598SOL    HW225431   2.701   2.517   8.594 -0.7746 -0.7854  2.6789
 4599SOL     OW25432   1.795   0.979  14.413  0.0527 -0.0598 -0.1618
 4599SOL    HW125433   1.720   1.038  14.409 -0.6862 -1.0363 -0.5123
 4599SOL    HW225434   1.762   0.918  14.479 -0.5317 -0.3377 -0.7150
 4600SOL     OW25435   0.093   3.642   1.994  0.3963 -0.2975 -0.1154
 4600SOL    HW125436   0.034   3.714   2.018  2.0679  1.2499 -0.7072
 4600SOL    HW225437   0.034   3.568   2.007 -2.2135  1.8612  0.4005
 4601SOL     OW25438   2.514   0.232   3.092  0.3517  0.3479  0.5960
 4601SOL    HW125439   2.573   0.190   3.155  0.0273  0.2310  0.8183
 4601SOL    HW225440   2.452   0.275   3.151  0.9235  1.2382  0.5505
 4602SOL     OW25441   0.600   0.282  13.571 -0.0267 -0.6058 -0.6135
 4602SOL    HW125442   0.641   0.229  13.639 -0.3799  0.0305  0.0833
 4602SOL    HW225443   0.649   0.243  13.498  1.6763 -0.8321  0.6579
 4603SOL     OW25444   0.494   3.809   0.712  0.2320  0.0157 -0.0746
 4603SOL    HW125445   0.558   3.755   0.757 -1.7521 -1.2070  1.2995
 4603SOL    HW225446   0.416   3.799   0.767  0.1840 -0.3506 -0.2146
 4604SOL     OW25447   2.813   3.787   3.701  0.6520  0.0520  0.8103
 4604SOL    HW125448   2.887   3.838   3.670  1.3927 -1.0556  0.7454
 4604SOL    HW225449   2.754   3.828   3.638  0.2338 -2.1082 -0.2247
 4605SOL     OW25450   2.498   3.257   5.787 -0.4710  0.1537 -0.0914
 4605SOL    HW125451   2.494   3.162   5.792  0.9371  0.0713 -0.3742
 4605SOL    HW225452   2.458   3.279   5.871 -0.6233  0.0163 -0.1287
 4606SOL     OW25453   4.344   4.080   7.990 -0.4390 -0.4052 -0.5290
 4606SOL    HW125454   4.434   4.059   7.968  0.0856  0.9554  0.3225
 4606SOL    HW225455   4.327   4.127   7.908  0.1010 -0.0677 -0.4436
 4607SOL     OW25456   1.832   2.872  15.454  0.1659 -0.7230 -0.6374
 4607SOL    HW125457   1.876   2.935  15.511 -1.4439 -0.6559  0.5023
 4607SOL    HW225458   1.833   2.808  15.526  0.8126  0.6572  0.5809
 4608SOL     OW25459   4.190   1.736   7.007  0.4424 -0.0659 -0.0208
 4608SOL    HW125460   4.187   1.808   6.944 -2.4343 -0.9045 -0.8185
 4608SOL    HW225461   4.234   1.670   6.953 -0.7070 -1.6157  0.9346
 4609SOL     OW25462   4.537   2.675   3.183  0.2496 -0.5147  0.6602
 4609SOL    HW125463   4.525   2.749   3.124 -1.4528 -1.5095 -0.2721
 4609SOL    HW225464   4.628   2.654   3.163  0.1083  0.4752 -1.0180
 4610SOL     OW25465   3.855   1.956   4.043  0.5641  0.1405 -0.0826
 4610SOL    HW125466   3.817   2.016   4.107  0.3845  0.2266 -0.2734
 4610SOL    HW225467   3.775   1.931   3.996  2.2817 -1.9479 -1.8574
 4611SOL     OW25468   2.779   4.053   6.557  0.0751 -0.2484 -0.1490
 4611SOL    HW125469   2.820   4.050   6.471 -0.2596  0.3603 -0.3337
 4611SOL    HW225470   2.847   4.090   6.613  0.1132 -0.5948  0.0354
 4612SOL     OW25471   2.670   2.561   0.869 -0.0690 -0.0856 -0.1862
 4612SOL    HW125472   2.690   2.655   0.876 -4.9029  0.7964  1.5532
 4612SOL    HW225473   2.730   2.533   0.938 -0.4466 -0.1391  0.1146
 4613SOL     OW25474   4.487   4.072   3.446 -0.9015  0.0436 -0.9791
 4613SOL    HW125475   4.569   4.116   3.467 -0.4596 -1.2474  0.0454
 4613SOL    HW225476   4.462   4.107   3.360  1.6027  0.5082 -1.5058
 4614SOL     OW25477   2.379   2.831   6.124  0.0614  0.4139  0.6040
 4614SOL    HW125478   2.410   2.748   6.087  1.6238  0.8950  0.8451
 4614SOL    HW225479   2.288   2.802   6.111 -0.0250  2.0270 -2.2093
 4615SOL     OW25480   3.490   4.388   2.780 -0.4405 -0.2399  0.0757
 4615SOL    HW125481   3.586   4.390   2.777 -0.3954 -0.9383  0.8584
 4615SOL    HW225482   3.483   4.450   2.853 -1.0434  1.1593 -1.1826
 4616SOL     OW25483   3.415   3.165   5.860  0.0788  0.9997 -0.3010
 4616SOL    HW125484   3.403   3.239   5.801 -1.6224 -0.5978 -1.9171
 4616SOL    HW225485   3.406   3.088   5.805  1.8624  0.2361  0.4529
 4617SOL     OW25486   3.178   0.559  12.167 -0.0559  0.0550  0.0153
 4617SOL    HW125487   3.228   0.480  12.188 -2.1300 -1.3978 -0.5701
 4617SOL    HW225488   3.105   0.554  12.228  2.0968 -0.0474  2.5633
 4618SOL     OW25489   0.140   1.169   8.251 -0.4844  0.1092 -0.1310
 4618SOL    HW125490   0.140   1.073   8.257  0.6362  0.0137 -1.8018
 4618SOL    HW225491   0.096   1.182   8.167  1.7062 -1.6574 -1.5555
 4619SOL     OW25492   3.842   1.834   7.051  0.6637  0.5207 -0.3756
 4619SOL    HW125493   3.879   1.750   7.081  0.6102  0.6971  0.1825
 4619SOL    HW225494   3.807   1.799   6.969  0.9434 -0.4557 -0.0787
 4620SOL     OW25495   0.523   0.998   7.705  0.6673 -0.0976 -0.3723
 4620SOL    HW125496   0.537   1.072   7.646  1.8586  0.3728  0.4826
 4620SOL    HW225497   0.437   0.971   7.673  0.6319 -0.6421  0.1712
 4621SOL     OW25498   1.840   0.303   5.871 -0.0945  0.2164  0.5906
 4621SOL    HW125499   1.926   0.265   5.890 -0.0360 -0.8564 -1.8361
 4621SOL    HW225500   1.786   0.233   5.908 -0.3060 -0.3014 -0.7051
 4622SOL     OW25501   3.071   4.353   9.762  0.0902 -0.2284 -0.8913
 4622SOL    HW125502   3.046   4.424   9.822 -0.3877 -1.4258  0.3127
 4622SOL    HW225503   3.020   4.375   9.684 -0.6108 -1.9659 -0.9170
 4623SOL     OW25504   4.735   2.832   4.823  0.5169  0.4628 -0.1846
 4623SOL    HW125505   4.739   2.744   4.859 -1.1872  1.2505  1.9721
 4623SOL    HW225506   0.047   2.815   4.745 -0.5190  3.0110 -1.4444
 4624SOL     OW25507   3.042   1.147   6.965  0.0535  0.3216  0.2979
 4624SOL    HW125508   3.095   1.112   6.894 -0.4217  0.1898  0.0056
 4624SOL    HW225509   3.014   1.223   6.914  1.4026  0.2136 -0.5883
 4625SOL     OW25510   2.625   3.133   4.365  0.1412  0.6094 -0.1031
 4625SOL    HW125511   2.683   3.058   4.353  1.4487  1.4258  1.2288
 4625SOL    HW225512   2.605   3.165   4.277 -0.1657  0.4021 -0.1072
 4626SOL     OW25513   1.710   2.725   6.623 -0.1788 -0.2242 -0.0632
 4626SOL    HW125514   1.663   2.754   6.545 -0.5878 -0.2379  0.1821
 4626SOL    HW225515   1.785   2.785   6.621  1.7132 -2.6095 -0.4217
 4627SOL     OW25516   2.415   1.558   5.806  0.4165  0.1378 -0.7897
 4627SOL    HW125517   2.446   1.553   5.896 -2.7173 -0.7974  0.2233
 4627SOL    HW225518   2.469   1.486   5.771  0.3249 -1.0133  1.4484
 4628SOL     OW25519   2.909   1.687  11.768 -0.0510 -0.2237 -0.1064
 4628SOL    HW125520   2.872   1.759  11.820 -0.0002 -0.1028 -0.2390
 4628SOL    HW225521   2.835   1.662  11.712  1.2384 -0.7038 -1.5752
 4629SOL     OW25522   1.419   1.122   1.742  0.1097  0.8966  0.3863
 4629SOL    HW125523   1.507   1.108   1.707  0.0092 -3.0173  1.7402
 4629SOL    HW225524   1.429   1.211   1.774 -0.3995  0.7838  0.8585
 4630SOL     OW25525   0.681   4.353   9.261  0.6692  0.4801  0.3926
 4630SOL    HW125526   0.756   4.301   9.232  0.7317  0.8698 -0.1511
 4630SOL    HW225527   0.720   4.440   9.260 -3.1952  2.1788 -2.3375
 4631SOL     OW25528   4.536   1.659  16.416 -0.5124  0.2448 -0.1040
 4631SOL    HW125529   4.525   1.753  16.431 -0.4231 -0.0868  1.9727
 4631SOL    HW225530   4.610   1.634  16.471 -1.8650 -0.0787  1.5308
 4632SOL     OW25531   3.894   0.075   9.423 -0.1308 -0.1139  0.2849
 4632SOL    HW125532   3.873   0.047   9.333 -1.0590  2.6748 -0.3586
 4632SOL    HW225533   3.914   4.736   9.472  1.1587  0.1723  0.2264
 4633SOL     OW25534   4.151   3.054   5.257 -0.1502  0.0375  0.2554
 4633SOL    HW125535   4.212   2.981   5.270 -0.1237  0.1522  0.7769
 4633SOL    HW225536   4.080   3.017   5.309  0.6073 -0.5864  0.8583
 4634SOL     OW25537   0.366   2.432  10.362 -0.3627 -0.3850  0.3895
 4634SOL    HW125538   0.371   2.508  10.304  3.9004 -1.1170 -0.2292
 4634SOL    HW225539   0.428   2.473  10.422  0.3925 -0.3021 -0.4456
 4635SOL     OW25540   0.019   1.116  17.166  0.2807  0.0993  0.1835
 4635SOL    HW125541   4.715   1.198  17.184 -1.0330 -0.8602  1.2728
 4635SOL    HW225542   0.108   1.148  17.183  0.2337  0.5787 -0.4950
 4636SOL     OW25543   1.258   1.174   6.597 -0.3040  0.1959 -0.1111
 4636SOL    HW125544   1.328   1.213   6.649 -0.0573 -1.3219  0.6732
 4636SOL    HW225545   1.187   1.238   6.600  1.1316  1.7890 -0.4070
 4637SOL     OW25546   2.002   3.786   5.376  0.2277  0.2966 -0.3463
 4637SOL    HW125547   2.064   3.756   5.443  2.9207  0.3529 -2.8187
 4637SOL    HW225548   1.963   3.860   5.423 -0.8745 -1.5798  1.7358
 4638SOL     OW25549   4.141   4.483   1.582 -0.6596  0.1366  0.0240
 4638SOL    HW125550   4.142   4.510   1.490 -0.7955 -1.4384 -0.4315
 4638SOL    HW225551   4.052   4.494   1.613 -1.2244  0.9626 -1.9091
 4639SOL     OW25552   3.406   2.190  11.058  0.1678 -0.6906 -0.8050
 4639SOL    HW125553   3.449   2.269  11.026  2.1712 -2.4979 -2.5840
 4639SOL    HW225554   3.479   2.166  11.116 -0.0645  1.9373  0.5698
 4640SOL     OW25555   0.334   2.341   2.614 -0.5489  0.3551  0.1682
 4640SOL    HW125556   0.398   2.307   2.552  0.1961 -0.2714  1.2739
 4640SOL    HW225557   0.386   2.399   2.670  1.0732 -1.4772  0.5785
 4641SOL     OW25558   3.830   4.494   4.205  0.1317 -0.0365 -0.1361
 4641SOL    HW125559   3.925   4.493   4.203  0.0973 -0.1170 -2.2699
 4641SOL    HW225560   3.793   4.549   4.136 -0.7564  0.0978  0.4426
 4642SOL     OW25561   3.138   4.134  11.757 -0.0899  0.2176 -0.1161
 4642SOL    HW125562   3.172   4.171  11.839 -0.2076 -0.2830  0.1566
 4642SOL    HW225563   3.210   4.146  11.696 -0.8113  0.0790 -1.0007
 4643SOL     OW25564   3.401   0.891   3.862 -0.8381 -0.4403  0.5112
 4643SOL    HW125565   3.338   0.944   3.814  0.2004 -0.5715 -0.9586
 4643SOL    HW225566   3.351   0.855   3.936 -2.1924 -3.3015 -1.7628
 4644SOL     OW25567   2.248   1.618   2.656  0.0381  0.1725  0.0227
 4644SOL    HW125568   2.234   1.705   2.620 -2.0420  0.0635  0.6061
 4644SOL    HW225569   2.294   1.637   2.738  0.1982  1.1836 -0.2974
 4645SOL     OW25570   1.797   4.055   0.405  0.0049  0.3921  0.6511
 4645SOL    HW125571   1.796   4.019   0.316  1.4845 -0.6743  1.0745
 4645SOL    HW225572   1.763   3.983   0.457 -1.0701  0.1059 -0.4468
 4646SOL     OW25573   3.233   2.525  16.150 -0.6680  0.2475 -0.3901
 4646SOL    HW125574   3.184   2.444  16.138  0.3093 -0.2559 -0.9942
 4646SOL    HW225575   3.323   2.496  16.164 -0.4104  1.8584  1.2132
 4647SOL     OW25576   1.007   3.271   4.467 -0.3527  0.2023  0.5547
 4647SOL    HW125577   1.059   3.348   4.492 -1.3379  1.3613 -0.9581
 4647SOL    HW225578   0.960   3.310   4.394  0.8680 -0.6835 -0.6907
 4648SOL     OW25579   4.044   0.285   6.592 -0.8894 -0.1224  0.8490
 4648SOL    HW125580   4.107   0.213   6.598  1.3808  1.5875 -2.3685
 4648SOL    HW225581   4.067   0.312   6.503 -0.3604 -0.0995  0.9950
 4649SOL     OW25582   0.095   2.903   3.125 -0.8465 -0.5544 -0.1055
 4649SOL    HW125583   0.077   2.882   3.217  2.7783  1.8050  1.1726
 4649SOL    HW225584   0.015   2.882   3.077 -0.4608 -1.6699 -0.2748
 4650SOL     OW25585   0.229   3.044   6.360  0.3024  0.1659 -0.2805
 4650SOL    HW125586   0.293   3.010   6.296 -0.4499  0.4572 -1.1863
 4650SOL    HW225587   0.283   3.083   6.429  0.8401 -2.7160  0.9214
 4651SOL     OW25588   3.301   0.278   5.744 -0.0409 -0.6196 -0.5515
 4651SOL    HW125589   3.381   0.228   5.762  1.4258  1.4256 -1.4399
 4651SOL    HW225590   3.276   0.229   5.666  0.7194  0.9155 -1.7501
 4652SOL     OW25591   0.600   3.997   3.028 -0.2167  0.2970  0.0496
 4652SOL    HW125592   0.627   4.023   2.940 -2.0524  1.6925 -0.1006
 4652SOL    HW225593   0.638   3.909   3.031  0.6152  0.6076 -1.1803
 4653SOL     OW25594   1.064   4.692  17.067 -0.0173 -0.1329  0.3246
 4653SOL    HW125595   1.128   4.635  17.025  1.6901 -0.0205  2.7284
 4653SOL    HW225596   1.091   0.041  17.049 -0.2417  0.0540  0.9089
 4654SOL     OW25597   1.467   3.414   1.169 -0.2049 -0.1938 -0.1562
 4654SOL    HW125598   1.458   3.330   1.123  2.4310 -0.7059  0.3083
 4654SOL    HW225599   1.559   3.412   1.193 -0.3318  2.0253  0.4234
 4655SOL     OW25600   2.259   1.125   2.665  0.0203  0.0310 -0.3947
 4655SOL    HW125601   2.170   1.091   2.654 -0.2625  1.0178 -1.2346
 4655SOL    HW225602   2.303   1.043   2.645  0.3220 -0.1826  1.1605
 4656SOL     OW25603   1.878   4.084   2.544  0.1352  0.3743  0.4231
 4656SOL    HW125604   1.875   4.012   2.608  0.3515 -0.1510 -0.1571
 4656SOL    HW225605   1.805   4.059   2.487  0.1320  0.7345  0.2709
 4657SOL     OW25606   0.900   4.199   8.187 -0.2063 -0.3987 -0.2429
 4657SOL    HW125607   0.819   4.207   8.136  0.5289 -1.4268 -1.5496
 4657SOL    HW225608   0.871   4.174   8.275 -1.4746 -0.4731 -0.6769
 4658SOL     OW25609   1.990   1.107   2.964  0.4190  0.4783  0.5984
 4658SOL    HW125610   1.912   1.079   2.916  0.6678  1.0582 -0.1334
 4658SOL    HW225611   2.048   1.031   2.959 -1.8074 -1.1525 -0.4373
 4659SOL     OW25612   0.378   1.911  15.263  0.6896 -0.0216 -0.2030
 4659SOL    HW125613   0.415   1.913  15.351 -0.3723 -0.9959  0.2525
 4659SOL    HW225614   0.310   1.844  15.267 -1.1450  1.7429 -1.8691
 4660SOL     OW25615   0.660   0.055   4.833 -0.0110  0.5404 -0.1278
 4660SOL    HW125616   0.684   4.731   4.899  0.3997  0.2622 -0.5490
 4660SOL    HW225617   0.575   0.030   4.797  0.1217  1.3598 -1.0406
 4661SOL     OW25618   4.299   1.460   5.779 -0.1927  0.6843 -0.1809
 4661SOL    HW125619   4.297   1.473   5.874  0.3204  0.8315 -0.1922
 4661SOL    HW225620   4.269   1.372   5.760 -0.1244  0.2452  1.7796
 4662SOL     OW25621   2.605   0.461   6.462 -0.2985 -0.5118 -0.4020
 4662SOL    HW125622   2.662   0.458   6.385  0.3719  1.2730  0.0315
 4662SOL    HW225623   2.663   0.432   6.533  0.4585 -0.5391 -1.0328
 4663SOL     OW25624   4.188   2.474   5.373 -0.0046  0.5835 -1.0577
 4663SOL    HW125625   4.187   2.489   5.467 -1.0764  2.2187 -1.3231
 4663SOL    HW225626   4.275   2.507   5.350  0.3839  0.4871  0.2756
 4664SOL     OW25627   1.665   4.597  14.166  0.0607  0.1573  0.2486
 4664SOL    HW125628   1.681   4.634  14.080 -3.9080 -0.0117 -0.5760
 4664SOL    HW225629   1.672   4.504  14.144  1.7597  0.4852 -0.5518
 4665SOL     OW25630   0.714   0.316   2.990 -0.3721 -0.1117  0.4360
 4665SOL    HW125631   0.679   0.247   2.934  2.6707  0.2010 -1.8452
 4665SOL    HW225632   0.685   0.278   3.073  0.5699  0.7475  1.1625
 4666SOL     OW25633   4.626   3.946   1.254  0.0085 -0.0525 -0.4616
 4666SOL    HW125634   4.681   3.885   1.203 -1.5629 -3.0827  1.4471
 4666SOL    HW225635   4.543   3.910   1.222 -0.2103 -1.9299  2.2333
 4667SOL     OW25636   2.672   2.755   4.757  0.7789  0.0170  0.1813
 4667SOL    HW125637   2.729   2.780   4.684  0.0610  0.0846 -0.3496
 4667SOL    HW225638   2.586   2.771   4.720 -0.7539 -0.1498  3.6735
 4668SOL     OW25639   3.196   0.527   2.364 -0.5847  0.3312 -0.1674
 4668SOL    HW125640   3.183   0.534   2.459 -2.1969  1.2718 -0.4542
 4668SOL    HW225641   3.283   0.566   2.358 -0.7585  0.9152  0.9429
 4669SOL     OW25642   0.668   2.009   6.923  0.3853 -0.0855  0.0125
 4669SOL    HW125643   0.728   2.078   6.950  0.7015 -0.1079 -0.6455
 4669SOL    HW225644   0.627   2.047   6.845  3.6409  1.1957 -1.0709
 4670SOL     OW25645   0.519   3.799   7.967 -0.0922 -0.4835  0.2365
 4670SOL    HW125646   0.527   3.851   7.887  0.3986  0.1120  0.6794
 4670SOL    HW225647   0.586   3.844   8.018 -0.5423 -0.7046  1.0213
 4671SOL     OW25648   0.260   0.240   8.487  0.1360 -0.1257  0.1472
 4671SOL    HW125649   0.323   0.203   8.425 -0.6898  0.7521 -1.2290
 4671SOL    HW225650   0.313   0.250   8.566 -1.3488  1.4691  0.9418
 4672SOL     OW25651   4.440   1.437   4.042  0.8572 -0.2693 -0.3269
 4672SOL    HW125652   4.353   1.411   4.071  1.2702 -2.5700 -1.1983
 4672SOL    HW225653   4.445   1.416   3.949  1.6243 -0.4113 -0.2558
 4673SOL     OW25654   1.877   2.300   8.237  0.1285  0.2651  0.3113
 4673SOL    HW125655   1.895   2.215   8.278 -2.0879  0.3552  1.4432
 4673SOL    HW225656   1.907   2.271   8.150  2.2527  0.0501  1.1108
 4674SOL     OW25657   0.057   0.353   8.606  0.3686 -0.1411 -0.1201
 4674SOL    HW125658   0.061   0.412   8.531 -2.3688 -0.9779 -0.9269
 4674SOL    HW225659   0.129   0.294   8.580  0.3692 -0.5206  0.7563
 4675SOL     OW25660   2.992   1.181   4.679  0.3199  0.2096  0.1520
 4675SOL    HW125661   3.051   1.170   4.754  0.8135  0.8239 -0.1504
 4675SOL    HW225662   2.978   1.275   4.689 -1.7882 -0.3463  2.4225
 4676SOL     OW25663   0.936   3.525   6.581  0.3368 -0.0121 -0.2790
 4676SOL    HW125664   0.873   3.585   6.622  3.0038  2.1106  0.7029
 4676SOL    HW225665   0.949   3.575   6.500 -0.8465  1.4704  0.4516
 4677SOL     OW25666   2.648   2.595  12.029 -0.5152 -0.0332 -0.0452
 4677SOL    HW125667   2.632   2.501  12.021  0.8642 -0.4225  1.7593
 4677SOL    HW225668   2.576   2.609  12.091 -0.1187 -1.0186  0.6354
 4678SOL     OW25669   4.679   2.197  15.245 -0.3836 -0.2625  0.5440
 4678SOL    HW125670   4.659   2.113  15.205 -0.4740 -0.3237  0.7137
 4678SOL    HW225671   4.738   2.237  15.182 -0.6877  0.2745  0.5997
 4679SOL     OW25672   2.627   4.313   8.339  0.2850  0.3815 -0.2525
 4679SOL    HW125673   2.668   4.337   8.422 -1.7019  0.1200  0.8023
 4679SOL    HW225674   2.652   4.221   8.343 -0.8588  0.1095  0.8809
 4680SOL     OW25675   4.420   3.718   8.823 -0.0758 -0.3489 -0.2453
 4680SOL    HW125676   4.483   3.708   8.895 -0.1300  0.2546 -0.1141
 4680SOL    HW225677   4.337   3.722   8.871  0.0783  1.0716 -0.0955
 4681SOL     OW25678   4.542   3.488   7.763 -0.4055 -0.3488 -0.5656
 4681SOL    HW125679   4.599   3.452   7.831  1.0261  1.9351 -0.5759
 4681SOL    HW225680   4.573   3.434   7.691 -0.1156 -1.5149  0.4330
 4682SOL     OW25681   2.385   2.339   0.554 -0.4282  0.2054 -0.6828
 4682SOL    HW125682   2.427   2.254   0.538 -0.3511  0.1456 -0.1648
 4682SOL    HW225683   2.464   2.390   0.565 -0.3763  0.5971 -2.9797
 4683SOL     OW25684   3.616   3.122   1.344 -0.1475 -0.1408  0.2909
 4683SOL    HW125685   3.653   3.183   1.408 -1.6585  0.5567  0.4926
 4683SOL    HW225686   3.677   3.135   1.270  0.2130  0.7334  0.7357
 4684SOL     OW25687   1.347   0.833   0.418  0.1571  0.0931  0.4229
 4684SOL    HW125688   1.331   0.873   0.503 -1.8380 -0.3760  0.2700
 4684SOL    HW225689   1.410   0.761   0.425  1.2707  0.8691 -1.5476
 4685SOL     OW25690   0.799   1.727   9.536  0.9316  0.4567  0.3949
 4685SOL    HW125691   0.892   1.742   9.521  0.8050  1.9353  1.1075
 4685SOL    HW225692   0.797   1.712   9.631 -1.3449 -2.8247 -0.1754
 4686SOL     OW25693   2.209   0.025   5.257 -0.6249  0.0527  0.7650
 4686SOL    HW125694   2.260   0.032   5.338 -0.2216  1.6504  0.3628
 4686SOL    HW225695   2.238   0.106   5.215 -1.2346 -1.0543 -1.8228
 4687SOL     OW25696   3.305   3.417   9.335  0.0119  0.0556 -0.2760
 4687SOL    HW125697   3.331   3.409   9.426  0.6304 -1.0295 -0.5478
 4687SOL    HW225698   3.295   3.322   9.324  2.6600 -0.1267 -1.3275
 4688SOL     OW25699   4.353   0.771   5.324  0.0567  0.0711 -0.4150
 4688SOL    HW125700   4.382   0.708   5.258  0.2213  0.3082 -0.5700
 4688SOL    HW225701   4.373   0.734   5.410  2.4757 -1.0296 -1.4798
 4689SOL     OW25702   1.713   2.210  14.426 -0.0064 -0.4804  0.0964
 4689SOL    HW125703   1.774   2.236  14.358  1.7331 -0.2516  1.7355
 4689SOL    HW225704   1.687   2.294  14.465  2.4088  0.5319 -0.4814
 4690SOL     OW25705   3.231   4.441  12.042  0.4968  0.3094  0.3477
 4690SOL    HW125706   3.139   4.415  12.042  0.4898  0.3346  0.7756
 4690SOL    HW225707   3.250   4.439  12.135  0.9293  1.5968  0.2875
 4691SOL     OW25708   0.502   4.148  14.374 -0.0038  0.0217  0.2336
 4691SOL    HW125709   0.454   4.119  14.297  0.0906  3.4626 -1.1199
 4691SOL    HW225710   0.501   4.070  14.429  0.5523 -1.5334 -1.9741
 4692SOL     OW25711   4.256   2.145  10.264  0.1296 -0.1037  0.6656
 4692SOL    HW125712   4.305   2.227  10.265  0.4870 -0.3161  0.4479
 4692SOL    HW225713   4.173   2.177  10.298 -0.7837 -2.0216  0.2858
 4693SOL     OW25714   0.572   4.524  14.297  0.5180 -0.3336 -0.6910
 4693SOL    HW125715   0.658   4.507  14.336  0.3921 -0.1610 -0.3404
 4693SOL    HW225716   0.521   4.445  14.316 -0.8927  0.8448  0.3769
 4694SOL     OW25717   4.369   2.453   9.370 -0.1923  0.1852  0.0901
 4694SOL    HW125718   4.278   2.443   9.399  0.0603 -0.2329  0.7156
 4694SOL    HW225719   4.378   2.364   9.334 -0.2881 -0.0196  0.5785
 4695SOL     OW25720   2.655   2.255  10.168 -0.7529  0.6595 -0.1108
 4695SOL    HW125721   2.672   2.212  10.084  2.0064 -0.1084  0.8545
 4695SOL    HW225722   2.571   2.210  10.179 -0.2312 -0.5636 -1.1608
 4696SOL     OW25723   1.947   1.577   8.843  0.0921 -0.2780 -0.3780
 4696SOL    HW125724   1.859   1.610   8.820 -0.6611 -2.0298  0.0422
 4696SOL    HW225725   1.965   1.529   8.762 -2.3651 -0.1384 -1.0107
 4697SOL     OW25726   2.739   0.019   7.906  0.0556  0.1807 -0.4210
 4697SOL    HW125727   2.711   4.694   7.843  0.9376  0.7804 -1.4338
 4697SOL    HW225728   2.743   0.100   7.856 -0.3320  0.4311 -0.0458
 4698SOL     OW25729   1.767   3.777   3.923  0.0622 -0.0596  0.4891
 4698SOL    HW125730   1.739   3.689   3.949  1.8420 -0.7138  0.1813
 4698SOL    HW225731   1.805   3.768   3.836 -0.6859 -1.3512  0.2998
 4699SOL     OW25732   0.514   0.689   6.378 -0.3370 -0.7728 -0.1320
 4699SOL    HW125733   0.435   0.741   6.392 -1.3834 -2.9101  1.8722
 4699SOL    HW225734   0.583   0.732   6.428  0.4079 -3.1127  0.8191
 4700SOL     OW25735   3.705   4.378   6.952 -0.1408  0.4463 -0.2778
 4700SOL    HW125736   3.681   4.357   6.862  1.1776  0.0308 -0.5296
 4700SOL    HW225737   3.713   4.473   6.958 -0.5769  0.5410 -1.2306
 4701SOL     OW25738   1.995   1.311   7.948  0.0831 -0.2616  0.1402
 4701SOL    HW125739   1.916   1.360   7.967  0.3183 -0.3472  1.3329
 4701SOL    HW225740   1.974   1.265   7.867 -0.4990 -0.9467  0.6842
 4702SOL     OW25741   3.969   0.848  12.140 -0.1624 -0.2042  0.5311
 4702SOL    HW125742   3.917   0.881  12.067  2.1784 -0.7464 -1.3834
 4702SOL    HW225743   4.008   0.932  12.164  1.4405 -0.5778 -0.7846
 4703SOL     OW25744   3.980   4.458  11.630 -0.0303 -0.9586 -0.2959
 4703SOL    HW125745   3.929   4.502  11.698 -0.3004 -0.3873 -0.8647
 4703SOL    HW225746   4.011   4.523  11.567  0.1999  0.0385  0.8387
 4704SOL     OW25747   0.504   4.458   8.345 -0.3412 -0.1065  0.1341
 4704SOL    HW125748   0.476   4.537   8.391  2.5792  1.2427 -0.4231
 4704SOL    HW225749   0.566   4.484   8.277 -2.1370  2.9951 -0.3129
 4705SOL     OW25750   4.404   2.650   4.739 -0.0942 -0.0304  0.4303
 4705SOL    HW125751   4.409   2.706   4.662  0.5104  1.3779  1.5084
 4705SOL    HW225752   4.389   2.726   4.795  1.9205 -0.7682  1.9603
 4706SOL     OW25753   4.521   0.123   1.162 -0.4565  0.0700  0.5466
 4706SOL    HW125754   4.432   0.146   1.187 -0.1397 -1.0309  2.6269
 4706SOL    HW225755   4.564   0.177   1.228  1.2916 -0.0228 -0.5092
 4707SOL     OW25756   3.819   1.731   4.258 -0.2205 -0.6965 -0.2224
 4707SOL    HW125757   3.725   1.746   4.268 -0.3498 -0.0382 -2.3683
 4707SOL    HW225758   3.813   1.674   4.181  0.3466  0.3261 -1.0110
 4708SOL     OW25759   1.137   2.308   6.103 -0.2719  0.0626  0.4245
 4708SOL    HW125760   1.217   2.277   6.061 -0.1247 -0.1028  0.8374
 4708SOL    HW225761   1.080   2.232   6.101  0.1716 -0.3187  2.7702
 4709SOL     OW25762   3.537   1.242  11.583 -0.0145 -0.5554 -0.0367
 4709SOL    HW125763   3.494   1.157  11.592 -0.6507 -0.3885 -1.4566
 4709SOL    HW225764   3.485   1.294  11.644  1.8932  0.5673  0.6527
 4710SOL     OW25765   3.469   4.288  12.296 -0.0779  0.4393 -0.6217
 4710SOL    HW125766   3.533   4.357  12.278 -0.5538  0.6606 -1.4659
 4710SOL    HW225767   3.518   4.206  12.287 -0.1661  0.7467 -3.9589
 4711SOL     OW25768   1.070   1.546   1.909 -0.2354  0.0442 -0.1872
 4711SOL    HW125769   1.143   1.594   1.869 -0.8145  1.1389  0.0656
 4711SOL    HW225770   1.021   1.516   1.832  0.4624 -0.3002 -0.5017
 4712SOL     OW25771   0.088   4.426   0.874 -0.2425  0.1161 -0.2166
 4712SOL    HW125772   0.079   4.437   0.969 -2.2615 -0.3298 -0.3523
 4712SOL    HW225773   4.735   4.421   0.855  0.2126 -0.9255 -2.1054
 4713SOL     OW25774   3.293   1.806  12.658 -0.1724  0.6773 -0.2797
 4713SOL    HW125775   3.300   1.880  12.718 -0.8550  0.7087 -0.2423
 4713SOL    HW225776   3.347   1.746  12.709  0.7081  1.2111 -0.5913
 4714SOL     OW25777   0.470   1.774   0.776  0.8079  0.1675 -1.0629
 4714SOL    HW125778   0.413   1.698   0.793  0.9638  0.2053 -0.3540
 4714SOL    HW225779   0.420   1.852   0.798  0.6758 -0.2777  0.2207
 4715SOL     OW25780   2.279   0.930   3.173  0.1665  0.0055  0.4973
 4715SOL    HW125781   2.232   0.923   3.090  0.9872  1.4854 -0.0833
 4715SOL    HW225782   2.206   0.925   3.234 -0.0111  0.8700  0.3518
 4716SOL     OW25783   4.701   0.757   2.032 -0.5099  0.0101  0.7110
 4716SOL    HW125784   4.608   0.741   2.050  0.3485 -2.0120  3.4328
 4716SOL    HW225785   4.734   0.686   2.087  2.8074  1.3430  0.4176
 4717SOL     OW25786   4.375   4.394   0.646  0.1920  0.0368  0.0558
 4717SOL    HW125787   4.376   4.469   0.586  1.9286 -1.0046 -1.1889
 4717SOL    HW225788   4.304   4.340   0.612  2.4527 -2.1089 -1.2269
 4718SOL     OW25789   1.944   4.023   6.434  0.4166 -0.0571 -0.1034
 4718SOL    HW125790   2.001   4.091   6.397 -2.0358  1.6646 -0.6595
 4718SOL    HW225791   1.977   3.947   6.385  1.1300 -0.6978  1.3628
 4719SOL     OW25792   1.838   1.490  10.005  0.2683  0.2674 -0.3008
 4719SOL    HW125793   1.796   1.405  10.018 -0.5815  0.7898  0.3172
 4719SOL    HW225794   1.766   1.544  10.038  1.0335  0.5899  0.8312
 4720SOL     OW25795   1.015   2.710   7.163 -0.2999  0.1986 -0.4162
 4720SOL    HW125796   1.082   2.642   7.153 -1.4769 -0.9982 -0.2179
 4720SOL    HW225797   0.992   2.689   7.254 -1.8722 -1.8471 -1.2762
 4721SOL     OW25798   0.897   1.791   8.401  0.1826  0.3489 -0.3783
 4721SOL    HW125799   0.837   1.733   8.449  1.0470  1.5570  2.1414
 4721SOL    HW225800   0.834   1.825   8.336  1.5395 -0.4077 -2.0962
 4722SOL     OW25801   1.391   4.174   3.966  0.8946 -0.1562 -0.2366
 4722SOL    HW125802   1.346   4.190   4.049 -0.1870  0.4798 -0.9485
 4722SOL    HW225803   1.419   4.084   3.983 -1.6081 -0.1989  3.7106
 4723SOL     OW25804   2.061   4.202   8.518 -0.2947 -0.4198  0.0059
 4723SOL    HW125805   2.100   4.280   8.559  0.0888  0.5715 -2.2556
 4723SOL    HW225806   2.091   4.131   8.574 -1.3682 -0.5363  0.4354
 4724SOL     OW25807   0.673   3.582   2.612  0.6078 -0.1365  0.2736
 4724SOL    HW125808   0.725   3.649   2.566  0.4456 -2.0066 -2.6594
 4724SOL    HW225809   0.741   3.517   2.633  2.1716  2.0353  2.0052
 4725SOL     OW25810   3.170   2.506  16.417 -0.2459  0.2208  0.5865
 4725SOL    HW125811   3.144   2.482  16.328  0.4539  2.3060 -0.1852
 4725SOL    HW225812   3.191   2.419  16.452 -0.4489 -0.1133 -0.1173
 4726SOL     OW25813   1.433   1.129   2.008  0.1559 -0.2329  0.2934
 4726SOL    HW125814   1.468   1.209   1.970 -0.6850 -0.1748 -0.3559
 4726SOL    HW225815   1.403   1.079   1.932  1.6920 -0.5283 -0.1206
 4727SOL     OW25816   4.152   1.934  15.754  0.0410  0.1481 -0.0859
 4727SOL    HW125817   4.185   2.023  15.746  1.9687 -0.6014 -0.2755
 4727SOL    HW225818   4.099   1.945  15.834 -0.7921 -2.7917 -0.2482
 4728SOL     OW25819   0.972   3.750   6.090 -0.3939 -0.9827 -0.0082
 4728SOL    HW125820   0.909   3.736   6.019 -0.5793 -0.0750 -0.0346
 4728SOL    HW225821   1.049   3.729   6.038 -1.0627  0.4488 -1.5890
 4729SOL     OW25822   2.227   2.132   2.446 -0.2095 -0.2411 -0.3723
 4729SOL    HW125823   2.267   2.156   2.363 -1.1452 -1.7186 -1.2465
 4729SOL    HW225824   2.242   2.211   2.497  1.4332  0.5921 -2.1882
 4730SOL     OW25825   0.101   2.904   2.438  0.3693 -0.1015 -0.3611
 4730SOL    HW125826   0.094   2.980   2.496  0.9367 -0.6847  0.4604
 4730SOL    HW225827   0.068   2.830   2.488  0.7717 -0.8947 -1.2742
 4731SOL     OW25828   2.942   1.238  10.307  0.0929  0.0037  0.0401
 4731SOL    HW125829   2.957   1.268  10.217 -1.8964 -3.6145 -1.5261
 4731SOL    HW225830   2.872   1.297  10.332  0.2721 -0.9177  2.7535
 4732SOL     OW25831   4.095   4.685   1.320  0.1466 -0.5921 -0.8600
 4732SOL    HW125832   4.087   0.038   1.304 -0.0476 -0.1825  1.5998
 4732SOL    HW225833   4.190   4.673   1.317  0.1876 -0.5015  0.1780
 4733SOL     OW25834   3.911   0.800   5.595 -0.4954  0.6025 -0.0571
 4733SOL    HW125835   3.834   0.854   5.613 -0.3028  1.0682 -0.6066
 4733SOL    HW225836   3.900   0.726   5.654 -1.3979  0.8533  0.0978
 4734SOL     OW25837   2.396   1.277   8.597  0.4053  0.5457 -0.0815
 4734SOL    HW125838   2.413   1.366   8.626 -3.8183  1.1746  0.4123
 4734SOL    HW225839   2.342   1.245   8.670 -2.2136  0.1049 -2.2293
 4735SOL     OW25840   2.031   2.787   3.175 -0.1706 -0.0486  0.1560
 4735SOL    HW125841   2.113   2.773   3.221 -0.0219 -1.1235 -0.4209
 4735SOL    HW225842   2.059   2.804   3.085 -0.0164 -2.9444 -0.3571
 4736SOL     OW25843   2.360   4.536  13.347  0.0583 -0.2317  0.0279
 4736SOL    HW125844   2.315   4.615  13.377  0.2045  0.0993 -0.6231
 4736SOL    HW225845   2.336   4.477  13.418 -1.3853  2.1114  1.4833
 4737SOL     OW25846   1.226   3.239  12.861  0.6293 -0.2946 -0.4492
 4737SOL    HW125847   1.273   3.306  12.911  0.8788 -1.2065  0.5267
 4737SOL    HW225848   1.198   3.194  12.941  2.1314  0.3472  0.4224
 4738SOL     OW25849   0.031   2.079  12.375  0.5668 -0.4451  0.3309
 4738SOL    HW125850   4.715   2.110  12.304 -1.3080 -0.2561  1.8893
 4738SOL    HW225851   4.706   2.061  12.443  1.8604  0.1067  1.7436
 4739SOL     OW25852   3.615   1.084   5.731  0.4109  0.1213 -0.0502
 4739SOL    HW125853   3.627   0.992   5.752 -0.3030  0.5588  2.3356
 4739SOL    HW225854   3.687   1.114   5.787  0.4367 -2.0627  1.0737
 4740SOL     OW25855   1.162   3.029   8.198 -0.0403 -0.3638 -0.6457
 4740SOL    HW125856   1.191   3.120   8.193 -0.0235 -0.3027  0.5456
 4740SOL    HW225857   1.092   3.017   8.133 -0.0998  0.8533 -0.8087
 4741SOL     OW25858   2.561   4.626   7.516 -0.2603  0.4204  0.2099
 4741SOL    HW125859   2.598   4.617   7.429 -1.3591 -0.5840 -0.1491
 4741SOL    HW225860   2.573   4.537   7.549  0.6962  1.2831  2.2581
 4742SOL     OW25861   4.395   4.668   8.650  0.3967 -0.5082 -0.8381
 4742SOL    HW125862   4.349   4.705   8.574  0.1977 -0.2411 -0.5876
 4742SOL    HW225863   4.441   0.004   8.683  0.4495 -0.7863 -0.2800
 4743SOL     OW25864   3.492   0.880  14.429  0.6784  0.5862 -0.1511
 4743SOL    HW125865   3.435   0.933  14.374  1.3560  2.3312  0.8262
 4743SOL    HW225866   3.449   0.795  14.420  2.2502 -0.3242  0.7284
 4744SOL     OW25867   2.531   1.597   3.906  0.5735 -0.6778 -0.8091
 4744SOL    HW125868   2.595   1.668   3.905 -0.6497  0.4376 -1.1671
 4744SOL    HW225869   2.593   1.530   3.877  1.5528  0.1052 -0.5246
 4745SOL     OW25870   1.434   1.649   8.542 -0.4025 -0.0454  0.0163
 4745SOL    HW125871   1.409   1.583   8.477  1.0513  2.2071 -2.8094
 4745SOL    HW225872   1.362   1.654   8.605  0.0405  0.3439  0.4889
 4746SOL     OW25873   2.228   3.086   4.313  0.0836  0.8552  0.2266
 4746SOL    HW125874   2.204   3.095   4.221  2.2495 -2.1432 -0.6410
 4746SOL    HW225875   2.222   2.991   4.321 -0.8471  1.1658  3.1392
 4747SOL     OW25876   1.954   3.777   4.587  0.7200 -0.2718  0.1403
 4747SOL    HW125877   1.969   3.844   4.520 -1.0335 -1.7791 -1.7611
 4747SOL    HW225878   2.004   3.707   4.545  0.4593 -0.1299 -0.4147
 4748SOL     OW25879   3.675   2.787   5.904 -0.2981 -0.1058  0.5344
 4748SOL    HW125880   3.673   2.700   5.944  0.8927 -0.5867 -0.4417
 4748SOL    HW225881   3.738   2.782   5.831 -0.7551 -1.2436  0.2185
 4749SOL     OW25882   1.243   4.393   4.953  0.2341 -0.0963 -0.0387
 4749SOL    HW125883   1.272   4.356   5.036 -2.2197 -0.9146  0.4490
 4749SOL    HW225884   1.148   4.389   4.964  0.2736  3.0507  1.4354
 4750SOL     OW25885   1.070   4.168  14.162 -0.9210  1.0333 -0.2499
 4750SOL    HW125886   1.006   4.182  14.092  0.4876 -0.4136 -1.8235
 4750SOL    HW225887   1.016   4.202  14.233 -1.0360  0.5414 -0.1022
 4751SOL     OW25888   0.773   0.204   8.140  0.0861 -0.3714 -0.1233
 4751SOL    HW125889   0.805   0.178   8.226 -0.2544  2.9383  0.9813
 4751SOL    HW225890   0.684   0.168   8.131  0.6747 -1.8787  0.0152
 4752SOL     OW25891   0.416   3.676   7.664  0.8126 -0.2530  0.1635
 4752SOL    HW125892   0.511   3.678   7.656  0.9159 -0.3258  1.3958
 4752SOL    HW225893   0.399   3.589   7.629  3.1234 -0.8907  0.6726
 4753SOL     OW25894   0.161   1.491  16.942  0.3039 -0.0936  0.1482
 4753SOL    HW125895   0.154   1.585  16.926 -0.5074 -0.0044  0.9589
 4753SOL    HW225896   0.088   1.479  17.004  0.3075 -1.4462 -0.0961
 4754SOL     OW25897   2.717   0.220   2.217 -0.6340  0.5006  0.5374
 4754SOL    HW125898   2.685   0.156   2.154  0.5669 -1.1908  1.6497
 4754SOL    HW225899   2.797   0.253   2.175  0.1748 -1.3845  0.5988
 4755SOL     OW25900   3.530   0.243   8.029 -0.0026  0.2904  0.0515
 4755SOL    HW125901   3.489   0.299   7.963  0.6021  0.7781  0.0935
 4755SOL    HW225902   3.552   0.312   8.091 -0.6384 -0.3376  0.9835
 4756SOL     OW25903   0.203   4.056   5.022  0.0980  0.0910 -0.1307
 4756SOL    HW125904   0.262   4.048   5.097 -2.3630  1.8744  1.9726
 4756SOL    HW225905   0.234   4.142   4.991 -0.6705  0.0894 -0.8733
 4757SOL     OW25906   1.662   4.594  12.379  0.0972 -0.4958 -0.7532
 4757SOL    HW125907   1.617   4.668  12.339 -2.1123 -1.3790  0.1242
 4757SOL    HW225908   1.605   4.518  12.364 -0.3875 -0.0918 -0.9477
 4758SOL     OW25909   4.435   1.555   0.626 -0.4762 -0.3135 -0.1522
 4758SOL    HW125910   4.515   1.502   0.635  0.1028  0.8621  1.7051
 4758SOL    HW225911   4.476   1.638   0.602 -1.0466  0.6543  2.2302
 4759SOL     OW25912   1.207   2.236   0.436  0.3100 -0.1490  0.3938
 4759SOL    HW125913   1.199   2.252   0.342 -1.1033 -2.9155  0.0504
 4759SOL    HW225914   1.147   2.303   0.468  0.5664  1.9840 -3.5947
 4760SOL     OW25915   0.297   1.592   4.265  0.4896 -0.1700 -0.3575
 4760SOL    HW125916   0.320   1.587   4.358 -1.7308  1.5036  0.2671
 4760SOL    HW225917   0.320   1.503   4.238 -2.6316 -0.6099 -1.5152
 4761SOL     OW25918   0.724   3.874   3.509 -0.6983  0.5901  0.5036
 4761SOL    HW125919   0.771   3.958   3.511 -2.2642  1.4939 -0.3117
 4761SOL    HW225920   0.747   3.828   3.590  1.4852  1.1357  0.1991
 4762SOL     OW25921   0.248   4.732   4.672  0.3509 -0.1708 -0.4000
 4762SOL    HW125922   0.197   4.663   4.628  0.3795 -0.7347  0.4425
 4762SOL    HW225923   0.222   0.064   4.617 -0.9770 -0.8361 -0.6556
 4763SOL     OW25924   1.166   4.019   7.632 -0.1133 -0.4640  0.1102
 4763SOL    HW125925   1.227   4.053   7.698 -2.9412  1.6071  1.6665
 4763SOL    HW225926   1.223   3.974   7.570  1.8293  3.0586 -0.6478
 4764SOL     OW25927   3.377   3.003   0.789  0.0899  0.0844 -0.3370
 4764SOL    HW125928   3.458   2.994   0.740  1.2488 -0.0088  1.5653
 4764SOL    HW225929   3.394   3.060   0.865 -0.6084  0.5958 -0.5685
 4765SOL     OW25930   4.195   0.930   6.934  0.0942  0.1450  0.7745
 4765SOL    HW125931   4.263   0.947   7.000 -0.2436  0.4548  1.0423
 4765SOL    HW225932   4.218   0.839   6.912 -1.5585 -0.2205  0.6127
 4766SOL     OW25933   1.866   3.130  12.193 -0.4761  0.1791 -0.0369
 4766SOL    HW125934   1.830   3.139  12.281  0.8600 -0.9004  0.6228
 4766SOL    HW225935   1.814   3.186  12.136 -0.0641  0.6441  0.0415
 4767SOL     OW25936   1.156   2.320   4.295 -0.0965 -0.7728 -0.1623
 4767SOL    HW125937   1.200   2.252   4.347  0.4199 -1.6569 -1.7703
 4767SOL    HW225938   1.105   2.264   4.237  0.7679 -0.9261 -0.7741
 4768SOL     OW25939   4.391   0.328   5.537  0.1119 -0.9984 -1.1315
 4768SOL    HW125940   4.295   0.336   5.534  0.2322  0.6484 -0.9611
 4768SOL    HW225941   4.418   0.351   5.626 -1.7920 -3.2610  0.0198
 4769SOL     OW25942   1.279   2.259   6.460 -0.5497  0.1958  0.2610
 4769SOL    HW125943   1.189   2.233   6.478 -0.9162 -0.0954 -2.0883
 4769SOL    HW225944   1.295   2.313   6.538  0.2898  1.6589 -0.9354
 4770SOL     OW25945   3.411   4.696   7.846  0.1796 -0.1634 -0.8200
 4770SOL    HW125946   3.474   4.698   7.918 -1.0365  0.0184  0.2407
 4770SOL    HW225947   3.451   4.657   7.769 -0.8698 -1.5343 -0.6720
 4771SOL     OW25948   2.598   4.723   4.975 -0.0323 -0.3055 -0.2950
 4771SOL    HW125949   2.542   0.056   4.951 -0.3748  0.2555  2.1682
 4771SOL    HW225950   2.559   4.691   5.056  1.3872  0.3996  0.6744
 4772SOL     OW25951   0.565   4.223  10.830  0.4475  0.1632 -0.2858
 4772SOL    HW125952   0.536   4.295  10.775 -0.2161 -1.3057 -1.8705
 4772SOL    HW225953   0.522   4.143  10.798  0.4970 -0.7040  1.8580
 4773SOL     OW25954   2.533   0.839  15.746 -0.1817 -0.0509 -0.1305
 4773SOL    HW125955   2.626   0.818  15.737 -0.8205 -3.2289  0.5295
 4773SOL    HW225956   2.513   0.851  15.653 -0.9560 -1.4842 -0.1549
 4774SOL     OW25957   4.436   4.121  12.678 -0.1887  0.3989  0.6411
 4774SOL    HW125958   4.508   4.062  12.702 -0.0872  0.6345  0.9238
 4774SOL    HW225959   4.476   4.154  12.598  2.1240  1.7129  2.3487
 4775SOL     OW25960   4.292   1.206   3.221 -0.1200 -0.1034 -0.0821
 4775SOL    HW125961   4.240   1.169   3.293 -0.1277 -0.5345 -0.3128
 4775SOL    HW225962   4.241   1.285   3.204 -0.7044 -0.4103  0.2438
 4776SOL     OW25963   2.220   4.438  11.914  0.5864 -0.1383 -0.0220
 4776SOL    HW125964   2.228   4.518  11.967 -0.6722  1.7432 -2.6932
 4776SOL    HW225965   2.127   4.415  11.915  0.1236  1.7270 -1.3957
 4777SOL     OW25966   3.837   0.385   8.767  0.4601  0.3627 -0.2028
 4777SOL    HW125967   3.816   0.450   8.701  0.1807  2.0590  1.5454
 4777SOL    HW225968   3.757   0.332   8.768  0.6455  0.0497 -1.6822
 4778SOL     OW25969   0.087   3.029  15.058 -0.2450  0.8242 -0.7749
 4778SOL    HW125970   0.030   2.960  15.091 -1.7526  1.9854 -0.9255
 4778SOL    HW225971   0.169   3.001  15.098 -1.0073 -1.3554 -0.7401
 4779SOL     OW25972   1.058   2.570   7.916  0.1986 -0.1966 -0.7410
 4779SOL    HW125973   0.995   2.499   7.903  0.2902 -0.3094 -0.5643
 4779SOL    HW225974   1.121   2.540   7.851 -0.6131 -0.7138 -1.2879
 4780SOL     OW25975   1.300   0.794   8.936 -0.6554 -0.4009  0.0416
 4780SOL    HW125976   1.322   0.701   8.942 -0.4105 -0.2374  1.8980
 4780SOL    HW225977   1.327   0.823   8.849 -1.8723 -0.4198 -0.3413
 4781SOL     OW25978   2.271   1.219  11.626 -0.2016  0.7538 -0.2557
 4781SOL    HW125979   2.248   1.145  11.570  0.4729  0.5612 -0.2824
 4781SOL    HW225980   2.246   1.203  11.718 -0.9190  1.0938 -0.3933
 4782SOL     OW25981   2.168   4.652   9.803  0.0728  0.0673  0.2845
 4782SOL    HW125982   2.186   4.581   9.864  1.6814 -0.2554 -0.5633
 4782SOL    HW225983   2.212   4.619   9.724  2.5272 -1.4205  2.3057
 4783SOL     OW25984   0.895   1.700   3.594  0.2441 -0.3425  0.2540
 4783SOL    HW125985   0.848   1.629   3.637 -1.5588  1.5985  1.4772
 4783SOL    HW225986   0.818   1.750   3.568  0.1444  0.1565  1.5036
 4784SOL     OW25987   4.163   4.264   0.557 -0.1742 -0.5093 -0.0020
 4784SOL    HW125988   4.102   4.337   0.563  0.5081  0.0838 -0.3370
 4784SOL    HW225989   4.109   4.192   0.524 -1.1774 -0.0991  0.7329
 4785SOL     OW25990   0.868   2.131   8.173  0.1640 -0.4901 -0.7693
 4785SOL    HW125991   0.862   2.213   8.124  0.8575  0.2956  0.4632
 4785SOL    HW225992   0.851   2.164   8.261  0.9416  1.2174 -1.2696
 4786SOL     OW25993   0.690   2.919  12.489  0.3514  0.2792  0.0839
 4786SOL    HW125994   0.671   2.859  12.561  2.6466 -1.6629 -0.9462
 4786SOL    HW225995   0.602   2.920  12.453  1.4293  0.3280 -2.5827
 4787SOL     OW25996   0.670   4.704   5.094  0.2406  0.3320  0.1351
 4787SOL    HW125997   0.749   4.654   5.113  1.2286  1.1268 -1.9792
 4787SOL    HW225998   0.674   0.015   5.175 -2.4447 -1.6078  1.5142
 4788SOL     OW25999   3.474   1.402   4.981  0.3959  0.8120 -0.0119
 4788SOL    HW126000   3.509   1.442   4.901 -0.0380  0.9314 -0.1474
 4788SOL    HW226001   3.446   1.474   5.037 -0.4683  0.7058 -0.3074
 4789SOL     OW26002   3.372   2.559   4.135 -0.0697  0.9026  0.3651
 4789SOL    HW126003   3.426   2.574   4.057 -1.9935 -1.7030 -1.5127
 4789SOL    HW226004   3.384   2.465   4.151  0.3496  0.5004 -2.3193
 4790SOL     OW26005   3.869   3.949   8.981  0.3696 -0.0135  0.3782
 4790SOL    HW126006   3.829   3.872   9.021  1.5330  0.2166  1.9940
 4790SOL    HW226007   3.956   3.913   8.964 -0.0477  0.0558 -1.8966
 4791SOL     OW26008   1.994   2.273   3.154 -0.2625 -0.0513 -0.2461
 4791SOL    HW126009   2.085   2.295   3.132 -0.0441 -0.7128  0.0079
 4791SOL    HW226010   2.012   2.240   3.242  0.9387  1.8329  0.2334
 4792SOL     OW26011   0.110   2.038   5.880  0.0299  0.4490 -0.1866
 4792SOL    HW126012   0.174   2.037   5.808 -1.7011  1.3318 -1.7349
 4792SOL    HW226013   0.033   2.048   5.824 -1.0269 -0.0750  1.1637
 4793SOL     OW26014   4.480   0.494   4.935 -0.2413 -0.5290  0.0614
 4793SOL    HW126015   4.432   0.470   4.856  0.8148 -0.2806 -0.6537
 4793SOL    HW226016   4.532   0.563   4.895 -0.6063  0.7036  1.7346
 4794SOL     OW26017   1.459   3.054   2.065  0.0448  0.3344  0.1986
 4794SOL    HW126018   1.455   3.145   2.037  1.1652  0.6127  0.9919
 4794SOL    HW226019   1.368   3.036   2.090 -0.1806 -0.3780 -1.1161
 4795SOL     OW26020   0.664   2.841   1.494 -0.1068  0.0791  0.5460
 4795SOL    HW126021   0.690   2.814   1.406 -2.7800 -0.2704 -0.1567
 4795SOL    HW226022   0.579   2.882   1.474 -1.6550 -3.6818 -0.7008
 4796SOL     OW26023   1.469   3.295   5.843 -0.1402  0.2550 -0.1401
 4796SOL    HW126024   1.516   3.251   5.914  0.4954  2.0820  0.5777
 4796SOL    HW226025   1.387   3.320   5.887 -0.8394 -0.2981 -1.1438
 4797SOL     OW26026   2.522   4.007   3.273  0.0243 -0.5148  0.6904
 4797SOL    HW126027   2.532   4.100   3.256 -1.9392 -0.2663  0.8389
 4797SOL    HW226028   2.588   3.967   3.216 -1.5335  0.6784 -1.9464
 4798SOL     OW26029   3.663   3.999  10.803 -0.3656  0.0509 -0.0532
 4798SOL    HW126030   3.682   3.922  10.750 -0.4498 -2.1059  3.0191
 4798SOL    HW226031   3.747   4.023  10.843 -0.7130  0.9162  0.1760
 4799SOL     OW26032   2.335   0.032   5.920 -0.1674  0.4706  0.2128
 4799SOL    HW126033   2.377   4.702   5.871  1.2046  0.7916  0.9283
 4799SOL    HW226034   2.412   0.078   5.953 -0.9380  2.5220 -0.8658
 4800SOL     OW26035   4.303   1.458   5.345  0.2457 -1.0931  0.0786
 4800SOL    HW126036   4.351   1.408   5.412  0.3970 -2.1673 -0.8434
 4800SOL    HW226037   4.377   1.501   5.302 -0.1279  0.7803  1.3222
 4801SOL     OW26038   0.688   3.737   5.966  0.2479 -0.7041 -0.0344
 4801SOL    HW126039   0.653   3.667   5.912 -1.0188 -0.2711  0.2303
 4801SOL    HW226040   0.666   3.712   6.056  1.0791 -1.1897  0.0354
 4802SOL     OW26041   2.666   4.631   7.234 -0.4290  0.7020  0.0982
 4802SOL    HW126042   2.591   4.685   7.210 -1.2606 -0.1300  0.8113
 4802SOL    HW226043   2.720   4.703   7.266  0.7509 -0.1130 -0.0428
 4803SOL     OW26044   2.328   0.344   3.257 -0.0727  0.1523 -0.6740
 4803SOL    HW126045   2.340   0.426   3.305 -2.5169 -0.0526  0.2778
 4803SOL    HW226046   2.297   0.286   3.326  2.3751  0.2001  0.4478
 4804SOL     OW26047   2.222   1.687   1.808 -0.4518 -0.3375  0.7614
 4804SOL    HW126048   2.172   1.760   1.841  1.8121  0.8579  1.5388
 4804SOL    HW226049   2.163   1.611   1.808  0.8500 -1.3677  0.8700
 4805SOL     OW26050   4.638   1.993   2.169 -0.1200 -0.4594  0.3124
 4805SOL    HW126051   4.633   2.049   2.246  1.3595  0.1049 -0.0118
 4805SOL    HW226052   4.555   2.013   2.126 -0.5487  0.1709  1.4493
 4806SOL     OW26053   0.113   2.053   5.068 -0.6078  0.2016 -0.2008
 4806SOL    HW126054   0.091   2.136   5.025  0.9531  0.4147 -0.6120
 4806SOL    HW226055   0.056   1.998   5.014 -0.8633  0.7706 -0.5115
 4807SOL     OW26056   2.042   0.457   7.458  1.2205  0.2722  0.4134
 4807SOL    HW126057   2.108   0.506   7.409  0.2196  0.4156 -0.7906
 4807SOL    HW226058   1.970   0.496   7.408 -0.5383 -1.8342  1.3137
 4808SOL     OW26059   1.792   1.095  16.420 -0.0800  0.0560  0.0877
 4808SOL    HW126060   1.700   1.109  16.398 -0.3566 -0.8871  0.6491
 4808SOL    HW226061   1.787   1.036  16.495 -0.7995 -1.3954 -1.1085
 4809SOL     OW26062   0.540   4.661   2.608 -0.9112 -0.0672  0.3749
 4809SOL    HW126063   0.615   4.720   2.601  0.2634 -1.7873 -1.6107
 4809SOL    HW226064   0.514   4.647   2.517  1.1343  1.4493 -0.4489
 4810SOL     OW26065   1.894   3.480   4.699  0.0092  0.1226  0.1273
 4810SOL    HW126066   1.874   3.566   4.664 -0.7056 -1.0611 -2.3595
 4810SOL    HW226067   1.850   3.487   4.784 -0.7087  0.3747 -0.2684
 4811SOL     OW26068   0.991   2.820   1.106  0.4395  0.6858  0.3934
 4811SOL    HW126069   0.990   2.823   1.011 -1.2757  0.3542  0.3946
 4811SOL    HW226070   1.059   2.760   1.136 -0.2299  0.2496  1.0508
 4812SOL     OW26071   1.500   4.649  14.934 -0.4672  0.3912  0.6364
 4812SOL    HW126072   1.566   4.635  14.866 -1.7903  0.7382 -0.7253
 4812SOL    HW226073   1.549   4.636  15.015  3.4096 -0.6632 -1.8456
 4813SOL     OW26074   1.584   3.825  14.137  0.3886  0.1971 -0.1393
 4813SOL    HW126075   1.569   3.809  14.230 -1.2121 -0.2316 -0.4764
 4813SOL    HW226076   1.629   3.754  14.092 -1.3497 -0.3749 -0.9499
 4814SOL     OW26077   2.660   4.538   3.914 -0.3953  0.8756 -0.0818
 4814SOL    HW126078   2.725   4.590   3.961 -0.5689  0.6783  0.3687
 4814SOL    HW226079   2.704   4.454   3.898 -1.8083 -0.1793  1.7026
 4815SOL     OW26080   2.133   1.221   8.452  0.3791 -0.7240 -0.5893
 4815SOL    HW126081   2.146   1.203   8.359  0.3027 -0.6729 -0.6102
 4815SOL    HW226082   2.183   1.160   8.507 -0.3823  0.3516  1.3098
 4816SOL     OW26083   4.004   2.451   2.616  0.6038 -0.2689 -0.4919
 4816SOL    HW126084   4.006   2.546   2.609  2.3335 -0.2542  0.2713
 4816SOL    HW226085   4.075   2.422   2.559  2.1726  1.0471  0.7832
 4817SOL     OW26086   1.840   0.439  12.269 -0.9309 -0.4941  0.4279
 4817SOL    HW126087   1.837   0.500  12.196 -1.7920  0.4475  1.2404
 4817SOL    HW226088   1.904   0.489  12.320 -0.0840  0.6134 -1.7245
 4818SOL     OW26089   1.897   2.198   7.989  0.2901 -0.2431  0.1631
 4818SOL    HW126090   1.970   2.186   7.928  0.9912  0.3304  0.9024
 4818SOL    HW226091   1.859   2.113   7.966 -1.8409  1.2835 -1.9921
 4819SOL     OW26092   1.320   3.019   0.081 -0.3564  0.0173 -0.2714
 4819SOL    HW126093   1.388   2.981   0.025 -0.5541 -0.3812 -0.2407
 4819SOL    HW226094   1.276   2.939   0.111 -0.1310 -0.0111 -0.0068
 4820SOL     OW26095   3.291   4.034   9.541 -0.2004 -0.2459 -0.8418
 4820SOL    HW126096   3.342   3.964   9.500  0.5343  0.9409 -1.9596
 4820SOL    HW226097   3.256   3.981   9.613 -0.2834  1.0684  0.0674
 4821SOL     OW26098   2.804   4.402   7.169  0.1338  0.5871  0.0766
 4821SOL    HW126099   2.753   4.482   7.174 -0.4737  0.3002 -1.6944
 4821SOL    HW226100   2.738   4.352   7.123  0.3920  0.6589 -0.3683
 4822SOL     OW26101   1.766   1.298   4.892  0.1584 -0.2231  0.0409
 4822SOL    HW126102   1.798   1.388   4.891  0.3604 -0.3037 -0.5291
 4822SOL    HW226103   1.672   1.301   4.875  0.2477 -0.0769 -0.4293
 4823SOL     OW26104   2.774   0.515   8.695 -0.1996  0.0243 -0.2657
 4823SOL    HW126105   2.759   0.588   8.635 -0.7335 -0.1590 -0.3600
 4823SOL    HW226106   2.869   0.522   8.700 -0.1730 -0.8347  0.4166
 4824SOL     OW26107   2.024   3.401   2.407  0.1305 -0.1460 -0.1869
 4824SOL    HW126108   1.969   3.399   2.329  2.6989 -1.2774 -1.9504
 4824SOL    HW226109   2.078   3.476   2.383 -1.4217  0.7633 -0.8326
 4825SOL     OW26110   0.429   2.275  10.137  0.0928  0.0522 -0.2962
 4825SOL    HW126111   0.375   2.198  10.148  2.8842 -1.9662 -0.6167
 4825SOL    HW226112   0.383   2.324  10.205 -0.5906 -0.0911 -0.6613
 4826SOL     OW26113   0.944   1.133   4.281  0.0193 -0.1866 -0.0282
 4826SOL    HW126114   0.928   1.105   4.191 -2.5830  0.7088  0.1366
 4826SOL    HW226115   0.873   1.091   4.330  0.1830  0.9507  1.1942
 4827SOL     OW26116   0.399   1.435   8.905  0.3252 -0.0267 -0.4737
 4827SOL    HW126117   0.429   1.356   8.950  0.7418  0.7528  0.6112
 4827SOL    HW226118   0.320   1.408   8.859 -0.3532 -0.9747  1.2406
 4828SOL     OW26119   2.332   4.528  10.012 -0.1284 -0.3428 -0.0056
 4828SOL    HW126120   2.291   4.601  10.060  0.7022 -1.0440  1.7608
 4828SOL    HW226121   2.369   4.576   9.938  1.6402 -0.3699  0.8814
 4829SOL     OW26122   4.537   2.491   9.042  0.5387  0.1567  0.5156
 4829SOL    HW126123   4.590   2.429   8.991 -1.4164 -1.1249  0.0195
 4829SOL    HW226124   4.471   2.515   8.978 -0.4224  0.4024  1.5948
 4830SOL     OW26125   3.728   4.166   4.098  0.3801 -0.4927 -0.0741
 4830SOL    HW126126   3.772   4.250   4.088 -2.0440  0.9052  0.8751
 4830SOL    HW226127   3.657   4.170   4.033 -1.5253 -1.0240  1.9905
 4831SOL     OW26128   2.730   1.318   4.037  0.0148  0.2593  0.0679
 4831SOL    HW126129   2.656   1.280   4.086 -0.8003  0.7493 -0.7704
 4831SOL    HW226130   2.710   1.288   3.948  0.1196 -1.6024  0.6742
 4832SOL     OW26131   1.047   2.614   0.129  0.1961 -0.3906 -0.0491
 4832SOL    HW126132   1.082   2.694   0.169  1.0611 -0.1974 -1.2057
 4832SOL    HW226133   1.114   2.552   0.157  0.9312  0.0548 -0.8135
 4833SOL     OW26134   4.317   2.512   8.867  0.6263 -0.2131 -0.8558
 4833SOL    HW126135   4.302   2.564   8.788  0.1619  1.8487  0.5714
 4833SOL    HW226136   4.269   2.433   8.843  3.5335 -2.9072  2.3274
 4834SOL     OW26137   4.126   0.364   0.794 -0.2113  0.6665 -0.8791
 4834SOL    HW126138   4.114   0.323   0.709 -1.6767  0.4093 -0.5651
 4834SOL    HW226139   4.131   0.288   0.852 -1.9032 -0.0712 -1.6887
 4835SOL     OW26140   0.172   0.966   6.025 -0.5921  0.5847 -0.1196
 4835SOL    HW126141   0.091   0.996   5.985 -2.4295 -4.1474  0.0798
 4835SOL    HW226142   0.159   1.005   6.111 -0.9505  1.2867 -0.4963
 4836SOL     OW26143   4.157   3.380   4.537 -0.4804 -0.1025  0.5842
 4836SOL    HW126144   4.088   3.319   4.564 -1.0281  0.7123  1.0240
 4836SOL    HW226145   4.104   3.459   4.545 -2.3760 -1.3796  0.7121
 4837SOL     OW26146   2.259   1.899  12.430  0.5061 -0.3979 -0.0013
 4837SOL    HW126147   2.236   1.812  12.398  0.6759  0.1859 -1.7209
 4837SOL    HW226148   2.262   1.897  12.526 -0.8431  0.9974  0.0708
 4838SOL     OW26149   1.058   2.991   6.314 -0.5447  0.2870 -0.2359
 4838SOL    HW126150   0.975   2.943   6.315  0.1637 -0.9548 -0.4321
 4838SOL    HW226151   1.048   3.042   6.234 -3.5028  0.9713  0.6032
 4839SOL     OW26152   2.630   1.811   2.284  0.0214  0.1712 -0.5055
 4839SOL    HW126153   2.536   1.823   2.267  0.0282  0.7933 -0.0930
 4839SOL    HW226154   2.642   1.728   2.238 -2.4544  0.4877 -1.7184
 4840SOL     OW26155   3.770   3.433   7.119 -0.2087 -0.4055  0.0496
 4840SOL    HW126156   3.733   3.435   7.031 -0.6886 -3.6885  0.1856
 4840SOL    HW226157   3.790   3.339   7.114  1.2347 -0.1939  1.7289
 4841SOL     OW26158   3.239   0.699   7.987 -0.7738  0.1992 -0.2233
 4841SOL    HW126159   3.205   0.717   7.899 -0.3319 -0.1648 -0.4732
 4841SOL    HW226160   3.328   0.670   7.965 -1.9216 -0.7941 -3.5170
 4842SOL     OW26161   2.278   4.634  14.676 -0.2736 -0.3517  0.4196
 4842SOL    HW126162   2.367   4.634  14.712 -0.0790  3.4182 -0.1126
 4842SOL    HW226163   2.226   4.625  14.755  2.2428  0.9859  2.2244
 4843SOL     OW26164   0.205   0.859   1.961  0.1752 -0.2700 -0.3056
 4843SOL    HW126165   0.123   0.831   2.003  1.1079 -2.1547  0.2556
 4843SOL    HW226166   0.200   0.814   1.877  1.2166 -1.9397  0.5204
 4844SOL     OW26167   0.924   0.906   0.907 -0.0100  0.6258 -0.7481
 4844SOL    HW126168   1.019   0.910   0.899  0.2364  0.0025  1.7480
 4844SOL    HW226169   0.906   0.998   0.888 -1.3235  0.3585 -0.8483
 4845SOL     OW26170   3.115   3.897  10.993  0.3186  0.0908  0.0194
 4845SOL    HW126171   3.156   3.811  10.996 -1.4390 -0.7296  0.3829
 4845SOL    HW226172   3.188   3.952  10.964 -0.6716  1.4936  0.1706
 4846SOL     OW26173   3.472   3.661   7.254 -0.5693 -0.2597 -0.2734
 4846SOL    HW126174   3.522   3.698   7.181  0.3020 -0.7391  0.0928
 4846SOL    HW226175   3.450   3.577   7.215  2.0491 -0.7583 -0.6546
 4847SOL     OW26176   4.661   0.201   2.036  0.0338 -0.2702 -0.6975
 4847SOL    HW126177   4.691   0.116   2.069  1.0048 -0.6252 -2.5169
 4847SOL    HW226178   4.604   0.177   1.962 -1.5290  0.7878  0.1563
 4848SOL     OW26179   3.258   3.437   1.159 -0.1409 -0.4164 -0.2091
 4848SOL    HW126180   3.217   3.417   1.243  0.6140  0.2570  0.3151
 4848SOL    HW226181   3.235   3.530   1.157  0.8982 -0.1806 -1.2398
 4849SOL     OW26182   1.424   3.824   1.234  0.3754 -0.3393 -0.3423
 4849SOL    HW126183   1.490   3.869   1.181 -1.4232  2.4927 -0.1921
 4849SOL    HW226184   1.425   3.737   1.194 -0.0492 -1.0634  1.2326
 4850SOL     OW26185   3.937   3.546   2.672  0.1489  0.0184 -0.8659
 4850SOL    HW126186   3.992   3.496   2.733  1.7589 -0.9610 -3.1449
 4850SOL    HW226187   3.870   3.585   2.729  0.3121 -1.5764  0.4192
 4851SOL     OW26188   1.226   0.682  11.011 -0.4853 -0.3795  0.5608
 4851SOL    HW126189   1.143   0.725  11.031 -0.2608  0.0886  0.4891
 4851SOL    HW226190   1.258   0.676  11.100  0.5784  1.1033  0.2582
 4852SOL     OW26191   4.344   0.026   2.012 -0.0726  0.4042  0.3431
 4852SOL    HW126192   4.396   0.092   1.966 -1.0367  1.3423  0.5867
 4852SOL    HW226193   4.337   4.688   1.959  0.8209  0.9020 -0.5049
 4853SOL     OW26194   0.532   2.117   0.378  0.2204  0.5110  0.1871
 4853SOL    HW126195   0.556   2.159   0.460 -0.1804  0.8079  0.1526
 4853SOL    HW226196   0.494   2.035   0.410 -2.4614  0.8282 -2.1911
 4854SOL     OW26197   4.316   4.095   1.468 -0.1910 -0.0892 -0.0550
 4854SOL    HW126198   4.259   4.079   1.392  0.0768 -1.2394 -0.0199
 4854SOL    HW226199   4.249   4.081   1.535 -0.1553 -0.2277 -0.0475
 4855SOL     OW26200   2.350   2.683   7.411  0.2346 -0.5219 -0.1488
 4855SOL    HW126201   2.396   2.683   7.495  0.8618  0.3951 -0.4823
 4855SOL    HW226202   2.401   2.617   7.364 -0.1545 -0.6514 -0.3891
 4856SOL     OW26203   1.659   3.809   1.753 -0.4100 -0.0118  0.0629
 4856SOL    HW126204   1.579   3.859   1.766 -1.3081 -1.9845  2.1666
 4856SOL    HW226205   1.683   3.845   1.668  1.9099  1.0800  1.1812
 4857SOL     OW26206   2.373   0.572   2.026 -0.4078 -0.6617  0.3835
 4857SOL    HW126207   2.460   0.535   2.040  0.0320 -0.2184 -1.1754
 4857SOL    HW226208   2.328   0.505   2.078 -0.7741  0.9661  2.1806
 4858SOL     OW26209   0.385   3.011   6.142 -0.2933 -0.1458  0.0055
 4858SOL    HW126210   0.390   2.955   6.065 -1.3834 -0.8859  0.4676
 4858SOL    HW226211   0.463   3.065   6.134  0.2780 -0.7191  1.6769
 4859SOL     OW26212   1.410   2.526   8.061 -0.6634 -0.2757  0.4832
 4859SOL    HW126213   1.474   2.513   8.131 -1.6142 -0.0447  1.3946
 4859SOL    HW226214   1.355   2.448   8.061  0.3321 -0.9785 -0.2774
 4860SOL     OW26215   3.816   2.640  16.754 -0.4024 -0.0571  0.6606
 4860SOL    HW126216   3.870   2.611  16.828 -0.6354  0.8804  1.1972
 4860SOL    HW226217   3.743   2.685  16.798  0.3788  1.1011  0.7635
 4861SOL     OW26218   3.142   4.474   6.580 -0.1993 -0.6589 -0.1341
 4861SOL    HW126219   3.062   4.524   6.595 -0.7035 -1.4669 -0.1123
 4861SOL    HW226220   3.205   4.540   6.553 -1.0158  0.3770  0.4572
 4862SOL     OW26221   0.434   2.212   0.876  0.1393 -0.3551  0.8039
 4862SOL    HW126222   0.451   2.294   0.922  1.9645  0.3616 -1.1756
 4862SOL    HW226223   0.454   2.159   0.953 -0.1660  0.2481  1.2953
 4863SOL     OW26224   3.609   0.880   9.040 -0.1922  0.7519  0.4838
 4863SOL    HW126225   3.668   0.907   9.110  0.9481  0.5286 -0.3995
 4863SOL    HW226226   3.671   0.839   8.980  0.1985  0.0461  1.3758
 4864SOL     OW26227   3.850   2.994  11.334  0.3916  0.5641  0.2767
 4864SOL    HW126228   3.801   2.933  11.278  2.2978 -0.3009 -0.4665
 4864SOL    HW226229   3.776   3.043  11.370  0.2076  1.2682 -1.0266
 4865SOL     OW26230   0.255   4.278   1.867  0.2894  0.2018  0.1115
 4865SOL    HW126231   0.328   4.338   1.879  1.5621 -1.3744  0.1482
 4865SOL    HW226232   0.301   4.194   1.862 -0.5232 -0.2200 -0.3463
 4866SOL     OW26233   3.069   2.904   6.536 -0.3212 -0.0692  0.1435
 4866SOL    HW126234   3.051   2.944   6.621  0.4446 -1.6656  1.0589
 4866SOL    HW226235   3.160   2.918   6.510 -0.1483  1.1442  1.4124
 4867SOL     OW26236   2.758   0.004   3.634  0.0087  0.0550 -0.3178
 4867SOL    HW126237   2.848   0.020   3.664  0.1233  0.0152 -0.6381
 4867SOL    HW226238   2.733   4.653   3.638  0.2776  0.0115  0.3667
 4868SOL     OW26239   1.545   0.676   8.332  0.4945 -0.1268 -0.2446
 4868SOL    HW126240   1.471   0.618   8.311  1.6418 -1.2723 -1.1072
 4868SOL    HW226241   1.569   0.623   8.408  1.7044  1.2095  0.2896
 4869SOL     OW26242   0.649   2.168   0.624  0.3996  0.3901 -0.4240
 4869SOL    HW126243   0.664   2.258   0.654  1.7020 -0.5123  1.6585
 4869SOL    HW226244   0.580   2.147   0.686 -1.4216  1.0818 -2.2074
 4870SOL     OW26245   3.725   3.155   6.775 -0.4518 -0.0157 -0.3862
 4870SOL    HW126246   3.777   3.229   6.743  0.0719  0.5190  1.7195
 4870SOL    HW226247   3.800   3.111   6.815 -2.1443  0.4061  3.2580
 4871SOL     OW26248   3.261   2.941   8.287  0.3958 -0.2246  0.3114
 4871SOL    HW126249   3.277   2.882   8.213  0.9421 -0.2020  0.4151
 4871SOL    HW226250   3.191   2.990   8.244 -0.2328 -2.1867 -0.8851
 4872SOL     OW26251   0.190   3.671   6.888  0.2880 -0.4675 -0.2849
 4872SOL    HW126252   0.146   3.689   6.971 -1.3089  0.4466 -1.3489
 4872SOL    HW226253   0.239   3.592   6.910 -1.9813 -1.4467  1.3198
 4873SOL     OW26254   1.618   4.686   4.685 -0.2184  0.1096 -0.1957
 4873SOL    HW126255   1.592   0.028   4.644 -0.7922 -0.0862 -0.2271
 4873SOL    HW226256   1.542   4.672   4.741 -0.9471 -0.4276 -1.3248
 4874SOL     OW26257   0.276   1.661  11.739 -0.3046 -0.1935  0.0443
 4874SOL    HW126258   0.235   1.708  11.811 -2.2517 -1.6243 -0.1481
 4874SOL    HW226259   0.338   1.727  11.706 -3.0294  1.7517 -1.1254
 4875SOL     OW26260   0.132   3.631   6.284  0.3077  0.1155  0.4660
 4875SOL    HW126261   0.135   3.588   6.370  0.8758  0.9723  0.8813
 4875SOL    HW226262   0.224   3.635   6.260 -0.2213 -1.6431 -1.8492
 4876SOL     OW26263   2.535   4.734   5.636 -0.4535  0.3624  0.1271
 4876SOL    HW126264   2.516   4.643   5.661 -0.3893  0.7387  1.5882
 4876SOL    HW226265   2.624   4.717   5.607 -1.4162  0.5356 -2.8610
 4877SOL     OW26266   0.350   1.009   0.771  0.3009 -0.1216 -0.4618
 4877SOL    HW126267   0.405   1.083   0.745 -0.2795  0.9010  1.1979
 4877SOL    HW226268   0.315   0.983   0.686  0.2445  0.9668 -0.7795
 4878SOL     OW26269   1.679   4.269   5.777 -0.5197 -0.2087  0.6129
 4878SOL    HW126270   1.609   4.269   5.843 -1.0303  0.3281  0.0836
 4878SOL    HW226271   1.754   4.294   5.830 -2.1696  1.6891  2.0705
 4879SOL     OW26272   1.742   0.294   2.819 -0.0801  0.0956 -0.3377
 4879SOL    HW126273   1.758   0.201   2.806 -1.3112 -0.0302 -0.9257
 4879SOL    HW226274   1.816   0.327   2.871  0.6738 -2.1056  0.0088
 4880SOL     OW26275   0.265   3.171  16.861  0.5649  0.2240  0.4392
 4880SOL    HW126276   0.282   3.265  16.870  0.1265  0.4739 -1.4624
 4880SOL    HW226277   0.282   3.147  16.952  1.5428 -1.3609 -0.1639
 4881SOL     OW26278   0.277   4.481  14.533 -0.3098 -0.0482  0.2534
 4881SOL    HW126279   0.201   4.441  14.574  0.9012 -0.2081  2.3235
 4881SOL    HW226280   0.272   4.573  14.561  0.3522 -0.3416  1.3218
 4882SOL     OW26281   0.291   2.182   6.146  0.4324 -0.0686 -0.0859
 4882SOL    HW126282   0.196   2.169   6.149  0.5433 -0.7190  0.4812
 4882SOL    HW226283   0.297   2.277   6.138 -2.0063 -0.0664 -1.8088
 4883SOL     OW26284   1.967   1.046   5.332 -0.0647  0.3563 -0.3286
 4883SOL    HW126285   1.902   1.066   5.399  1.8074  0.4952  1.4715
 4883SOL    HW226286   2.052   1.066   5.373  0.3145 -0.6668 -0.6113
 4884SOL     OW26287   3.886   0.255   4.648 -0.2494 -0.8145 -0.0413
 4884SOL    HW126288   3.823   0.245   4.719  1.3562  2.5106  1.8602
 4884SOL    HW226289   3.950   0.315   4.685  0.1851 -1.0474 -0.4218
 4885SOL     OW26290   4.550   2.072   4.188 -0.0201  0.0182 -0.3661
 4885SOL    HW126291   4.632   2.060   4.235 -1.0037  0.5748  1.4924
 4885SOL    HW226292   4.491   1.996   4.188  1.0865 -0.8421 -0.5745
 4886SOL     OW26293   1.981   3.167   1.016 -0.1752  0.1048  0.3613
 4886SOL    HW126294   2.058   3.223   1.030 -0.3390  0.2311  0.7437
 4886SOL    HW226295   2.012   3.082   1.045  1.8903  1.3606  1.8951
 4887SOL     OW26296   3.758   2.355   0.483  0.1016  0.1077  0.4173
 4887SOL    HW126297   3.695   2.404   0.430 -1.4545 -0.6730  1.5060
 4887SOL    HW226298   3.722   2.266   0.478 -0.5761  0.2566  2.5851
 4888SOL     OW26299   0.387   3.577   0.171 -0.6825 -0.0598  0.0200
 4888SOL    HW126300   0.478   3.559   0.195 -0.2790  1.9272  0.0348
 4888SOL    HW226301   0.367   3.653   0.226 -0.8186  1.3568 -1.9863
 4889SOL     OW26302   0.604   4.030   1.129  0.1085  0.0987  0.3090
 4889SOL    HW126303   0.580   4.026   1.037 -1.6905  0.0905  0.7728
 4889SOL    HW226304   0.625   3.940   1.155 -0.9796  0.4739  2.5113
 4890SOL     OW26305   1.665   2.470  17.565 -0.2811 -0.7422 -0.2388
 4890SOL    HW126306   1.623   2.384  17.567 -1.0680 -0.3644 -0.6950
 4890SOL    HW226307   1.584   2.519  17.575  0.9575  1.4666 -1.0944
 4891SOL     OW26308   3.086   1.575  17.464 -0.2771 -0.0896 -0.0038
 4891SOL    HW126309   3.182   1.570  17.467 -0.3005 -2.0600 -3.0258
 4891SOL    HW226310   3.065   1.486  17.438  2.8662 -1.2925  1.4745
 4892SOL     OW26311   1.959   0.763   5.718 -0.8065  0.4269 -0.7448
 4892SOL    HW126312   1.945   0.761   5.624  1.6804  0.6935 -1.1054
 4892SOL    HW226313   1.890   0.697   5.733  0.9619 -1.4812 -0.9391
 4893SOL     OW26314   2.833   4.037  12.115  0.4706  0.3192 -0.0130
 4893SOL    HW126315   2.779   4.006  12.043  0.6831 -1.1428  0.4550
 4893SOL    HW226316   2.882   3.955  12.124 -0.1205 -0.1631 -1.2446
 4894SOL     OW26317   1.077   3.441  13.064  0.1378 -0.1150  0.0058
 4894SOL    HW126318   1.167   3.436  13.029  0.1945  1.3583 -0.0706
 4894SOL    HW226319   1.101   3.432  13.156  0.6659  1.1370  0.0006
 4895SOL     OW26320   0.153   1.270   5.818 -0.5360  0.4631 -0.3894
 4895SOL    HW126321   0.167   1.226   5.734  1.2305 -0.7843  0.5684
 4895SOL    HW226322   0.060   1.249   5.830 -0.3517  1.0599  2.0266
 4896SOL     OW26323   3.635   4.731   8.027 -0.0502  0.7666  0.8805
 4896SOL    HW126324   3.603   4.720   8.116 -0.7311 -1.0734  0.4055
 4896SOL    HW226325   3.616   0.084   8.020 -1.2064  0.4744  0.2185
 4897SOL     OW26326   2.399   2.531   3.797  0.0211  0.0108 -0.3926
 4897SOL    HW126327   2.305   2.515   3.797  0.2786 -1.5168 -2.3217
 4897SOL    HW226328   2.398   2.608   3.740 -0.6353 -0.5052 -1.0769
 4898SOL     OW26329   3.355   3.532   8.378 -0.3029 -0.5752 -0.0472
 4898SOL    HW126330   3.287   3.508   8.316 -3.2554  0.4840  2.8098
 4898SOL    HW226331   3.393   3.608   8.334  1.9781 -2.6754 -1.6694
 4899SOL     OW26332   2.046   1.725   6.308  0.1664 -0.0369  0.5524
 4899SOL    HW126333   2.113   1.757   6.248  1.3000 -1.2918  1.1626
 4899SOL    HW226334   1.967   1.706   6.256  0.0685  0.0522  0.6677
 4900SOL     OW26335   0.735   2.792   2.572 -0.6042 -0.6654 -0.4879
 4900SOL    HW126336   0.828   2.804   2.552 -0.1002  0.1526  2.2539
 4900SOL    HW226337   0.693   2.766   2.491 -2.6497  2.4557 -0.4022
 4901SOL     OW26338   2.195   0.636   8.779  0.2609 -0.1375  0.3046
 4901SOL    HW126339   2.149   0.713   8.812 -1.5538 -0.8493 -0.6189
 4901SOL    HW226340   2.283   0.651   8.814 -0.4740  2.0324  1.2514
 4902SOL     OW26341   0.878   4.254   8.826  0.1745 -0.1340  0.3030
 4902SOL    HW126342   0.946   4.239   8.760 -0.8529  0.6549 -0.9315
 4902SOL    HW226343   0.807   4.196   8.798  0.7599  0.0715 -1.6054
 4903SOL     OW26344   0.988   1.337  17.156  0.3738 -0.3146 -0.3505
 4903SOL    HW126345   0.919   1.402  17.144  1.5542  1.0553  0.2535
 4903SOL    HW226346   1.063   1.388  17.188  1.3452 -2.5964  0.9879
 4904SOL     OW26347   3.531   3.959  11.049  0.0324  0.4634 -0.0287
 4904SOL    HW126348   3.610   3.980  11.000 -1.6104  1.5349 -2.2507
 4904SOL    HW226349   3.534   3.863  11.054 -1.6576  0.3175 -1.6802
 4905SOL     OW26350   4.143   4.681   4.989  0.3381 -0.0175  0.2767
 4905SOL    HW126351   4.141   4.700   5.083 -0.3985  0.6128  0.1386
 4905SOL    HW226352   4.095   4.599   4.997 -1.8905  1.3314  0.6736
 4906SOL     OW26353   3.352   2.557   3.765  0.1813 -0.3969 -0.2323
 4906SOL    HW126354   3.286   2.542   3.698  0.8105  2.3833 -1.4807
 4906SOL    HW226355   3.346   2.646   3.801 -0.0604  0.0057 -1.2608
 4907SOL     OW26356   0.675   2.152   7.846  0.1895  0.4341 -0.4370
 4907SOL    HW126357   0.672   2.061   7.816 -2.0275  0.1991  0.4588
 4907SOL    HW226358   0.743   2.193   7.793  0.6354  0.4559  0.1483
 4908SOL     OW26359   1.728   1.788   3.140  0.4973  0.1700 -0.1537
 4908SOL    HW126360   1.640   1.754   3.157 -0.1774  0.5816 -2.6817
 4908SOL    HW226361   1.788   1.719   3.166  0.5385  0.3699  0.2714
 4909SOL     OW26362   2.614   2.215   4.136 -0.2105 -0.2475 -0.5698
 4909SOL    HW126363   2.614   2.293   4.190 -2.8531  0.2200 -1.2501
 4909SOL    HW226364   2.523   2.186   4.131 -0.4530  0.3037  0.6740
 4910SOL     OW26365   1.964   3.604  13.896  0.1997  0.4243  0.1271
 4910SOL    HW126366   1.943   3.631  13.986  1.0495 -1.5738  0.9293
 4910SOL    HW226367   2.059   3.612  13.888  0.2335 -0.9712 -0.8877
 4911SOL     OW26368   0.044   0.115   2.351 -0.2679 -0.2490 -0.1517
 4911SOL    HW126369   0.027   0.043   2.290  1.3450 -0.5971 -0.1812
 4911SOL    HW226370   0.060   0.067   2.432  0.9274 -2.2600 -1.5830
 4912SOL     OW26371   1.177   1.934   3.465  0.2368 -0.4550 -0.4191
 4912SOL    HW126372   1.139   1.906   3.382 -5.1732 -1.4584  2.3835
 4912SOL    HW226373   1.246   1.868   3.472  1.4533  0.8898  0.2866
 4913SOL     OW26374   1.853   2.583   7.960  0.2611 -0.2680  0.2204
 4913SOL    HW126375   1.883   2.672   7.977 -0.5066  0.7093 -3.5898
 4913SOL    HW226376   1.860   2.554   8.051  0.8237  0.9264  0.5541
 4914SOL     OW26377   4.432   3.876   4.670 -0.3956 -0.3806  0.0327
 4914SOL    HW126378   4.521   3.869   4.636 -0.3067  1.5636 -0.1867
 4914SOL    HW226379   4.384   3.828   4.602 -1.1817 -2.2508  1.9239
 4915SOL     OW26380   4.667   2.532  16.069  0.0794 -0.1020 -0.0519
 4915SOL    HW126381   4.678   2.491  16.155  1.2420 -2.2229 -1.2052
 4915SOL    HW226382   4.593   2.479  16.039 -0.3019 -0.4315  1.4801
 4916SOL     OW26383   0.007   2.543  12.636  0.0521  0.3185  0.2117
 4916SOL    HW126384   4.655   2.531  12.656  0.0998 -0.9251 -0.3498
 4916SOL    HW226385   0.025   2.608  12.704  1.3657  1.0210 -0.7828
 4917SOL     OW26386   1.270   3.708  10.570 -0.4826  0.0733 -0.6371
 4917SOL    HW126387   1.309   3.778  10.518  0.8506  1.3105  2.0165
 4917SOL    HW226388   1.349   3.663  10.598 -0.3533  1.8165  1.8961
 4918SOL     OW26389   1.330   0.583   5.222 -0.1280  0.1556 -0.1232
 4918SOL    HW126390   1.275   0.526   5.277 -0.0622 -2.1834 -2.4773
 4918SOL    HW226391   1.391   0.610   5.291  2.0848 -1.2076 -1.5412
 4919SOL     OW26392   2.481   0.444   2.900 -0.0333 -0.6934  0.3698
 4919SOL    HW126393   2.475   0.398   2.816 -2.3696 -1.2828  0.8566
 4919SOL    HW226394   2.496   0.365   2.951  0.9888  0.3652  1.6831
 4920SOL     OW26395   2.506   2.047  14.415  0.1862  0.3759  0.2330
 4920SOL    HW126396   2.566   2.109  14.374 -1.6381  1.0624 -1.4311
 4920SOL    HW226397   2.572   2.017  14.477  2.7417  2.1215 -1.6479
 4921SOL     OW26398   2.540   4.469   6.291 -0.1967  0.6467  0.3668
 4921SOL    HW126399   2.457   4.444   6.250 -0.6392  0.2279  1.5281
 4921SOL    HW226400   2.563   4.392   6.342 -1.2170 -0.9455 -1.5775
 4922SOL     OW26401   2.259   1.347  12.211 -1.0206 -0.0784 -0.4275
 4922SOL    HW126402   2.321   1.396  12.265 -1.4413  1.5241 -1.4172
 4922SOL    HW226403   2.313   1.279  12.170  1.5150  1.2688  0.7188
 4923SOL     OW26404   2.243   2.415   6.961 -0.3029 -0.4450 -0.0391
 4923SOL    HW126405   2.234   2.426   7.055 -2.3567 -0.5327 -0.2371
 4923SOL    HW226406   2.258   2.320   6.963 -2.5362 -0.7253  2.9340
 4924SOL     OW26407   0.554   0.565   3.962 -0.7384 -0.1740  0.6090
 4924SOL    HW126408   0.504   0.577   3.882  1.9358 -0.3173 -1.0708
 4924SOL    HW226409   0.617   0.496   3.941  0.4849  1.5019 -1.3088
 4925SOL     OW26410   0.654   1.880   7.261  0.0344  0.1128  0.2908
 4925SOL    HW126411   0.693   1.829   7.190  0.2405  0.3571  0.2300
 4925SOL    HW226412   0.622   1.960   7.220  0.3941  0.6036  0.9674
 4926SOL     OW26413   4.277   4.547   3.333 -0.5646 -0.7714 -0.3544
 4926SOL    HW126414   4.227   4.598   3.270  2.3349  5.5185  2.4633
 4926SOL    HW226415   4.367   4.580   3.334 -1.0831  0.5923  1.5434
 4927SOL     OW26416   4.228   2.032   3.011 -0.0164  0.0685  0.1507
 4927SOL    HW126417   4.260   2.098   2.949  2.4533 -0.5035  0.8073
 4927SOL    HW226418   4.199   1.957   2.959 -0.5574  0.0912  0.4210
 4928SOL     OW26419   1.440   1.265   6.811  0.6549  0.0225  0.4569
 4928SOL    HW126420   1.368   1.303   6.862  0.8918 -0.3975  1.0963
 4928SOL    HW226421   1.516   1.312   6.846  1.3545 -0.1605 -0.8274
 4929SOL     OW26422   0.264   0.187  12.951  0.5581 -0.0201 -0.8288
 4929SOL    HW126423   0.350   0.161  12.985  0.2284  2.1467  1.6697
 4929SOL    HW226424   0.225   0.105  12.921  1.2857 -1.1610  1.3799
 4930SOL     OW26425   1.874   2.700   2.382 -0.0453  1.1814  0.4158
 4930SOL    HW126426   1.782   2.716   2.402 -0.0759  1.3599  0.1327
 4930SOL    HW226427   1.874   2.679   2.288  4.1533  0.8506  0.4769
 4931SOL     OW26428   1.643   0.462   5.923  0.1591  0.4200  0.8629
 4931SOL    HW126429   1.723   0.410   5.920 -2.2387 -3.0157 -2.0326
 4931SOL    HW226430   1.610   0.477   6.012 -1.3544 -0.3397  0.4274
 4932SOL     OW26431   1.525   1.948   0.541 -0.0933 -0.7356 -0.4488
 4932SOL    HW126432   1.568   1.882   0.596  2.0693  1.4726  0.5178
 4932SOL    HW226433   1.607   1.989   0.514 -0.1578 -1.2985 -1.4978
 4933SOL     OW26434   4.070   4.291   2.419  0.6601 -0.7744 -0.0843
 4933SOL    HW126435   4.054   4.224   2.353  1.8095 -0.0730 -1.0720
 4933SOL    HW226436   4.078   4.232   2.494  2.7216  1.1586  1.2155
 4934SOL     OW26437   4.074   4.539   8.878  0.0079  0.0471  0.0762
 4934SOL    HW126438   4.044   4.607   8.818  2.7484  1.1868 -0.0101
 4934SOL    HW226439   4.020   4.465   8.849  0.4505 -0.0894 -0.3922
 4935SOL     OW26440   2.390   1.051   7.027  0.0784 -0.3406  0.0811
 4935SOL    HW126441   2.448   1.068   7.101  0.5135  2.0609 -0.8058
 4935SOL    HW226442   2.397   1.141   6.995 -0.0075 -0.0379  0.9219
 4936SOL     OW26443   2.832   3.590   2.880  0.6006  0.2710 -0.6193
 4936SOL    HW126444   2.760   3.638   2.920  1.6970  1.1813  0.2844
 4936SOL    HW226445   2.799   3.567   2.793 -2.0679  0.9297  0.2158
 4937SOL     OW26446   1.308   2.666   5.656 -0.5950  0.1206  0.4884
 4937SOL    HW126447   1.233   2.629   5.703 -0.2828 -0.9690  0.1309
 4937SOL    HW226448   1.304   2.760   5.671  0.9839  0.0353  1.4598
 4938SOL     OW26449   1.759   1.561  17.358 -0.2959  0.1479 -0.7240
 4938SOL    HW126450   1.833   1.542  17.302 -1.2956 -1.2877 -1.5591
 4938SOL    HW226451   1.805   1.590  17.436  0.3722 -0.3249 -0.9498
 4939SOL     OW26452   0.377   3.070   3.418 -0.1471  0.0425  0.0023
 4939SOL    HW126453   0.447   3.037   3.475 -0.1468 -0.5634 -0.3505
 4939SOL    HW226454   0.421   3.095   3.338 -0.0626  0.1878  0.0950
 4940SOL     OW26455   3.880   2.764   1.873  0.4137 -0.0143  0.1221
 4940SOL    HW126456   3.818   2.786   1.942 -0.9262 -3.0781 -0.1039
 4940SOL    HW226457   3.904   2.672   1.889 -0.3801 -0.5805 -2.0161
 4941SOL     OW26458   4.333   0.768   4.374  0.0880  0.2760  0.4953
 4941SOL    HW126459   4.342   0.846   4.428 -2.1112 -0.3399  1.7705
 4941SOL    HW226460   4.427   0.756   4.363  0.0059 -1.1990  1.3739
 4942SOL     OW26461   1.030   1.995  14.623 -0.0602  0.0438  0.3814
 4942SOL    HW126462   1.103   2.011  14.683 -0.6166  2.3609  0.4445
 4942SOL    HW226463   1.080   2.001  14.542  0.1507 -1.5454  0.4039
 4943SOL     OW26464   2.703   1.123  13.545 -0.0571  0.1154 -0.1178
 4943SOL    HW126465   2.631   1.093  13.489 -0.6501  0.4429  0.4628
 4943SOL    HW226466   2.749   1.039  13.548  0.6941  0.4899 -1.0555
 4944SOL     OW26467   0.320   3.452   5.617  0.4520 -0.3714 -0.1028
 4944SOL    HW126468   0.278   3.390   5.676 -1.6304  1.3744  0.2420
 4944SOL    HW226469   0.267   3.532   5.623 -0.7605 -1.0760 -1.4984
 4945SOL     OW26470   3.908   2.667   6.984 -0.0608  0.0913  0.0545
 4945SOL    HW126471   3.924   2.740   7.044 -0.1399  0.1332  0.0257
 4945SOL    HW226472   3.982   2.613   7.012 -0.6059 -0.7835 -0.1838
 4946SOL     OW26473   0.415   1.714  10.374  0.4061 -0.2867  0.0181
 4946SOL    HW126474   0.361   1.788  10.402  0.9914  0.4597 -0.8170
 4946SOL    HW226475   0.356   1.674  10.310  0.0622  0.7609 -0.3210
 4947SOL     OW26476   2.508   0.988   9.413 -0.6163 -0.4971  0.5923
 4947SOL    HW126477   2.509   1.025   9.502 -0.9987 -1.8804  1.1743
 4947SOL    HW226478   2.577   1.045   9.378  0.4139 -0.3834  2.7462
 4948SOL     OW26479   0.796   0.653  15.527 -0.0396  0.2160 -0.1161
 4948SOL    HW126480   0.883   0.638  15.490 -0.0596 -1.0917  0.3832
 4948SOL    HW226481   0.809   0.619  15.615 -2.7525 -0.7099 -0.0715
 4949SOL     OW26482   1.322   0.957  11.720 -0.5738 -0.0725 -0.4630
 4949SOL    HW126483   1.254   0.892  11.701 -1.0551  0.1914  0.3567
 4949SOL    HW226484   1.321   0.976  11.814 -0.3246  0.8294 -0.6432
 4950SOL     OW26485   4.731   3.811   9.321  0.3707 -0.4970  0.5151
 4950SOL    HW126486   0.054   3.765   9.266  0.6664  0.3652  0.1433
 4950SOL    HW226487   4.738   3.902   9.291  1.5530 -1.1606 -1.2203
 4951SOL     OW26488   0.643   0.306  10.097 -0.3838 -0.3060 -0.0451
 4951SOL    HW126489   0.612   0.381  10.148 -1.2352 -1.2640  0.8537
 4951SOL    HW226490   0.662   0.354  10.016 -0.3406 -1.3408 -0.6458
 4952SOL     OW26491   0.249   0.002   9.174 -0.3397 -0.5413  0.3056
 4952SOL    HW126492   0.247   4.648   9.166 -1.1657 -0.6630  1.8446
 4952SOL    HW226493   0.209   0.017   9.260 -0.6871  0.5994 -0.0503
 4953SOL     OW26494   2.319   0.226   5.124 -0.7371  0.3203  0.1832
 4953SOL    HW126495   2.317   0.305   5.071 -0.3181 -1.2440 -2.1975
 4953SOL    HW226496   2.396   0.225   5.180 -0.9323  0.9488  0.4591
 4954SOL     OW26497   3.753   1.746   3.784  0.4973 -0.0217 -0.8369
 4954SOL    HW126498   3.848   1.755   3.785  0.4142  0.9900 -2.2723
 4954SOL    HW226499   3.749   1.689   3.707 -4.8571 -2.3663  1.1692
 4955SOL     OW26500   3.794   2.762   2.973 -0.1541  0.4163 -0.8344
 4955SOL    HW126501   3.775   2.764   2.879 -3.0818  0.4654 -0.2606
 4955SOL    HW226502   3.877   2.715   2.978 -0.0402  0.7738  0.6280
 4956SOL     OW26503   4.488   0.442   8.597  0.2242 -0.2977 -0.1532
 4956SOL    HW126504   4.563   0.384   8.606 -0.4467 -0.6986  2.8157
 4956SOL    HW226505   4.439   0.413   8.520 -1.9087  1.8529  0.3548
 4957SOL     OW26506   2.636   2.485   8.290  0.5643  0.6524  0.1101
 4957SOL    HW126507   2.715   2.532   8.315  2.1780 -0.6711 -2.4389
 4957SOL    HW226508   2.584   2.478   8.370 -0.4565 -1.6961 -0.7322
 4958SOL     OW26509   0.883   4.619   7.974 -0.2210  0.0865  0.1780
 4958SOL    HW126510   0.867   4.545   7.915  0.5052  0.5138 -0.5614
 4958SOL    HW226511   0.885   4.694   7.914  0.7635 -0.5468 -0.5877
 4959SOL     OW26512   3.173   1.827   9.577  0.0396  0.6199 -0.2994
 4959SOL    HW126513   3.168   1.882   9.655 -0.1084  0.7877 -0.4273
 4959SOL    HW226514   3.152   1.890   9.507 -2.1129  2.8360  2.3778
 4960SOL     OW26515   0.267   4.491   3.725 -0.4138 -0.4033 -0.6742
 4960SOL    HW126516   0.225   4.452   3.801 -0.7728  3.4100  1.1046
 4960SOL    HW226517   0.328   4.424   3.694  0.6651  0.4118 -0.3324
 4961SOL     OW26518   3.280   4.464  15.384 -0.3962  0.5344 -0.0352
 4961SOL    HW126519   3.232   4.402  15.439  1.2039 -1.5713 -0.9914
 4961SOL    HW226520   3.372   4.441  15.401 -1.2763  0.0499  4.0845
 4962SOL     OW26521   2.453   2.878  13.655 -0.3987  0.4127  0.6298
 4962SOL    HW126522   2.516   2.900  13.586 -1.4528  2.5745  0.3656
 4962SOL    HW226523   2.518   2.838  13.713  0.1590  0.3964 -0.0040
 4963SOL     OW26524   1.218   0.954   4.569 -0.7233 -0.6609  0.0696
 4963SOL    HW126525   1.184   0.887   4.509 -0.6115 -1.9452  1.4292
 4963SOL    HW226526   1.237   0.900   4.646  0.2826 -0.3110  0.0722
 4964SOL     OW26527   2.623   2.585  12.671 -0.2010 -0.0025 -0.1987
 4964SOL    HW126528   2.546   2.609  12.619  1.1004  1.9495 -1.2712
 4964SOL    HW226529   2.618   2.490  12.664  2.4662 -0.0299 -1.9021
 4965SOL     OW26530   4.358   4.235   2.072  0.3332  0.3751  0.0193
 4965SOL    HW126531   4.324   4.324   2.085 -0.8927  0.1993 -2.1336
 4965SOL    HW226532   4.418   4.250   1.999  2.1437  1.3338  1.6900
 4966SOL     OW26533   2.406   1.221  10.989  0.5994 -0.6090 -0.3135
 4966SOL    HW126534   2.425   1.186  10.902 -1.0878  0.5169 -1.1346
 4966SOL    HW226535   2.464   1.166  11.042 -1.2804 -2.5635 -0.2777
 4967SOL     OW26536   2.554   0.118   2.415 -0.7001 -0.1565  0.0071
 4967SOL    HW126537   2.602   0.168   2.349 -0.2632 -2.6382 -1.5303
 4967SOL    HW226538   2.477   0.103   2.360 -1.4372  0.7227  0.8026
 4968SOL     OW26539   1.491   1.793   8.211 -0.2109 -0.1054 -0.6347
 4968SOL    HW126540   1.416   1.734   8.203  0.1543 -0.6160 -0.3005
 4968SOL    HW226541   1.533   1.776   8.295 -2.1345  0.1006  0.3814
 4969SOL     OW26542   2.370   1.490  15.954 -0.5235  0.1854  0.5406
 4969SOL    HW126543   2.341   1.399  15.964  0.1829 -0.0840  0.1199
 4969SOL    HW226544   2.395   1.489  15.862  1.1983 -2.8332  1.0115
 4970SOL     OW26545   1.183   2.982   5.006  0.2656  0.1202 -0.0015
 4970SOL    HW126546   1.181   2.895   4.966  1.2762  0.5382 -0.9625
 4970SOL    HW226547   1.184   2.957   5.098 -0.4134  1.4771  0.3680
 4971SOL     OW26548   0.609   4.036   7.558 -0.5335 -0.0512 -0.1782
 4971SOL    HW126549   0.598   3.962   7.619 -0.5125  0.4651  0.4538
 4971SOL    HW226550   0.673   3.999   7.497  2.2237 -0.5390  3.0083
 4972SOL     OW26551   3.112   3.853  17.106  0.0122 -0.2766  0.2633
 4972SOL    HW126552   3.119   3.804  17.188 -1.5983 -0.9225  0.0201
 4972SOL    HW226553   3.050   3.923  17.125 -1.3155 -0.2467 -4.2964
 4973SOL     OW26554   2.319   1.119   7.821 -0.3936  0.1146 -0.1207
 4973SOL    HW126555   2.319   1.179   7.895 -2.7571  0.0427 -0.0543
 4973SOL    HW226556   2.375   1.166   7.759 -1.6511  1.1652 -0.4668
 4974SOL     OW26557   4.654   1.212   6.607 -0.6467 -0.4407 -0.2430
 4974SOL    HW126558   4.625   1.298   6.635 -0.5945 -0.4799 -0.0642
 4974SOL    HW226559   4.711   1.191   6.681 -1.4872 -1.6340  0.0776
 4975SOL     OW26560   4.162   4.321  14.890  0.6625  1.0045  0.2139
 4975SOL    HW126561   4.253   4.291  14.883  0.4409  0.7674 -1.7705
 4975SOL    HW226562   4.119   4.236  14.880 -0.4674  1.4696  1.0901
 4976SOL     OW26563   3.475   2.045  15.978 -0.1690 -0.4846 -0.1471
 4976SOL    HW126564   3.547   2.091  16.021  1.4484 -2.1685 -1.0428
 4976SOL    HW226565   3.409   2.112  15.964 -0.9089 -0.9264  1.1495
 4977SOL     OW26566   3.536   4.527   3.918  0.3301  0.3974  0.0351
 4977SOL    HW126567   3.565   4.460   3.980 -1.3955  0.3223  0.7594
 4977SOL    HW226568   3.573   4.606   3.957 -2.2552  1.4283  0.4021
 4978SOL     OW26569   0.187   3.792  10.722 -0.0734 -0.3016 -0.6210
 4978SOL    HW126570   0.265   3.782  10.777 -0.2125 -0.0241 -0.3717
 4978SOL    HW226571   0.153   3.702  10.717 -0.2821 -0.2325 -0.4370
 4979SOL     OW26572   2.981   2.872   5.383 -0.0765 -0.4111  0.2283
 4979SOL    HW126573   3.063   2.919   5.394 -0.2929 -0.0329  0.2401
 4979SOL    HW226574   2.930   2.887   5.462 -0.6654 -0.1219 -0.2007
 4980SOL     OW26575   3.952   3.219   9.899 -0.4076 -0.5603 -0.4763
 4980SOL    HW126576   3.891   3.291   9.887 -0.2784  0.1155  2.8069
 4980SOL    HW226577   4.032   3.261   9.867 -0.8817 -1.0762 -2.3239
 4981SOL     OW26578   2.441   0.707   8.227  0.4619  0.2830 -0.1754
 4981SOL    HW126579   2.357   0.706   8.181  0.4263 -1.8072 -0.0682
 4981SOL    HW226580   2.411   0.720   8.317  2.0816  0.5552  0.3279
 4982SOL     OW26581   1.120   0.341   2.516  0.5751 -0.1390  0.0240
 4982SOL    HW126582   1.059   0.288   2.465  0.2482 -0.2380  0.5169
 4982SOL    HW226583   1.195   0.337   2.457  1.6121 -0.1341  1.3224
 4983SOL     OW26584   4.149   4.499   2.252  0.7141  0.0557 -0.7411
 4983SOL    HW126585   4.107   4.501   2.166  2.4773  1.4895 -1.5602
 4983SOL    HW226586   4.093   4.438   2.300  0.4920  1.1085  0.3483
 4984SOL     OW26587   3.677   0.838   5.825  0.4570  0.1179 -0.1286
 4984SOL    HW126588   3.751   0.779   5.816 -0.8465 -1.6897  1.1696
 4984SOL    HW226589   3.613   0.787   5.875  0.5823 -0.2969 -0.3976
 4985SOL     OW26590   2.897   0.705   3.139  0.5760 -0.5580 -0.7691
 4985SOL    HW126591   2.913   0.649   3.063  3.6372 -0.0392 -0.4849
 4985SOL    HW226592   2.966   0.671   3.196  1.2970  0.4214 -1.0560
 4986SOL     OW26593   1.873   1.340  13.846  0.2637 -0.0743  0.1508
 4986SOL    HW126594   1.831   1.260  13.877 -1.4893  1.2492  1.1607
 4986SOL    HW226595   1.925   1.350  13.926 -2.2147  0.7203  1.6246
 4987SOL     OW26596   1.784   3.331   5.280 -0.2625 -0.1096  0.3599
 4987SOL    HW126597   1.818   3.421   5.288 -0.0978 -0.2530  1.2335
 4987SOL    HW226598   1.821   3.319   5.193 -0.0745 -2.2853  0.7626
 4988SOL     OW26599   0.849   0.904  17.497 -0.3016 -0.3072  0.2219
 4988SOL    HW126600   0.906   0.942  17.430 -0.7438  0.9635  0.5679
 4988SOL    HW226601   0.763   0.882  17.460 -0.6430  3.7529 -1.4850
 4989SOL     OW26602   2.672   1.417   8.654 -0.5626  0.4885  0.0413
 4989SOL    HW126603   2.713   1.476   8.591 -0.5763  0.2520 -0.1868
 4989SOL    HW226604   2.689   1.330   8.620 -0.9475 -0.3547  2.0167
 4990SOL     OW26605   1.103   1.912   8.731  0.1547  0.1452 -0.1931
 4990SOL    HW126606   1.157   1.988   8.754 -2.4655  1.7123  0.8387
 4990SOL    HW226607   1.024   1.952   8.694 -1.7784 -2.5815  1.0067
 4991SOL     OW26608   3.219   3.882   9.773  0.5451  0.3392  0.1355
 4991SOL    HW126609   3.157   3.812   9.796 -0.1945  1.2628  0.9916
 4991SOL    HW226610   3.277   3.881   9.849 -0.0747  0.9093  0.6251
 4992SOL     OW26611   3.185   0.361  11.464 -0.6206  0.5266  0.1503
 4992SOL    HW126612   3.267   0.326  11.427  0.8323  3.4970  0.4802
 4992SOL    HW226613   3.141   0.287  11.504 -0.0639 -1.3228 -2.6714
 4993SOL     OW26614   1.792   2.148   7.136 -0.4786  0.0570 -0.3946
 4993SOL    HW126615   1.886   2.163   7.134 -0.3232 -1.0432 -1.0549
 4993SOL    HW226616   1.786   2.057   7.107 -0.1583  0.6309 -2.2671
 4994SOL     OW26617   3.202   1.204   7.761  0.1167  0.0265  0.6652
 4994SOL    HW126618   3.279   1.257   7.742 -0.6708  1.3526  1.1907
 4994SOL    HW226619   3.147   1.274   7.795  0.5587  1.7794 -2.2777
 4995SOL     OW26620   1.358   3.764   4.684  0.2383  0.6382  0.0602
 4995SOL    HW126621   1.399   3.821   4.749  2.7566 -0.9446 -0.1518
 4995SOL    HW226622   1.351   3.676   4.721  0.2006  0.6338  0.0436
 4996SOL     OW26623   4.118   4.301   0.955  0.1482  0.1543 -0.3179
 4996SOL    HW126624   4.171   4.368   0.912 -1.6518  2.4532  1.0518
 4996SOL    HW226625   4.188   4.251   0.996  1.7032  1.3298 -1.5112
 4997SOL     OW26626   4.399   0.388  15.767 -0.0156 -0.3796 -1.1103
 4997SOL    HW126627   4.337   0.316  15.764 -1.3202  0.6989 -0.1061
 4997SOL    HW226628   4.472   0.347  15.814 -0.7023 -2.1008 -1.5409
 4998SOL     OW26629   0.086   1.928   7.598 -0.2959  0.0592  0.0292
 4998SOL    HW126630   0.021   1.966   7.656  0.7152  0.2360  1.0508
 4998SOL    HW226631   0.046   1.842   7.587 -0.3573  0.6495 -4.1560
 4999SOL     OW26632   0.332   0.275   5.680 -0.2346 -0.4097 -0.3128
 4999SOL    HW126633   0.346   0.199   5.624 -2.8851 -2.6600  2.0746
 4999SOL    HW226634   0.272   0.321   5.622 -1.9820 -3.1028 -0.6047
 5000SOL     OW26635   2.784   0.489   6.243  0.0357 -0.1062  0.3713
 5000SOL    HW126636   2.746   0.550   6.180 -0.1279 -0.8041 -0.2040
 5000SOL    HW226637   2.744   0.407   6.214  0.6156 -0.4146  0.4425
 5001SOL     OW26638   2.428   2.815   4.688  0.0141  0.4021  0.5822
 5001SOL    HW126639   2.425   2.837   4.781  0.0594  0.5367  0.5528
 5001SOL    HW226640   2.424   2.903   4.649  3.5359  0.5974  0.7048
 5002SOL     OW26641   2.318   3.460   4.500  0.0508  0.0577  0.2729
 5002SOL    HW126642   2.381   3.512   4.550 -0.5466  0.5574  0.5026
 5002SOL    HW226643   2.374   3.434   4.426 -0.2405  2.3188 -0.7263
 5003SOL     OW26644   4.304   1.811   3.874  0.1922  0.3892 -0.1822
 5003SOL    HW126645   4.343   1.838   3.958  2.2004 -0.8771 -0.6986
 5003SOL    HW226646   4.234   1.876   3.870 -0.1354  0.1477  1.6242
 5004SOL     OW26647   0.775   2.112   5.156  0.0967  0.4256  0.1471
 5004SOL    HW126648   0.864   2.136   5.130  0.7795 -2.4476 -0.1988
 5004SOL    HW226649   0.744   2.199   5.180 -1.3390  0.3304 -1.3032
 5005SOL     OW26650   1.291   1.780   6.653  0.4511  0.3059 -0.4225
 5005SOL    HW126651   1.275   1.770   6.747 -0.7010 -0.6733 -0.7354
 5005SOL    HW226652   1.203   1.805   6.626  1.3347  2.2764 -1.4583
 5006SOL     OW26653   0.911   4.148   1.564  0.3403  0.0549 -0.2300
 5006SOL    HW126654   1.000   4.119   1.584  0.4268  0.0667 -0.5973
 5006SOL    HW226655   0.901   4.084   1.493 -1.8581  1.5595 -1.3043
 5007SOL     OW26656   3.238   0.880   0.994  0.2063 -0.1972 -0.3361
 5007SOL    HW126657   3.280   0.963   1.014  0.3670  0.1367 -2.0885
 5007SOL    HW226658   3.271   0.832   1.071  1.5180  0.5801 -0.4144
 5008SOL     OW26659   2.335   1.532   5.106  0.0467 -0.4437 -0.6466
 5008SOL    HW126660   2.245   1.507   5.123  0.0993 -0.7028 -0.7567
 5008SOL    HW226661   2.372   1.448   5.078 -1.2375 -1.5597  1.0346
 5009SOL     OW26662   0.829   1.769   5.306  0.0695  0.5214 -0.2219
 5009SOL    HW126663   0.815   1.676   5.324  0.2116  0.4994 -0.2287
 5009SOL    HW226664   0.799   1.766   5.215  0.4923  2.1728 -0.4195
 5010SOL     OW26665   2.854   0.344   5.229 -0.0957 -0.0786  0.2893
 5010SOL    HW126666   2.807   0.352   5.312  2.0513 -0.6667  1.5732
 5010SOL    HW226667   2.886   0.254   5.239  2.4888  0.7271 -0.6024
 5011SOL     OW26668   2.306   1.349   3.194 -0.2061 -0.3885  0.3906
 5011SOL    HW126669   2.357   1.310   3.264  0.0289 -0.2205  0.3091
 5011SOL    HW226670   2.375   1.346   3.128 -1.1969  0.8787 -0.7106
 5012SOL     OW26671   0.405   0.120   6.035 -0.3320 -0.0764  0.3756
 5012SOL    HW126672   0.468   0.055   6.067  0.7223 -0.8438 -3.2096
 5012SOL    HW226673   0.384   0.170   6.114 -1.4070 -0.6954  0.4889
 5013SOL     OW26674   4.698   2.104  11.292  0.0078 -0.0376 -0.1258
 5013SOL    HW126675   4.625   2.108  11.230 -0.7362 -0.0865  0.7513
 5013SOL    HW226676   4.683   2.188  11.336 -0.6703  0.3090 -1.0139
 5014SOL     OW26677   0.059   0.460   6.943 -0.0231  0.1731 -0.3015
 5014SOL    HW126678   0.028   0.382   6.989  1.0934 -0.0820  0.0226
 5014SOL    HW226679   0.113   0.505   7.007 -0.8879 -0.1726  0.6608
 5015SOL     OW26680   1.975   1.913   3.993 -0.1790 -0.7230  0.1716
 5015SOL    HW126681   1.930   1.847   3.940 -1.7943 -0.7766  1.6298
 5015SOL    HW226682   1.929   1.995   3.979 -1.8196 -1.7255 -0.2483
 5016SOL     OW26683   2.281   3.637   0.257  0.4492 -0.5277  0.0144
 5016SOL    HW126684   2.230   3.710   0.222  2.7208  0.3974 -1.3553
 5016SOL    HW226685   2.267   3.569   0.191  1.9764 -0.6419 -0.1860
 5017SOL     OW26686   0.355   1.068  10.767  0.2276  0.7095  0.7869
 5017SOL    HW126687   0.266   1.039  10.745  0.8724 -0.2099 -0.6455
 5017SOL    HW226688   0.399   1.041  10.686 -2.6376 -0.2156 -0.4675
 5018SOL     OW26689   1.337   0.419   3.226  0.5721  0.4192 -0.1300
 5018SOL    HW126690   1.357   0.492   3.167 -1.4792  0.6374 -0.5591
 5018SOL    HW226691   1.243   0.406   3.217  1.0203 -1.2971 -2.5177
 5019SOL     OW26692   3.650   0.531   4.953 -0.0411 -0.2803 -0.1961
 5019SOL    HW126693   3.626   0.528   5.046  0.2901  0.7441 -0.0803
 5019SOL    HW226694   3.621   0.619   4.931 -1.6881 -0.6507  0.5499
 5020SOL     OW26695   0.194   1.925   1.993 -0.0502  0.4946  0.5396
 5020SOL    HW126696   0.125   1.947   1.931 -1.5062 -2.3330  1.1404
 5020SOL    HW226697   0.269   1.916   1.933 -0.3110  3.1279 -0.1950
 5021SOL     OW26698   4.315   4.624   3.628  0.2631  0.2344 -0.8097
 5021SOL    HW126699   4.333   4.687   3.558  3.1543 -0.2554 -0.5153
 5021SOL    HW226700   4.221   4.613   3.615  0.1169  1.8060 -1.1108
 5022SOL     OW26701   4.487   3.426  10.365 -0.4607  0.3108 -0.6136
 5022SOL    HW126702   4.516   3.338  10.385  0.5533  0.6799 -0.4718
 5022SOL    HW226703   4.556   3.458  10.306  0.0100  0.1298 -0.1544
 5023SOL     OW26704   0.090   3.830  12.345  0.6542  0.4908  0.4152
 5023SOL    HW126705   0.171   3.784  12.364 -0.4919 -1.3274  0.9252
 5023SOL    HW226706   0.093   3.828  12.249 -0.0293 -0.1103  0.4027
 5024SOL     OW26707   0.088   3.527  12.245  0.4394 -0.1771 -0.3512
 5024SOL    HW126708   0.060   3.611  12.281 -1.7780 -1.5691  1.1756
 5024SOL    HW226709   0.170   3.515  12.293  0.4122 -1.8635 -0.7178
 5025SOL     OW26710   3.860   3.632  10.602  0.2028  0.0494 -0.0757
 5025SOL    HW126711   3.852   3.541  10.632 -0.7996 -0.2348 -1.1760
 5025SOL    HW226712   3.954   3.640  10.586  0.2546 -0.0121  0.2032
 5026SOL     OW26713   2.494   1.242   7.660 -0.7488  0.1854 -0.1701
 5026SOL    HW126714   2.586   1.217   7.669 -0.0597  2.7349 -0.2253
 5026SOL    HW226715   2.493   1.263   7.567 -0.1124 -0.5734 -0.3523
 5027SOL     OW26716   4.170   0.003   7.706 -0.0653  0.1470 -0.6554
 5027SOL    HW126717   4.094   0.016   7.763 -0.5584  2.1751 -1.7803
 5027SOL    HW226718   4.232   4.699   7.763  1.0838  3.1603  0.4224
 5028SOL     OW26719   0.131   2.812   1.780  0.2008 -0.3493  0.1151
 5028SOL    HW126720   0.050   2.761   1.783 -0.7299  1.0494 -1.3355
 5028SOL    HW226721   0.111   2.888   1.727 -1.5040  0.1628  1.5211
 5029SOL     OW26722   3.875   1.782  15.677 -0.2043  0.0068  0.2113
 5029SOL    HW126723   3.913   1.869  15.685  1.0266 -0.3176 -1.8982
 5029SOL    HW226724   3.800   1.782  15.736 -1.3938 -1.4251 -1.2864
 5030SOL     OW26725   1.783   2.863   3.226 -0.0935  0.2502 -0.1561
 5030SOL    HW126726   1.871   2.826   3.234 -0.5290 -0.7877 -0.1730
 5030SOL    HW226727   1.773   2.876   3.131  0.6143 -2.2180 -0.5657
 5031SOL     OW26728   1.313   1.713   6.035 -0.0153 -0.1281  0.0966
 5031SOL    HW126729   1.246   1.718   5.966  0.1711 -1.6894 -0.1924
 5031SOL    HW226730   1.349   1.625   6.022 -0.2808 -0.3018  0.5698
 5032SOL     OW26731   0.434   2.830   7.520 -0.5108  0.4166 -0.5779
 5032SOL    HW126732   0.505   2.803   7.578 -0.2438  0.1719 -1.0180
 5032SOL    HW226733   0.450   2.922   7.539  0.4483 -0.2091  1.5983
 5033SOL     OW26734   1.752   0.969   7.561  0.0482  0.0994 -0.4147
 5033SOL    HW126735   1.699   0.959   7.640  0.8009  1.2498  0.2370
 5033SOL    HW226736   1.833   0.936   7.600 -0.0488  0.9128  0.4746
 5034SOL     OW26737   2.210   1.536   7.001 -0.0437  0.0838 -0.1393
 5034SOL    HW126738   2.267   1.595   6.952  1.3741 -1.0213  0.1511
 5034SOL    HW226739   2.194   1.464   6.940  2.5173 -0.6992  0.1042
 5035SOL     OW26740   0.890   0.798   7.201 -0.4933 -0.3608  0.3419
 5035SOL    HW126741   0.962   0.804   7.138 -1.1735  1.4560 -0.2638
 5035SOL    HW226742   0.811   0.821   7.152 -1.0725 -1.6773  0.6575
 5036SOL     OW26743   4.491   3.886  14.993  0.1603 -0.2684  0.5344
 5036SOL    HW126744   4.482   3.858  15.084 -4.8892  0.5169  0.2814
 5036SOL    HW226745   4.576   3.846  14.977  0.2942  0.7886 -1.4542
 5037SOL     OW26746   3.302   4.363   1.809  0.0829 -0.0698  0.9191
 5037SOL    HW126747   3.315   4.377   1.902 -0.4196 -2.1338  1.3061
 5037SOL    HW226748   3.207   4.379   1.805  0.2172  1.2816  3.0134
 5038SOL     OW26749   1.202   1.793   6.280  0.0619 -0.0697 -0.2775
 5038SOL    HW126750   1.238   1.757   6.199  1.5002 -0.2985  0.4615
 5038SOL    HW226751   1.210   1.886   6.263 -0.4859  0.5250  2.5884
 5039SOL     OW26752   4.081   3.094   4.986 -0.3192 -0.1641  0.5734
 5039SOL    HW126753   4.111   3.072   5.075  0.5978 -2.5103 -0.3297
 5039SOL    HW226754   4.165   3.072   4.946 -1.0019  1.4870 -1.7624
 5040SOL     OW26755   1.137   4.268   5.407  0.1344  0.3413 -0.1958
 5040SOL    HW126756   1.187   4.224   5.338 -0.9345 -1.7211  0.3694
 5040SOL    HW226757   1.203   4.329   5.440 -1.5995  2.0024  0.2674
 5041SOL     OW26758   4.102   1.579   7.760  0.1988 -0.1042 -0.3745
 5041SOL    HW126759   4.175   1.529   7.725  0.4836  0.3809 -0.4662
 5041SOL    HW226760   4.065   1.510   7.815  1.0939  0.3899  0.8512
 5042SOL     OW26761   0.304   1.231   8.434 -0.0474 -0.0597  0.3667
 5042SOL    HW126762   0.252   1.198   8.361 -1.1311  1.1799  0.5558
 5042SOL    HW226763   0.352   1.304   8.395  1.2131 -0.7848  0.5892
 5043SOL     OW26764   1.242   3.337  10.812 -0.4939 -0.6660  0.2979
 5043SOL    HW126765   1.273   3.263  10.760  3.1339  0.0676  1.3961
 5043SOL    HW226766   1.268   3.311  10.900  1.1913 -0.9008 -0.2745
 5044SOL     OW26767   0.635   2.371   4.090  0.5139  0.5228 -0.1387
 5044SOL    HW126768   0.689   2.419   4.027 -0.2894  2.4673  0.6433
 5044SOL    HW226769   0.599   2.444   4.140 -0.6637  0.5015 -0.9619
 5045SOL     OW26770   3.702   4.369   9.263  0.4248 -0.5107 -0.4447
 5045SOL    HW126771   3.607   4.365   9.260  0.3148 -1.5315  4.1594
 5045SOL    HW226772   3.725   4.365   9.170  1.2421 -0.8848 -0.2361
 5046SOL     OW26773   0.014   4.126  10.946 -0.3544  0.7248  0.4162
 5046SOL    HW126774   0.018   4.111  11.041 -1.6503 -0.5095  0.2707
 5046SOL    HW226775   0.049   4.214  10.931  0.2601  0.3638 -0.2751
 5047SOL     OW26776   4.318   0.662  13.601  0.8206 -0.3821 -0.0002
 5047SOL    HW126777   4.295   0.733  13.661 -3.4440 -0.5200 -1.4954
 5047SOL    HW226778   4.375   0.609  13.657 -0.3693  0.1903  1.7554
 5048SOL     OW26779   0.952   4.144   4.820 -0.0061  0.0291 -0.2549
 5048SOL    HW126780   1.048   4.146   4.827 -0.1136  2.3954  0.8504
 5048SOL    HW226781   0.939   4.057   4.858 -2.3919  1.3722  2.0468
 5049SOL     OW26782   3.359   0.285  13.560 -0.2216  0.5868  0.4094
 5049SOL    HW126783   3.297   0.217  13.534 -0.1048  1.2722 -1.6453
 5049SOL    HW226784   3.416   0.290  13.484 -1.7475  0.9215 -0.7268
 5050SOL     OW26785   1.024   4.686   4.544 -0.1686 -0.0612  0.0463
 5050SOL    HW126786   1.098   4.626   4.533 -0.8827 -1.3242  2.3308
 5050SOL    HW226787   1.045   4.738   4.466 -2.2881  2.1916  0.9870
 5051SOL     OW26788   0.548   3.862   4.876  0.1940 -0.1904  0.0154
 5051SOL    HW126789   0.594   3.809   4.810  2.0235  1.7031 -0.2281
 5051SOL    HW226790   0.467   3.813   4.890 -1.1139  1.3192 -2.3033
 5052SOL     OW26791   1.964   1.380  12.295 -0.6007 -0.3656 -0.0734
 5052SOL    HW126792   2.052   1.372  12.258  0.1758 -0.4954  1.8280
 5052SOL    HW226793   1.972   1.385  12.390  2.5985  2.6937 -0.5284
 5053SOL     OW26794   4.001   2.712  12.203 -0.1749  0.2920  0.5238
 5053SOL    HW126795   4.093   2.704  12.227 -0.0870  1.2837  0.5439
 5053SOL    HW226796   3.971   2.634  12.250 -0.6172 -0.6478 -1.3058
 5054SOL     OW26797   3.138   1.736   7.888 -0.1511 -0.0011 -0.3155
 5054SOL    HW126798   3.152   1.830   7.889 -1.4917  0.1702  2.0689
 5054SOL    HW226799   3.209   1.701   7.834 -1.2751 -0.2016 -1.6464
 5055SOL     OW26800   3.821   0.518   9.024  0.6578 -0.1519 -0.0559
 5055SOL    HW126801   3.822   0.487   8.933 -2.1141  0.4336 -0.2874
 5055SOL    HW226802   3.794   0.610   9.014 -0.4901 -0.4381  0.4084
 5056SOL     OW26803   3.115   2.248   0.705 -0.2537 -0.2729 -0.6354
 5056SOL    HW126804   3.037   2.225   0.755 -0.5739 -0.0712 -1.0409
 5056SOL    HW226805   3.109   2.342   0.723 -0.4678 -0.1855 -1.1467
 5057SOL     OW26806   3.224   4.036  15.691  0.1061 -0.0231 -0.0641
 5057SOL    HW126807   3.255   3.945  15.689 -1.2037 -0.5094  1.5439
 5057SOL    HW226808   3.280   4.076  15.756  0.3549 -2.9552  1.4991
 5058SOL     OW26809   2.436   2.282   2.918 -0.0712 -0.2023 -0.0470
 5058SOL    HW126810   2.505   2.310   2.978  1.1209 -2.9178 -0.1164
 5058SOL    HW226811   2.443   2.187   2.906  1.5526 -0.0020 -0.6796
 5059SOL     OW26812   3.242   0.256   7.581  0.1127 -0.1267  0.2656
 5059SOL    HW126813   3.300   0.202   7.527 -0.7957 -2.2562  1.4112
 5059SOL    HW226814   3.277   0.344   7.569  1.2880 -0.5884  0.3163
 5060SOL     OW26815   1.828   4.285  12.172  0.4577  0.0331 -0.6328
 5060SOL    HW126816   1.735   4.298  12.188  0.2260 -0.4303 -1.6030
 5060SOL    HW226817   1.837   4.204  12.221  3.1379 -0.8017 -2.5062
 5061SOL     OW26818   0.336   0.909   6.402  1.2773  0.4124  0.0298
 5061SOL    HW126819   0.351   0.952   6.486  4.6171 -1.3098  0.3119
 5061SOL    HW226820   0.292   0.975   6.348  0.3579  0.7854  1.2430
 5062SOL     OW26821   4.369   4.592   1.749  0.1122  0.1446  0.2862
 5062SOL    HW126822   4.417   4.641   1.683  1.9341  0.1941  1.6316
 5062SOL    HW226823   4.347   4.511   1.703 -0.7235 -0.0749  1.0712
 5063SOL     OW26824   2.155   1.907  15.293 -0.0926  0.3627  0.0310
 5063SOL    HW126825   2.172   1.926  15.201  0.0840 -1.2517 -0.2721
 5063SOL    HW226826   2.193   1.985  15.333  0.1013  0.6475 -0.7080
 5064SOL     OW26827   0.538   0.372  11.465 -0.1933  0.7835 -0.3616
 5064SOL    HW126828   0.498   0.365  11.552  2.2806 -1.2393  0.5998
 5064SOL    HW226829   0.468   0.419  11.419 -1.5819  0.2418  1.1712
 5065SOL     OW26830   2.653   1.545  13.425 -0.5550  0.2641  0.4574
 5065SOL    HW126831   2.560   1.554  13.405 -0.0799  1.3097 -1.3406
 5065SOL    HW226832   2.656   1.450  13.411 -1.6329  0.6759 -2.6176
 5066SOL     OW26833   0.208   2.376  13.169 -0.3424 -0.2194  0.4080
 5066SOL    HW126834   0.244   2.331  13.246  1.8884 -2.2050 -1.7984
 5066SOL    HW226835   0.254   2.459  13.178  2.5435 -2.0178  2.5475
 5067SOL     OW26836   2.354   4.463   8.049  0.3012 -0.3214 -0.0819
 5067SOL    HW126837   2.393   4.476   8.136 -3.2808  0.8730  1.3439
 5067SOL    HW226838   2.371   4.370   8.035 -0.1099 -0.0987 -2.1206
 5068SOL     OW26839   1.205   1.025   9.112 -0.1671  0.3110 -0.0078
 5068SOL    HW126840   1.293   1.032   9.148  0.1536 -0.6256 -0.6123
 5068SOL    HW226841   1.215   0.954   9.048  0.4465  0.8960 -0.5664
 5069SOL     OW26842   0.117   1.255   7.561  0.0040 -0.0162  0.7036
 5069SOL    HW126843   0.142   1.342   7.531  0.7631 -0.8016 -0.9587
 5069SOL    HW226844   0.047   1.281   7.621 -2.0015  0.3173 -1.7998
 5070SOL     OW26845   1.689   2.920   2.948  0.0972  0.2187 -0.3070
 5070SOL    HW126846   1.613   2.862   2.952  1.2944 -1.3151 -0.1556
 5070SOL    HW226847   1.765   2.864   2.944  0.2589  0.3110  1.2155
 5071SOL     OW26848   1.021   2.156   6.494  0.0440  0.2763 -0.1097
 5071SOL    HW126849   1.055   2.066   6.494  0.0091  0.2667  0.9669
 5071SOL    HW226850   0.952   2.142   6.429 -0.4069 -1.8393  0.8099
 5072SOL     OW26851   1.114   3.317  14.078 -0.1870  0.4659  0.1607
 5072SOL    HW126852   1.102   3.357  13.992  2.4922 -2.4324 -1.5640
 5072SOL    HW226853   1.033   3.268  14.066 -1.0844  1.7395  0.9801
 5073SOL     OW26854   3.280   2.691   9.402  0.2645  0.2996 -0.1649
 5073SOL    HW126855   3.203   2.704   9.458  0.2494  1.9412 -0.5570
 5073SOL    HW226856   3.253   2.708   9.311  1.0340  0.3882 -0.3736
 5074SOL     OW26857   3.669   2.667   5.438  0.4289  0.5335 -0.0008
 5074SOL    HW126858   3.743   2.634   5.489  1.2003 -1.5232 -2.4361
 5074SOL    HW226859   3.709   2.671   5.351  1.3761  1.4383  0.4643
 5075SOL     OW26860   2.392   0.220   0.028  0.5528  0.3072  0.7807
 5075SOL    HW126861   2.461   0.154   0.030  0.2063 -0.0649  0.5693
 5075SOL    HW226862   2.432   0.285   0.085  0.9687  1.7222 -1.1237
 5076SOL     OW26863   0.955   1.513   4.097 -0.0395  0.0128 -0.2684
 5076SOL    HW126864   0.876   1.528   4.044  0.5634 -2.0052 -1.7570
 5076SOL    HW226865   1.014   1.511   4.021  0.0046  0.0643 -0.2352
 5077SOL     OW26866   2.373   1.323  17.049  0.6369  0.1936 -0.2427
 5077SOL    HW126867   2.353   1.382  17.122  0.7898 -1.6405  1.2863
 5077SOL    HW226868   2.386   1.239  17.092  1.6292  0.8993  0.8264
 5078SOL     OW26869   3.355   2.012  12.836 -0.1527  0.2886  0.1766
 5078SOL    HW126870   3.330   1.998  12.927 -1.0617  3.0401  0.3499
 5078SOL    HW226871   3.379   2.104  12.849  2.1389 -0.6560  2.6843
 5079SOL     OW26872   2.417   3.537   9.734  0.0254 -0.9211  0.2653
 5079SOL    HW126873   2.363   3.567   9.661 -0.1887  0.0174  0.8074
 5079SOL    HW226874   2.459   3.457   9.702 -1.3030 -1.8255  0.7969
 5080SOL     OW26875   2.192   0.528  10.513  0.1903  0.7480 -0.3617
 5080SOL    HW126876   2.185   0.531  10.418  2.1140  1.7486 -0.4745
 5080SOL    HW226877   2.275   0.481  10.515 -0.8710 -1.0703  0.5915
 5081SOL     OW26878   1.565   4.551   5.823  0.5178  0.6290  0.5776
 5081SOL    HW126879   1.488   4.576   5.874 -0.1182 -0.5062  0.1875
 5081SOL    HW226880   1.576   4.459   5.849  0.4910  0.8349  1.3167
 5082SOL     OW26881   2.048   1.826   9.006  1.1486  0.2419  0.3039
 5082SOL    HW126882   2.028   1.738   8.976 -0.1561  0.6996 -0.1625
 5082SOL    HW226883   2.079   1.800   9.093 -0.1642  0.4513  0.8355
 5083SOL     OW26884   0.197   1.390  14.566  0.2049  0.2988 -0.2712
 5083SOL    HW126885   0.285   1.378  14.530  0.0164 -0.4084 -0.4964
 5083SOL    HW226886   0.150   1.321  14.519 -0.4665  0.4758  0.1553
 5084SOL     OW26887   2.777   2.650   6.753 -0.9561  0.1285  0.0274
 5084SOL    HW126888   2.842   2.579   6.755  1.8427  2.6555 -1.8076
 5084SOL    HW226889   2.773   2.663   6.658 -0.8418  1.9665  0.2876
 5085SOL     OW26890   2.536   2.061   7.924  0.4667  0.5479 -0.1311
 5085SOL    HW126891   2.547   2.107   8.007  0.2203  2.3393 -1.1015
 5085SOL    HW226892   2.621   2.019   7.910  0.0734 -1.5051  3.6001
 5086SOL     OW26893   3.708   2.164   8.934 -0.3279 -0.4922  0.6325
 5086SOL    HW126894   3.736   2.192   8.847  2.2823 -2.6425  0.7842
 5086SOL    HW226895   3.780   2.198   8.987 -0.5731  1.2309 -0.1467
 5087SOL     OW26896   3.835   2.101   5.281  0.9871 -0.1007  0.3960
 5087SOL    HW126897   3.843   2.196   5.273 -0.4647 -0.0548 -0.5207
 5087SOL    HW226898   3.921   2.062   5.295 -0.3394 -2.5384  1.6843
 5088SOL     OW26899   3.510   3.835   6.545  0.9824  0.0071 -0.0944
 5088SOL    HW126900   3.446   3.779   6.501 -0.1405  2.8443 -2.1017
 5088SOL    HW226901   3.462   3.914   6.570  0.7892 -0.4618  1.0012
 5089SOL     OW26902   2.558   3.595  16.668  0.0898 -0.2125 -0.1945
 5089SOL    HW126903   2.623   3.660  16.640 -0.6334  0.8807  0.6629
 5089SOL    HW226904   2.503   3.591  16.590  0.1323  1.9641 -0.3510
 5090SOL     OW26905   4.053   0.651   5.357 -0.5847  0.1959  0.3045
 5090SOL    HW126906   4.056   0.598   5.437 -0.4181  0.1403  0.2620
 5090SOL    HW226907   4.146   0.670   5.347 -0.5897 -0.2178 -0.5529
 5091SOL     OW26908   1.893   2.881   2.044  0.3913 -0.1646 -0.1358
 5091SOL    HW126909   1.918   2.972   2.054 -1.2042  0.1334  1.1436
 5091SOL    HW226910   1.810   2.889   1.996 -0.1934  2.5341  1.3495
 5092SOL     OW26911   0.008   3.276   4.864  0.4012  0.0969  0.6002
 5092SOL    HW126912   4.736   3.368   4.843 -1.3904 -0.6156 -1.3760
 5092SOL    HW226913   0.058   3.272   4.946 -1.3645  2.9527  1.8167
 5093SOL     OW26914   4.627   2.691   1.405 -0.0183  0.4237 -0.3828
 5093SOL    HW126915   4.690   2.619   1.400 -1.0660 -0.4887 -0.4579
 5093SOL    HW226916   4.665   2.751   1.341  2.4426 -1.8932 -1.1141
 5094SOL     OW26917   2.390   1.960   8.299 -0.6940 -0.3926 -0.3131
 5094SOL    HW126918   2.359   1.995   8.216  0.5318  2.3563  0.3681
 5094SOL    HW226919   2.302   1.948   8.335 -1.5362  2.5233 -1.3976
 5095SOL     OW26920   1.858   2.439   4.199 -0.0761  0.9740 -0.3773
 5095SOL    HW126921   1.890   2.407   4.283 -0.4150  0.9717 -0.2513
 5095SOL    HW226922   1.779   2.386   4.190  0.5099 -0.0570  0.5476
 5096SOL     OW26923   1.608   1.770   9.189  0.6848 -0.2436  0.1119
 5096SOL    HW126924   1.612   1.859   9.226 -2.5907  0.9062 -2.3094
 5096SOL    HW226925   1.557   1.800   9.113  1.4075  0.8729  0.0525
 5097SOL     OW26926   4.488   1.400  10.893 -0.3741 -0.5397  0.1058
 5097SOL    HW126927   4.489   1.463  10.965  0.7553 -0.1343 -0.2771
 5097SOL    HW226928   4.578   1.395  10.860  0.2711  0.0240  1.8017
 5098SOL     OW26929   2.306   4.227   5.113  0.2143  0.0258 -0.0953
 5098SOL    HW126930   2.226   4.241   5.062 -1.5759 -0.3540  2.6266
 5098SOL    HW226931   2.262   4.190   5.189 -1.7514  0.4102 -1.0427
 5099SOL     OW26932   3.701   2.825  11.998 -0.1183 -0.0810 -0.3359
 5099SOL    HW126933   3.748   2.850  11.919  2.7372 -2.2590  0.6963
 5099SOL    HW226934   3.610   2.833  11.968 -0.0711 -2.8186 -1.2037
 5100SOL     OW26935   1.088   4.648   5.861 -0.2144  0.6323  0.1530
 5100SOL    HW126936   1.121   4.565   5.826 -1.6742 -1.3314  3.4530
 5100SOL    HW226937   1.150   4.661   5.933  1.0580 -2.9657 -0.2786
 5101SOL     OW26938   3.497   1.701   3.401 -0.2059 -0.1579  0.6942
 5101SOL    HW126939   3.554   1.661   3.467  3.5846  0.0397 -2.5092
 5101SOL    HW226940   3.521   1.794   3.396  0.9735 -0.5305 -0.3298
 5102SOL     OW26941   3.778   0.824   6.217 -0.1068 -0.3704  0.1031
 5102SOL    HW126942   3.819   0.834   6.132 -1.2030  0.9616 -0.2723
 5102SOL    HW226943   3.853   0.784   6.261  2.0417  3.7188  0.1726
 5103SOL     OW26944   3.054   2.368   7.392 -0.3010 -0.3045 -0.0796
 5103SOL    HW126945   2.996   2.376   7.315 -1.4990  2.9287  1.1355
 5103SOL    HW226946   3.138   2.393   7.355  1.0972 -1.1656  2.5173
 5104SOL     OW26947   2.976   3.069   4.520  0.1040  0.0875  0.3979
 5104SOL    HW126948   2.978   2.976   4.541  1.5732  0.4914  2.1263
 5104SOL    HW226949   3.042   3.072   4.451 -1.5985 -1.6144 -1.2735
 5105SOL     OW26950   2.171   0.234   1.804  0.1178 -0.6569  0.4395
 5105SOL    HW126951   2.087   0.236   1.758 -0.6184 -0.5012  1.8039
 5105SOL    HW226952   2.189   0.326   1.783  1.2876 -0.8860  0.4596
 5106SOL     OW26953   2.305   4.259   9.943 -0.3154 -0.8368 -0.1799
 5106SOL    HW126954   2.295   4.354   9.958 -1.4333 -0.8039 -1.1477
 5106SOL    HW226955   2.384   4.244   9.994  1.0974  3.8505 -0.9680
 5107SOL     OW26956   2.201   3.967   6.817  0.0886 -0.0944 -0.8452
 5107SOL    HW126957   2.176   3.944   6.907 -2.6365  0.2452 -1.5245
 5107SOL    HW226958   2.201   3.878   6.781 -0.1577 -0.9681  1.3258
 5108SOL     OW26959   4.022   3.526   6.228 -0.8687  0.3127 -0.4341
 5108SOL    HW126960   4.095   3.575   6.189  0.4151 -0.6855  0.7066
 5108SOL    HW226961   3.985   3.478   6.153 -0.8676 -1.5746  0.7782
 5109SOL     OW26962   4.667   3.722  11.306 -0.0752 -0.1944  0.3002
 5109SOL    HW126963   4.602   3.790  11.324 -0.2330 -0.3687  0.3896
 5109SOL    HW226964   4.632   3.649  11.357 -0.3348 -1.8672 -2.3032
 5110SOL     OW26965   2.960   3.998  12.777 -0.0471 -0.1184 -0.0784
 5110SOL    HW126966   3.025   3.929  12.788  1.8254  1.5796 -0.5068
 5110SOL    HW226967   2.954   4.002  12.682 -1.8376 -0.4963  0.0186
 5111SOL     OW26968   3.689   3.347   1.815  0.0980 -0.0211  0.2328
 5111SOL    HW126969   3.779   3.381   1.816 -0.3000  0.9403  2.7494
 5111SOL    HW226970   3.655   3.385   1.896 -1.3582  0.8209 -0.7819
 5112SOL     OW26971   1.785   0.385  11.796  0.0931  0.4574  0.9825
 5112SOL    HW126972   1.693   0.361  11.803 -0.0442  0.2905 -1.3664
 5112SOL    HW226973   1.785   0.406  11.703  0.9088 -0.1590  0.8430
 5113SOL     OW26974   0.404   1.602   1.828 -0.0973  0.0338  0.5962
 5113SOL    HW126975   0.471   1.552   1.781  0.3961 -0.6015  1.9863
 5113SOL    HW226976   0.396   1.557   1.912  0.5879  2.4063  1.9513
 5114SOL     OW26977   3.258   2.499   1.253  0.5166  0.1621  0.6294
 5114SOL    HW126978   3.210   2.559   1.310 -1.2181 -2.0553  1.4647
 5114SOL    HW226979   3.338   2.553   1.251  1.5158 -1.4709 -3.6023
 5115SOL     OW26980   0.247   1.321   9.981  0.5285  0.0997 -0.0427
 5115SOL    HW126981   0.229   1.415   9.986 -2.0203 -0.3766 -0.5704
 5115SOL    HW226982   0.279   1.319   9.891  1.8617  0.9488  0.3956
 5116SOL     OW26983   1.137   1.067   3.388 -0.1297  0.4146  0.0020
 5116SOL    HW126984   1.041   1.061   3.381  0.2153 -1.8872 -2.7014
 5116SOL    HW226985   1.146   1.106   3.302 -2.5331  0.4273 -0.2574
 5117SOL     OW26986   3.562   3.320   8.019  0.5073 -0.1769 -0.2169
 5117SOL    HW126987   3.578   3.334   8.112 -3.2404  3.3142 -0.0706
 5117SOL    HW226988   3.571   3.411   7.990  2.1264 -0.4987 -0.7300
 5118SOL     OW26989   1.000   1.438   3.082  0.3779  0.1279  0.3789
 5118SOL    HW126990   0.921   1.457   3.133 -1.3322  0.4365 -2.4007
 5118SOL    HW226991   1.061   1.481   3.141  1.3559 -1.8820  0.8185
 5119SOL     OW26992   4.462   1.672   6.330  0.2418 -0.1299  0.0184
 5119SOL    HW126993   4.399   1.742   6.311  0.8575  0.2520 -0.5908
 5119SOL    HW226994   4.547   1.711   6.314  0.4748 -0.8547 -0.5120
 5120SOL     OW26995   3.919   3.680   3.168  0.7056 -0.2007 -0.5143
 5120SOL    HW126996   3.895   3.595   3.204 -1.2786  0.2620 -0.7431
 5120SOL    HW226997   4.014   3.683   3.178  0.8234  1.4634 -2.1711
 5121SOL     OW26998   3.019   4.007  13.067 -0.0515  0.3165 -0.0444
 5121SOL    HW126999   3.075   4.081  13.042  0.8249 -0.6219 -0.8608
 5121SOL    HW227000   2.946   4.058  13.102 -1.2523 -1.9002  0.7045
 5122SOL     OW27001   3.782   3.015   9.977  0.1110  0.4144 -0.4845
 5122SOL    HW127002   3.739   3.029   9.892 -0.6937 -2.0078 -0.4694
 5122SOL    HW227003   3.837   3.094   9.984 -2.4318  2.1700 -0.3092
 5123SOL     OW27004   2.880   0.001   7.008  0.3910  0.1326 -0.1987
 5123SOL    HW127005   2.843   0.088   7.023 -1.6646 -0.1758 -3.6133
 5123SOL    HW227006   2.920   4.709   7.089 -0.3921  1.0744  0.5664
 5124SOL     OW27007   3.075   4.081   7.671 -0.0297  0.1804 -0.3128
 5124SOL    HW127008   3.073   4.124   7.757 -2.7436 -2.6232  1.0207
 5124SOL    HW227009   2.996   4.028   7.674  0.6218 -0.6812  1.4796
 5125SOL     OW27010   2.125   1.643   3.000 -0.6174  0.2746 -0.0023
 5125SOL    HW127011   2.102   1.550   2.991 -0.7308  0.1510  1.5533
 5125SOL    HW227012   2.090   1.658   3.088 -0.7364 -0.4739  0.0824
 5126SOL     OW27013   3.066   2.578   1.765  0.1365  0.4134 -0.1039
 5126SOL    HW127014   3.044   2.497   1.812  1.1183  0.4592  0.4383
 5126SOL    HW227015   2.987   2.632   1.766  0.6491  1.1347  1.9125
 5127SOL     OW27016   2.501   3.900   8.530  0.0603 -0.1950  0.8099
 5127SOL    HW127017   2.505   3.807   8.550  0.0685 -0.3383  0.1161
 5127SOL    HW227018   2.559   3.923   8.603  1.2467 -0.8233  0.0655
 5128SOL     OW27019   0.241   3.952   2.118 -0.9374  0.2727  0.1236
 5128SOL    HW127020   0.175   4.021   2.126  0.6709  1.6902  0.9640
 5128SOL    HW227021   0.304   3.985   2.054 -3.0240  1.5074 -1.3083
 5129SOL     OW27022   3.998   4.477   5.097  0.3082 -0.2195  0.8855
 5129SOL    HW127023   4.034   4.389   5.086 -0.8877 -0.7238  1.0792
 5129SOL    HW227024   4.019   4.495   5.188 -0.5962  0.9122  0.8785
 5130SOL     OW27025   2.294   4.351   7.429 -0.2306 -0.1990 -0.5379
 5130SOL    HW127026   2.247   4.310   7.357 -1.1558 -0.8044  0.4306
 5130SOL    HW227027   2.292   4.444   7.405 -3.5942 -0.9366 -3.1646
 5131SOL     OW27028   2.996   2.754   0.494  0.5194 -0.4411  0.1670
 5131SOL    HW127029   2.941   2.691   0.448 -1.1382  2.4696 -1.8984
 5131SOL    HW227030   3.044   2.791   0.420  0.6022  0.7429  0.8091
 5132SOL     OW27031   2.184   1.555   5.553  0.5164 -0.2500 -0.5920
 5132SOL    HW127032   2.205   1.640   5.513 -0.3408  1.7635  3.2336
 5132SOL    HW227033   2.166   1.594   5.639 -0.8917 -1.2600 -0.4498
 5133SOL     OW27034   4.352   0.141   6.383  0.5501 -0.2707 -0.3705
 5133SOL    HW127035   4.427   0.162   6.438 -0.3313 -0.2116  0.8004
 5133SOL    HW227036   4.295   0.217   6.371  2.0518  0.4775 -2.6160
 5134SOL     OW27037   1.957   4.294  14.759  0.1821 -0.2766 -0.2623
 5134SOL    HW127038   1.896   4.227  14.730 -0.7751  0.4699  0.0308
 5134SOL    HW227039   1.897   4.359  14.796  0.2211 -1.2657  1.5121
 5135SOL     OW27040   3.711   4.079   3.390 -0.3151 -0.0445  0.1375
 5135SOL    HW127041   3.780   4.081   3.323 -0.2310 -0.5638  0.2093
 5135SOL    HW227042   3.747   4.134   3.459  4.0434 -0.2487 -2.0080
 5136SOL     OW27043   1.280   3.731   6.907  0.1859 -0.6124 -0.2602
 5136SOL    HW127044   1.289   3.815   6.861 -3.0433  1.3299  2.6554
 5136SOL    HW227045   1.366   3.692   6.897  0.9459  0.7991  0.6228
 5137SOL     OW27046   2.756   2.019   9.290  0.1052 -0.0424  0.2768
 5137SOL    HW127047   2.824   2.082   9.265 -1.5918  1.7001  0.0041
 5137SOL    HW227048   2.680   2.073   9.310 -0.3624 -0.2139 -1.0575
 5138SOL     OW27049   2.972   3.186  17.476 -0.5164  0.1876 -0.2144
 5138SOL    HW127050   3.005   3.243  17.546  1.8255  0.7119 -1.7472
 5138SOL    HW227051   2.926   3.122  17.529  2.0091 -1.5216 -0.0690
 5139SOL     OW27052   0.628   0.233   4.185 -0.7023 -0.3777 -0.1711
 5139SOL    HW127053   0.608   0.268   4.272 -0.8912 -5.9856  2.0468
 5139SOL    HW227054   0.705   0.177   4.201  0.2424  0.6096 -1.2645
 5140SOL     OW27055   1.286   2.024  17.172 -0.0628  0.4080 -0.3001
 5140SOL    HW127056   1.285   2.067  17.087 -0.6548  0.9765 -0.0052
 5140SOL    HW227057   1.298   2.101  17.227  3.8199  1.3023 -2.3663
 5141SOL     OW27058   2.859   3.120   3.369  0.0590  0.5248 -0.2179
 5141SOL    HW127059   2.803   3.178   3.421 -1.9975 -1.1969 -0.5099
 5141SOL    HW227060   2.937   3.167   3.340  0.3341  1.1357  1.5089
 5142SOL     OW27061   2.933   4.551   6.323  0.1122 -0.6459  0.0097
 5142SOL    HW127062   2.881   4.533   6.245 -0.1474 -0.8413  0.2298
 5142SOL    HW227063   2.887   4.503   6.392  0.1267 -0.9704 -0.2040
 5143SOL     OW27064   1.351   3.436   1.786 -0.7413  0.1105 -0.0545
 5143SOL    HW127065   1.266   3.444   1.829 -0.2259  0.3776  0.9156
 5143SOL    HW227066   1.338   3.366   1.721  0.5137 -0.4944  0.3355
 5144SOL     OW27067   4.514   2.755  16.948  0.0491  0.1066  0.4316
 5144SOL    HW127068   4.553   2.833  16.908 -0.1598 -1.3901 -2.6853
 5144SOL    HW227069   4.555   2.747  17.034  1.3789 -1.4348 -0.3447
 5145SOL     OW27070   4.221   0.045  11.944  0.2270  0.1192  0.0671
 5145SOL    HW127071   4.132   0.076  11.928 -0.4627 -0.1638  3.3095
 5145SOL    HW227072   4.243   0.029  11.852 -0.4162 -3.1953  0.4873
 5146SOL     OW27073   2.468   1.846  13.294  1.0074  0.1351 -0.1264
 5146SOL    HW127074   2.407   1.891  13.352  1.9272  1.2833 -0.0581
 5146SOL    HW227075   2.527   1.919  13.278  0.5036  0.4880 -0.3602
 5147SOL     OW27076   2.389   3.868   5.140  0.4619 -0.2851 -0.1313
 5147SOL    HW127077   2.307   3.828   5.111  2.0039 -3.0998 -0.6464
 5147SOL    HW227078   2.390   3.847   5.233  1.4218 -3.4276 -0.8297
 5148SOL     OW27079   2.278   0.252   6.300 -0.0296 -0.2161 -0.3355
 5148SOL    HW127080   2.191   0.214   6.284 -1.7372  2.9900  1.3401
 5148SOL    HW227081   2.296   0.223   6.389 -0.9910 -1.4990 -0.5503
 5149SOL     OW27082   3.494   2.468  16.390  0.0672 -0.0445 -0.2936
 5149SOL    HW127083   3.475   2.560  16.371  0.5479  0.3071  0.9725
 5149SOL    HW227084   3.433   2.450  16.462  1.5742 -0.7320  0.8072
 5150SOL     OW27085   3.475   2.663   1.225  0.1936  0.1801  0.1153
 5150SOL    HW127086   3.491   2.639   1.134  1.5346 -1.4573  0.7704
 5150SOL    HW227087   3.519   2.748   1.223 -2.9421  1.7212 -2.8776
 5151SOL     OW27088   2.612   1.927  16.280  0.0763 -0.6793  0.0780
 5151SOL    HW127089   2.627   1.848  16.228  1.0052 -0.3006 -0.2264
 5151SOL    HW227090   2.675   1.985  16.238  0.4179 -1.6655 -0.7877
 5152SOL     OW27091   1.659   0.325   1.995 -0.0595  0.2794 -0.0183
 5152SOL    HW127092   1.651   0.231   2.012 -0.5647  0.1994 -0.7211
 5152SOL    HW227093   1.654   0.369   2.080  2.7889  2.6717 -1.0913
 5153SOL     OW27094   2.510   3.743  15.012  0.0747 -0.5966  0.0934
 5153SOL    HW127095   2.528   3.650  14.998  1.5047 -0.2960 -0.0887
 5153SOL    HW227096   2.464   3.768  14.932 -1.6302 -2.0487  0.6246
 5154SOL     OW27097   2.859   2.682   5.880 -0.4512  0.4828 -0.1636
 5154SOL    HW127098   2.913   2.610   5.847 -1.4056  0.4328 -1.5709
 5154SOL    HW227099   2.916   2.753   5.852  3.8450 -1.4941  3.4837
 5155SOL     OW27100   4.457   4.275  11.097 -0.2770 -0.3297  0.3070
 5155SOL    HW127101   4.515   4.199  11.089  0.8464  0.5236  0.2417
 5155SOL    HW227102   4.517   4.334  11.141  0.2527  0.7448 -1.8288
 5156SOL     OW27103   2.148   3.251   5.817  0.0871  0.3221 -0.2426
 5156SOL    HW127104   2.239   3.247   5.788 -0.7684 -2.2101 -2.6054
 5156SOL    HW227105   2.103   3.279   5.738 -0.9073 -0.6943 -0.0368
 5157SOL     OW27106   3.186   1.467   3.509  0.4398 -0.5258  0.4726
 5157SOL    HW127107   3.169   1.558   3.485  2.4802 -0.4217 -0.5472
 5157SOL    HW227108   3.198   1.425   3.424 -1.1272 -0.4587  0.2185
 5158SOL     OW27109   2.516   1.288   6.365  0.5911 -0.0141  0.3356
 5158SOL    HW127110   2.427   1.286   6.330  1.4625  1.5294 -1.9543
 5158SOL    HW227111   2.506   1.214   6.425  1.5462 -1.8146 -1.7241
 5159SOL     OW27112   3.445   0.870   6.675 -0.4294  0.5276 -0.1441
 5159SOL    HW127113   3.476   0.826   6.596  1.0861  0.4962  0.4686
 5159SOL    HW227114   3.366   0.817   6.690 -0.9029  0.7940 -1.7227
 5160SOL     OW27115   4.302   4.282   7.049 -0.0084 -0.6555  0.1203
 5160SOL    HW127116   4.277   4.289   7.141 -0.1204 -0.3683  0.0661
 5160SOL    HW227117   4.267   4.193   7.042 -1.2700  0.0176 -2.3056
 5161SOL     OW27118   1.262   0.203   7.254  0.0515 -0.4678  0.5735
 5161SOL    HW127119   1.250   0.262   7.328  0.1294 -0.9065  0.9352
 5161SOL    HW227120   1.353   0.175   7.266 -0.1730 -0.2883  2.6634
 5162SOL     OW27121   0.839   2.315   3.055  0.4818  0.0763 -0.2406
 5162SOL    HW127122   0.876   2.390   3.009 -0.5963  0.1319 -1.0142
 5162SOL    HW227123   0.887   2.244   3.012 -0.0571 -1.5725  1.9038
 5163SOL     OW27124   2.784   3.929   9.131 -0.3373 -0.0489 -1.3406
 5163SOL    HW127125   2.849   3.962   9.194  0.5830 -0.1999 -2.2044
 5163SOL    HW227126   2.719   3.908   9.198 -0.2393  0.9129 -0.9342
 5164SOL     OW27127   0.797   4.475   5.698 -0.2441  0.6224  0.4129
 5164SOL    HW127128   0.828   4.411   5.634 -0.4664  0.5242  0.4030
 5164SOL    HW227129   0.760   4.543   5.642 -1.9219  1.1166  2.1054
 5165SOL     OW27130   3.280   1.252   6.426 -0.1286 -0.1978  0.3442
 5165SOL    HW127131   3.365   1.226   6.391  0.9193 -0.8172  3.3961
 5165SOL    HW227132   3.236   1.168   6.419  0.8576 -0.8274  1.8102
 5166SOL     OW27133   1.069   3.514  10.685 -0.1820  0.7082  0.4664
 5166SOL    HW127134   1.119   3.459  10.745 -0.0660  0.9728  0.6125
 5166SOL    HW227135   1.020   3.573  10.743  0.9422  2.6836 -0.5890
 5167SOL     OW27136   3.404   1.772   3.971  0.1873  0.4376  0.2785
 5167SOL    HW127137   3.339   1.838   3.993 -0.1102  0.2007  0.1098
 5167SOL    HW227138   3.376   1.738   3.886  0.6199  2.4974 -0.6680
 5168SOL     OW27139   4.513   0.852   6.727  0.2094 -0.2379 -0.4715
 5168SOL    HW127140   4.455   0.796   6.779  0.3042  0.3405  0.2504
 5168SOL    HW227141   4.555   0.906   6.793 -0.8858  0.1765 -0.1177
 5169SOL     OW27142   0.455   0.955   1.525  0.1151  0.0674 -0.1411
 5169SOL    HW127143   0.493   1.005   1.597  2.5355 -1.7325 -0.1651
 5169SOL    HW227144   0.379   1.009   1.506 -0.3135 -0.7903 -0.8921
 5170SOL     OW27145   4.236   2.296   0.968  0.1634  0.1580 -0.0127
 5170SOL    HW127146   4.206   2.334   1.050  1.4681  1.7057 -0.2580
 5170SOL    HW227147   4.210   2.205   0.986  0.2691  0.0232 -0.5367
 5171SOL     OW27148   3.034   3.697  13.633  0.1272  0.0717 -0.2958
 5171SOL    HW127149   3.004   3.651  13.554 -1.2281 -0.7695  0.7090
 5171SOL    HW227150   3.083   3.626  13.675 -0.2420 -0.5441 -0.9052
 5172SOL     OW27151   4.330   1.010   1.969  0.1673 -0.0691 -0.5681
 5172SOL    HW127152   4.413   0.961   1.970  1.1430  1.6195  1.2165
 5172SOL    HW227153   4.330   1.032   1.876  0.5303  0.3720 -0.4674
 5173SOL     OW27154   0.988   2.351   3.855  0.3046 -0.1779 -0.3707
 5173SOL    HW127155   1.051   2.337   3.784 -0.2900  2.1722 -1.3679
 5173SOL    HW227156   1.031   2.426   3.897 -0.7147 -0.1930  0.6796
 5174SOL     OW27157   2.520   3.419   3.363 -0.1694 -0.1998 -0.1440
 5174SOL    HW127158   2.489   3.491   3.308  0.7838 -0.8499 -1.5070
 5174SOL    HW227159   2.512   3.343   3.306  1.5090 -0.3332 -0.1937
 5175SOL     OW27160   0.131   2.400   9.340  0.4634  0.1391  0.1675
 5175SOL    HW127161   0.164   2.482   9.378 -0.8235  1.3691 -1.3967
 5175SOL    HW227162   0.196   2.334   9.367 -0.7977 -0.8073  0.8991
 5176SOL     OW27163   0.683   3.933   9.721  0.2402 -0.0576 -0.0160
 5176SOL    HW127164   0.718   3.951   9.808 -0.3390 -1.1836  0.4528
 5176SOL    HW227165   0.695   3.838   9.717 -0.8421 -0.2179  0.6727
 5177SOL     OW27166   0.125   1.821   0.478  0.6548 -0.3653  0.3887
 5177SOL    HW127167   0.030   1.829   0.490  0.7749  1.6060  0.0203
 5177SOL    HW227168   0.136   1.726   0.484 -4.3490 -0.9217  1.1822
 5178SOL     OW27169   3.591   3.052   1.795  0.2537  0.3294 -0.0576
 5178SOL    HW127170   3.506   3.084   1.765  1.7945  1.6862 -3.0450
 5178SOL    HW227171   3.606   3.113   1.867  0.9810  1.4001 -1.1159
 5179SOL     OW27172   3.061   3.044  13.634 -0.2231  0.3288  0.0775
 5179SOL    HW127173   3.082   3.055  13.727 -0.0539 -0.5643  0.1417
 5179SOL    HW227174   3.093   2.956  13.614  0.2423 -0.4632  4.2782
 5180SOL     OW27175   2.416   1.179   8.339  0.1496 -0.3670 -0.0557
 5180SOL    HW127176   2.360   1.104   8.358 -1.4448  0.5004 -1.3933
 5180SOL    HW227177   2.394   1.249   8.401  0.9753 -0.7394  0.6591
 5181SOL     OW27178   3.729   1.228   6.679 -0.9459  0.4093 -0.0482
 5181SOL    HW127179   3.666   1.160   6.702  0.5607 -1.2182 -0.6730
 5181SOL    HW227180   3.814   1.187   6.696 -0.5348  1.0563 -0.5254
 5182SOL     OW27181   1.447   2.890   5.391 -0.0268  0.4629 -0.1262
 5182SOL    HW127182   1.483   2.802   5.377 -0.3560  0.2266  0.5072
 5182SOL    HW227183   1.486   2.930   5.469  0.8672 -2.2402  0.8157
 5183SOL     OW27184   3.869   4.186   6.400  0.0004  0.0215 -0.3557
 5183SOL    HW127185   3.835   4.112   6.449 -0.3565  1.1203  1.0548
 5183SOL    HW227186   3.962   4.164   6.397  0.7538  3.2369 -1.4226
 5184SOL     OW27187   4.008   1.724   6.428  1.1515  0.0097 -0.1502
 5184SOL    HW127188   3.985   1.661   6.360 -0.5626  3.3929 -2.6827
 5184SOL    HW227189   3.954   1.801   6.416  1.1676  0.3866  2.0969
 5185SOL     OW27190   3.301   0.976   9.281 -0.1695 -0.3171  0.3845
 5185SOL    HW127191   3.228   1.034   9.303 -0.1862 -0.9101  1.9018
 5185SOL    HW227192   3.370   1.042   9.282 -2.8355  2.4550  0.8203
 5186SOL     OW27193   1.173   3.446  16.615 -0.5633 -0.0701  0.1541
 5186SOL    HW127194   1.092   3.489  16.645 -0.9623 -0.8695  0.2262
 5186SOL    HW227195   1.146   3.410  16.531  0.3656  0.7208 -0.4901
 5187SOL     OW27196   3.808   1.112   8.325  0.1775 -0.4996  0.4757
 5187SOL    HW127197   3.848   1.041   8.274 -0.0914 -0.4378  0.1831
 5187SOL    HW227198   3.826   1.082   8.414 -2.3005 -0.1702  1.0764
 5188SOL     OW27199   0.425   4.552   7.776  0.1902  0.5311 -0.1675
 5188SOL    HW127200   0.423   4.467   7.733  2.6953 -1.1623  3.0108
 5188SOL    HW227201   0.492   4.594   7.723 -0.9469  0.0269 -1.9845
 5189SOL     OW27202   2.337   3.228   4.907  0.4677  0.0145  0.3784
 5189SOL    HW127203   2.253   3.254   4.870  1.1304  1.5212 -0.0630
 5189SOL    HW227204   2.323   3.256   4.997  0.1303 -0.4621  0.4720
 5190SOL     OW27205   4.666   2.609  14.545 -0.0954 -0.1764  0.0644
 5190SOL    HW127206   4.600   2.606  14.615  0.6431 -1.3468  0.6935
 5190SOL    HW227207   4.616   2.631  14.466 -0.9784 -0.6451  0.4830
 5191SOL     OW27208   4.249   0.203   1.266  0.5266  0.0332 -0.3315
 5191SOL    HW127209   4.168   0.234   1.306  2.0262  0.3170  2.5326
 5191SOL    HW227210   4.303   0.282   1.269  2.2939 -1.2729  2.4781
 5192SOL     OW27211   0.132   2.221   7.378 -0.1340 -0.0306 -0.1787
 5192SOL    HW127212   0.159   2.240   7.288  0.2486 -0.5401 -0.1725
 5192SOL    HW227213   0.217   2.206   7.419 -0.2743  2.1713  0.9535
 5193SOL     OW27214   0.178   1.065  10.355 -0.1009  0.2453 -0.2825
 5193SOL    HW127215   0.112   1.059  10.286  1.0563 -1.6335 -1.2102
 5193SOL    HW227216   0.203   1.152  10.323  1.1801  0.6135  1.7064
 5194SOL     OW27217   1.002   1.638   1.438 -0.2910  0.8381 -0.2382
 5194SOL    HW127218   0.989   1.654   1.344 -1.0137 -3.2582 -0.8571
 5194SOL    HW227219   1.094   1.615   1.449 -0.2892  1.3804  0.8136
 5195SOL     OW27220   0.909   2.916  17.319 -0.1566  0.1209 -0.0757
 5195SOL    HW127221   0.958   2.989  17.281  2.3418 -1.9425 -0.8252
 5195SOL    HW227222   0.934   2.847  17.257  0.3806 -1.4971  1.9381
 5196SOL     OW27223   2.407   1.002  13.521  0.1407  0.5516  0.0206
 5196SOL    HW127224   2.314   0.997  13.541  0.1802 -0.3898 -0.0519
 5196SOL    HW227225   2.415   0.962  13.435 -0.7528 -1.1522  0.7411
 5197SOL     OW27226   0.149   3.961   3.467 -0.0460 -0.2800  0.4002
 5197SOL    HW127227   0.111   3.926   3.548  1.6849 -0.3877  1.1527
 5197SOL    HW227228   0.126   3.882   3.418 -2.1000  0.5416  0.0137
 5198SOL     OW27229   2.135   0.044   1.176 -0.1369  0.4710  0.1140
 5198SOL    HW127230   2.053   0.068   1.219 -1.3238 -1.3573 -1.1296
 5198SOL    HW227231   2.135   4.689   1.177 -0.4041  0.4388 -2.1126
 5199SOL     OW27232   0.777   1.329   8.278  0.1454  0.3332  0.5006
 5199SOL    HW127233   0.802   1.407   8.230 -1.0632 -1.0570 -2.3615
 5199SOL    HW227234   0.698   1.299   8.233  0.6659 -3.3197  1.9636
 5200SOL     OW27235   0.370   2.485   1.964 -0.2755  0.1370 -0.0640
 5200SOL    HW127236   0.371   2.404   1.913 -0.4147 -0.8903  1.5639
 5200SOL    HW227237   0.356   2.453   2.053 -0.9135  0.6191  0.0079
 5201SOL     OW27238   1.123   0.576   1.614  0.0487 -0.4284 -0.1230
 5201SOL    HW127239   1.090   0.547   1.699  3.7332  0.3051  1.5385
 5201SOL    HW227240   1.054   0.540   1.559 -0.8983  0.5997  0.3712
 5202SOL     OW27241   3.201   2.709  15.524 -0.2319  0.2274 -0.4664
 5202SOL    HW127242   3.178   2.662  15.605  0.6706  0.7436  0.0833
 5202SOL    HW227243   3.119   2.685  15.481 -0.9148  1.6090  0.0716
 5203SOL     OW27244   4.205   2.029  12.860 -0.1750 -0.3399  0.2731
 5203SOL    HW127245   4.227   2.016  12.768 -0.3962  1.2752  0.0034
 5203SOL    HW227246   4.224   2.122  12.873 -0.7412 -0.2188  0.2496
 5204SOL     OW27247   2.572   3.674  12.600  0.4988  1.0960 -0.1075
 5204SOL    HW127248   2.591   3.583  12.622 -0.2102  0.6419 -1.3860
 5204SOL    HW227249   2.538   3.674  12.510 -0.8253  0.6646  0.3989
 5205SOL     OW27250   0.793   1.739   9.841 -0.5323 -0.4716  0.3375
 5205SOL    HW127251   0.761   1.819   9.799  1.8329  1.2440  1.7806
 5205SOL    HW227252   0.785   1.759   9.934 -2.2255 -2.2989  0.6010
 5206SOL     OW27253   4.667   0.004  17.275  0.3406 -0.0381  0.2929
 5206SOL    HW127254   4.575   0.031  17.274 -0.0108 -1.1492  2.7144
 5206SOL    HW227255   4.678   4.741  17.180  2.2746  0.7686  0.4705
 5207SOL     OW27256   3.088   2.401  11.139  0.9668  0.2594 -0.4480
 5207SOL    HW127257   3.018   2.364  11.192 -0.5918  0.1776 -2.5463
 5207SOL    HW227258   3.097   2.336  11.070 -2.0842 -1.3795  0.6978
 5208SOL     OW27259   3.166   0.074   6.252 -0.1858  0.7473 -0.1007
 5208SOL    HW127260   3.251   0.036   6.231  0.3484  2.3103 -0.7989
 5208SOL    HW227261   3.105   0.002   6.265 -1.4755  1.9329  0.5130
 5209SOL     OW27262   0.451   1.509  15.523  0.5846 -0.2063  0.5161
 5209SOL    HW127263   0.538   1.481  15.493 -1.2263 -2.8616 -2.3129
 5209SOL    HW227264   0.469   1.564  15.599  1.6334 -0.8829  0.7451
 5210SOL     OW27265   0.349   3.215   4.005  0.8888  0.1980 -0.4962
 5210SOL    HW127266   0.389   3.206   3.918  1.3560 -0.4038 -0.2237
 5210SOL    HW227267   0.307   3.130   4.019  0.4026  0.4113 -0.6609
 5211SOL     OW27268   2.505   3.509   4.285  0.0287  0.4124 -0.2371
 5211SOL    HW127269   2.592   3.536   4.314 -0.1073 -0.4164  0.9433
 5211SOL    HW227270   2.466   3.591   4.253  0.6584  0.2028 -1.5523
 5212SOL     OW27271   0.182   3.978   9.167 -0.1097  0.2457 -0.0969
 5212SOL    HW127272   0.274   4.000   9.153 -0.4740  2.0187  0.2991
 5212SOL    HW227273   0.165   4.055   9.221 -2.9756 -0.2365 -0.3153
 5213SOL     OW27274   1.874   3.304  13.320 -0.2546 -0.4350  0.1137
 5213SOL    HW127275   1.822   3.353  13.257 -2.8770 -0.3709  2.3052
 5213SOL    HW227276   1.956   3.354  13.324 -1.4636  1.5483  0.0588
 5214SOL     OW27277   1.209   4.402   2.076 -0.9019  0.3024  0.2765
 5214SOL    HW127278   1.239   4.323   2.120  0.1462 -1.0121 -2.7895
 5214SOL    HW227279   1.135   4.429   2.130 -0.2305  0.5799  1.0676
 5215SOL     OW27280   2.179   0.516   6.395  0.5408 -0.5865  0.2838
 5215SOL    HW127281   2.230   0.454   6.447 -0.9680 -1.8738  0.2003
 5215SOL    HW227282   2.250   0.551   6.340  0.4647 -2.5368 -1.0472
 5216SOL     OW27283   3.228   0.615   2.617 -0.4773  0.4116  0.1093
 5216SOL    HW127284   3.315   0.655   2.621 -0.1510 -0.3383  0.6392
 5216SOL    HW227285   3.179   0.692   2.645 -0.8367 -0.0852  0.8432
 5217SOL     OW27286   1.038   1.589   2.849 -0.3132  0.3725  0.0286
 5217SOL    HW127287   1.068   1.524   2.913  0.8284 -0.2582 -1.1543
 5217SOL    HW227288   1.048   1.676   2.889 -2.6301  0.6172  0.0572
 5218SOL     OW27289   0.532   4.060   3.293  0.1896 -0.4244  0.0811
 5218SOL    HW127290   0.548   4.042   3.200 -2.1286  0.7785 -0.5554
 5218SOL    HW227291   0.616   4.078   3.334  0.0616 -0.0824  0.1948
 5219SOL     OW27292   2.666   2.526   2.698 -0.1323 -0.1350  0.1845
 5219SOL    HW127293   2.688   2.534   2.791 -1.0904 -1.6207  0.5465
 5219SOL    HW227294   2.715   2.599   2.662  0.9375 -0.1097  1.7121
 5220SOL     OW27295   1.770   0.119   2.333  0.0073  0.4042 -0.0583
 5220SOL    HW127296   1.709   0.104   2.260 -2.6444  0.6225  2.1277
 5220SOL    HW227297   1.726   0.077   2.407 -0.1767  0.8988  0.1166
 5221SOL     OW27298   3.350   2.505   9.034  0.3590 -0.2603 -0.1302
 5221SOL    HW127299   3.369   2.413   9.018  2.1289  0.1372 -0.2693
 5221SOL    HW227300   3.426   2.543   8.991  0.6253  0.1948  0.7408
 5222SOL     OW27301   1.021   2.757   4.086 -0.0672 -0.3837  0.3830
 5222SOL    HW127302   0.989   2.744   4.175  2.2860 -3.2322  0.8000
 5222SOL    HW227303   0.948   2.807   4.050 -0.3126 -1.4977 -0.6509
 5223SOL     OW27304   3.257   1.393   3.767  0.2939 -0.0435  0.6128
 5223SOL    HW127305   3.348   1.421   3.774  0.4230 -0.5369  0.9150
 5223SOL    HW227306   3.226   1.432   3.685  1.3131  0.7062  0.5888
 5224SOL     OW27307   0.455   0.304   2.885  0.4457 -0.5498 -0.3229
 5224SOL    HW127308   0.462   0.278   2.793  1.1638 -1.5297  0.0046
 5224SOL    HW227309   0.495   0.391   2.884  1.1590 -0.8655  0.5546
 5225SOL     OW27310   0.704   1.294   3.336  0.3809  0.3145  0.4345
 5225SOL    HW127311   0.758   1.369   3.313 -1.8686  1.8585  0.1469
 5225SOL    HW227312   0.627   1.336   3.375  0.0126 -1.2550  1.4342
 5226SOL     OW27313   2.278   2.260   0.932 -0.7138 -0.3106 -0.5906
 5226SOL    HW127314   2.358   2.295   0.973 -0.5355 -0.5186 -0.7601
 5226SOL    HW227315   2.327   2.193   0.885  1.2435 -0.5799  1.7997
 5227SOL     OW27316   1.000   3.148   7.063 -0.0993  0.4287  0.2523
 5227SOL    HW127317   0.946   3.121   7.138  2.2139 -0.6938  1.5103
 5227SOL    HW227318   1.006   3.242   7.078 -2.0853  0.6106 -0.1754
 5228SOL     OW27319   0.990   2.974   7.627 -0.0091 -0.2758 -0.1466
 5228SOL    HW127320   1.040   2.895   7.649 -0.3071 -1.0152 -2.1273
 5228SOL    HW227321   0.982   2.970   7.532  0.9710  3.0945 -0.4027
 5229SOL     OW27322   0.276   3.936   6.590 -0.3146  0.1391 -0.1673
 5229SOL    HW127323   0.314   4.009   6.638  2.3884 -2.9252  2.2822
 5229SOL    HW227324   0.316   3.864   6.638 -0.0505 -0.3918 -1.1681
 5230SOL     OW27325   3.147   4.348   5.355  0.3282  0.2240  0.0914
 5230SOL    HW127326   3.089   4.276   5.332  1.1678 -0.6684  0.7347
 5230SOL    HW227327   3.167   4.385   5.269  0.0837 -2.5355 -1.1415
 5231SOL     OW27328   2.242   2.720   5.785  0.6193 -0.2588 -0.3042
 5231SOL    HW127329   2.337   2.718   5.774  0.6049  0.9192 -0.6353
 5231SOL    HW227330   2.223   2.631   5.754  1.2141 -0.6783  0.5356
 5232SOL     OW27331   3.781   0.461   3.232 -0.6820  0.3142  0.2494
 5232SOL    HW127332   3.862   0.511   3.238 -1.3161  1.0222  2.6711
 5232SOL    HW227333   3.758   0.435   3.321 -0.7042  0.7214  0.3618
 5233SOL     OW27334   3.550   3.878  17.074  0.8404 -0.1785 -0.0677
 5233SOL    HW127335   3.625   3.937  17.071 -1.4592  2.8190  0.9024
 5233SOL    HW227336   3.558   3.831  17.157 -0.9195 -1.2309 -0.4984
 5234SOL     OW27337   2.666   0.848   5.852  0.4944  0.6135  0.1023
 5234SOL    HW127338   2.685   0.826   5.761  2.9967 -0.3757  0.8642
 5234SOL    HW227339   2.598   0.788   5.881  0.9650 -0.7283 -1.5880
 5235SOL     OW27340   2.994   2.291   9.422 -0.2850  0.3330 -0.1210
 5235SOL    HW127341   2.996   2.248   9.508 -2.0613 -0.4423 -0.4629
 5235SOL    HW227342   2.944   2.367   9.451 -0.4537 -0.0454  0.5869
 5236SOL     OW27343   2.760   0.476   2.530  0.6853 -0.0108  0.3211
 5236SOL    HW127344   2.795   0.462   2.442 -0.8386  0.1013 -0.3060
 5236SOL    HW227345   2.778   0.389   2.564 -1.5784  0.1568  1.9699
 5237SOL     OW27346   1.982   2.315   4.389  0.1956 -0.2813  0.0602
 5237SOL    HW127347   2.064   2.357   4.417 -0.1220  0.1238  0.3764
 5237SOL    HW227348   1.984   2.243   4.452 -0.6672 -0.6615 -0.3509
 5238SOL     OW27349   1.730   3.939  15.897 -0.3342 -0.1296  0.1279
 5238SOL    HW127350   1.679   4.021  15.902  0.1146  0.2843 -2.3131
 5238SOL    HW227351   1.718   3.913  15.806  0.3367  2.6571 -0.7471
 5239SOL     OW27352   3.357   1.835   2.947  0.1716 -0.6118  0.2131
 5239SOL    HW127353   3.387   1.788   3.025 -0.6431 -2.0936 -0.3787
 5239SOL    HW227354   3.434   1.893   2.943 -1.3115  1.4315  1.3860
 5240SOL     OW27355   1.264   3.079  16.797  0.0325 -0.4119  0.6010
 5240SOL    HW127356   1.220   3.159  16.827  0.6973  0.8712 -1.7635
 5240SOL    HW227357   1.229   3.017  16.860  0.8839 -0.7563  0.7341
 5241SOL     OW27358   2.788   3.514   9.990  0.0789  0.1949 -0.2440
 5241SOL    HW127359   2.825   3.505   9.902 -1.2723 -1.8278 -0.6106
 5241SOL    HW227360   2.723   3.583   9.973 -1.5154 -0.9617  1.1652
 5242SOL     OW27361   1.648   3.150   7.248 -0.1997 -0.2558 -0.0559
 5242SOL    HW127362   1.683   3.090   7.183  0.7216  0.6966 -0.4358
 5242SOL    HW227363   1.626   3.224   7.192  0.3320  1.6894  2.2795
 5243SOL     OW27364   4.413   3.375   2.766 -0.1845 -0.1070 -0.0644
 5243SOL    HW127365   4.393   3.376   2.860 -0.3071 -0.5510 -0.0873
 5243SOL    HW227366   4.508   3.364   2.766 -0.2708 -0.8681 -3.2470
 5244SOL     OW27367   0.578   1.472   4.715  0.0849 -0.3190  0.2001
 5244SOL    HW127368   0.656   1.447   4.763  0.0315 -1.2313 -0.1887
 5244SOL    HW227369   0.507   1.413   4.741  0.7144 -1.0983  0.1517
 5245SOL     OW27370   1.223   0.461   5.859 -0.1936 -0.1889 -0.0631
 5245SOL    HW127371   1.142   0.461   5.910 -0.1197  1.1405  0.0448
 5245SOL    HW227372   1.196   0.512   5.783  0.0494 -1.0012 -0.7006
 5246SOL     OW27373   4.700   3.854   3.162 -0.2211  0.4442  0.2172
 5246SOL    HW127374   0.033   3.913   3.153 -0.1067  0.2603 -0.0706
 5246SOL    HW227375   0.004   3.778   3.200 -2.2588 -1.3702 -0.9738
 5247SOL     OW27376   0.534   1.632   7.517  0.1440 -0.0410 -0.2490
 5247SOL    HW127377   0.613   1.682   7.539  0.9918 -1.2349 -0.6047
 5247SOL    HW227378   0.479   1.653   7.593  0.3182  0.0764 -0.1531
 5248SOL     OW27379   2.191   3.412  15.027 -0.2304  0.3867  0.2483
 5248SOL    HW127380   2.283   3.415  15.052 -0.6094  0.7150  1.5916
 5248SOL    HW227381   2.148   3.355  15.090  1.5720  0.4166  1.4832
 5249SOL     OW27382   2.170   1.389   0.853  0.3531 -0.4119 -0.1122
 5249SOL    HW127383   2.200   1.478   0.874  0.8054 -0.4689 -0.5093
 5249SOL    HW227384   2.141   1.356   0.938  2.0394  0.3888  0.7723
 5250SOL     OW27385   4.352   3.229   7.796 -0.3796  0.2339 -0.4145
 5250SOL    HW127386   4.419   3.177   7.751 -0.7324 -1.3038  0.8441
 5250SOL    HW227387   4.380   3.240   7.887  1.4160 -2.7306 -0.6126
 5251SOL     OW27388   2.377   3.981  14.979  0.5566 -0.2475  0.4602
 5251SOL    HW127389   2.343   3.975  15.068  1.4421 -0.4347  0.7851
 5251SOL    HW227390   2.460   3.936  14.997  1.2250  0.0427 -1.9617
 5252SOL     OW27391   3.302   2.733   4.341  0.6005  1.2774  1.0337
 5252SOL    HW127392   3.365   2.699   4.277  0.4273  0.7705  1.1279
 5252SOL    HW227393   3.333   2.691   4.422  0.5017  0.8523  0.8519
 5253SOL     OW27394   1.226   0.093   8.282  0.2863  0.4858  0.2049
 5253SOL    HW127395   1.314   0.122   8.305 -0.2700  1.3170  1.2810
 5253SOL    HW227396   1.238   0.006   8.245  0.4642  1.1160 -1.2250
 5254SOL     OW27397   3.017   2.649  14.028  0.4065 -0.4504 -0.6515
 5254SOL    HW127398   3.091   2.653  13.968 -0.4203 -0.3886 -1.6600
 5254SOL    HW227399   3.004   2.554  14.034 -0.1137 -0.2689  1.0278
 5255SOL     OW27400   4.622   4.159  13.645 -0.3637 -0.5053 -0.1194
 5255SOL    HW127401   4.680   4.117  13.708  0.5401  1.4177  0.3223
 5255SOL    HW227402   4.681   4.181  13.573 -0.6595 -0.0631 -0.2272
 5256SOL     OW27403   4.268   0.977  10.280  0.4254  0.0405 -0.5346
 5256SOL    HW127404   4.344   1.035  10.287 -0.1424  0.8708 -1.3715
 5256SOL    HW227405   4.198   1.032  10.247 -0.5382 -0.0847  1.2830
 5257SOL     OW27406   1.391   0.022   3.894  0.4880  0.0479 -0.0327
 5257SOL    HW127407   1.384   0.045   3.801 -0.3300 -0.7195 -0.1609
 5257SOL    HW227408   1.416   4.671   3.898  4.6226  1.0388 -2.4759
 5258SOL     OW27409   3.938   4.691   7.940 -0.7048  0.4153  0.1376
 5258SOL    HW127410   3.923   4.661   8.030  1.8201 -0.6338  0.2152
 5258SOL    HW227411   3.870   0.017   7.929 -1.0046 -0.0942 -1.0974
 5259SOL     OW27412   3.357   2.970   1.220 -0.1786 -0.5545  0.0604
 5259SOL    HW127413   3.406   3.009   1.148 -0.9976 -0.5818 -0.5135
 5259SOL    HW227414   3.431   2.953   1.278  0.0608  0.2874  0.0028
 5260SOL     OW27415   0.860   1.119  12.734  0.0958 -0.1911  0.1977
 5260SOL    HW127416   0.893   1.088  12.818 -0.5097 -3.9671 -0.9210
 5260SOL    HW227417   0.797   1.048  12.719 -1.4339  1.0849  0.5526
 5261SOL     OW27418   4.298   1.995   2.733  0.2385  0.5896 -0.1216
 5261SOL    HW127419   4.286   2.013   2.639  0.9427 -1.6057 -0.6387
 5261SOL    HW227420   4.368   2.054   2.759  0.0081  1.5600 -1.6870
 5262SOL     OW27421   2.535   2.481   5.784 -0.0767 -0.0164 -0.2432
 5262SOL    HW127422   2.443   2.490   5.810 -0.2557 -0.5727 -0.6737
 5262SOL    HW227423   2.527   2.428   5.704 -1.6974 -0.6397  0.3344
 5263SOL     OW27424   4.739   0.017   4.909 -0.5196 -0.4318  0.1448
 5263SOL    HW127425   4.658   0.063   4.887 -0.9234  0.0061  2.6388
 5263SOL    HW227426   0.035   0.001   4.822  1.9682  1.7703  0.7885
 5264SOL     OW27427   2.832   4.213   8.752 -0.7789  0.3924 -0.6423
 5264SOL    HW127428   2.923   4.237   8.735 -0.1909 -1.2433  0.1710
 5264SOL    HW227429   2.783   4.270   8.694 -1.5850  0.7129  0.3605
 5265SOL     OW27430   2.256   0.818   3.476 -0.2270  0.0649  0.1647
 5265SOL    HW127431   2.199   0.860   3.411  3.2795  1.4742 -1.9972
 5265SOL    HW227432   2.308   0.891   3.510  0.9720 -0.5173 -0.4368
 5266SOL     OW27433   1.232   4.384   8.092  0.2547 -0.0985  0.7197
 5266SOL    HW127434   1.160   4.425   8.141  0.7601  0.3079  1.1277
 5266SOL    HW227435   1.308   4.427   8.131 -0.1807 -0.7961  2.3701
 5267SOL     OW27436   1.764   0.996   0.296  0.3268  0.1635  0.2484
 5267SOL    HW127437   1.757   1.073   0.238  1.3394 -0.3731 -0.5918
 5267SOL    HW227438   1.836   0.962   0.242  1.1297  0.2771  1.2433
 5268SOL     OW27439   2.378   1.641   2.929  0.2089  0.1357  0.0436
 5268SOL    HW127440   2.406   1.672   3.014 -1.2525  0.6026  0.3604
 5268SOL    HW227441   2.285   1.632   2.950 -0.3970  1.6704 -1.9127
 5269SOL     OW27442   1.007   4.353   3.337 -0.1582 -0.3583  0.1119
 5269SOL    HW127443   0.990   4.435   3.384 -0.8930  0.4278 -1.5200
 5269SOL    HW227444   0.920   4.318   3.353 -0.6572  0.3865 -1.0105
 5270SOL     OW27445   3.365   3.471  10.570 -0.6304 -0.5729  0.3629
 5270SOL    HW127446   3.320   3.500  10.490  1.4164  2.1484  0.1763
 5270SOL    HW227447   3.293   3.470  10.633  0.0794  1.0448  1.2081
 5271SOL     OW27448   4.208   2.775   5.605  0.2371  0.2856  0.3466
 5271SOL    HW127449   4.264   2.726   5.665  0.1581  0.5727  0.6598
 5271SOL    HW227450   4.216   2.863   5.644  0.7569  0.1257  0.5878
 5272SOL     OW27451   1.165   0.686   7.654 -0.4685 -0.0239  0.1410
 5272SOL    HW127452   1.155   0.681   7.749  2.0448 -0.1264  0.4040
 5272SOL    HW227453   1.103   0.621   7.623 -0.6222 -0.7871  2.0159
 5273SOL     OW27454   0.916   3.490  16.882 -0.0944 -0.4409  0.0179
 5273SOL    HW127455   0.918   3.547  16.959  1.7010 -1.3213  0.6158
 5273SOL    HW227456   0.852   3.533  16.826 -0.1847 -1.2456 -0.5006
 5274SOL     OW27457   2.963   4.674   6.575  0.5222  0.3860 -0.4654
 5274SOL    HW127458   2.966   4.662   6.481  1.7034 -1.8325 -0.1477
 5274SOL    HW227459   2.974   0.028   6.566  0.0784  0.4916  0.0589
 5275SOL     OW27460   1.814   2.574  15.171  0.4168  0.5917  0.1217
 5275SOL    HW127461   1.898   2.576  15.126  0.1127 -1.5477 -0.5539
 5275SOL    HW227462   1.776   2.659  15.149 -1.6736 -0.1624  0.8095
 5276SOL     OW27463   3.045   0.945   5.470 -0.1568 -0.2885  0.0959
 5276SOL    HW127464   3.120   1.003   5.453 -0.7028  0.3885  0.0134
 5276SOL    HW227465   3.062   0.919   5.560  1.1778  1.1870  0.2884
 5277SOL     OW27466   2.518   3.125   3.785 -0.1263  0.0836  0.6263
 5277SOL    HW127467   2.473   3.206   3.762 -0.9597 -0.3591  0.6804
 5277SOL    HW227468   2.504   3.085   3.699  0.8103 -0.4726  0.7283
 5278SOL     OW27469   2.096   3.886   5.097  0.1216  0.4716 -0.1183
 5278SOL    HW127470   2.100   3.977   5.126  3.0026 -0.8101  3.4809
 5278SOL    HW227471   2.077   3.859   5.186 -1.1803 -2.1444 -1.1783
 5279SOL     OW27472   3.860   0.222  15.332 -0.4846 -0.3312  0.2821
 5279SOL    HW127473   3.889   0.266  15.252 -1.0542  1.6349  1.1401
 5279SOL    HW227474   3.909   0.267  15.401  0.6744 -1.5329  0.2258
 5280SOL     OW27475   0.697   2.366   0.806  0.5015 -0.0809  0.4957
 5280SOL    HW127476   0.618   2.414   0.831 -0.1318 -1.2654  0.7734
 5280SOL    HW227477   0.760   2.431   0.776  1.1461  0.0350  2.1160
 5281SOL     OW27478   1.606   3.581   8.579  0.1889  0.1437  0.1106
 5281SOL    HW127479   1.688   3.541   8.608  0.5471  0.2165 -0.7992
 5281SOL    HW227480   1.544   3.509   8.588 -2.3452  2.4738  1.1139
 5282SOL     OW27481   4.618   3.510   3.797  0.9928 -0.2426  0.7913
 5282SOL    HW127482   4.567   3.497   3.877  0.6467  1.9624  0.9424
 5282SOL    HW227483   4.693   3.458   3.824  2.1352  1.2384  0.4693
 5283SOL     OW27484   3.411   4.359   2.510 -0.2582 -0.3192  0.5203
 5283SOL    HW127485   3.464   4.280   2.498  3.0003  2.0065 -0.3872
 5283SOL    HW227486   3.411   4.362   2.606 -0.8707  1.2954  0.4808
 5284SOL     OW27487   3.429   0.922  11.105  0.0091 -0.1587 -0.2073
 5284SOL    HW127488   3.428   0.986  11.034  0.9397 -1.2951 -1.2344
 5284SOL    HW227489   3.420   0.978  11.183  0.7915 -0.6624  0.2423
 5285SOL     OW27490   4.657   3.894   0.363 -0.3445 -0.3731 -0.2058
 5285SOL    HW127491   4.672   3.834   0.290 -2.2059 -1.0406 -0.0498
 5285SOL    HW227492   4.736   3.876   0.415 -1.3848 -0.9619  1.1883
 5286SOL     OW27493   4.255   1.340   4.976 -0.2739  0.0959  0.0770
 5286SOL    HW127494   4.263   1.267   4.914  0.4619  0.3395 -0.1171
 5286SOL    HW227495   4.277   1.415   4.921 -1.8319  1.2591  1.0520
 5287SOL     OW27496   2.695   1.470   4.970 -0.3184  0.5181  0.1525
 5287SOL    HW127497   2.611   1.449   5.012 -0.2696  0.4831  0.2331
 5287SOL    HW227498   2.738   1.384   4.971 -2.2499 -0.4644 -2.5246
 5288SOL     OW27499   4.642   4.210   2.921  1.1831 -0.3194 -0.1916
 5288SOL    HW127500   4.627   4.203   2.826 -0.9485 -1.1781  0.2086
 5288SOL    HW227501   4.620   4.120   2.944  5.4092 -0.5926  2.7626
 5289SOL     OW27502   1.645   3.722   7.476  0.1027  0.1323 -0.1639
 5289SOL    HW127503   1.661   3.743   7.568  0.1663  1.0734 -0.3965
 5289SOL    HW227504   1.551   3.704   7.470  0.0631  0.6771 -1.2299
 5290SOL     OW27505   2.657   2.308   6.633 -0.1403 -0.7427  0.1797
 5290SOL    HW127506   2.621   2.298   6.545  0.6238 -1.6288 -0.0275
 5290SOL    HW227507   2.750   2.298   6.614  0.2779 -0.4114  2.0515
 5291SOL     OW27508   3.430   3.695   7.509 -0.0229 -0.1286 -0.4915
 5291SOL    HW127509   3.483   3.615   7.513  2.6392  1.5832 -1.4495
 5291SOL    HW227510   3.431   3.686   7.414  0.5995 -1.5313 -0.3454
 5292SOL     OW27511   1.096   4.258   7.868 -0.5232  0.2161 -0.2926
 5292SOL    HW127512   1.170   4.201   7.848 -0.7784  0.2215 -1.2866
 5292SOL    HW227513   1.117   4.297   7.952 -0.4600  0.6624 -0.5159
 5293SOL     OW27514   2.341   2.518   3.501 -0.2135  0.1561 -0.0094
 5293SOL    HW127515   2.254   2.541   3.533 -0.0511  0.9523 -0.1494
 5293SOL    HW227516   2.365   2.611   3.505  0.4868  0.0403 -1.6153
 5294SOL     OW27517   2.974   1.282   7.491 -0.8195  0.3079  0.3164
 5294SOL    HW127518   3.021   1.261   7.571 -0.8786  0.1965  0.3222
 5294SOL    HW227519   3.025   1.358   7.463  1.5708 -2.2957 -2.3957
 5295SOL     OW27520   0.418   1.883   1.793  0.4266  0.1485 -0.2693
 5295SOL    HW127521   0.505   1.899   1.832 -0.0546  0.0273  0.8586
 5295SOL    HW227522   0.418   1.788   1.783  1.1991  0.1993 -0.7684
 5296SOL     OW27523   1.539   2.428   4.831  0.3781 -0.2717  0.8158
 5296SOL    HW127524   1.504   2.390   4.751 -2.4405 -0.4599  2.1408
 5296SOL    HW227525   1.504   2.515   4.813  0.5057 -0.6526 -1.2283
 5297SOL     OW27526   1.983   2.929  12.066  0.1424 -0.2914 -0.0781
 5297SOL    HW127527   1.917   2.866  12.094  0.7230 -1.0133 -0.3509
 5297SOL    HW227528   1.952   3.004  12.118 -0.3140 -0.9472  0.5997
 5298SOL     OW27529   0.744   2.851  17.688 -0.1518 -0.2822  0.3773
 5298SOL    HW127530   0.803   2.799  17.634  1.1208 -1.1034  2.5282
 5298SOL    HW227531   0.732   2.928  17.634  1.5443  1.2590  2.2344
 5299SOL     OW27532   0.962   1.106  17.318  0.3125  0.3263  0.1775
 5299SOL    HW127533   0.931   1.052  17.245  0.5680  1.8269 -1.0333
 5299SOL    HW227534   0.963   1.191  17.275 -1.5034  0.1076 -0.2931
 5300SOL     OW27535   0.302   2.144  13.837 -0.3896  0.0638  0.2489
 5300SOL    HW127536   0.340   2.229  13.814 -1.9782  0.3637 -1.2323
 5300SOL    HW227537   0.212   2.174  13.842  0.1896  1.8811 -0.3427
 5301SOL     OW27538   4.352   4.657   6.222  0.2485 -0.9155 -0.0637
 5301SOL    HW127539   4.367   4.737   6.273  1.1667 -2.8770  2.7616
 5301SOL    HW227540   4.433   4.606   6.230  1.7996  1.8692  2.0089
 5302SOL     OW27541   1.096   3.782  16.744  0.2888 -0.5164 -0.2585
 5302SOL    HW127542   1.006   3.800  16.717 -0.2378 -0.4446  1.6162
 5302SOL    HW227543   1.090   3.781  16.839 -0.1387 -3.2654 -0.3042
 5303SOL     OW27544   3.945   2.591  16.219  0.0550 -0.1489 -0.2588
 5303SOL    HW127545   3.933   2.626  16.131 -0.3690  0.3172 -0.0158
 5303SOL    HW227546   3.884   2.517  16.212 -1.1274  0.7023  1.1018
 5304SOL     OW27547   1.115   0.192   6.712  0.1280  0.8203 -0.0126
 5304SOL    HW127548   1.110   0.284   6.739 -0.7020  0.8994 -0.4187
 5304SOL    HW227549   1.066   0.200   6.630  0.4836  1.2067 -0.1911
 5305SOL     OW27550   4.137   0.844   5.124 -0.7328  0.4941 -0.0010
 5305SOL    HW127551   4.189   0.858   5.203 -2.3762  0.2188  1.1217
 5305SOL    HW227552   4.122   0.937   5.106 -1.4586  0.4639  0.4508
 5306SOL     OW27553   3.826   2.298  12.103  0.4887  0.1283  0.0917
 5306SOL    HW127554   3.780   2.319  12.184 -1.7703  0.5535 -1.3215
 5306SOL    HW227555   3.799   2.367  12.043 -0.9830 -1.3546 -0.9310
 5307SOL     OW27556   3.432   2.760  12.093  0.8953 -0.0319 -0.5673
 5307SOL    HW127557   3.430   2.826  12.162 -2.1043  1.0583 -1.6975
 5307SOL    HW227558   3.361   2.787  12.036  0.4231  0.2571  0.1550
 5308SOL     OW27559   4.142   0.844   6.212 -0.2569 -0.4131 -0.0003
 5308SOL    HW127560   4.070   0.843   6.150 -0.2181  0.1307 -0.0504
 5308SOL    HW227561   4.096   0.865   6.293 -0.9805  1.4754 -0.9030
 5309SOL     OW27562   1.622   3.702   6.260 -0.3470  0.0346  0.2255
 5309SOL    HW127563   1.595   3.611   6.250 -0.3039  0.3090 -2.3768
 5309SOL    HW227564   1.571   3.741   6.332 -0.5494  1.7578 -0.8400
 5310SOL     OW27565   2.466   1.365   2.141 -0.8996 -0.4360  0.2062
 5310SOL    HW127566   2.464   1.306   2.216  0.0586  0.2006  0.7336
 5310SOL    HW227567   2.376   1.399   2.135 -1.2515 -1.3257  0.4122
 5311SOL     OW27568   3.361   2.075   9.753 -0.7153 -0.0184  0.3597
 5311SOL    HW127569   3.419   2.149   9.772 -1.2484  1.4560 -3.7878
 5311SOL    HW227570   3.284   2.118   9.790 -0.1827  1.6503 -0.4946
 5312SOL     OW27571   3.281   3.067   6.371  0.0579 -0.6928 -0.4481
 5312SOL    HW127572   3.254   3.143   6.423  3.8049  0.1030  0.3591
 5312SOL    HW227573   3.236   3.096   6.292  0.8358 -0.5479 -0.8430
 5313SOL     OW27574   2.796   1.804   8.842  0.4040  0.7430 -0.0950
 5313SOL    HW127575   2.730   1.796   8.773 -0.6853  1.5542  0.8720
 5313SOL    HW227576   2.866   1.759   8.794  0.6180  0.9538  0.0216
 5314SOL     OW27577   3.156   1.067  11.418  0.8371 -0.1434  0.2769
 5314SOL    HW127578   3.199   1.143  11.456  0.1142  1.0805 -1.3534
 5314SOL    HW227579   3.174   1.075  11.324 -1.1368 -1.8609 -0.2557
 5315SOL     OW27580   4.457   2.160   1.650 -0.2804 -0.3176 -0.0261
 5315SOL    HW127581   4.501   2.084   1.612  0.8536 -0.2514  1.1589
 5315SOL    HW227582   4.524   2.223   1.674  1.1785 -1.1005 -2.0858
 5316SOL     OW27583   2.087   1.295   8.962 -0.3864 -0.2804 -0.1347
 5316SOL    HW127584   2.138   1.376   8.970 -0.7189 -0.0048 -0.8460
 5316SOL    HW227585   2.023   1.314   9.031 -0.3293  1.8276 -0.6508
 5317SOL     OW27586   3.418   3.071   0.290  0.3919  0.1263 -0.3417
 5317SOL    HW127587   3.507   3.074   0.324 -0.3176  0.4669  1.5480
 5317SOL    HW227588   3.408   2.981   0.258 -0.3346 -0.4962  1.6104
 5318SOL     OW27589   4.135   2.052   3.853 -0.0867 -0.2718  0.6358
 5318SOL    HW127590   4.064   2.112   3.877 -0.3804  0.3018 -1.6656
 5318SOL    HW227591   4.198   2.125   3.858  0.4258 -0.8263  2.3348
 5319SOL     OW27592   4.550   2.385   1.956  0.1537 -0.5243  0.4099
 5319SOL    HW127593   4.494   2.308   1.968 -0.2227 -0.2516  0.4148
 5319SOL    HW227594   4.622   2.357   2.013  1.2463  1.8694  0.2059
 5320SOL     OW27595   2.694   3.749  14.747  0.2044 -0.2229 -0.0946
 5320SOL    HW127596   2.765   3.732  14.685 -0.7882 -2.1719 -0.7131
 5320SOL    HW227597   2.740   3.725  14.827  0.5310  0.8711  0.0477
 5321SOL     OW27598   1.280   3.965   8.074  0.9849 -0.5090  0.2144
 5321SOL    HW127599   1.334   4.044   8.077  0.3259 -0.0585  0.4909
 5321SOL    HW227600   1.261   3.958   8.168  1.5345  0.5044  0.3976
 5322SOL     OW27601   3.119   2.021   9.413  0.3609  0.1613 -0.7251
 5322SOL    HW127602   3.188   2.087   9.420  1.2756 -0.9337  0.5899
 5322SOL    HW227603   3.039   2.071   9.431 -0.0052  0.0533 -2.0748
 5323SOL     OW27604   2.120   0.612   1.637  0.2607  0.3023  0.0739
 5323SOL    HW127605   2.143   0.680   1.573  2.5865 -0.7652 -0.2524
 5323SOL    HW227606   2.028   0.632   1.654 -1.5478 -4.6383 -3.8380
 5324SOL     OW27607   3.068   1.724  11.535  0.3463  0.4255  0.1159
 5324SOL    HW127608   3.055   1.746  11.628 -1.8378 -1.5658  0.2794
 5324SOL    HW227609   3.132   1.790  11.507  1.9573 -1.1915 -0.0174
 5325SOL     OW27610   1.705   4.629  12.067 -0.1891  0.4294 -0.1796
 5325SOL    HW127611   1.654   4.710  12.065 -1.3221 -0.3009 -0.6045
 5325SOL    HW227612   1.628   4.573  12.079  0.7791 -0.7481  0.5933
 5326SOL     OW27613   0.292   4.577  13.174  0.3176 -0.0695 -0.1965
 5326SOL    HW127614   0.234   4.651  13.159 -0.3044 -0.7325 -0.9989
 5326SOL    HW227615   0.322   4.564  13.084  0.6439 -0.2754 -0.0578
 5327SOL     OW27616   3.484   1.142   3.998  0.6208 -0.5025 -0.3913
 5327SOL    HW127617   3.539   1.095   4.061  0.5470  2.7057  2.0493
 5327SOL    HW227618   3.480   1.078   3.926  0.8665  0.2119 -1.0427
 5328SOL     OW27619   3.374   3.366   5.140  0.4056 -0.0948 -0.3098
 5328SOL    HW127620   3.291   3.358   5.094 -0.4929 -0.9539  1.4606
 5328SOL    HW227621   3.357   3.453   5.177 -0.1287 -0.4604  0.2880
 5329SOL     OW27622   4.447   1.148   6.859  0.3687 -0.0551 -0.0974
 5329SOL    HW127623   4.499   1.228   6.868 -0.8895  0.8885 -1.2928
 5329SOL    HW227624   4.387   1.189   6.796 -1.0160  1.0332  1.9030
 5330SOL     OW27625   4.738   4.227   6.232 -0.7852  0.3380 -0.0931
 5330SOL    HW127626   0.074   4.283   6.224 -0.5007 -0.0835 -0.3110
 5330SOL    HW227627   0.038   4.142   6.213  0.1202  0.5724  0.8664
 5331SOL     OW27628   0.708   0.551   6.710 -0.3632  0.4137  0.1163
 5331SOL    HW127629   0.796   0.517   6.694 -1.4434 -1.2005 -2.3239
 5331SOL    HW227630   0.660   0.497   6.647  0.5160  0.9138 -0.9905
 5332SOL     OW27631   3.624   2.161   0.578 -0.0727  0.1258  0.2566
 5332SOL    HW127632   3.609   2.199   0.665  3.4588  1.3446  0.3325
 5332SOL    HW227633   3.584   2.074   0.581 -1.7685  0.8447 -1.5177
 5333SOL     OW27634   2.698   2.221  14.885  0.5786  0.3433  0.2663
 5333SOL    HW127635   2.737   2.134  14.897 -1.2619 -0.2087  2.3468
 5333SOL    HW227636   2.713   2.228  14.791 -1.5665  0.1241 -0.1097
 5334SOL     OW27637   4.074   1.133   6.495 -0.0081  0.4892 -0.2917
 5334SOL    HW127638   4.130   1.056   6.495 -0.7526 -0.0575 -0.7333
 5334SOL    HW227639   4.072   1.150   6.589 -1.6972  0.8109 -0.3740
 5335SOL     OW27640   4.621   2.084   0.546  0.1366 -0.5488 -0.8731
 5335SOL    HW127641   4.654   2.087   0.456  3.0350 -0.5782  0.1808
 5335SOL    HW227642   4.653   2.170   0.575 -1.9886  0.1694 -0.5939
 5336SOL     OW27643   4.736   1.133   4.068 -0.2375 -0.5235 -0.4381
 5336SOL    HW127644   4.663   1.074   4.089 -0.4097  0.9383  3.2420
 5336SOL    HW227645   0.065   1.076   4.036  0.9006 -0.5612  2.0735
 5337SOL     OW27646   4.172   3.143   0.990  0.4230  0.0039 -0.0871
 5337SOL    HW127647   4.155   3.158   1.083 -1.5395 -2.4313 -0.0469
 5337SOL    HW227648   4.251   3.196   0.977  0.2934  0.4031  0.7391
 5338SOL     OW27649   1.946   0.105   5.206  0.0181 -0.2821 -0.4433
 5338SOL    HW127650   1.959   0.149   5.290  0.3355 -2.5049  0.6740
 5338SOL    HW227651   2.025   0.051   5.209  1.0889  1.3359  0.5520
 5339SOL     OW27652   2.486   3.825   5.403 -0.3996  0.2555 -0.1959
 5339SOL    HW127653   2.454   3.770   5.474  1.0921  2.7556  2.4103
 5339SOL    HW227654   2.447   3.907   5.434  0.4952  0.3157  0.7749
 5340SOL     OW27655   3.053   1.447   2.603  0.1090 -0.4011  0.0423
 5340SOL    HW127656   2.960   1.431   2.622 -0.4250  2.7490  0.1856
 5340SOL    HW227657   3.054   1.501   2.524  3.1471 -1.5740 -0.7091
 5341SOL     OW27658   4.280   3.347   3.480  0.2367 -0.2705  0.2621
 5341SOL    HW127659   4.186   3.350   3.462  0.2114  1.4004  0.6885
 5341SOL    HW227660   4.302   3.432   3.517 -1.4491  1.7747 -3.4482
 5342SOL     OW27661   1.261   2.169   7.149 -0.1157 -0.3986  0.5253
 5342SOL    HW127662   1.349   2.163   7.112  0.4426  0.0251  1.7758
 5342SOL    HW227663   1.276   2.152   7.242 -0.0293  0.4266  0.6568
 5343SOL     OW27664   4.417   1.748  13.840  0.3091  0.3961 -0.0733
 5343SOL    HW127665   4.339   1.735  13.896  0.9357  2.5020  1.2643
 5343SOL    HW227666   4.482   1.733  13.909  1.1989 -0.5181 -1.1211
 5344SOL     OW27667   1.831   2.137  14.961 -0.0663  0.1317 -0.1273
 5344SOL    HW127668   1.756   2.197  14.961 -1.7004 -1.9235  0.9386
 5344SOL    HW227669   1.793   2.062  14.917 -1.0085  0.4219  0.1987
 5345SOL     OW27670   0.044   3.987   8.164  0.2648 -0.3762  0.3718
 5345SOL    HW127671   0.008   4.074   8.182  1.8031  0.2401  0.5567
 5345SOL    HW227672   0.132   3.991   8.202 -0.0248 -2.3325  1.2367
 5346SOL     OW27673   3.753   1.500   6.665  0.3941 -0.1073 -0.4608
 5346SOL    HW127674   3.751   1.412   6.701 -2.7310  0.2073  0.1488
 5346SOL    HW227675   3.734   1.473   6.576 -0.5413  0.3202 -0.3945
 5347SOL     OW27676   1.899   1.651   7.703 -0.0446 -0.7892  0.3816
 5347SOL    HW127677   1.940   1.565   7.689  0.1299 -0.6389 -0.0130
 5347SOL    HW227678   1.956   1.690   7.770  2.4417 -3.0519 -0.4216
 5348SOL     OW27679   0.450   0.881   2.372 -0.7135  0.2086 -0.1880
 5348SOL    HW127680   0.480   0.816   2.436  1.3606  1.5548  0.1933
 5348SOL    HW227681   0.466   0.838   2.288 -1.5184 -1.0852  0.3205
 5349SOL     OW27682   2.257   1.925   7.830 -0.3930  0.1786 -0.5508
 5349SOL    HW127683   2.350   1.949   7.827 -0.6960  1.3323 -0.6889
 5349SOL    HW227684   2.257   1.857   7.762 -1.9140  0.4839 -0.8583
 5350SOL     OW27685   1.154   1.363   2.352  0.0186 -0.0718  0.9426
 5350SOL    HW127686   1.197   1.279   2.337 -1.3180 -0.6744  0.5365
 5350SOL    HW227687   1.183   1.413   2.275  1.3631  0.3593  1.7204
 5351SOL     OW27688   4.306   0.938   1.529  0.1488  0.5839 -0.0993
 5351SOL    HW127689   4.212   0.934   1.512 -0.0049  1.3759  0.6060
 5351SOL    HW227690   4.303   1.023   1.572  0.7843 -0.1894  1.4884
 5352SOL     OW27691   4.076   0.421   3.656  0.1350 -0.1392  0.6464
 5352SOL    HW127692   4.039   0.381   3.734  1.9903  1.3657  2.2839
 5352SOL    HW227693   4.167   0.422   3.684 -0.0329 -1.4164  1.2450
 5353SOL     OW27694   2.553   0.310   0.266 -0.8768 -0.2471 -0.3192
 5353SOL    HW127695   2.494   0.287   0.338 -0.6171 -1.2974 -0.4465
 5353SOL    HW227696   2.639   0.317   0.307 -1.5193 -1.4098  1.2486
 5354SOL     OW27697   0.505   1.263  14.393 -0.1693  0.2684 -0.7540
 5354SOL    HW127698   0.536   1.354  14.391 -2.0817  0.9501  0.1721
 5354SOL    HW227699   0.548   1.224  14.469  0.4750  0.6725 -0.9165
 5355SOL     OW27700   0.973   2.699  17.631  0.1544 -0.0703  0.0134
 5355SOL    HW127701   0.986   2.673  17.722 -0.0332  0.6004  0.2329
 5355SOL    HW227702   0.956   2.612  17.595 -0.3876  1.3461 -3.1343
 5356SOL     OW27703   1.379   3.696   6.022 -0.4956 -0.2605  0.5698
 5356SOL    HW127704   1.446   3.628   6.026 -1.8536 -1.5916  0.7252
 5356SOL    HW227705   1.431   3.775   6.032 -0.4169 -0.3117  0.5655
 5357SOL     OW27706   2.930   3.963  11.685  0.7018 -0.2864 -0.2636
 5357SOL    HW127707   2.880   4.038  11.654 -1.3692 -1.3399  0.5502
 5357SOL    HW227708   3.009   4.004  11.721  1.4344 -2.0994  0.2315
 5358SOL     OW27709   3.987   3.624  13.627  0.0909  0.4935 -0.2721
 5358SOL    HW127710   3.928   3.672  13.569 -2.7841 -3.1263 -0.3774
 5358SOL    HW227711   3.974   3.537  13.589 -0.6770  0.4855  0.0194
 5359SOL     OW27712   3.121   3.100   5.616 -0.1928  0.2348  0.0097
 5359SOL    HW127713   3.070   3.167   5.571 -0.9476 -0.5613 -0.3187
 5359SOL    HW227714   3.192   3.076   5.557  0.3643 -1.0860  1.2034
 5360SOL     OW27715   1.044   3.718   3.806  0.4501 -0.0260  0.0014
 5360SOL    HW127716   1.102   3.792   3.792  1.9141 -1.3605 -0.9771
 5360SOL    HW227717   1.078   3.652   3.746  3.3398  2.2866 -0.8734
 5361SOL     OW27718   2.713   2.056   9.798  0.5276 -0.0244 -0.2578
 5361SOL    HW127719   2.620   2.060   9.775  0.4742  0.6369  0.0856
 5361SOL    HW227720   2.718   1.966   9.829  0.9474 -0.1432 -0.6658
 5362SOL     OW27721   3.910   0.411   4.894 -0.3614  0.4946  0.3650
 5362SOL    HW127722   3.822   0.443   4.909 -1.1118 -1.7063  0.7183
 5362SOL    HW227723   3.950   0.441   4.976  0.8334 -0.0565 -0.0124
 5363SOL     OW27724   3.536   0.894   7.779 -0.2566  0.2649  0.4291
 5363SOL    HW127725   3.477   0.903   7.854 -0.7882 -0.6959  0.1197
 5363SOL    HW227726   3.477   0.936   7.716 -0.6325 -1.8449 -0.6022
 5364SOL     OW27727   1.981   2.789  12.504 -0.0726  0.3906 -0.1516
 5364SOL    HW127728   1.924   2.753  12.436 -0.5643  0.6936  0.0991
 5364SOL    HW227729   1.916   2.825  12.565 -0.2394  0.0565 -0.1304
 5365SOL     OW27730   0.185   4.394   6.125 -0.9142  0.3042 -0.2609
 5365SOL    HW127731   0.172   4.489   6.131  1.8069  0.7356 -1.1528
 5365SOL    HW227732   0.275   4.401   6.091 -0.9519 -0.3679 -0.4846
 5366SOL     OW27733   4.609   2.689   0.994 -0.2377  0.1584  0.1060
 5366SOL    HW127734   4.607   2.674   0.899  1.3297 -1.0843  0.2613
 5366SOL    HW227735   4.572   2.607   1.028  1.2001 -0.3275  0.5061
 5367SOL     OW27736   0.028   4.190   4.671 -0.1128  0.3102 -0.3463
 5367SOL    HW127737   0.005   4.102   4.701 -0.3095  0.9939  1.4874
 5367SOL    HW227738   0.122   4.173   4.663  0.3955  2.0377  2.0244
 5368SOL     OW27739   0.658   1.995  11.957  0.0824  0.2549 -0.5139
 5368SOL    HW127740   0.705   2.008  11.875 -0.3314 -1.4020 -1.0054
 5368SOL    HW227741   0.728   1.983  12.021 -0.0387 -1.1959 -0.6485
 5369SOL     OW27742   1.788   2.340   6.105 -0.0335 -0.2155 -0.2910
 5369SOL    HW127743   1.809   2.248   6.089  1.6859  0.0526  0.4155
 5369SOL    HW227744   1.724   2.335   6.175 -0.8531 -0.6054 -1.0635
 5370SOL     OW27745   0.653   1.405   2.616  0.3366 -0.0750 -0.6186
 5370SOL    HW127746   0.708   1.394   2.539  0.5216 -4.0463  0.1291
 5370SOL    HW227747   0.714   1.454   2.672 -1.0430 -0.4466  1.2093
 5371SOL     OW27748   4.311   3.733   4.907  0.2455 -0.2968  0.5115
 5371SOL    HW127749   4.341   3.790   4.837 -1.0576 -1.3002 -0.8668
 5371SOL    HW227750   4.325   3.779   4.990  2.9817  1.5584 -1.0355
 5372SOL     OW27751   1.930   0.550  15.699 -0.1605 -0.0848  0.1856
 5372SOL    HW127752   1.910   0.638  15.668 -0.7039 -0.0071  0.7471
 5372SOL    HW227753   2.006   0.536  15.643 -0.3522  1.0652 -0.3508
 5373SOL     OW27754   2.129   2.976   9.350  0.2702 -0.3724  0.6728
 5373SOL    HW127755   2.171   2.904   9.398  1.3151 -1.1993 -1.5158
 5373SOL    HW227756   2.116   2.938   9.263 -2.9783 -0.6305  1.2623
 5374SOL     OW27757   2.932   2.481   6.612 -0.2457 -0.1680  0.1737
 5374SOL    HW127758   2.933   2.386   6.601 -1.8359 -0.1083 -0.4358
 5374SOL    HW227759   2.905   2.514   6.526  4.5240  0.7960 -1.0183
 5375SOL     OW27760   0.666   1.817  14.000  0.8160 -0.3564 -0.3393
 5375SOL    HW127761   0.709   1.864  14.072  0.5149  0.2535 -0.5586
 5375SOL    HW227762   0.616   1.883  13.952  0.9736 -1.0618 -1.4520
 5376SOL     OW27763   4.296   2.439  10.306 -0.0754 -0.3705  0.8074
 5376SOL    HW127764   4.345   2.433  10.388  2.2128  0.9669 -0.4636
 5376SOL    HW227765   4.252   2.522  10.321  2.7161  1.3946 -0.8905
 5377SOL     OW27766   2.131   2.689   0.106 -0.2295  0.0920  0.1691
 5377SOL    HW127767   2.182   2.617   0.143 -1.3704 -0.5317  0.5385
 5377SOL    HW227768   2.115   2.745   0.182 -1.6589  0.5159 -0.4333
 5378SOL     OW27769   2.429   3.853   1.924  0.0809  0.5618 -0.6226
 5378SOL    HW127770   2.495   3.786   1.905 -0.1455 -0.2907  1.6537
 5378SOL    HW227771   2.464   3.892   2.004 -1.7367  0.6911  0.1069
 5379SOL     OW27772   2.173   0.747  10.851  0.5186  0.2440 -0.3658
 5379SOL    HW127773   2.100   0.697  10.815  0.2074  1.2335 -1.1050
 5379SOL    HW227774   2.248   0.693  10.826  0.2825 -0.3870  0.2921
 5380SOL     OW27775   0.408   1.922  11.622 -0.5185 -0.3696 -0.3313
 5380SOL    HW127776   0.433   1.996  11.677 -0.6657 -0.1408 -0.5784
 5380SOL    HW227777   0.497   1.899  11.593 -0.1419  0.5104  0.1361
 5381SOL     OW27778   0.807   1.158   7.677  0.3473  0.4983  0.1526
 5381SOL    HW127779   0.748   1.099   7.630  0.8799  0.1391 -0.0715
 5381SOL    HW227780   0.884   1.104   7.656 -0.3019 -1.3800  2.5668
 5382SOL     OW27781   4.479   2.767  11.229 -0.3170  0.2158  0.0348
 5382SOL    HW127782   4.549   2.712  11.264 -1.6054 -0.7459  1.0737
 5382SOL    HW227783   4.418   2.777  11.302  0.0355 -2.5715  0.7127
 5383SOL     OW27784   1.078   4.514   7.640 -0.1977  0.1006  0.0981
 5383SOL    HW127785   0.983   4.505   7.630 -0.2757  0.5745  0.4047
 5383SOL    HW227786   1.096   4.497   7.733 -0.6476  1.6708  0.4674
 5384SOL     OW27787   3.430   3.591  10.788 -0.1787  0.2267 -0.3168
 5384SOL    HW127788   3.439   3.539  10.708 -0.6583 -0.5417  0.1299
 5384SOL    HW227789   3.506   3.648  10.777 -0.0743  0.1639  0.0763
 5385SOL     OW27790   4.207   0.379   5.284 -0.8276  0.1966 -0.7127
 5385SOL    HW127791   4.125   0.389   5.331 -0.7885  0.8922 -0.7912
 5385SOL    HW227792   4.255   0.458   5.307  1.4593 -1.3001 -0.3616
 5386SOL     OW27793   3.062   0.574   7.151  0.2568 -0.0390 -0.1828
 5386SOL    HW127794   3.011   0.558   7.072 -1.5896 -2.0344  1.4089
 5386SOL    HW227795   2.991   0.592   7.213  1.0130 -0.8798  0.9268
 5387SOL     OW27796   4.172   2.535   4.825  0.2982 -0.3570 -0.2931
 5387SOL    HW127797   4.101   2.585   4.784  0.1907  0.9954  1.5268
 5387SOL    HW227798   4.253   2.559   4.779 -0.3616  0.1150 -1.2097
 5388SOL     OW27799   2.954   1.731   0.714  0.6223 -1.0915 -0.3436
 5388SOL    HW127800   2.887   1.728   0.781  0.6865 -4.2516 -0.4361
 5388SOL    HW227801   3.028   1.716   0.773  0.9596  1.1827 -0.1808
 5389SOL     OW27802   1.338   0.814   7.480  0.1510  0.0362 -0.0486
 5389SOL    HW127803   1.280   0.769   7.541 -0.6602 -1.7515 -2.1361
 5389SOL    HW227804   1.308   0.783   7.395  2.4622 -0.9946 -0.4871
 5390SOL     OW27805   4.070   0.817   9.164  0.0207  0.2073 -0.1192
 5390SOL    HW127806   4.084   0.864   9.247  0.6412 -1.2962  0.6187
 5390SOL    HW227807   4.093   0.730   9.197 -1.3249 -0.4759 -1.0086
 5391SOL     OW27808   2.620   0.044   2.011 -0.0526  0.4596  0.3508
 5391SOL    HW127809   2.573   4.702   2.014  0.2326  0.2653 -0.6094
 5391SOL    HW227810   2.546   0.103   2.000 -1.4955 -1.5227 -0.4133
 5392SOL     OW27811   2.598   2.597   1.768  0.4855  0.1615 -0.1959
 5392SOL    HW127812   2.568   2.675   1.814  1.6751  1.2447 -1.2641
 5392SOL    HW227813   2.667   2.574   1.830 -0.3385 -3.9891 -0.8279
 5393SOL     OW27814   2.260   3.815   7.743  0.0228  0.5690  0.0326
 5393SOL    HW127815   2.248   3.779   7.831 -2.7939 -1.5840 -1.2026
 5393SOL    HW227816   2.212   3.746   7.695  0.7607  0.3319 -0.3642
 5394SOL     OW27817   0.490   2.094   4.460  0.3239  0.2765 -0.0434
 5394SOL    HW127818   0.475   2.186   4.437 -1.4558 -0.3494 -1.4010
 5394SOL    HW227819   0.470   2.096   4.553  1.8086  1.1260  0.2547
 5395SOL     OW27820   2.982   0.568   5.463  0.2923 -0.0607  0.2909
 5395SOL    HW127821   2.973   0.579   5.368 -3.3002 -0.4690  0.5690
 5395SOL    HW227822   2.890   0.550   5.484 -0.0644 -0.5819 -1.7163
 5396SOL     OW27823   1.519   2.418  14.167  0.1132  0.2607 -0.3218
 5396SOL    HW127824   1.581   2.368  14.112 -0.1236  0.2223 -0.5540
 5396SOL    HW227825   1.581   2.476  14.211  3.9795 -2.2831 -2.2868
 5397SOL     OW27826   1.573   1.113   3.913  0.2654 -0.5786 -0.7864
 5397SOL    HW127827   1.482   1.140   3.924  0.7957  0.6984  0.5559
 5397SOL    HW227828   1.581   1.034   3.859 -2.4497 -0.0617 -1.9467
 5398SOL     OW27829   1.666   1.980   8.408 -0.4558  0.6529  0.2287
 5398SOL    HW127830   1.608   1.957   8.481 -0.6536  1.7920  0.4328
 5398SOL    HW227831   1.696   2.071   8.420 -1.4279  1.1665 -1.3086
 5399SOL     OW27832   4.555   2.784  16.015  0.7060 -0.5248 -0.0741
 5399SOL    HW127833   4.616   2.714  16.038 -0.5656 -1.3973  0.7146
 5399SOL    HW227834   4.564   2.847  16.087 -0.8214  2.0883 -2.1677
 5400SOL     OW27835   1.479   1.211   6.323  0.2996  0.0243 -0.2792
 5400SOL    HW127836   1.567   1.248   6.317  0.1640  0.3318 -0.3857
 5400SOL    HW227837   1.430   1.261   6.258  1.2926 -1.6419 -2.2968
 5401SOL     OW27838   3.868   2.557   1.558  0.3492  0.0085  0.4170
 5401SOL    HW127839   3.815   2.514   1.491 -0.1557  0.5366  0.4748
 5401SOL    HW227840   3.799   2.604   1.605  1.4071 -2.0878  4.0487
 5402SOL     OW27841   2.205   4.599   1.679  0.0752 -0.1846  0.0272
 5402SOL    HW127842   2.219   4.660   1.607 -0.5422 -0.3636 -0.2457
 5402SOL    HW227843   2.113   4.575   1.671 -0.1426 -0.2965  2.8220
 5403SOL     OW27844   2.274   0.997   2.284  0.2497 -0.1240 -0.2015
 5403SOL    HW127845   2.251   1.043   2.203  0.5269 -0.0485 -0.2368
 5403SOL    HW227846   2.362   1.035   2.293  0.4170 -0.6425  0.4164
 5404SOL     OW27847   4.617   4.370  10.690  0.1076 -0.1628 -0.0541
 5404SOL    HW127848   4.690   4.378  10.751 -0.6310  0.6643  0.7286
 5404SOL    HW227849   4.540   4.347  10.742  0.2760  0.0167  0.2791
 5405SOL     OW27850   0.193   3.987   3.131  0.0589  0.7511  0.1375
 5405SOL    HW127851   0.202   3.954   3.041  3.2751 -2.6841  1.7479
 5405SOL    HW227852   0.283   4.006   3.157  1.3209 -2.5212 -1.7878
 5406SOL     OW27853   3.401   3.290   3.861 -0.4763 -0.0534  0.3266
 5406SOL    HW127854   3.390   3.367   3.804  0.3291 -0.1327  0.0680
 5406SOL    HW227855   3.361   3.225   3.803  3.5198 -0.7480 -1.6860
 5407SOL     OW27856   4.003   3.514  11.042 -0.2622 -0.6385 -0.1730
 5407SOL    HW127857   4.076   3.547  10.989  2.2290 -2.8242  1.9045
 5407SOL    HW227858   4.042   3.483  11.123 -0.4551 -1.1458 -0.2742
 5408SOL     OW27859   4.087   3.812   7.041 -0.3982 -0.0432 -0.0220
 5408SOL    HW127860   4.091   3.720   7.065 -1.3601  0.1183  0.7533
 5408SOL    HW227861   3.997   3.812   7.009  0.3886 -2.2416 -2.2418
 5409SOL     OW27862   3.937   2.346   5.361  0.4459 -0.0592 -0.3918
 5409SOL    HW127863   4.032   2.353   5.350  0.7812 -2.9970  0.7777
 5409SOL    HW227864   3.909   2.437   5.355 -1.0436 -0.4622  0.4594
 5410SOL     OW27865   1.837   2.690   2.911 -0.1341 -0.2154  0.7229
 5410SOL    HW127866   1.881   2.695   2.826 -0.4220  1.6198  0.6798
 5410SOL    HW227867   1.872   2.608   2.945  0.0021 -0.5972 -0.3320
 5411SOL     OW27868   0.722   0.132  13.786 -0.3023 -0.3696 -0.0800
 5411SOL    HW127869   0.679   0.204  13.833  0.2787  0.8200 -1.3474
 5411SOL    HW227870   0.689   0.057  13.835  1.5194 -1.3483 -0.3612
 5412SOL     OW27871   0.028   1.029   3.358 -0.3771 -0.0743 -0.3590
 5412SOL    HW127872   4.694   1.086   3.341 -1.5325 -1.3678  0.3951
 5412SOL    HW227873   0.098   1.089   3.382  0.8999 -0.9147 -2.0250
 5413SOL     OW27874   1.844   0.198  12.128  0.2161 -0.2346 -0.1150
 5413SOL    HW127875   1.755   0.207  12.096 -0.1606  1.4369  1.4255
 5413SOL    HW227876   1.870   0.274  12.180  2.4112 -2.8440  2.5814
 5414SOL     OW27877   4.469   1.210   3.874 -0.7525 -0.3271 -0.3761
 5414SOL    HW127878   4.451   1.167   3.958  3.3013 -0.9357  0.2259
 5414SOL    HW227879   4.434   1.154   3.806  0.5683 -0.7361 -0.7267
 5415SOL     OW27880   4.487   2.052   7.536  0.3533 -0.1703 -0.0170
 5415SOL    HW127881   4.511   2.114   7.604 -0.5589  0.2316 -0.0516
 5415SOL    HW227882   4.417   2.101   7.492  0.1624 -0.8130 -0.4412
 5416SOL     OW27883   2.755   0.020   4.613 -0.3689 -0.6938  0.1329
 5416SOL    HW127884   2.701   0.085   4.657  0.0440  0.7322 -1.4474
 5416SOL    HW227885   2.709   4.680   4.632 -0.1189 -1.4359 -2.4322
 5417SOL     OW27886   0.327   1.263  15.525 -0.0099 -0.7695 -0.0693
 5417SOL    HW127887   0.368   1.347  15.505  1.0523 -0.8994  1.6216
 5417SOL    HW227888   0.403   1.205  15.529  1.7319  1.5555  0.8503
 5418SOL     OW27889   3.829   3.355   3.756  0.2315 -0.1574  0.0818
 5418SOL    HW127890   3.826   3.342   3.661 -0.2513  1.1190 -0.0797
 5418SOL    HW227891   3.923   3.374   3.752  0.4004 -0.7371  1.3331
 5419SOL     OW27892   3.427   3.453   7.101  0.2033 -0.0068 -0.0533
 5419SOL    HW127893   3.394   3.363   7.091  0.6459 -0.2910  1.0434
 5419SOL    HW227894   3.511   3.438   7.059  0.7782  2.7907  0.1002
 5420SOL     OW27895   2.906   3.070   0.843 -0.4948 -0.1227 -0.1622
 5420SOL    HW127896   2.976   3.119   0.801 -0.3601 -2.1282 -2.2898
 5420SOL    HW227897   2.914   2.982   0.804 -0.6683  0.5702 -1.7813
 5421SOL     OW27898   3.119   4.289  10.838 -0.4259 -0.4604 -0.2322
 5421SOL    HW127899   3.130   4.311  10.931  0.3338  0.7992 -0.6218
 5421SOL    HW227900   3.155   4.200  10.841 -0.8583 -0.7346 -3.0042
 5422SOL     OW27901   2.302   1.993   1.765 -0.8422  0.3279  0.8008
 5422SOL    HW127902   2.307   2.069   1.706  0.6141 -0.0141  0.4911
 5422SOL    HW227903   2.392   1.973   1.791 -0.7990  0.1750  0.5333
 5423SOL     OW27904   0.674   4.275   3.754 -0.2642  0.4239  0.0160
 5423SOL    HW127905   0.658   4.225   3.834 -1.3324 -2.5590 -2.0876
 5423SOL    HW227906   0.770   4.269   3.751 -0.4048 -0.9956 -1.5252
 5424SOL     OW27907   3.666   4.669   3.151  0.5706 -0.1610 -0.0035
 5424SOL    HW127908   3.756   4.645   3.129  1.2047  0.5050  1.8853
 5424SOL    HW227909   3.663   4.668   3.247 -0.2432  3.6982  0.0339
 5425SOL     OW27910   3.480   1.572   3.000  0.4085  0.0378 -0.1333
 5425SOL    HW127911   3.496   1.493   3.053  0.9562 -1.3718 -2.4241
 5425SOL    HW227912   3.389   1.566   2.969  0.1727  2.0123  0.1733
 5426SOL     OW27913   2.582   2.481   6.806 -0.2234 -0.0757 -0.8373
 5426SOL    HW127914   2.633   2.560   6.790 -0.0323 -0.4096 -1.8686
 5426SOL    HW227915   2.583   2.441   6.720  0.5221  0.0810 -0.9034
 5427SOL     OW27916   1.539   4.622   8.997  0.0335 -0.0817  0.7145
 5427SOL    HW127917   1.624   4.581   9.013  1.7262  3.2273  0.1337
 5427SOL    HW227918   1.548   4.686   9.067  1.8941  0.0097  0.3797
 5428SOL     OW27919   0.607   0.809  11.098  0.0489  0.2792  0.2876
 5428SOL    HW127920   0.626   0.830  11.190 -0.0363  0.9446  0.1539
 5428SOL    HW227921   0.640   0.719  11.094  0.9799  0.5448  1.8575
 5429SOL     OW27922   3.045   3.231  10.841  0.5727 -0.2898 -0.0883
 5429SOL    HW127923   2.949   3.231  10.837  0.4816  1.3512  2.2013
 5429SOL    HW227924   3.069   3.283  10.765  0.8741  1.3179  1.1002
 5430SOL     OW27925   0.514   1.432   3.477 -0.2253  0.1751 -0.7765
 5430SOL    HW127926   0.520   1.505   3.539  0.9067 -0.2521 -0.3849
 5430SOL    HW227927   0.420   1.422   3.468  0.0588 -0.5482 -2.7677
 5431SOL     OW27928   1.946   2.070   8.328 -0.3385  0.1127  0.2054
 5431SOL    HW127929   2.009   2.039   8.393 -0.5312 -0.4115  0.1388
 5431SOL    HW227930   1.947   1.986   8.283  0.3999  0.9454 -1.3761
 5432SOL     OW27931   3.259   2.263  16.492  0.0946 -0.0146  0.2609
 5432SOL    HW127932   3.203   2.242  16.566  2.3859  0.3783  2.1157
 5432SOL    HW227933   3.270   2.180  16.447 -2.5370 -0.9057  1.2771
 5433SOL     OW27934   3.521   0.161   1.782 -0.0249  0.2245 -0.0788
 5433SOL    HW127935   3.604   0.134   1.822 -0.6048 -0.3171  0.7702
 5433SOL    HW227936   3.542   0.249   1.751 -2.5733  2.2708  3.9458
 5434SOL     OW27937   1.886   3.494   0.207  0.0411  0.1377  0.0120
 5434SOL    HW127938   1.947   3.493   0.280 -0.9120 -2.2556  0.7829
 5434SOL    HW227939   1.805   3.524   0.247 -1.2210  0.4323 -2.7549
 5435SOL     OW27940   0.481   3.110   7.549  0.4757 -0.1832 -0.2557
 5435SOL    HW127941   0.443   3.150   7.627  1.0203  0.2980 -0.2297
 5435SOL    HW227942   0.409   3.114   7.486 -0.7615  0.3974  1.1949
 5436SOL     OW27943   4.390   2.187   5.769 -0.4285  0.6404  0.1726
 5436SOL    HW127944   4.363   2.095   5.763 -1.3964  0.8715  1.0252
 5436SOL    HW227945   4.365   2.217   5.681 -0.3883 -0.8577 -0.3557
 5437SOL     OW27946   1.747   4.213   2.169  0.4161 -0.1519  0.4319
 5437SOL    HW127947   1.737   4.206   2.074  1.1350 -1.5577  0.4446
 5437SOL    HW227948   1.842   4.224   2.177  0.6442 -1.1020 -0.9702
 5438SOL     OW27949   2.627   4.369   8.598 -0.2843  0.4099  0.0617
 5438SOL    HW127950   2.539   4.331   8.593 -0.7247  1.5055 -0.5202
 5438SOL    HW227951   2.600   4.460   8.607 -2.5773 -0.2095 -0.4323
 5439SOL     OW27952   0.698   4.517   3.618 -0.3220 -0.5735 -0.3621
 5439SOL    HW127953   0.691   4.436   3.669 -0.1573 -1.7241 -2.1751
 5439SOL    HW227954   0.618   4.562   3.647  1.1684  0.8777  1.4769
 5440SOL     OW27955   4.410   2.975   1.082  0.6231 -0.0720 -0.1181
 5440SOL    HW127956   4.397   2.883   1.058  1.8180 -0.2207 -0.1898
 5440SOL    HW227957   4.339   3.015   1.031  0.1842 -1.2287 -0.4285
 5441SOL     OW27958   2.390   4.224   6.862  0.4426 -0.0321 -0.0963
 5441SOL    HW127959   2.400   4.265   6.776  0.3643 -1.7038 -0.9014
 5441SOL    HW227960   2.324   4.156   6.851  0.4415  0.1559 -1.2548
 5442SOL     OW27961   2.051   3.279   3.610 -0.3021 -0.0631  0.0185
 5442SOL    HW127962   1.970   3.315   3.647 -0.2051  1.3409 -1.1591
 5442SOL    HW227963   2.013   3.241   3.531 -1.1131  0.6737  0.0510
 5443SOL     OW27964   4.040   1.040   7.848 -0.2112  0.0851  0.2760
 5443SOL    HW127965   3.962   1.094   7.841 -0.1533  0.1393  0.0506
 5443SOL    HW227966   4.014   0.962   7.897  3.5737 -0.8792  0.7681
 5444SOL     OW27967   1.910   4.303   5.922 -0.2390 -0.2928 -0.0117
 5444SOL    HW127968   1.935   4.214   5.945 -0.0334 -0.5486 -1.2427
 5444SOL    HW227969   1.950   4.359   5.989 -0.3063  0.5610 -0.6850
 5445SOL     OW27970   3.771   0.220   2.744  0.0133 -0.8647 -0.1833
 5445SOL    HW127971   3.857   0.199   2.780  0.8005  1.8921 -0.4674
 5445SOL    HW227972   3.749   0.278   2.817  0.2094 -1.4435  0.3456
 5446SOL     OW27973   4.370   3.711  13.616  0.2838  0.1405  0.1893
 5446SOL    HW127974   4.388   3.800  13.646 -1.6682  0.2539  1.0164
 5446SOL    HW227975   4.345   3.737  13.527 -0.9277 -1.8518 -0.0433
 5447SOL     OW27976   2.737   2.926   5.873  0.2310  0.4078 -0.2418
 5447SOL    HW127977   2.785   2.878   5.941 -0.6732  0.2602  0.2849
 5447SOL    HW227978   2.652   2.955   5.905 -0.1970 -1.5915  0.4645
 5448SOL     OW27979   3.756   1.089   2.266  0.2118  0.0132  0.0624
 5448SOL    HW127980   3.833   1.063   2.216 -0.3598 -0.0439 -0.7918
 5448SOL    HW227981   3.732   1.171   2.224 -2.2693  0.3698  2.1803
 5449SOL     OW27982   4.696   2.003  11.852 -0.7543  0.3976 -0.2601
 5449SOL    HW127983   0.048   2.022  11.838 -1.1127  1.0153 -1.8069
 5449SOL    HW227984   4.665   1.989  11.762 -2.0146  1.2703  0.0452
 5450SOL     OW27985   2.323   0.392   8.940 -0.3209 -0.0088 -0.2229
 5450SOL    HW127986   2.414   0.365   8.949  0.6570  2.6868 -1.7937
 5450SOL    HW227987   2.336   0.487   8.934  0.9372 -0.1109  0.9029
 5451SOL     OW27988   2.612   4.534   4.633  0.3423 -0.0337  0.3478
 5451SOL    HW127989   2.671   4.513   4.561 -2.0336 -1.4511 -1.1627
 5451SOL    HW227990   2.616   4.444   4.666  2.6383 -0.2720 -0.5733
 5452SOL     OW27991   1.488   2.248  17.207 -1.0789 -0.0827 -0.5899
 5452SOL    HW127992   1.441   2.278  17.129  0.9925  0.7486 -1.5064
 5452SOL    HW227993   1.546   2.320  17.230  0.4763 -1.0778 -1.3945
 5453SOL     OW27994   2.157   2.743   3.869 -0.2700 -0.1607 -0.3441
 5453SOL    HW127995   2.154   2.692   3.788  1.1421 -0.7476 -0.0148
 5453SOL    HW227996   2.222   2.810   3.849 -2.4696  2.4542  1.2310
 5454SOL     OW27997   0.044   0.455  15.979  0.0201  0.0417  0.5506
 5454SOL    HW127998   0.048   0.550  15.964  0.5029 -0.0390  0.1678
 5454SOL    HW227999   0.135   0.426  15.988  0.8848  2.6573  0.4231
 5455SOL     OW28000   2.356   2.133   3.661 -0.7372  0.5908  0.1769
 5455SOL    HW128001   2.407   2.067   3.708  0.1210 -0.3810 -2.0601
 5455SOL    HW228002   2.287   2.132   3.727  0.3459  0.6071  1.3006
 5456SOL     OW28003   3.480   4.207   6.357 -0.0769  0.6677  0.1088
 5456SOL    HW128004   3.486   4.160   6.275  0.3815  1.5043 -0.3395
 5456SOL    HW228005   3.502   4.298   6.334 -2.2287  0.8347 -1.3700
 5457SOL     OW28006   3.090   2.585  15.814  0.0282 -0.2272  0.0439
 5457SOL    HW128007   3.138   2.508  15.843 -1.8816 -2.4712 -2.7339
 5457SOL    HW228008   2.999   2.563  15.837  0.1539  0.2010  0.9424
 5458SOL     OW28009   0.245   4.327   8.082  0.2305  0.4956  0.6279
 5458SOL    HW128010   0.299   4.407   8.083  0.6625  0.2143  0.1491
 5458SOL    HW228011   0.245   4.309   7.988  3.6513  1.8233  0.3664
 5459SOL     OW28012   1.150   2.083  12.605 -0.6689 -0.3252 -0.1759
 5459SOL    HW128013   1.218   2.134  12.562 -1.2899  0.9495  0.3766
 5459SOL    HW228014   1.193   1.997  12.603  2.0536  1.0676 -0.4578
 5460SOL     OW28015   2.057   2.212   4.040  0.3526 -0.2188  0.3418
 5460SOL    HW128016   2.076   2.148   4.109 -1.2285 -1.4799 -0.4026
 5460SOL    HW228017   2.096   2.294   4.072  0.2290 -0.3551  0.8428
 5461SOL     OW28018   1.588   2.193   3.025  0.1715  0.1466 -0.3432
 5461SOL    HW128019   1.656   2.149   3.077 -1.3620 -0.9455  0.7338
 5461SOL    HW228020   1.642   2.211   2.948  0.4073 -1.0918 -0.4771
 5462SOL     OW28021   0.769   3.776   6.647  0.2881  0.0076 -0.2473
 5462SOL    HW128022   0.851   3.809   6.684  0.8968 -0.7611 -0.9229
 5462SOL    HW228023   0.719   3.751   6.725 -0.3846  0.8186 -0.4189
 5463SOL     OW28024   2.525   2.227   7.666  0.0768 -0.0223 -0.2760
 5463SOL    HW128025   2.509   2.148   7.718  0.4767  0.2954  0.3361
 5463SOL    HW228026   2.603   2.206   7.615  0.2714  1.0096 -0.4035
 5464SOL     OW28027   0.733   1.763   7.021 -0.0359  0.8789 -0.4249
 5464SOL    HW128028   0.714   1.854   6.997 -1.0703  0.7240 -0.2094
 5464SOL    HW228029   0.762   1.732   6.935  2.2849  1.9848 -0.0312
 5465SOL     OW28030   0.856   1.456   5.794  0.1296 -0.2074 -0.2956
 5465SOL    HW128031   0.918   1.385   5.811  0.2344  0.0966  0.5695
 5465SOL    HW228032   0.777   1.428   5.840  0.9651 -1.4689  0.3657
 5466SOL     OW28033   0.377   2.614  13.092  0.0425 -0.0939 -0.0208
 5466SOL    HW128034   0.459   2.653  13.123 -1.0598 -0.1902  3.0378
 5466SOL    HW228035   0.382   2.625  12.997 -0.4797 -0.8065 -0.1267
 5467SOL     OW28036   2.848   2.151   2.706  0.1028  0.4027 -0.4775
 5467SOL    HW128037   2.762   2.126   2.672 -0.3628  1.1291  0.1797
 5467SOL    HW228038   2.858   2.074   2.761  0.6644  0.8771  0.0879
 5468SOL     OW28039   4.318   2.790  14.169 -0.2090 -0.4879 -0.6012
 5468SOL    HW128040   4.297   2.871  14.122  1.5851 -0.0817 -0.6963
 5468SOL    HW228041   4.270   2.798  14.251 -2.4569 -2.8362 -1.7162
 5469SOL     OW28042   1.434   3.411   9.249  0.3884 -0.3872  0.3740
 5469SOL    HW128043   1.529   3.418   9.235  0.1174 -1.4875 -1.9080
 5469SOL    HW228044   1.427   3.471   9.323 -0.7776  1.5737 -1.3291
 5470SOL     OW28045   2.788   2.986  13.867 -0.1549  0.4264  0.3909
 5470SOL    HW128046   2.745   2.908  13.831 -1.0780  0.7560  0.7865
 5470SOL    HW228047   2.820   2.954  13.952  3.3553  2.5292 -0.1423
 5471SOL     OW28048   0.172   4.068   0.177  0.1464 -0.8904  0.2706
 5471SOL    HW128049   0.215   4.057   0.262 -0.3853 -1.8381  0.4219
 5471SOL    HW228050   0.149   3.980   0.147  0.6634 -0.4578 -1.4269
 5472SOL     OW28051   4.592   3.560   3.556  0.0409 -0.1818 -0.4369
 5472SOL    HW128052   4.688   3.562   3.547  0.1459  1.1344  0.9021
 5472SOL    HW228053   4.586   3.543   3.650 -0.3195 -0.9678 -0.5998
 5473SOL     OW28054   2.992   2.733   8.553  0.2936 -0.2423 -0.0036
 5473SOL    HW128055   2.917   2.674   8.552 -1.8339  2.4547 -0.1470
 5473SOL    HW228056   3.063   2.671   8.540  0.5127  0.0724 -0.3174
 5474SOL     OW28057   3.696   0.070   1.413  0.7078  0.3834  0.4575
 5474SOL    HW128058   3.784   0.042   1.439 -0.3605 -1.0659  2.4362
 5474SOL    HW228059   3.718   0.163   1.403  1.2506  0.1836 -0.2487
 5475SOL     OW28060   4.593   4.735   0.936 -0.3566 -0.0432  0.1741
 5475SOL    HW128061   4.541   4.659   0.960  0.3232 -0.6377 -0.2294
 5475SOL    HW228062   4.566   0.044   1.013  1.0062  0.3429  0.4031
 5476SOL     OW28063   3.752   0.975   0.573 -0.0446 -0.0465 -0.1497
 5476SOL    HW128064   3.755   0.935   0.487 -2.0041 -0.5346  0.0167
 5476SOL    HW228065   3.657   0.981   0.582  0.0438 -1.1917  1.7287
 5477SOL     OW28066   1.383   1.765  12.342 -0.1456 -0.0758 -0.5872
 5477SOL    HW128067   1.345   1.717  12.268  0.4653 -1.6361  0.1116
 5477SOL    HW228068   1.433   1.699  12.391  2.3290  3.0239  1.0433
 5478SOL     OW28069   1.067   3.619   3.506 -0.1418  0.4108 -0.2061
 5478SOL    HW128070   1.145   3.563   3.505 -1.6838 -1.7816  1.8975
 5478SOL    HW228071   1.103   3.707   3.508 -1.3826  0.8897  1.0932
 5479SOL     OW28072   1.507   3.754  15.484  0.2442  0.6999 -0.5834
 5479SOL    HW128073   1.438   3.737  15.548 -0.3190 -0.0846 -1.4048
 5479SOL    HW228074   1.541   3.667  15.463 -2.1634 -0.2074 -0.7722
 5480SOL     OW28075   4.645   0.313  11.116 -0.6781 -1.1203  0.1485
 5480SOL    HW128076   4.655   0.246  11.049 -0.2435  0.3909 -1.2893
 5480SOL    HW228077   4.552   0.334  11.104 -0.3687  0.3783  0.3399
 5481SOL     OW28078   4.145   3.288   9.291  1.0617 -0.4047  0.1515
 5481SOL    HW128079   4.132   3.201   9.330 -0.4326 -0.7840 -1.1896
 5481SOL    HW228080   4.117   3.272   9.200  4.0258  0.3390 -0.8936
 5482SOL     OW28081   3.669   4.532   6.068  0.5484  0.3460  0.2894
 5482SOL    HW128082   3.657   4.464   6.002 -0.3566  1.9220 -1.1734
 5482SOL    HW228083   3.644   4.609   6.016  0.1371  0.8919  1.2953
 5483SOL     OW28084   1.663   0.702   2.903  0.5591  0.3743  0.7900
 5483SOL    HW128085   1.582   0.653   2.918 -0.7323  2.1016 -0.5380
 5483SOL    HW228086   1.669   0.765   2.975  3.7391  1.0944 -0.1192
 5484SOL     OW28087   3.879   0.617   5.768 -0.2657 -0.5122  0.6083
 5484SOL    HW128088   3.822   0.543   5.746 -1.0029  0.2803 -0.1791
 5484SOL    HW228089   3.951   0.577   5.815 -1.9709 -3.0108  1.0914
 5485SOL     OW28090   2.414   0.830   7.846  0.2124  0.2496 -0.5455
 5485SOL    HW128091   2.382   0.740   7.844  1.1886 -0.1566  1.6115
 5485SOL    HW228092   2.355   0.877   7.788  0.0502  1.6458  0.7433
 5486SOL     OW28093   0.729   2.751   8.733  0.4906  0.5017  0.0243
 5486SOL    HW128094   0.648   2.761   8.783  0.3163 -0.1636 -0.1214
 5486SOL    HW228095   0.698   2.698   8.659 -0.4157  3.5267 -1.7700
 5487SOL     OW28096   3.185   3.017   6.758  0.3314 -0.0304 -0.5987
 5487SOL    HW128097   3.246   2.972   6.817  0.3925  0.6665 -0.1390
 5487SOL    HW228098   3.212   3.108   6.763  0.1746 -0.1154  1.5579
 5488SOL     OW28099   2.425   3.878   6.281  0.1214 -0.0563  0.1727
 5488SOL    HW128100   2.404   3.798   6.330 -0.3441 -0.8541 -1.3095
 5488SOL    HW228101   2.384   3.851   6.199 -0.6118 -0.3422  0.6284
 5489SOL     OW28102   1.840   4.718   5.942 -0.1270 -0.1259  0.1571
 5489SOL    HW128103   1.866   4.626   5.932 -3.3733 -0.9040 -0.9298
 5489SOL    HW228104   1.924   0.021   5.926 -0.8408  1.4516  0.7323
 5490SOL     OW28105   3.801   1.146   4.945 -0.0533  0.3248 -0.4474
 5490SOL    HW128106   3.780   1.212   5.011 -0.5875 -0.2384 -0.0493
 5490SOL    HW228107   3.885   1.115   4.978 -0.2699 -2.6546 -2.6211
 5491SOL     OW28108   4.724   3.681  14.544 -0.2244  0.1971 -0.0383
 5491SOL    HW128109   4.641   3.724  14.561 -0.2170 -0.1119  0.8214
 5491SOL    HW228110   0.012   3.635  14.624  1.2261 -1.0701 -1.2839
 5492SOL     OW28111   1.188   3.701   8.568 -0.4098 -0.1479  0.5660
 5492SOL    HW128112   1.214   3.790   8.593  1.7765 -1.1877  1.9889
 5492SOL    HW228113   1.162   3.667   8.654 -0.2395  0.6600  0.9350
 5493SOL     OW28114   4.530   2.089   8.967 -0.2691  0.5900  0.1320
 5493SOL    HW128115   4.444   2.093   9.008 -0.5040  0.7727 -0.3735
 5493SOL    HW228116   4.556   2.181   8.966 -0.0398  0.5218 -0.6089
 5494SOL     OW28117   1.326   0.574   6.952  0.4206  0.6563 -0.2525
 5494SOL    HW128118   1.264   0.509   6.983  1.1449 -0.5985 -1.4395
 5494SOL    HW228119   1.391   0.579   7.023  1.2215  0.9194 -1.0066
 5495SOL     OW28120   3.491   3.725  16.813 -0.4224  0.4646  0.4356
 5495SOL    HW128121   3.516   3.755  16.901 -4.1987  0.4635  1.4847
 5495SOL    HW228122   3.445   3.806  16.795  2.1534  1.7520 -0.4061
 5496SOL     OW28123   0.505   4.403   3.295 -0.3115  0.5479 -0.5978
 5496SOL    HW128124   0.428   4.447   3.258  0.4277  0.8229 -1.8332
 5496SOL    HW228125   0.484   4.381   3.386 -1.5328  2.6471 -0.3861
 5497SOL     OW28126   0.109   0.353   2.245 -0.0011  0.1347  0.2139
 5497SOL    HW128127   0.025   0.396   2.261  0.9841  2.9002 -2.0541
 5497SOL    HW228128   0.093   0.274   2.297 -4.1510  1.6919  1.2852
 5498SOL     OW28129   4.359   3.837   6.711  0.1533  0.2678 -0.1310
 5498SOL    HW128130   4.288   3.898   6.732 -0.0153  0.0108  0.0357
 5498SOL    HW228131   4.356   3.817   6.617  0.2706  0.4662 -0.1791
 5499SOL     OW28132   4.007   1.323   3.784 -0.0539 -0.2314  0.1038
 5499SOL    HW128133   3.996   1.402   3.730  2.3248 -2.2803 -3.3548
 5499SOL    HW228134   3.923   1.307   3.826 -0.4616  3.0697  0.5780
 5500SOL     OW28135   0.733   1.377   2.347 -0.9378  0.0897 -0.1908
 5500SOL    HW128136   0.687   1.293   2.350 -0.7118  0.0432  1.7110
 5500SOL    HW228137   0.730   1.403   2.255 -1.3030 -0.0303 -0.2154
 5501SOL     OW28138   3.042   2.295   1.594  0.4402 -0.2319 -0.2201
 5501SOL    HW128139   3.132   2.327   1.598  0.6198 -0.6722 -0.8507
 5501SOL    HW228140   3.044   2.225   1.659 -1.5032  0.9781  1.1270
 5502SOL     OW28141   4.311   2.253   7.421 -0.3874 -0.1012 -0.3214
 5502SOL    HW128142   4.217   2.241   7.404 -0.8936 -0.8180  2.9163
 5502SOL    HW228143   4.358   2.254   7.338 -3.2926 -0.5347 -1.9970
 5503SOL     OW28144   3.499   2.454   3.125  0.3490  0.2814  0.1137
 5503SOL    HW128145   3.593   2.461   3.112  0.3024  0.9201  0.1201
 5503SOL    HW228146   3.463   2.480   3.040  2.0940 -0.5719 -0.8655
 5504SOL     OW28147   3.790   4.255  12.491  0.0224 -0.1254  0.8111
 5504SOL    HW128148   3.747   4.340  12.480  1.5411  0.6441  0.7645
 5504SOL    HW228149   3.719   4.198  12.462 -0.3684  1.4040 -1.1842
 5505SOL     OW28150   1.464   3.789   8.960 -0.1307  0.1176  0.0365
 5505SOL    HW128151   1.550   3.764   8.994 -0.2096  1.5664  1.2863
 5505SOL    HW228152   1.408   3.750   9.028 -0.9540 -2.7370 -2.2935
 5506SOL     OW28153   1.230   4.364  11.514 -0.0613  0.1685 -0.1458
 5506SOL    HW128154   1.284   4.342  11.590 -0.6472 -0.6887  0.0169
 5506SOL    HW228155   1.244   4.459  11.518  2.3699 -0.1323 -1.6756
 5507SOL     OW28156   0.842   4.230  10.923 -0.5789 -0.5413  0.0673
 5507SOL    HW128157   0.751   4.223  10.895 -0.5002  3.6797 -1.1728
 5507SOL    HW228158   0.887   4.224  10.839  0.1880  3.5508  0.2132
 5508SOL     OW28159   4.242   0.941   5.968 -0.0726  0.2457 -0.0250
 5508SOL    HW128160   4.234   0.895   6.051 -0.9203 -1.2880 -0.9418
 5508SOL    HW228161   4.319   0.996   5.982 -0.9748  1.0623  1.7246
 5509SOL     OW28162   0.486   3.663  14.998  0.1332 -0.0068 -0.5506
 5509SOL    HW128163   0.560   3.644  15.055 -1.1816 -0.6383  0.9374
 5509SOL    HW228164   0.527   3.670  14.912  0.3162  1.9185 -0.3076
 5510SOL     OW28165   1.752   1.530   8.350  0.3477  0.8440  0.0824
 5510SOL    HW128166   1.708   1.495   8.272 -0.9995 -1.8315  2.0678
 5510SOL    HW228167   1.725   1.462   8.411 -3.2107  1.1561 -1.1575
 5511SOL     OW28168   2.521   2.356   7.044  0.4124 -0.0692 -0.0095
 5511SOL    HW128169   2.569   2.406   6.978 -2.1205  2.3086 -0.0254
 5511SOL    HW228170   2.446   2.322   6.995  0.2386 -0.1535  0.3117
 5512SOL     OW28171   3.716   2.000   5.013  0.6105 -0.3652 -0.2733
 5512SOL    HW128172   3.759   1.998   5.099 -2.4194 -4.6538  1.1384
 5512SOL    HW228173   3.782   2.047   4.961  0.5301 -1.5490 -1.4321
 5513SOL     OW28174   0.860   0.838  12.529 -0.4295  0.4781  0.4500
 5513SOL    HW128175   0.824   0.913  12.575 -1.8682 -0.1015  0.2569
 5513SOL    HW228176   0.798   0.767  12.547 -0.7808  0.0380 -2.5312
 5514SOL     OW28177   4.024   3.009  14.693  0.1024 -0.1970  0.2901
 5514SOL    HW128178   4.023   3.096  14.731 -2.6824 -0.3192  0.5202
 5514SOL    HW228179   3.932   2.996  14.669  0.6228 -0.9773 -1.2847
 5515SOL     OW28180   1.952   1.789   2.391  0.2818  0.1958  0.1220
 5515SOL    HW128181   1.902   1.729   2.445  1.1602  0.6069  1.3858
 5515SOL    HW228182   1.974   1.726   2.322 -0.0020  0.7687 -0.4960
 5516SOL     OW28183   2.272   4.695   4.375  0.6150  0.0398  0.7512
 5516SOL    HW128184   2.275   4.603   4.400 -1.2945 -0.5409 -1.1773
 5516SOL    HW228185   2.356   4.727   4.409  1.2084  0.6554 -1.2484
 5517SOL     OW28186   1.650   0.255   8.075  0.2127  0.0410 -0.6371
 5517SOL    HW128187   1.682   0.170   8.107 -0.2905 -0.1415 -0.6130
 5517SOL    HW228188   1.561   0.236   8.046 -0.5679  0.7129  1.3728
 5518SOL     OW28189   0.995   3.541   4.767  0.1702 -0.3484 -0.0956
 5518SOL    HW128190   0.975   3.447   4.776 -0.8576 -0.0094  1.1681
 5518SOL    HW228191   0.949   3.560   4.685  3.6038 -0.3538 -2.0224
 5519SOL     OW28192   4.581   2.881  17.652 -0.3746 -0.4682  0.3950
 5519SOL    HW128193   4.626   2.809  17.607  0.1238  0.5985 -0.8049
 5519SOL    HW228194   4.627   2.893  17.735 -0.4724 -0.4294  0.4437
 5520SOL     OW28195   2.778   0.964  17.115 -0.0315  0.2135 -0.0124
 5520SOL    HW128196   2.759   1.041  17.062 -1.6968  2.7513  4.2557
 5520SOL    HW228197   2.788   0.899  17.045 -0.6208 -0.5191  0.5761
 5521SOL     OW28198   1.488   4.115   8.188 -0.4974 -0.1269  0.1637
 5521SOL    HW128199   1.431   4.191   8.188 -0.5366 -0.1564 -0.4668
 5521SOL    HW228200   1.452   4.054   8.252 -3.8756  0.0917 -1.5157
 5522SOL     OW28201   0.366   0.425   9.247  0.1353  0.2370  0.2774
 5522SOL    HW128202   0.273   0.402   9.246  0.1360  0.2207  0.5731
 5522SOL    HW228203   0.395   0.337   9.223  1.6403  0.1710  2.3516
 5523SOL     OW28204   4.167   1.352   6.354 -0.4960  0.1048  0.1461
 5523SOL    HW128205   4.247   1.371   6.403  0.2950 -0.0705 -1.0748
 5523SOL    HW228206   4.118   1.295   6.414 -0.3407 -1.0942 -0.8828
 5524SOL     OW28207   3.394   4.105   8.963  0.0411  0.6884 -0.0524
 5524SOL    HW128208   3.487   4.128   8.959 -0.0437  0.7515 -1.5422
 5524SOL    HW228209   3.404   4.029   8.907 -0.9193  1.2963 -1.0600
 5525SOL     OW28210   1.062   0.979   1.929  0.0925  0.7424  0.6817
 5525SOL    HW128211   0.976   1.002   1.894 -1.6995 -3.2052  2.4612
 5525SOL    HW228212   1.099   0.937   1.851 -3.8784 -1.2857 -0.1081
 5526SOL     OW28213   4.025   2.829   9.856 -0.5194 -0.1210 -0.5439
 5526SOL    HW128214   4.113   2.810   9.825 -1.0011 -1.8066 -0.8798
 5526SOL    HW228215   3.990   2.894   9.795  0.9884 -0.0583 -1.3440
 5527SOL     OW28216   2.359   4.296   8.546  0.7875 -0.5152  0.5894
 5527SOL    HW128217   2.291   4.363   8.542  2.8189  1.4278 -1.4060
 5527SOL    HW228218   2.326   4.230   8.485 -3.3187  1.4073  0.7181
 5528SOL     OW28219   4.660   2.718   2.759  0.4160 -0.0119 -0.0345
 5528SOL    HW128220   0.007   2.690   2.734 -0.2303 -1.4523 -0.6834
 5528SOL    HW228221   4.606   2.652   2.716  0.3051 -0.3317  0.5991
 5529SOL     OW28222   3.028   3.915   2.921  0.1380 -0.3238  0.2654
 5529SOL    HW128223   3.044   3.972   2.845  0.4378 -2.5696 -1.3552
 5529SOL    HW228224   3.080   3.956   2.990 -0.9933  0.8922  0.4085
 5530SOL     OW28225   1.906   1.099   9.306  0.8123 -0.3250 -0.3089
 5530SOL    HW128226   1.865   1.163   9.365 -0.9659 -1.8826  0.1494
 5530SOL    HW228227   1.839   1.124   9.243  0.6176 -0.9188 -0.3421
 5531SOL     OW28228   1.322   1.009   6.410 -0.6291  0.0711  0.0988
 5531SOL    HW128229   1.393   1.068   6.385  1.1438 -1.3661  1.7193
 5531SOL    HW228230   1.288   1.071   6.474 -1.3980 -1.0724  0.8130
 5532SOL     OW28231   1.652   1.282   2.689  0.0897  0.2278 -0.4155
 5532SOL    HW128232   1.687   1.367   2.716  2.0009 -0.1783 -1.6191
 5532SOL    HW228233   1.634   1.305   2.598 -0.1442  0.3944 -0.3288
 5533SOL     OW28234   1.770   2.859   4.676  0.1827  0.3019  0.5376
 5533SOL    HW128235   1.798   2.949   4.659  1.7998 -0.1732  0.6366
 5533SOL    HW228236   1.702   2.871   4.742 -2.0555 -0.6516 -1.6078
 5534SOL     OW28237   2.684   0.489   3.926 -0.2179 -0.7194 -0.1997
 5534SOL    HW128238   2.673   0.575   3.885  0.4727  0.1333  1.4231
 5534SOL    HW228239   2.595   0.461   3.907 -0.7193  0.0274  1.0424
 5535SOL     OW28240   3.298   3.361   4.542 -0.4147 -0.1238  0.7032
 5535SOL    HW128241   3.302   3.417   4.464 -0.6848  0.6381  1.2348
 5535SOL    HW228242   3.212   3.386   4.576 -2.1075 -0.3983 -3.3884
 5536SOL     OW28243   2.052   2.088   3.358 -0.3199 -0.4847  0.0042
 5536SOL    HW128244   2.063   1.997   3.383  0.9030 -0.1468  0.6403
 5536SOL    HW228245   2.108   2.136   3.418 -0.1116 -0.9869  0.2018
 5537SOL     OW28246   2.437   0.961  16.973 -0.3966 -0.3694  0.4375
 5537SOL    HW128247   2.398   0.877  16.993 -2.0865  0.1495 -0.7031
 5537SOL    HW228248   2.426   1.012  17.054 -2.4430  1.3856 -0.9454
 5538SOL     OW28249   3.384   0.307   3.076 -0.1970 -0.3750 -0.3942
 5538SOL    HW128250   3.479   0.311   3.065 -0.0545  2.4860  1.6814
 5538SOL    HW228251   3.353   0.332   2.989 -0.0514 -3.0870 -1.2055
 5539SOL     OW28252   3.426   0.725   5.737 -0.4942  0.1323  0.1276
 5539SOL    HW128253   3.492   0.676   5.688 -0.8265  0.4510 -0.6408
 5539SOL    HW228254   3.407   0.659   5.803 -0.0824  2.4697  2.5833
 5540SOL     OW28255   2.602   2.206   8.168 -0.2595 -0.2327 -0.1328
 5540SOL    HW128256   2.642   2.291   8.185 -0.3918 -0.7443  2.8517
 5540SOL    HW228257   2.519   2.214   8.215 -0.3559 -2.5869  0.1209
 5541SOL     OW28258   1.748   2.757  12.718 -0.5413  0.1135 -0.5297
 5541SOL    HW128259   1.680   2.690  12.714 -2.6275  2.1177  1.5956
 5541SOL    HW228260   1.823   2.709  12.753 -0.3769  0.0906 -0.9092
 5542SOL     OW28261   2.560   0.611   2.623  0.4476 -0.6664  0.0814
 5542SOL    HW128262   2.621   0.684   2.614 -2.2988  1.4040 -1.1918
 5542SOL    HW228263   2.621   0.543   2.592  0.4578 -0.2215 -0.8524
 5543SOL     OW28264   0.295   2.318   7.828  0.0728  0.2355 -0.3391
 5543SOL    HW128265   0.253   2.320   7.742  0.4717  1.9836 -0.5016
 5543SOL    HW228266   0.303   2.411   7.848  1.0346 -0.0029  0.3863
 5544SOL     OW28267   3.852   2.626  11.297  0.0163  0.3093 -0.0863
 5544SOL    HW128268   3.805   2.684  11.237 -0.0998 -0.6929 -0.9566
 5544SOL    HW228269   3.788   2.570  11.342 -0.2721  0.0108 -0.8725
 5545SOL     OW28270   0.566   2.791  13.488 -0.7565 -0.5362 -0.0912
 5545SOL    HW128271   0.583   2.851  13.416  0.7113 -1.1904 -0.3004
 5545SOL    HW228272   0.637   2.729  13.471  0.4009  0.9984 -0.7740
 5546SOL     OW28273   4.383   0.914   7.826 -0.6403  0.4704  0.0018
 5546SOL    HW128274   4.382   0.840   7.766  2.2758  0.2597  0.2142
 5546SOL    HW228275   4.318   0.890   7.892 -0.6347  0.4613  0.0040
 5547SOL     OW28276   1.438   3.661   5.267 -0.2491 -0.3311 -0.6792
 5547SOL    HW128277   1.481   3.586   5.308 -0.6888 -0.4161 -0.3672
 5547SOL    HW228278   1.345   3.642   5.280 -0.0081  0.1159  1.8441
 5548SOL     OW28279   3.469   0.026   6.165  0.2235 -0.4876  0.2376
 5548SOL    HW128280   3.514   4.691   6.202 -0.1872 -2.0420 -2.4154
 5548SOL    HW228281   3.460   4.736   6.074  3.6532  1.1550 -0.6470
 5549SOL     OW28282   1.755   0.463   6.714  0.0331 -0.0543 -0.6296
 5549SOL    HW128283   1.826   0.466   6.649  1.3633 -0.0334  0.8368
 5549SOL    HW228284   1.685   0.431   6.658  0.4026  0.0441 -1.1535
 5550SOL     OW28285   1.325   2.333   4.638 -0.0709 -0.1029  0.0765
 5550SOL    HW128286   1.236   2.319   4.606  0.2372 -1.5951 -0.1049
 5550SOL    HW228287   1.354   2.381   4.560  1.5375 -2.1158 -0.5611
 5551SOL     OW28288   4.293   2.231   1.417  0.0005 -0.0948 -0.1225
 5551SOL    HW128289   4.341   2.233   1.499 -0.3450 -0.6803  0.0900
 5551SOL    HW228290   4.342   2.159   1.377 -0.5077  0.2507 -1.3694
 5552SOL     OW28291   4.667   1.713  10.735  0.4212 -0.4283 -0.1376
 5552SOL    HW128292   4.633   1.733  10.822 -0.7094  1.7217 -1.0513
 5552SOL    HW228293   4.693   1.622  10.748  0.6885 -0.4242 -0.6318
 5553SOL     OW28294   2.984   0.666  10.224 -0.6166  0.1077  0.4320
 5553SOL    HW128295   2.976   0.688  10.316 -2.7132 -0.2547  0.3387
 5553SOL    HW228296   2.908   0.609  10.213 -1.0798  0.3416  2.5878
 5554SOL     OW28297   0.087   0.421  16.378 -0.2922  0.5929 -0.1150
 5554SOL    HW128298   0.148   0.415  16.452 -0.0350  3.0631 -0.1546
 5554SOL    HW228299   0.135   0.484  16.324 -1.1035  0.6472 -0.7690
 5555SOL     OW28300   3.472   3.062   2.359 -0.2466 -0.1069 -0.3239
 5555SOL    HW128301   3.474   2.967   2.342  1.6915 -0.5542  2.3056
 5555SOL    HW228302   3.408   3.068   2.430  1.0648 -2.3094  1.0688
 5556SOL     OW28303   0.613   1.057  16.143 -0.3174  0.0256 -0.1037
 5556SOL    HW128304   0.686   1.002  16.116 -0.6758 -0.4718 -0.0594
 5556SOL    HW228305   0.556   1.028  16.072  1.6049 -0.4761 -1.4531
 5557SOL     OW28306   4.082   2.640   6.646 -0.0656  0.5404  0.3217
 5557SOL    HW128307   4.079   2.603   6.734  0.0999 -0.0365  0.0895
 5557SOL    HW228308   4.148   2.580   6.611 -1.0504  1.9877 -4.0649
 5558SOL     OW28309   0.275   2.270   4.766 -0.0866  0.3170 -0.0630
 5558SOL    HW128310   0.351   2.212   4.766  0.4883  1.0320  2.7452
 5558SOL    HW228311   0.213   2.207   4.730 -0.6651  2.4437 -2.7722
 5559SOL     OW28312   1.958   4.538  12.162  0.1914  0.5009  0.2651
 5559SOL    HW128313   1.878   4.584  12.137 -1.2255 -2.2495 -0.2444
 5559SOL    HW228314   1.915   4.453  12.169 -0.5659  0.7698 -1.1497
 5560SOL     OW28315   2.663   1.119  15.771  0.6810  1.0454 -0.0924
 5560SOL    HW128316   2.714   1.040  15.791  0.2445  1.0572  1.0433
 5560SOL    HW228317   2.643   1.098  15.680  2.1163 -2.0170  0.2697
 5561SOL     OW28318   3.232   2.103   3.458  0.5259 -0.4836 -0.5520
 5561SOL    HW128319   3.301   2.064   3.512  0.5849 -1.0547 -1.0435
 5561SOL    HW228320   3.268   2.098   3.370 -0.6398 -1.2103 -0.9858
 5562SOL     OW28321   2.976   3.228   0.346  0.1322  0.3364 -0.0124
 5562SOL    HW128322   3.018   3.267   0.269  1.3754  2.0586  1.5691
 5562SOL    HW228323   3.054   3.225   0.402  1.0030  0.0479 -1.2340
 5563SOL     OW28324   3.333   1.568  17.287  0.1741 -0.2114 -0.2749
 5563SOL    HW128325   3.379   1.592  17.207  2.0256 -1.5337  0.3949
 5563SOL    HW228326   3.359   1.641  17.344 -0.6213  0.1598 -0.3884
 5564SOL     OW28327   3.539   2.915   6.146 -0.0919 -0.0006 -0.7201
 5564SOL    HW128328   3.562   2.885   6.058  0.3829  0.6061 -0.8013
 5564SOL    HW228329   3.585   2.998   6.155 -1.1173  0.3265  1.3398
 5565SOL     OW28330   1.482   2.175   3.672 -0.6251 -0.0000  0.5249
 5565SOL    HW128331   1.468   2.081   3.661  2.3639 -0.5677  1.5016
 5565SOL    HW228332   1.451   2.211   3.590  0.9402 -1.0098 -0.5059
 5566SOL     OW28333   3.828   1.860   2.275  0.0540  0.1899  0.3778
 5566SOL    HW128334   3.746   1.813   2.293 -1.5325  1.9111 -2.2842
 5566SOL    HW228335   3.810   1.920   2.202 -3.0151 -1.3571 -0.1568
 5567SOL     OW28336   3.609   1.664   7.167  0.7971 -0.6570  0.1172
 5567SOL    HW128337   3.574   1.587   7.123 -0.1678 -1.6485  2.6358
 5567SOL    HW228338   3.696   1.626   7.175  0.9926 -0.2631 -0.1310
 5568SOL     OW28339   1.154   4.191  13.725 -0.1858  0.4218 -0.2313
 5568SOL    HW128340   1.242   4.199  13.762 -0.0016 -1.2484 -0.2935
 5568SOL    HW228341   1.123   4.281  13.724  1.7094  1.0984  1.1812
 5569SOL     OW28342   4.291   0.154   8.932  0.1319 -0.5784 -0.3843
 5569SOL    HW128343   4.241   0.162   9.014 -1.9464  0.6420 -1.7712
 5569SOL    HW228344   4.369   0.103   8.953 -0.8777 -2.0228 -0.1456
 5570SOL     OW28345   2.646   2.238   8.525  0.1842  0.2910 -0.5407
 5570SOL    HW128346   2.621   2.147   8.540 -1.1164  0.7147 -0.1744
 5570SOL    HW228347   2.561   2.277   8.547  0.6544  0.7475  0.4770
 5571SOL     OW28348   1.251   1.227   5.861  0.5700  0.1239 -0.4258
 5571SOL    HW128349   1.276   1.318   5.875  0.0670  0.3955 -1.2609
 5571SOL    HW228350   1.287   1.222   5.772  0.5665 -1.3702 -0.3550
 5572SOL     OW28351   1.373   1.268  17.374 -0.2031 -0.0008 -0.0416
 5572SOL    HW128352   1.439   1.334  17.355  0.3307 -0.4142  0.3789
 5572SOL    HW228353   1.298   1.318  17.342 -1.1285 -1.9594 -0.9767
 5573SOL     OW28354   4.278   3.710   1.706 -0.1900 -0.2419  0.1559
 5573SOL    HW128355   4.334   3.682   1.778 -0.3391  0.1636  0.4293
 5573SOL    HW228356   4.195   3.745   1.738  0.3510  2.9919 -1.9503
 5574SOL     OW28357   4.186   3.892  10.916 -0.2871 -0.3291  0.8296
 5574SOL    HW128358   4.196   3.891  11.011  0.9154  1.3072  0.7164
 5574SOL    HW228359   4.198   3.797  10.906  1.3812 -0.1496  1.2365
 5575SOL     OW28360   0.952   4.648   6.237 -0.5450 -0.0352 -0.2426
 5575SOL    HW128361   1.008   4.690   6.302 -2.7348  0.0631  1.5991
 5575SOL    HW228362   1.012   4.630   6.165 -0.4583  2.5032 -0.8333
 5576SOL     OW28363   2.493   2.785   5.662  0.2839 -0.2516 -0.2484
 5576SOL    HW128364   2.441   2.756   5.587 -0.3371  0.6990 -0.1776
 5576SOL    HW228365   2.576   2.743   5.638  0.1346 -0.4044 -0.4992
 5577SOL     OW28366   2.957   3.312   1.730  0.3863  0.2478  0.0478
 5577SOL    HW128367   2.970   3.220   1.753  1.1988  0.8055  1.7970
 5577SOL    HW228368   2.910   3.296   1.648  0.1946 -2.0572  0.6143
 5578SOL     OW28369   2.530   0.062   4.455  0.0347  0.0815  0.0736
 5578SOL    HW128370   2.577   4.731   4.497 -1.9240  1.1591  4.0805
 5578SOL    HW228371   2.599   0.124   4.429 -1.1184  1.6873  0.8602
 5579SOL     OW28372   2.365   2.001  10.830  0.0741  0.5689  0.2733
 5579SOL    HW128373   2.393   1.985  10.740 -1.3800 -1.8763  0.2533
 5579SOL    HW228374   2.441   1.963  10.874  0.3890  0.2174 -0.5889
 5580SOL     OW28375   3.680   1.330   2.192 -0.1863 -0.0886  0.2319
 5580SOL    HW128376   3.704   1.389   2.120 -0.2811  0.0047  0.2775
 5580SOL    HW228377   3.616   1.385   2.237  0.9532  1.4621 -0.0109
 5581SOL     OW28378   0.451   3.645  11.343 -0.6214  0.4127  0.0067
 5581SOL    HW128379   0.419   3.564  11.384 -0.1267 -0.2966 -0.9973
 5581SOL    HW228380   0.395   3.704  11.393 -2.6568 -2.0564  0.6225
 5582SOL     OW28381   4.057   2.158   8.145  0.5010 -0.1466  0.0266
 5582SOL    HW128382   4.123   2.228   8.144  1.4211 -1.0090  0.2228
 5582SOL    HW228383   4.068   2.123   8.234 -1.5533  1.2804  0.8491
 5583SOL     OW28384   0.857   2.914   4.257 -0.2201 -0.3863  0.0587
 5583SOL    HW128385   0.837   2.995   4.209 -0.3120  1.7183  3.6077
 5583SOL    HW228386   0.944   2.934   4.291 -1.3734  1.7585  1.7901
 5584SOL     OW28387   1.057   0.818  15.842 -0.0080 -0.0738 -0.7087
 5584SOL    HW128388   1.097   0.879  15.904  0.2486  0.4179 -1.3573
 5584SOL    HW228389   0.982   0.870  15.812 -0.9233  0.4919  2.4712
 5585SOL     OW28390   0.239   0.746   5.876  0.1280  0.0598 -0.4261
 5585SOL    HW128391   0.221   0.819   5.936 -0.3329  0.8997 -1.5925
 5585SOL    HW228392   0.167   0.686   5.898 -0.3236  0.8405  0.2227
 5586SOL     OW28393   3.754   0.651  11.412 -0.2325 -0.3243  0.5201
 5586SOL    HW128394   3.759   0.729  11.467  0.7153  0.1570 -0.2427
 5586SOL    HW228395   3.733   0.691  11.327  0.8463  1.3763  1.0673
 5587SOL     OW28396   0.256   2.658   1.581 -0.3248 -0.1237  0.1182
 5587SOL    HW128397   0.212   2.708   1.650  2.5998  1.4428  0.8487
 5587SOL    HW228398   0.312   2.718   1.533 -0.1240  0.0065  0.5156
 5588SOL     OW28399   2.236   2.835   4.136 -0.5817 -0.3375  0.2453
 5588SOL    HW128400   2.255   2.874   4.051 -2.3528  0.9353  0.4320
 5588SOL    HW228401   2.169   2.777   4.099 -0.5415 -0.1188 -0.1649
 5589SOL     OW28402   2.430   1.397  11.263 -0.3979  0.0074  0.1307
 5589SOL    HW128403   2.519   1.376  11.234  0.1049  1.1795  0.8450
 5589SOL    HW228404   2.433   1.492  11.274 -1.5024  0.0968 -0.2834
 5590SOL     OW28405   3.972   4.146   8.008 -0.3563 -0.1766  0.5894
 5590SOL    HW128406   4.051   4.142   8.062  0.3335 -1.3027 -0.5250
 5590SOL    HW228407   3.941   4.063   8.044  1.2050 -0.1604  1.9929
 5591SOL     OW28408   1.019   2.624   6.414  0.8904  0.2632 -0.3840
 5591SOL    HW128409   0.988   2.549   6.464 -0.3161 -0.3723 -2.0690
 5591SOL    HW228410   1.055   2.678   6.485  1.2521 -1.3109  0.6276
 5592SOL     OW28411   1.565   1.126  11.713  0.1535  0.0548 -0.0196
 5592SOL    HW128412   1.584   1.118  11.620 -1.8465  0.6482 -0.4791
 5592SOL    HW228413   1.477   1.089  11.713  0.4227 -0.5770 -1.5435
 5593SOL     OW28414   1.582   2.895   9.937 -0.1497 -0.0244  0.8232
 5593SOL    HW128415   1.538   2.979   9.949  0.1892  0.2732 -0.0446
 5593SOL    HW228416   1.553   2.862  10.022 -1.3204  0.9772  0.8004
 5594SOL     OW28417   4.559   3.203   7.394 -0.3256 -0.4398 -0.1770
 5594SOL    HW128418   4.589   3.234   7.480 -1.9702 -0.7440  0.5137
 5594SOL    HW228419   4.499   3.274   7.371  2.0804  1.4717 -0.6033
 5595SOL     OW28420   2.510   4.346   0.029 -0.1396  0.4712 -0.7891
 5595SOL    HW128421   2.466   4.429   0.045 -0.4903  0.1616 -0.1556
 5595SOL    HW228422   2.542   4.362  17.701  1.8789  0.4819 -0.0649
 5596SOL     OW28423   3.195   0.625   4.900  0.2457 -0.5004 -0.0755
 5596SOL    HW128424   3.267   0.666   4.949  0.4320 -2.3734  1.2193
 5596SOL    HW228425   3.196   0.535   4.933  0.3017 -0.3533  0.3205
 5597SOL     OW28426   1.803   3.546   2.516  0.2945  0.2227  0.0765
 5597SOL    HW128427   1.856   3.477   2.476  0.7437  0.5791  0.0518
 5597SOL    HW228428   1.800   3.509   2.604 -4.0072  1.5166  0.4475
 5598SOL     OW28429   0.115   2.478   4.713  1.0951 -0.5828  0.0153
 5598SOL    HW128430   0.169   2.418   4.764  3.6330 -0.4635 -2.5075
 5598SOL    HW228431   0.152   2.456   4.628 -0.4812  0.8929 -1.0548
 5599SOL     OW28432   0.808   0.437   1.000  0.2547 -0.2543 -0.0262
 5599SOL    HW128433   0.824   0.518   0.951  0.0416 -0.7818 -0.9768
 5599SOL    HW228434   0.716   0.457   1.017  0.8715  0.6259  2.2875
 5600SOL     OW28435   3.836   3.367   8.133  0.2475  0.0923 -0.2100
 5600SOL    HW128436   3.801   3.280   8.152 -1.7593  0.8256 -0.5007
 5600SOL    HW228437   3.926   3.347   8.106  1.4495  1.5213  2.7868
 5601SOL     OW28438   1.406   4.390  15.912 -0.2627  0.0158  0.3630
 5601SOL    HW128439   1.488   4.436  15.893  0.5622 -0.7572  2.0609
 5601SOL    HW228440   1.443   4.302  15.905 -2.6865 -0.9550 -0.3750
 5602SOL     OW28441   0.743   2.145   9.027 -0.0290  0.5772  0.3776
 5602SOL    HW128442   0.731   2.191   8.944 -1.9743 -0.4137  0.1070
 5602SOL    HW228443   0.745   2.054   8.998  1.7332 -0.1281  2.7342
 5603SOL     OW28444   4.489   3.761   5.231  0.6274  0.6695 -0.3025
 5603SOL    HW128445   4.546   3.704   5.179 -0.9042 -1.0478 -0.1321
 5603SOL    HW228446   4.522   3.850   5.220  2.2933 -0.0298 -0.9186
 5604SOL     OW28447   4.107   3.711   9.218  0.1502  0.2508 -0.1697
 5604SOL    HW128448   4.082   3.670   9.301  1.7649 -1.5109 -0.5392
 5604SOL    HW228449   4.197   3.739   9.235  1.4150 -3.9918  0.0852
 5605SOL     OW28450   3.868   3.835   7.886  0.4941  0.2712  0.4285
 5605SOL    HW128451   3.852   3.761   7.945  1.2285 -0.2087  0.0318
 5605SOL    HW228452   3.785   3.882   7.891  0.4132 -0.0305  1.8651
 5606SOL     OW28453   1.530   1.135  15.823 -0.1772 -0.0609 -0.0044
 5606SOL    HW128454   1.450   1.124  15.874 -0.6479  1.3453 -0.4344
 5606SOL    HW228455   1.547   1.226  15.846  2.4489 -0.6086  0.2768
 5607SOL     OW28456   3.641   2.503  17.114  0.1242 -0.1599 -0.5776
 5607SOL    HW128457   3.702   2.569  17.148 -3.9617  4.2535 -1.7495
 5607SOL    HW228458   3.555   2.538  17.138  1.3445  1.4958  1.3968
 5608SOL     OW28459   3.588   1.785   2.115  0.1576  0.1483 -0.5519
 5608SOL    HW128460   3.587   1.762   2.022 -0.6154 -1.1050 -0.2238
 5608SOL    HW228461   3.534   1.864   2.114  1.1162  0.8197  0.8603
 5609SOL     OW28462   2.792   3.511  11.257  1.0826 -0.5138  0.4503
 5609SOL    HW128463   2.848   3.498  11.334 -1.2675  0.0999  2.2535
 5609SOL    HW228464   2.771   3.604  11.265 -1.1400 -1.0409  0.7255
 5610SOL     OW28465   2.806   3.910   5.190  0.0742  0.8589 -0.2388
 5610SOL    HW128466   2.819   3.867   5.105  1.9423 -2.0868  1.5621
 5610SOL    HW228467   2.720   3.950   5.173 -1.0642 -0.6396  1.9094
 5611SOL     OW28468   1.127   4.662   9.982 -0.0263  0.0355 -0.5949
 5611SOL    HW128469   1.139   4.722  10.056  1.6384  2.5043 -2.8755
 5611SOL    HW228470   1.217   4.638   9.964 -0.0777  0.6241 -1.6441
 5612SOL     OW28471   4.235   4.521   9.509  0.1245  0.5924 -0.6515
 5612SOL    HW128472   4.145   4.551   9.517 -0.1775 -0.2300 -1.0412
 5612SOL    HW228473   4.257   4.570   9.429 -2.0106  1.4642 -0.6938
 5613SOL     OW28474   0.643   1.237   2.834 -0.1714 -0.2395  0.2067
 5613SOL    HW128475   0.652   1.310   2.895  0.6864 -0.0001 -0.2126
 5613SOL    HW228476   0.612   1.292   2.761  3.2662  1.3053 -0.0693
 5614SOL     OW28477   4.073   0.856   8.598  0.3186  0.0774  0.2925
 5614SOL    HW128478   4.128   0.933   8.584  2.6287 -1.8672 -1.2334
 5614SOL    HW228479   4.099   0.841   8.689  0.6541  0.6715  0.2958
 5615SOL     OW28480   1.820   2.282   2.466  0.1118  0.3012  0.5288
 5615SOL    HW128481   1.884   2.315   2.530 -1.1932 -0.0775  2.0120
 5615SOL    HW228482   1.866   2.200   2.448  1.5576  1.7718 -2.3679
 5616SOL     OW28483   2.146   3.239   2.601  0.6767 -0.4521  0.1033
 5616SOL    HW128484   2.217   3.205   2.546  2.4735  3.2169  0.1941
 5616SOL    HW228485   2.106   3.309   2.551 -1.3073 -1.1201  0.7516
 5617SOL     OW28486   2.318   2.627   3.011  0.0786 -0.2239 -0.0576
 5617SOL    HW128487   2.397   2.681   3.011  1.4669 -2.2766  0.5187
 5617SOL    HW228488   2.282   2.642   2.924  1.2891  3.2180  0.0352
 5618SOL     OW28489   3.368   2.231   8.750 -0.1471  0.1062  0.2667
 5618SOL    HW128490   3.424   2.295   8.708  1.9831 -2.6420 -1.1217
 5618SOL    HW228491   3.329   2.197   8.669 -0.4438 -1.7918  1.1921
 5619SOL     OW28492   4.010   4.310   8.313  0.4876 -0.3352  0.0367
 5619SOL    HW128493   4.058   4.269   8.241 -2.3727  1.1890 -2.7435
 5619SOL    HW228494   4.031   4.251   8.385 -3.3142  0.8576  2.1344
 5620SOL     OW28495   1.003   1.557   8.560  0.0972 -0.4535 -0.1598
 5620SOL    HW128496   0.995   1.467   8.527 -0.0606 -0.9055  1.0976
 5620SOL    HW228497   0.973   1.614   8.490 -1.1275  1.3222  1.8275
 5621SOL     OW28498   2.845   3.969   7.959  0.0892 -0.0992 -0.2170
 5621SOL    HW128499   2.784   3.915   8.007 -1.5085  0.2975 -1.7964
 5621SOL    HW228500   2.929   3.925   7.973 -0.3627 -1.5178 -1.9779
 5622SOL     OW28501   1.536   0.550  15.260 -0.3832  0.1298  0.5619
 5622SOL    HW128502   1.441   0.555  15.270 -0.5100  0.0099 -0.5521
 5622SOL    HW228503   1.565   0.637  15.287 -4.7638  1.8754 -0.3964
 5623SOL     OW28504   0.985   3.416   6.173  0.7490 -0.1782 -0.0758
 5623SOL    HW128505   0.931   3.440   6.097 -0.2540 -2.6554 -0.1335
 5623SOL    HW228506   0.911   3.397   6.230  0.5647  2.9556  0.7448
 5624SOL     OW28507   3.230   1.447   9.386  0.5259 -0.2967  0.4114
 5624SOL    HW128508   3.173   1.516   9.353 -0.1075 -0.5347  1.0058
 5624SOL    HW228509   3.182   1.412   9.461  1.6472  0.4692  1.4939
 5625SOL     OW28510   3.546   2.815   9.683  0.0342 -0.4152  0.5545
 5625SOL    HW128511   3.611   2.789   9.749 -0.7409  1.9380  2.2513
 5625SOL    HW228512   3.472   2.824   9.743 -1.6110 -0.9168 -1.4059
 5626SOL     OW28513   3.242   4.283   1.247 -0.8739 -0.2363  0.4004
 5626SOL    HW128514   3.262   4.370   1.282 -0.8583  0.0164 -0.2515
 5626SOL    HW228515   3.331   4.257   1.224 -0.2851  1.3047  0.9410
 5627SOL     OW28516   2.335   3.616  12.016  0.3941 -0.0810  0.2532
 5627SOL    HW128517   2.429   3.602  12.023  0.3622 -0.2009  0.4374
 5627SOL    HW228518   2.327   3.668  11.936 -0.5399 -2.0382 -0.9227
 5628SOL     OW28519   0.750   1.942   2.369  0.0979 -0.4002  0.4174
 5628SOL    HW128520   0.726   2.016   2.312  1.1458 -0.8506 -0.6107
 5628SOL    HW228521   0.845   1.946   2.359 -0.2487  0.7637 -2.7083
 5629SOL     OW28522   4.245   3.584   4.274  0.6649  0.2538 -0.3027
 5629SOL    HW128523   4.243   3.532   4.194 -0.1041 -0.5130  0.2126
 5629SOL    HW228524   4.150   3.597   4.276  0.7451  0.6328  1.1999
 5630SOL     OW28525   4.302   1.627   1.281  0.4629  0.1559 -0.1510
 5630SOL    HW128526   4.364   1.586   1.341  1.2142 -0.5791 -1.4307
 5630SOL    HW228527   4.284   1.714   1.318 -0.0787 -0.2752  0.5992
 5631SOL     OW28528   4.316   4.570   5.451 -0.1300  0.0519  0.1937
 5631SOL    HW128529   4.397   4.525   5.474 -1.1994 -2.3299 -0.7334
 5631SOL    HW228530   4.294   4.608   5.536 -1.5082 -2.7375  1.0597
 5632SOL     OW28531   0.431   3.488   8.823  0.6655  0.8979 -0.0252
 5632SOL    HW128532   0.403   3.487   8.731 -2.6734 -2.6335  1.0080
 5632SOL    HW228533   0.400   3.574   8.850  2.7110  1.4953  0.3826
 5633SOL     OW28534   4.370   1.870   4.129 -0.3715 -0.0678 -0.3006
 5633SOL    HW128535   4.277   1.859   4.146 -0.4270 -0.3815 -0.7998
 5633SOL    HW228536   4.409   1.798   4.179 -2.6595 -0.0236  1.5568
 5634SOL     OW28537   0.273   4.341  14.315 -0.4727  0.3480 -0.3364
 5634SOL    HW128538   0.272   4.391  14.396  0.8593  1.3675 -0.9529
 5634SOL    HW228539   0.325   4.264  14.338  0.9670  1.8833  1.4724
 5635SOL     OW28540   3.997   0.023   4.512 -0.2222 -0.6476  0.3121
 5635SOL    HW128541   4.051   4.718   4.577  1.4613  3.3216  1.6674
 5635SOL    HW228542   3.951   0.091   4.561 -1.2358 -1.6761  0.8003
 5636SOL     OW28543   3.511   1.517   8.705  0.0633  0.0874 -0.2844
 5636SOL    HW128544   3.475   1.508   8.617  0.8422 -0.0781 -0.5761
 5636SOL    HW228545   3.472   1.600   8.734  1.3191 -0.0824  1.8873
 5637SOL     OW28546   0.655   3.364   8.249 -0.3473 -0.1399 -0.4495
 5637SOL    HW128547   0.634   3.271   8.256 -1.5308  0.0346 -1.5897
 5637SOL    HW228548   0.585   3.405   8.301 -0.0214 -0.0751 -0.0671
 5638SOL     OW28549   1.425   1.624  13.743  0.5896 -0.3329  0.1241
 5638SOL    HW128550   1.492   1.569  13.783  1.2148 -1.6747 -2.8518
 5638SOL    HW228551   1.362   1.561  13.708  2.0328 -1.7571  0.1058
 5639SOL     OW28552   0.717   1.110   9.434  0.3325 -0.2618 -0.2443
 5639SOL    HW128553   0.724   1.027   9.387 -0.5364 -1.0641  1.0287
 5639SOL    HW228554   0.754   1.170   9.370  0.8523 -0.9030 -0.5483
 5640SOL     OW28555   0.539   4.211   4.304  0.0296 -0.4635  0.0665
 5640SOL    HW128556   0.623   4.229   4.347  0.2379 -1.2168 -0.0334
 5640SOL    HW228557   0.490   4.293   4.310 -2.3296 -1.7699 -1.6685
 5641SOL     OW28558   1.374   0.735   5.950 -0.0302 -0.1372  0.2489
 5641SOL    HW128559   1.452   0.731   5.894 -0.2463 -0.0635 -0.0607
 5641SOL    HW228560   1.318   0.761   5.876 -0.8291  2.0124  1.6066
 5642SOL     OW28561   1.962   3.699  16.608 -0.2284 -0.0165  0.3430
 5642SOL    HW128562   2.045   3.658  16.635 -0.8815 -0.6315  1.4153
 5642SOL    HW228563   1.953   3.780  16.657  0.0415  0.3525 -0.2248
 5643SOL     OW28564   4.096   0.267   9.778  0.2826  0.2349 -0.6946
 5643SOL    HW128565   4.146   0.198   9.821  0.6380  0.7003 -0.3667
 5643SOL    HW228566   4.160   0.336   9.761  2.3916 -1.8152 -1.0183
 5644SOL     OW28567   2.229   2.740   0.810  0.4484  0.2365  0.1071
 5644SOL    HW128568   2.259   2.702   0.892 -1.0291  1.3933  1.1926
 5644SOL    HW228569   2.316   2.756   0.774  0.0482  1.1183 -0.4853
 5645SOL     OW28570   3.887   1.086   3.510 -0.3712  0.0788  0.0677
 5645SOL    HW128571   3.806   1.111   3.553 -1.8534  1.0591 -3.3204
 5645SOL    HW228572   3.854   1.059   3.425  0.4064 -2.7019  0.6174
 5646SOL     OW28573   2.375   0.805   7.536  0.7064  0.4168 -0.6674
 5646SOL    HW128574   2.357   0.896   7.558  0.0307  0.3767 -1.0763
 5646SOL    HW228575   2.448   0.824   7.477 -0.3234 -0.6753 -2.2832
 5647SOL     OW28576   2.177   0.188   9.854 -0.1094 -0.5679  0.0186
 5647SOL    HW128577   2.133   0.228   9.780  0.7346  2.6064  1.2186
 5647SOL    HW228578   2.179   0.095   9.832  2.2672 -0.5442  0.1428
 5648SOL     OW28579   0.345   1.831   4.509  0.2763 -0.1109 -0.0347
 5648SOL    HW128580   0.425   1.792   4.545  0.2049  0.4419  0.7482
 5648SOL    HW228581   0.379   1.911   4.470  2.3740 -1.9496 -1.9175
 5649SOL     OW28582   1.503   2.165  16.734 -0.0455 -0.2143 -0.1654
 5649SOL    HW128583   1.576   2.194  16.680 -0.1621 -2.2784 -1.4361
 5649SOL    HW228584   1.458   2.248  16.751 -1.2553 -1.8209  4.5086
 5650SOL     OW28585   3.903   0.110   8.223 -0.2565 -0.0341  0.2180
 5650SOL    HW128586   3.931   0.155   8.302  3.6666 -3.3920  0.7799
 5650SOL    HW228587   3.846   0.043   8.262  0.2633 -0.8227 -0.3617
 5651SOL     OW28588   2.555   1.336   6.707  0.0557 -0.1108 -0.7466
 5651SOL    HW128589   2.549   1.422   6.664 -2.7670  0.3446  0.5540
 5651SOL    HW228590   2.519   1.281   6.638 -0.3044 -1.2353  0.3412
 5652SOL     OW28591   1.749   2.470   4.520 -0.1190  0.1549 -0.1712
 5652SOL    HW128592   1.762   2.421   4.602  0.5985 -1.0542 -1.0038
 5652SOL    HW228593   1.817   2.429   4.466  0.1517 -0.7327  0.8406
 5653SOL     OW28594   4.633   4.586   1.919  0.4541  0.6425  0.2205
 5653SOL    HW128595   4.695   4.534   1.868 -0.0164  0.3470 -0.0479
 5653SOL    HW228596   4.557   4.596   1.862  1.2424 -0.9091 -1.0967
 5654SOL     OW28597   4.017   0.039   4.215  0.3527 -0.4394 -0.0711
 5654SOL    HW128598   3.995   0.038   4.308  2.2258  0.5236  0.3839
 5654SOL    HW228599   4.063   4.696   4.208 -0.4223 -0.8131 -0.7627
 5655SOL     OW28600   1.710   1.246  15.620  0.5019 -0.3509 -0.4162
 5655SOL    HW128601   1.649   1.219  15.688 -0.4742  0.2134 -1.0652
 5655SOL    HW228602   1.689   1.176  15.557 -0.2064 -1.8360  1.4490
 5656SOL     OW28603   3.810   3.143  10.331  0.3945 -0.7335 -0.4599
 5656SOL    HW128604   3.735   3.092  10.299 -0.2975 -0.2257  0.3353
 5656SOL    HW228605   3.867   3.073  10.362  0.7005  0.5747  1.9523
 5657SOL     OW28606   1.127   3.006   2.011  0.4811 -0.0017  0.3087
 5657SOL    HW128607   1.034   2.983   2.016  0.8372 -1.6369 -0.4878
 5657SOL    HW228608   1.140   3.036   1.921 -1.7466  1.3175  0.4196
 5658SOL     OW28609   3.682   0.132   7.745  0.2884 -0.1346  0.4413
 5658SOL    HW128610   3.623   0.090   7.807  1.8380 -0.9612  1.3661
 5658SOL    HW228611   3.728   0.197   7.798  3.8198 -1.9193 -0.4291
 5659SOL     OW28612   4.138   2.119   3.239  0.0152 -0.1563 -0.0109
 5659SOL    HW128613   4.204   2.087   3.300  1.1925  1.5531 -0.4197
 5659SOL    HW228614   4.151   2.063   3.163  1.3669  1.0486 -0.6622
 5660SOL     OW28615   2.664   1.823   4.144 -0.3230  0.1997 -0.0456
 5660SOL    HW128616   2.711   1.900   4.178  2.1999 -1.1991 -0.3496
 5660SOL    HW228617   2.730   1.757   4.122 -1.3734 -1.2484  1.1876
 5661SOL     OW28618   1.969   4.637   9.195  0.0084  0.3469 -0.0934
 5661SOL    HW128619   2.054   4.621   9.153  0.9319 -0.2933  2.0092
 5661SOL    HW228620   1.956   4.566   9.257 -1.8370 -1.4485 -2.5042
 5662SOL     OW28621   2.769   1.199   3.649  0.1593  0.3523 -0.4427
 5662SOL    HW128622   2.690   1.204   3.703  1.1191 -1.1962  1.1199
 5662SOL    HW228623   2.781   1.290   3.621 -2.3705  0.4378 -1.2280
 5663SOL     OW28624   1.524   2.979  11.001 -0.0704 -0.0992  0.2660
 5663SOL    HW128625   1.475   3.058  10.979 -1.1376 -1.0174 -0.6684
 5663SOL    HW228626   1.610   3.006  10.968 -0.2974  0.0197 -0.2343
 5664SOL     OW28627   1.343   0.214   6.923  0.1155 -0.2547  0.2763
 5664SOL    HW128628   1.404   0.247   6.989 -1.2020  2.1032  0.3259
 5664SOL    HW228629   1.274   0.280   6.927  0.9223  0.6105 -0.1406
 5665SOL     OW28630   3.618   3.808  14.543 -0.3724 -0.0933 -0.0890
 5665SOL    HW128631   3.679   3.802  14.470 -0.2722  2.4256 -0.2082
 5665SOL    HW228632   3.573   3.729  14.514  1.6726 -1.1291 -0.3811
 5666SOL     OW28633   3.093   3.173   8.681 -0.1696 -0.0224  0.0715
 5666SOL    HW128634   3.139   3.171   8.597  0.0097  1.4603  0.1424
 5666SOL    HW228635   3.021   3.234   8.662  0.9099  1.3484  0.4519
 5667SOL     OW28636   4.305   0.414   8.956 -0.0937 -0.1949 -0.2877
 5667SOL    HW128637   4.305   0.326   8.917  0.4908  0.0193 -0.7796
 5667SOL    HW228638   4.358   0.403   9.035 -1.7037 -2.5706  0.4875
 5668SOL     OW28639   0.084   1.847  11.351 -0.0128 -0.0773 -0.0780
 5668SOL    HW128640   0.098   1.780  11.284  0.3923 -0.8350  0.7626
 5668SOL    HW228641   0.045   1.922  11.307  1.1180 -0.4565 -1.7183
 5669SOL     OW28642   0.998   4.292   5.045 -0.3718 -0.3957 -0.4509
 5669SOL    HW128643   0.999   4.225   5.113 -1.8635  1.3794  1.2937
 5669SOL    HW228644   0.946   4.256   4.973 -0.1542 -2.3818  0.3967
 5670SOL     OW28645   3.142   0.218   8.311 -0.2293  0.4097  0.0307
 5670SOL    HW128646   3.142   0.280   8.238  2.5886 -0.4786 -0.7316
 5670SOL    HW228647   3.058   0.242   8.349  0.1063 -0.3496  1.2768
 5671SOL     OW28648   1.644   0.758   7.219 -0.0468 -0.5262 -0.3371
 5671SOL    HW128649   1.711   0.795   7.162 -0.3921  1.5532  0.5915
 5671SOL    HW228650   1.639   0.828   7.284 -0.7395  0.2264 -1.2097
 5672SOL     OW28651   1.431   0.166   2.599  0.0981 -0.4903 -0.8564
 5672SOL    HW128652   1.494   0.127   2.660 -0.5323  0.3088  0.3127
 5672SOL    HW228653   1.367   0.206   2.658 -0.0725 -1.5564 -0.3163
 5673SOL     OW28654   1.459   4.660   2.768 -0.1265 -0.6893 -0.0839
 5673SOL    HW128655   1.506   4.669   2.851  1.8922 -0.0186 -1.2841
 5673SOL    HW228656   1.388   4.600   2.789 -0.8898  0.0968 -0.4268
 5674SOL     OW28657   3.772   1.476   7.978 -0.4982  0.1019  0.6098
 5674SOL    HW128658   3.784   1.526   8.060  3.8906  0.0639 -0.0108
 5674SOL    HW228659   3.860   1.452   7.947 -0.0856  1.8644  0.3925
 5675SOL     OW28660   0.742   1.876   5.553 -0.1370 -0.3478 -0.1545
 5675SOL    HW128661   0.773   1.817   5.485  4.0639  0.8617  0.7474
 5675SOL    HW228662   0.797   1.952   5.537 -0.3512 -0.0955  0.2884
 5676SOL     OW28663   0.736   1.861   9.030  0.1845  0.2733  0.8691
 5676SOL    HW128664   0.800   1.850   9.101  0.5335  3.5770  1.0640
 5676SOL    HW228665   0.670   1.793   9.043  2.1005 -1.5895  1.0534
 5677SOL     OW28666   0.056   2.353   4.070  0.4282 -0.3116  0.5350
 5677SOL    HW128667   0.127   2.397   4.024  2.3657 -1.9157  1.9799
 5677SOL    HW228668   0.056   2.403   4.151 -1.0086  0.8124 -0.1695
 5678SOL     OW28669   4.498   1.190   8.116 -0.1239  0.0375  0.7756
 5678SOL    HW128670   4.518   1.096   8.107 -0.6564  0.2159 -2.2397
 5678SOL    HW228671   4.550   1.236   8.050 -3.2098  2.7990  0.2771
 5679SOL     OW28672   3.800   3.549   9.232  0.1008  0.1659  0.4469
 5679SOL    HW128673   3.777   3.497   9.309  1.8327 -0.8281  0.3009
 5679SOL    HW228674   3.838   3.626   9.275  0.9619  0.8456 -1.5380
 5680SOL     OW28675   2.664   0.514   7.033 -0.0857 -0.2059  0.6432
 5680SOL    HW128676   2.668   0.437   6.977  0.3092  0.0524  0.3180
 5680SOL    HW228677   2.681   0.578   6.964 -2.0276  1.0606  1.3223
 5681SOL     OW28678   2.201   4.074  13.705 -0.3334  0.2529  0.3069
 5681SOL    HW128679   2.236   4.093  13.792  2.6637 -1.3564 -0.5402
 5681SOL    HW228680   2.115   4.116  13.708  0.0487  1.0731 -0.2563
 5682SOL     OW28681   4.677   3.417   2.458  0.2076 -0.0354 -0.4139
 5682SOL    HW128682   4.644   3.419   2.368 -2.0671  0.4292  0.4173
 5682SOL    HW228683   4.706   3.327   2.472  0.8895  0.2206 -0.2041
 5683SOL     OW28684   0.745   2.980   9.980  0.6521 -0.1860  0.2768
 5683SOL    HW128685   0.760   2.886   9.975 -1.0434 -0.6313  3.0284
 5683SOL    HW228686   0.773   2.992  10.071  1.4162 -2.0179  0.2748
 5684SOL     OW28687   2.548   0.123   3.745 -0.7252  0.5034  0.2695
 5684SOL    HW128688   2.585   0.156   3.826 -1.8440 -2.1124  1.8523
 5684SOL    HW228689   2.624   0.074   3.712 -2.8899 -1.1155 -2.3719
 5685SOL     OW28690   0.119   3.890   2.372  0.3331  0.2949  0.0191
 5685SOL    HW128691   0.189   3.892   2.306  0.2037 -0.4899 -0.1383
 5685SOL    HW228692   0.130   3.803   2.409  0.4582  0.0164 -0.6690
 5686SOL     OW28693   0.996   0.811   6.939 -0.4689  0.9289 -0.0157
 5686SOL    HW128694   1.066   0.843   6.881 -0.3265  0.4617 -0.1047
 5686SOL    HW228695   0.920   0.808   6.882  0.9073 -0.3320 -1.7853
 5687SOL     OW28696   4.280   1.538   4.784 -0.5071 -0.2597  0.1658
 5687SOL    HW128697   4.295   1.604   4.717  2.3274 -2.3989 -1.2983
 5687SOL    HW228698   4.198   1.573   4.821 -1.4458 -1.2366 -0.9835
 5688SOL     OW28699   0.395   3.740   8.953  0.6409 -0.6229  0.0986
 5688SOL    HW128700   0.436   3.768   9.035  1.9137 -1.8614 -0.1229
 5688SOL    HW228701   0.301   3.754   8.964  1.0489  1.8278  0.3997
 5689SOL     OW28702   0.526   4.355   4.780  0.5168  0.2268  0.1348
 5689SOL    HW128703   0.539   4.420   4.711 -0.9012 -0.3895 -0.7119
 5689SOL    HW228704   0.534   4.273   4.732  0.6287  0.3957 -0.1318
 5690SOL     OW28705   0.689   3.735   1.593 -0.2714 -0.7077 -0.3679
 5690SOL    HW128706   0.614   3.706   1.645 -0.2529  1.6502  0.9630
 5690SOL    HW228707   0.741   3.778   1.661  0.1518  1.1826 -1.9030
 5691SOL     OW28708   2.795   1.967  14.310  0.0064 -0.6254  0.0484
 5691SOL    HW128709   2.728   1.968  14.241 -0.4493  1.1986  0.5107
 5691SOL    HW228710   2.872   1.998  14.262  1.3361  0.9560  3.2381
 5692SOL     OW28711   0.123   4.469  10.558  0.2814 -0.1767  0.1709
 5692SOL    HW128712   0.159   4.532  10.620  0.5055  0.6820 -0.8364
 5692SOL    HW228713   0.155   4.389  10.600  0.3754  0.0423  0.5169
 5693SOL     OW28714   2.203   2.168   0.120 -0.2057 -0.1310 -0.0405
 5693SOL    HW128715   2.251   2.219   0.055  0.0071  0.1573  0.3431
 5693SOL    HW228716   2.124   2.222   0.126 -0.5547 -0.4435 -1.9435
 5694SOL     OW28717   1.855   0.829  15.623  0.2768 -0.2169 -0.4868
 5694SOL    HW128718   1.805   0.855  15.545 -0.3371  1.8754  0.6202
 5694SOL    HW228719   1.821   0.886  15.692 -0.2045 -2.0709  0.8129
 5695SOL     OW28720   1.642   4.191  10.308 -0.3162 -1.0419  0.4615
 5695SOL    HW128721   1.672   4.181  10.399 -0.8482  0.0745  0.7641
 5695SOL    HW228722   1.724   4.206  10.262 -2.0642  4.5804 -0.7426
 5696SOL     OW28723   3.511   4.201   6.072 -0.0243  0.1123  0.6777
 5696SOL    HW128724   3.557   4.199   5.988 -0.6533 -2.9204  0.4133
 5696SOL    HW228725   3.447   4.266   6.044 -0.3460  0.3229  1.9177
 5697SOL     OW28726   4.589   3.602   4.137 -0.3998 -0.2669  0.1742
 5697SOL    HW128727   4.555   3.678   4.184 -1.1530 -0.5903  0.1526
 5697SOL    HW228728   4.578   3.531   4.201 -2.1800 -0.2848 -0.1578
 5698SOL     OW28729   2.173   0.461   3.059  0.1206  0.0600 -0.4467
 5698SOL    HW128730   2.239   0.411   3.106 -0.5932 -1.8216 -1.4517
 5698SOL    HW228731   2.135   0.509   3.132  2.7402  0.9407  0.3453
 5699SOL     OW28732   1.757   3.029  12.778 -0.0746 -0.0905 -0.1784
 5699SOL    HW128733   1.765   2.938  12.804 -1.2966 -0.2807 -0.4710
 5699SOL    HW228734   1.707   3.016  12.698 -0.1010  2.4226 -0.5941
 5700SOL     OW28735   2.647   1.743   8.622  0.8196  0.0574  0.2883
 5700SOL    HW128736   2.612   1.676   8.562 -0.9725  2.6485 -1.5749
 5700SOL    HW228737   2.610   1.825   8.589 -2.8493 -1.4945  0.5444
 5701SOL     OW28738   3.752   3.170   9.511 -0.6112 -0.0971  0.6177
 5701SOL    HW128739   3.708   3.091   9.480 -0.7072  0.6288 -1.0526
 5701SOL    HW228740   3.696   3.189   9.587 -1.5615 -0.1607 -0.0722
 5702SOL     OW28741   1.989   4.231   1.850  0.2346  0.7452  0.4196
 5702SOL    HW128742   2.016   4.141   1.833  1.3518  1.6784 -2.6123
 5702SOL    HW228743   2.030   4.247   1.935  1.3474 -1.2475  0.2584
 5703SOL     OW28744   2.947   4.480   4.069 -0.0064 -0.6778 -0.1418
 5703SOL    HW128745   3.032   4.475   4.026 -0.2666  0.5083 -0.7624
 5703SOL    HW228746   2.941   4.574   4.057 -0.7796 -0.9086 -1.5718
 5704SOL     OW28747   4.344   3.565   3.631 -0.4677  0.3589 -0.1680
 5704SOL    HW128748   4.339   3.630   3.701  0.6619  1.1626 -0.8423
 5704SOL    HW228749   4.429   3.584   3.591 -0.3349  0.3456  0.1049
 5705SOL     OW28750   4.247   2.931   8.776 -0.1509  0.5001  0.5643
 5705SOL    HW128751   4.314   2.979   8.728  0.5806 -2.1715 -1.0489
 5705SOL    HW228752   4.186   2.909   8.705  0.7823  1.9747 -0.6892
 5706SOL     OW28753   4.166   1.313   8.791  0.0906 -0.6687  0.7007
 5706SOL    HW128754   4.234   1.379   8.793 -1.8732  1.3774 -0.1527
 5706SOL    HW228755   4.090   1.369   8.808 -1.0682 -2.0127 -0.0247
 5707SOL     OW28756   2.129   3.947   7.065  0.1616  0.1884  0.2869
 5707SOL    HW128757   2.146   3.950   7.159  3.0234  0.8465 -0.2596
 5707SOL    HW228758   2.048   3.998   7.066  0.0773  0.0629 -0.3448
 5708SOL     OW28759   3.627   3.025   0.669 -0.4656  0.1130 -0.0573
 5708SOL    HW128760   3.643   3.005   0.577  0.2635  1.1076 -0.1390
 5708SOL    HW228761   3.637   3.120   0.671  1.2887 -0.1017  0.8751
 5709SOL     OW28762   2.252   1.864  13.085 -0.1296  0.1610 -0.0174
 5709SOL    HW128763   2.295   1.831  13.164  2.1135  1.0636 -0.8696
 5709SOL    HW228764   2.218   1.950  13.111  0.0085  0.2090  0.0025
 5710SOL     OW28765   1.473   0.886  12.956  0.2575 -0.1474 -0.4383
 5710SOL    HW128766   1.564   0.870  12.980  0.7888  0.4399 -2.0713
 5710SOL    HW228767   1.429   0.881  13.041  0.8421 -1.0541 -0.1960
 5711SOL     OW28768   2.459   0.429   7.480 -0.0374  0.1385  0.2360
 5711SOL    HW128769   2.444   0.416   7.386  0.3021  1.8662 -0.0594
 5711SOL    HW228770   2.516   0.354   7.492  1.5419  1.6921  2.5380
 5712SOL     OW28771   2.812   0.956   2.290  0.2170  0.5835 -0.8887
 5712SOL    HW128772   2.842   0.995   2.207  1.9015  0.4960 -0.3279
 5712SOL    HW228773   2.895   0.919   2.322  0.9679  1.2310 -2.0736
 5713SOL     OW28774   2.153   1.700   5.781  0.1068  0.3608 -0.4987
 5713SOL    HW128775   2.240   1.661   5.789  0.1558  0.3816 -0.9323
 5713SOL    HW228776   2.178   1.784   5.819  0.3250 -0.6363  1.5110
 5714SOL     OW28777   0.013   3.010  13.647  0.2061  0.4653 -0.0443
 5714SOL    HW128778   0.062   2.974  13.720 -0.6631  3.1372  1.8500
 5714SOL    HW228779   0.068   3.059  13.586  0.3837  0.9539  0.5072
 5715SOL     OW28780   3.118   3.367   0.851 -0.0581 -0.6210  0.2477
 5715SOL    HW128781   3.137   3.286   0.802 -1.0527 -1.2286  0.8662
 5715SOL    HW228782   3.186   3.429   0.827 -1.3489  0.2417 -1.1243
 5716SOL     OW28783   3.301   4.718  14.724  0.2743  0.0029  1.0826
 5716SOL    HW128784   3.313   4.633  14.767 -0.4091 -0.6342  0.0172
 5716SOL    HW228785   3.350   0.035  14.782  0.1642  1.4484 -0.2609
 5717SOL     OW28786   3.149   2.034   7.318 -0.3057 -0.1064 -0.0445
 5717SOL    HW128787   3.057   2.041   7.293 -0.0174 -1.1656 -1.4212
 5717SOL    HW228788   3.180   1.954   7.274 -2.5022  0.8655 -3.3817
 5718SOL     OW28789   4.304   2.742  12.580 -0.1940 -0.4810  0.4233
 5718SOL    HW128790   4.339   2.820  12.623 -0.5721  0.1278 -0.3608
 5718SOL    HW228791   4.265   2.776  12.499  1.1273 -0.0504 -0.0294
 5719SOL     OW28792   3.208   3.358  12.830  0.7930  0.3118  0.2055
 5719SOL    HW128793   3.184   3.323  12.744  1.7856  0.8641 -0.2865
 5719SOL    HW228794   3.303   3.352  12.826  0.6466 -0.8797 -1.6103
 5720SOL     OW28795   0.675   1.682  10.381 -0.0446  0.4121 -0.3261
 5720SOL    HW128796   0.580   1.690  10.369  0.0744  2.8358  0.2997
 5720SOL    HW228797   0.674   1.599  10.429  0.6734  2.2095  2.8096
 5721SOL     OW28798   0.412   0.051  13.868  0.2542  0.1351  0.1803
 5721SOL    HW128799   0.491   0.023  13.915  0.2670  0.5033  0.3830
 5721SOL    HW228800   0.430   0.020  13.780  0.9586  0.6672  0.1338
 5722SOL     OW28801   1.452   1.631   1.874 -0.5905  0.7428 -0.2813
 5722SOL    HW128802   1.393   1.696   1.835 -0.3880  0.1937 -1.5028
 5722SOL    HW228803   1.441   1.628   1.969  0.3775 -0.8552 -0.2300
 5723SOL     OW28804   2.345   1.580   4.409  0.0728 -0.3190  0.5328
 5723SOL    HW128805   2.388   1.614   4.331 -0.4339 -2.0699 -0.4895
 5723SOL    HW228806   2.409   1.513   4.434 -0.0059 -0.0290  1.5398
 5724SOL     OW28807   3.803   0.289   4.343  0.4734 -0.2875  0.3203
 5724SOL    HW128808   3.848   0.275   4.426  0.6243 -0.3757  0.2251
 5724SOL    HW228809   3.756   0.373   4.344  0.5973 -0.1997 -1.1016
 5725SOL     OW28810   1.311   3.925   2.423  0.6813  0.5200  0.6003
 5725SOL    HW128811   1.343   3.921   2.332  0.2538 -1.2641  0.5297
 5725SOL    HW228812   1.370   3.994   2.456  0.9908  0.2489  0.6160
 5726SOL     OW28813   3.753   0.518   8.065 -0.1780  0.3160 -0.2773
 5726SOL    HW128814   3.754   0.425   8.043  0.3260  0.0226  0.9759
 5726SOL    HW228815   3.751   0.514   8.161  2.2718  0.6773 -0.2185
 5727SOL     OW28816   4.238   2.409  15.172 -0.2864  0.0913 -0.0846
 5727SOL    HW128817   4.325   2.436  15.202 -0.8023  0.6052  0.9611
 5727SOL    HW228818   4.204   2.353  15.242  1.5219  0.3055  0.9673
 5728SOL     OW28819   1.151   2.752   7.672 -0.0594 -0.4485  0.6710
 5728SOL    HW128820   1.208   2.776   7.745  0.5115  1.2341 -0.3290
 5728SOL    HW228821   1.158   2.657   7.686 -2.1309 -0.7506 -0.4000
 5729SOL     OW28822   1.828   2.688   0.080  0.4922  0.1681  0.0201
 5729SOL    HW128823   1.799   2.618   0.139 -0.8383  0.8166  0.1300
 5729SOL    HW228824   1.916   2.713   0.108 -0.6535  2.6392  1.4184
 5730SOL     OW28825   1.156   3.182   6.493 -0.3912 -0.0082  0.1820
 5730SOL    HW128826   1.192   3.132   6.567  0.5771  0.1810 -0.1707
 5730SOL    HW228827   1.117   3.114   6.439 -0.0113  1.5907 -2.1008
 5731SOL     OW28828   0.205   0.032   7.381  0.2300  0.3876  0.2967
 5731SOL    HW128829   0.185   0.113   7.334 -1.5503 -0.1132  0.1984
 5731SOL    HW228830   0.300   0.025   7.381  0.4169  2.6270  2.5116
 5732SOL     OW28831   0.322   0.183   4.283 -0.4248 -0.4935 -0.3108
 5732SOL    HW128832   0.287   0.100   4.316 -0.3815 -0.6967 -0.7849
 5732SOL    HW228833   0.353   0.159   4.196  0.8314 -2.1536  0.5986
 5733SOL     OW28834   0.139   4.617  10.276 -0.1745  0.4036 -0.1277
 5733SOL    HW128835   0.103   4.572  10.352  1.3050 -0.6644 -0.0556
 5733SOL    HW228836   0.203   4.549  10.253 -0.6876 -0.0237 -0.3094
 5734SOL     OW28837   2.482   0.303   2.659  0.4303  0.0759 -0.3456
 5734SOL    HW128838   2.460   0.325   2.568  1.1339 -1.5142 -0.9138
 5734SOL    HW228839   2.556   0.246   2.639 -0.2384 -1.3114  1.2084
 5735SOL     OW28840   3.613   0.217   8.731 -0.2355  0.2470  0.1918
 5735SOL    HW128841   3.548   0.243   8.797 -0.1835 -1.8381  1.0547
 5735SOL    HW228842   3.661   0.153   8.784 -3.0173 -2.2870 -0.3089
 5736SOL     OW28843   2.751   1.428   3.099 -0.4845  0.2603 -0.2631
 5736SOL    HW128844   2.664   1.403   3.069 -0.5123 -0.5997  0.5544
 5736SOL    HW228845   2.800   1.369   3.042 -1.0062 -2.3748  1.9957
 5737SOL     OW28846   0.729   3.277   3.090 -0.2754  0.1070  0.2367
 5737SOL    HW128847   0.701   3.355   3.138  0.7935  0.4453  0.3049
 5737SOL    HW228848   0.790   3.319   3.030 -2.1825 -0.8481 -2.3835
 5738SOL     OW28849   1.782   3.849   7.291  0.8541 -0.0725  0.5147
 5738SOL    HW128850   1.713   3.821   7.351 -0.2186 -0.1153 -0.7529
 5738SOL    HW228851   1.854   3.795   7.325  1.2048 -0.3503 -0.6505
 5739SOL     OW28852   3.803   3.437   7.818  0.3917 -0.1264  0.5811
 5739SOL    HW128853   3.856   3.443   7.897  1.3533 -2.5072  0.1110
 5739SOL    HW228854   3.868   3.447   7.749 -1.9255  0.7111 -1.5061
 5740SOL     OW28855   3.974   0.165   2.917  0.1676 -0.1792 -0.2610
 5740SOL    HW128856   3.936   0.128   2.997  2.4198  0.2930  1.0307
 5740SOL    HW228857   4.039   0.222   2.959 -0.4706  0.8378 -0.6483
 5741SOL     OW28858   1.177   3.570   8.186  0.5175  0.4427 -0.1562
 5741SOL    HW128859   1.113   3.625   8.231 -2.4047 -2.4363 -0.8097
 5741SOL    HW228860   1.131   3.487   8.193 -0.1500  0.9039  0.8887
 5742SOL     OW28861   3.522   1.848   5.856  0.6566  0.2138  0.0654
 5742SOL    HW128862   3.540   1.883   5.769  0.7358 -0.1573 -0.0662
 5742SOL    HW228863   3.459   1.780   5.834  0.6611  1.0547 -2.5454
 5743SOL     OW28864   2.277   1.688   6.794  0.5356  0.3363 -0.0808
 5743SOL    HW128865   2.292   1.739   6.715  0.0615 -2.3179 -1.8931
 5743SOL    HW228866   2.183   1.698   6.809  0.7044  0.1265  1.1239
 5744SOL     OW28867   2.918   4.700   8.503  0.5054 -0.0212  0.4265
 5744SOL    HW128868   2.961   4.727   8.422  1.1606 -2.5632 -0.0728
 5744SOL    HW228869   2.866   4.623   8.479 -1.5341  1.2831  0.5765
 5745SOL     OW28870   3.137   3.250   9.815 -0.1592  0.6133  0.6447
 5745SOL    HW128871   3.120   3.277   9.725 -1.2652 -0.4922  0.5227
 5745SOL    HW228872   3.120   3.157   9.802  2.1213  0.5850 -2.0747
 5746SOL     OW28873   0.894   3.066   4.651  0.5395  0.6757  0.1441
 5746SOL    HW128874   0.954   3.121   4.601  2.3118  1.2130  2.8549
 5746SOL    HW228875   0.893   2.990   4.593  1.1643  0.1712  0.7983
 5747SOL     OW28876   2.912   4.376   5.855  0.2641  0.9349 -0.1870
 5747SOL    HW128877   3.002   4.349   5.839 -0.1084  0.9148 -2.3456
 5747SOL    HW228878   2.858   4.311   5.811  1.5411 -0.9570  1.0769
 5748SOL     OW28879   0.714   2.663   3.921  0.2611 -1.1722  0.1202
 5748SOL    HW128880   0.761   2.745   3.932 -0.2690 -0.7276 -0.9179
 5748SOL    HW228881   0.759   2.621   3.847  0.1437 -0.6810 -0.2294
 5749SOL     OW28882   3.317   0.209  17.196 -0.5290  0.1718 -0.2353
 5749SOL    HW128883   3.245   0.152  17.224  0.1773 -0.4177  0.3764
 5749SOL    HW228884   3.279   0.289  17.232 -1.8536 -0.2416 -0.6913
 5750SOL     OW28885   3.534   3.544   5.935  0.0634  0.7006  0.0335
 5750SOL    HW128886   3.556   3.520   5.845 -2.1588  1.4186 -0.6925
 5750SOL    HW228887   3.572   3.631   5.937 -1.1730  1.2079  1.5194
 5751SOL     OW28888   0.511   2.358  15.539  0.0536  0.5962 -0.2310
 5751SOL    HW128889   0.535   2.286  15.598 -2.2698  0.7665  0.9032
 5751SOL    HW228890   0.516   2.432  15.600  0.3543  0.2099  0.2134
 5752SOL     OW28891   4.548   3.410  16.292 -0.4062  0.5442  0.3870
 5752SOL    HW128892   4.460   3.379  16.269  0.2952 -0.0300 -1.5272
 5752SOL    HW228893   4.597   3.329  16.306 -2.2858 -1.0263 -2.0812
 5753SOL     OW28894   0.221   1.223   6.741  0.0920  0.5215  0.2081
 5753SOL    HW128895   0.255   1.134   6.743 -0.0488  0.4854  0.7482
 5753SOL    HW228896   0.295   1.268   6.700 -0.3277  1.8168  0.8481
 5754SOL     OW28897   3.544   4.476   6.306 -0.1260  0.1845  0.1014
 5754SOL    HW128898   3.624   4.463   6.358  0.3184  1.2789 -0.2907
 5754SOL    HW228899   3.579   4.477   6.217 -0.7238 -1.4490 -0.1422
 5755SOL     OW28900   4.640   0.162   9.267  0.1911  0.5463 -0.4229
 5755SOL    HW128901   4.670   0.074   9.291  0.5258  1.4671  2.5468
 5755SOL    HW228902   4.577   0.179   9.337 -0.4484 -0.6359 -0.7176
 5756SOL     OW28903   1.986   2.582   6.871 -0.5496 -0.3860 -0.5015
 5756SOL    HW128904   2.058   2.523   6.894  0.1824  1.1916  1.2667
 5756SOL    HW228905   1.937   2.568   6.952 -1.9467 -0.3975 -1.3528
 5757SOL     OW28906   0.687   2.107   4.094 -0.2753 -0.2990  0.1219
 5757SOL    HW128907   0.672   2.201   4.108  0.9848  0.4033 -3.3041
 5757SOL    HW228908   0.595   2.080   4.100  0.5747 -3.5141 -1.6983
 5758SOL     OW28909   0.927   2.861   5.571  0.2232  0.2706  0.3214
 5758SOL    HW128910   0.856   2.808   5.609  0.1794  0.5087  0.5731
 5758SOL    HW228911   0.998   2.814   5.614 -0.6587 -0.6525  0.7954
 5759SOL     OW28912   1.446   3.511  14.702 -0.5077  0.4760  0.6544
 5759SOL    HW128913   1.419   3.448  14.769  1.8762 -2.1342 -0.8161
 5759SOL    HW228914   1.427   3.460  14.623  1.0269  1.8321 -0.5641
 5760SOL     OW28915   0.456   1.753  14.310 -0.4249  0.2189 -0.0438
 5760SOL    HW128916   0.427   1.825  14.365  0.0084  0.9468 -0.7734
 5760SOL    HW228917   0.413   1.777  14.228 -1.8201 -1.6849  0.1290
 5761SOL     OW28918   4.078   2.529   0.965 -0.1385 -0.3276 -1.1232
 5761SOL    HW128919   4.001   2.493   1.009  0.5950  0.3655  0.7318
 5761SOL    HW228920   4.107   2.448   0.923  1.2952 -0.5243  0.2523
 5762SOL     OW28921   2.510   0.427   8.135  0.9957  0.5260  0.0549
 5762SOL    HW128922   2.484   0.391   8.219 -0.7756 -0.3448 -0.8558
 5762SOL    HW228923   2.503   0.521   8.153 -2.1884  0.7588 -2.2770
 5763SOL     OW28924   0.894   2.400   6.553 -0.2097  0.1846 -0.2458
 5763SOL    HW128925   0.829   2.365   6.493 -1.8402  0.4506  1.3607
 5763SOL    HW228926   0.945   2.319   6.559  1.0346  0.9070 -1.1091
 5764SOL     OW28927   2.129   1.601  12.655 -0.0024  0.5305  0.4293
 5764SOL    HW128928   2.195   1.603  12.725  1.2078 -0.9056 -0.6898
 5764SOL    HW228929   2.088   1.684  12.680  2.4447  1.6543  0.7429
 5765SOL     OW28930   3.182   1.281   8.701  0.1157 -0.4183 -0.0495
 5765SOL    HW128931   3.117   1.273   8.631  2.1945  0.6543 -2.0734
 5765SOL    HW228932   3.223   1.367   8.693 -2.0244  0.6012 -0.1785
 5766SOL     OW28933   0.359   3.015   6.879 -0.4579 -0.0199  0.3601
 5766SOL    HW128934   0.346   3.110   6.883 -1.1934 -0.0668 -0.7773
 5766SOL    HW228935   0.282   2.997   6.825  0.2274  1.1255 -0.9832
 5767SOL     OW28936   1.403   4.722   4.176 -0.4579  0.1124  0.2424
 5767SOL    HW128937   1.449   0.002   4.095  0.2675  0.1017  0.6494
 5767SOL    HW228938   1.419   4.628   4.166 -2.3062 -0.0073 -1.5456
 5768SOL     OW28939   2.353   0.671   4.628 -0.0058 -0.3092 -0.4836
 5768SOL    HW128940   2.304   0.711   4.556 -1.5613  0.0234  0.7297
 5768SOL    HW228941   2.294   0.677   4.703 -0.6471  0.9820 -1.0981
 5769SOL     OW28942   0.320   1.808  17.372  0.0111 -0.0227  0.2347
 5769SOL    HW128943   0.229   1.837  17.381 -0.2946 -0.8425 -0.3238
 5769SOL    HW228944   0.313   1.766  17.287  0.5583 -0.8983  0.6160
 5770SOL     OW28945   3.894   0.679   2.295 -0.2468  0.3404 -0.4987
 5770SOL    HW128946   3.858   0.642   2.215 -0.7710  2.2791 -1.1584
 5770SOL    HW228947   3.923   0.595   2.330  0.5480  0.3275 -1.1817
 5771SOL     OW28948   4.700   0.606   5.163  0.0839  0.1148 -0.3052
 5771SOL    HW128949   4.735   0.527   5.205  0.3723 -0.1055 -0.9471
 5771SOL    HW228950   4.718   0.681   5.219  1.6244 -2.0987  2.1894
 5772SOL     OW28951   3.158   0.466   1.757  0.0928  0.0558 -0.4980
 5772SOL    HW128952   3.098   0.517   1.702 -2.5754 -1.0719  1.3950
 5772SOL    HW228953   3.129   0.487   1.845  3.1001  1.2600  0.2184
 5773SOL     OW28954   1.978   1.784   6.740  0.2955  0.0690 -1.2562
 5773SOL    HW128955   2.029   1.823   6.669  3.1891 -0.1418  0.7087
 5773SOL    HW228956   1.889   1.773   6.708 -1.0118  1.7111  1.8387
 5774SOL     OW28957   1.178   0.160   5.761  0.2174  0.2069 -0.0299
 5774SOL    HW128958   1.268   0.167   5.791  0.4190  0.9152 -0.8029
 5774SOL    HW228959   1.140   0.082   5.801  0.1197  1.0425  1.4921
 5775SOL     OW28960   3.786   2.275  15.911 -0.4122 -0.1257 -0.4583
 5775SOL    HW128961   3.882   2.278  15.919 -0.4774 -0.0780  0.3913
 5775SOL    HW228962   3.760   2.343  15.973  3.1838 -0.1805  1.1499
 5776SOL     OW28963   2.075   4.380   6.409 -0.1509  0.6935  0.0698
 5776SOL    HW128964   2.080   4.313   6.340 -0.6488  0.5233  0.2042
 5776SOL    HW228965   2.104   4.326   6.482 -0.3714 -0.2732 -0.5512
 5777SOL     OW28966   3.838   2.159   8.523 -0.5017 -0.5886  0.0773
 5777SOL    HW128967   3.929   2.145   8.496 -0.6885 -2.4114  0.4000
 5777SOL    HW228968   3.783   2.160   8.445 -0.4995 -5.1556  0.0331
 5778SOL     OW28969   1.108   0.887   3.085 -0.3037  0.2426  0.1950
 5778SOL    HW128970   1.048   0.932   3.026  0.3127  1.6715  0.6551
 5778SOL    HW228971   1.062   0.809   3.116 -0.2011 -0.3057 -1.0533
 5779SOL     OW28972   0.776   4.179   6.840 -0.1643  0.2134 -0.3740
 5779SOL    HW128973   0.868   4.200   6.826  0.6325 -1.9938  1.4642
 5779SOL    HW228974   0.741   4.238   6.774 -2.2344  2.3202  2.5725
 5780SOL     OW28975   3.446   3.858   1.051  0.6652 -0.3953 -0.1626
 5780SOL    HW128976   3.411   3.881   0.965 -0.7984 -0.6373  0.3685
 5780SOL    HW228977   3.486   3.778   1.018 -0.1447  0.0425 -2.1846
 5781SOL     OW28978   3.802   1.207  16.583  0.3057 -0.4454 -0.3554
 5781SOL    HW128979   3.785   1.257  16.663  0.5386 -0.7704 -0.1060
 5781SOL    HW228980   3.802   1.279  16.520  0.4352  0.7938  1.0645
 5782SOL     OW28981   0.874   2.312   9.783  0.3927 -0.1936  0.0571
 5782SOL    HW128982   0.814   2.353   9.721  0.7320 -0.5076 -0.4822
 5782SOL    HW228983   0.904   2.235   9.734  0.3687 -1.1013  1.4931
 5783SOL     OW28984   0.926   3.341   8.332  0.8120  0.0778 -0.9828
 5783SOL    HW128985   0.835   3.359   8.308  0.4037 -2.1245 -1.0387
 5783SOL    HW228986   0.911   3.333   8.426  1.5379  1.3291 -0.7586
 5784SOL     OW28987   4.050   4.418   3.122  0.0532 -0.3647 -0.2210
 5784SOL    HW128988   4.094   4.340   3.088 -1.2567 -0.8867 -0.7348
 5784SOL    HW228989   4.002   4.442   3.043 -1.4821  1.8549  1.3904
 5785SOL     OW28990   1.925   1.530   6.071  0.0284  0.8453 -0.5968
 5785SOL    HW128991   1.834   1.558   6.085 -0.4896  1.2193 -4.7219
 5785SOL    HW228992   1.950   1.504   6.160 -0.8057  0.3524 -0.5020
 5786SOL     OW28993   4.395   3.780   2.575  0.8898 -0.6701 -0.3667
 5786SOL    HW128994   4.372   3.715   2.508  0.1593 -0.7402 -0.0508
 5786SOL    HW228995   4.471   3.743   2.618  0.2347  0.7338  1.9775
 5787SOL     OW28996   1.198   0.176   3.573  0.4819 -0.6810 -0.0657
 5787SOL    HW128997   1.193   0.181   3.669  1.2753 -0.6854 -0.0228
 5787SOL    HW228998   1.236   0.263   3.561  0.2587 -0.9035 -2.4134
 5788SOL     OW28999   4.532   2.810  15.607 -0.2117 -0.2134 -0.0150
 5788SOL    HW129000   4.582   2.729  15.595  0.7827  0.1095  2.0216
 5788SOL    HW229001   4.507   2.825  15.515 -0.1871 -2.8535 -0.4531
 5789SOL     OW29002   0.328   1.250   3.917 -0.0010  0.3203 -0.3648
 5789SOL    HW129003   0.365   1.212   3.838  1.7450  0.6482  0.3114
 5789SOL    HW229004   0.358   1.340   3.905  0.5098  0.5374  2.6067
 5790SOL     OW29005   3.475   0.425   7.589  0.3879 -0.1295  0.6677
 5790SOL    HW129006   3.464   0.395   7.679  0.5905 -3.0090 -0.2647
 5790SOL    HW229007   3.517   0.507   7.615  2.5910 -0.6307 -1.3213
 5791SOL     OW29008   1.491   4.675   6.421 -0.3962  0.6253  0.0268
 5791SOL    HW129009   1.478   4.664   6.327 -0.3734 -0.8999  0.2011
 5791SOL    HW229010   1.584   4.700   6.426  0.4812 -2.5727 -0.2291
 5792SOL     OW29011   0.319   2.597   6.976 -0.5665  0.4268 -0.6135
 5792SOL    HW129012   0.254   2.667   6.981  1.5268  2.3720 -0.7498
 5792SOL    HW229013   0.291   2.545   6.901 -0.1389  2.0400 -1.8817
 5793SOL     OW29014   1.494   2.420   4.414  0.4948 -0.0934 -0.1715
 5793SOL    HW129015   1.503   2.376   4.330  1.0916 -0.3690  0.0418
 5793SOL    HW229016   1.585   2.427   4.441  0.6985 -1.6075 -0.4679
 5794SOL     OW29017   1.619   4.627   7.050  0.4603  0.1453  0.2674
 5794SOL    HW129018   1.687   4.575   7.093  2.9939  3.4854  0.2914
 5794SOL    HW229019   1.586   4.677   7.125  1.3832  0.0359  0.7471
 5795SOL     OW29020   0.757   2.127   1.906  0.2073  0.7443  0.8913
 5795SOL    HW129021   0.757   2.037   1.873 -1.6014  1.1659 -0.2481
 5795SOL    HW229022   0.850   2.150   1.909 -0.5899  3.9169  0.9888
 5796SOL     OW29023   3.835   2.060  15.676 -0.5743  0.1383  0.3379
 5796SOL    HW129024   3.780   2.105  15.740 -0.1778  1.1784 -0.0602
 5796SOL    HW229025   3.899   2.130  15.664 -1.1021  0.1467 -2.5073
 5797SOL     OW29026   4.563   1.007   7.590  0.3315  0.2187  0.5771
 5797SOL    HW129027   4.475   0.979   7.565  0.0660 -0.3675  2.1718
 5797SOL    HW229028   4.543   1.032   7.680  2.7993  2.1900  0.5772
 5798SOL     OW29029   1.490   2.551   6.473 -0.2396 -0.0347  0.0722
 5798SOL    HW129030   1.410   2.502   6.489  0.0175 -0.6170 -0.4231
 5798SOL    HW229031   1.484   2.619   6.540  0.2910 -0.3296  0.4208
 5799SOL     OW29032   1.489   3.869  17.006 -0.6314 -0.4519 -0.4536
 5799SOL    HW129033   1.569   3.817  17.006  0.3158  0.9996 -0.4221
 5799SOL    HW229034   1.484   3.885  16.912  2.3541  2.5202 -0.1064
 5800SOL     OW29035   3.880   4.700   3.734 -0.4639  0.0940 -0.4321
 5800SOL    HW129036   3.848   0.049   3.721 -0.3239  0.2826  0.5125
 5800SOL    HW229037   3.934   4.708   3.813 -2.4653 -0.4830  0.9687
 5801SOL     OW29038   0.343   0.649   7.555  0.0882  0.5363 -0.0100
 5801SOL    HW129039   0.358   0.555   7.568 -0.6510  0.5220  0.7320
 5801SOL    HW229040   0.329   0.681   7.644  2.7570  0.5273  0.4167
 5802SOL     OW29041   0.619   3.171   6.139 -0.0140 -0.2637 -0.0062
 5802SOL    HW129042   0.707   3.169   6.102 -0.7651  0.4600 -1.8812
 5802SOL    HW229043   0.616   3.257   6.181 -2.3120 -0.6338  0.5665
 5803SOL     OW29044   4.676   2.662   9.544  0.0631 -0.5715  0.1450
 5803SOL    HW129045   0.030   2.671   9.548 -0.0393  0.4342  0.3104
 5803SOL    HW229046   4.653   2.755   9.535  0.8189 -0.5205 -1.2437
 5804SOL     OW29047   1.625   2.507  14.524  0.0317  0.5764 -0.2250
 5804SOL    HW129048   1.689   2.568  14.561  0.4469 -1.3054  2.1451
 5804SOL    HW229049   1.664   2.507  14.437 -0.1403  1.8167 -0.2984
 5805SOL     OW29050   4.259   2.574   3.818 -0.3590 -0.0435 -0.3958
 5805SOL    HW129051   4.180   2.608   3.858 -0.8600 -0.3813 -1.1034
 5805SOL    HW229052   4.315   2.642   3.857 -0.3156 -0.1393 -0.2905
 5806SOL     OW29053   3.261   3.880   6.747  0.2457  0.8319 -0.0400
 5806SOL    HW129054   3.319   3.913   6.816 -0.6586 -0.7001  1.4433
 5806SOL    HW229055   3.293   3.927   6.670  0.1594  0.7497 -0.1254
 5807SOL     OW29056   4.479   3.353   7.104 -0.2377 -0.4076  0.3609
 5807SOL    HW129057   4.552   3.364   7.043 -0.4579  2.4520  0.6220
 5807SOL    HW229058   4.485   3.264   7.138  2.5388 -0.9510 -1.6180
 5808SOL     OW29059   3.756   3.525   5.079 -0.3049 -0.6466  0.2996
 5808SOL    HW129060   3.711   3.549   4.998  0.1486  1.7688  0.7553
 5808SOL    HW229061   3.744   3.430   5.076  0.8150 -0.7745  0.1041
 5809SOL     OW29062   1.771   3.458  10.504  0.1412 -0.1429  0.5388
 5809SOL    HW129063   1.753   3.364  10.504 -1.7154  0.2228 -0.9759
 5809SOL    HW229064   1.856   3.458  10.461  0.3383 -0.1252  0.9307
 5810SOL     OW29065   0.175   1.518   2.804 -0.0361 -0.0442 -0.7444
 5810SOL    HW129066   0.227   1.439   2.816  0.2838  0.2750 -0.0488
 5810SOL    HW229067   0.096   1.468   2.786  1.8248 -3.1776 -0.0838
 5811SOL     OW29068   4.045   0.128   3.410  0.1380 -0.3420 -0.3347
 5811SOL    HW129069   4.140   0.129   3.415  0.2392  1.0128 -2.5806
 5811SOL    HW229070   4.029   0.222   3.401 -1.9288 -0.5292  1.2664
 5812SOL     OW29071   2.423   1.533   8.697  0.0956  0.2248 -0.4928
 5812SOL    HW129072   2.517   1.530   8.678  0.1648  0.9900 -0.2779
 5812SOL    HW229073   2.421   1.616   8.745  2.2731  1.3459 -2.2808
 5813SOL     OW29074   0.707   3.379   6.973  0.2496  0.3368 -0.3868
 5813SOL    HW129075   0.749   3.464   6.960 -0.2304  0.5709 -0.4068
 5813SOL    HW229076   0.702   3.375   7.069 -2.5510  3.2364 -0.3949
 5814SOL     OW29077   4.167   2.512   7.157  0.0817  0.4185  0.2235
 5814SOL    HW129078   4.248   2.513   7.207  0.9733  2.2875 -1.2239
 5814SOL    HW229079   4.107   2.525   7.230 -1.8008 -1.7963 -0.9277
 5815SOL     OW29080   4.231   1.319   9.638  0.1642 -0.6448  0.4533
 5815SOL    HW129081   4.156   1.378   9.651  1.1627  0.6646  0.2201
 5815SOL    HW229082   4.207   1.288   9.550 -0.7889  0.0815  0.4593
 5816SOL     OW29083   2.011   1.072   7.106  0.1949  0.0225  0.3470
 5816SOL    HW129084   2.100   1.097   7.083  0.3535 -0.0959  0.8369
 5816SOL    HW229085   2.011   1.096   7.199  0.2178 -0.4986  0.4811
 5817SOL     OW29086   2.005   2.835   8.678 -0.1894 -0.0121 -0.3178
 5817SOL    HW129087   2.005   2.912   8.621 -1.3997 -0.8702 -1.4655
 5817SOL    HW229088   2.025   2.765   8.616 -2.3602 -1.5946  0.7417
 5818SOL     OW29089   3.564   3.704   6.988 -0.3772 -0.8484  0.2768
 5818SOL    HW129090   3.586   3.708   6.895 -0.1244  1.7773  0.4430
 5818SOL    HW229091   3.496   3.771   6.991 -0.6276 -1.0125 -1.8311
 5819SOL     OW29092   3.712   2.495  11.945 -0.7370  0.1114 -0.1891
 5819SOL    HW129093   3.707   2.476  11.851 -0.4641 -0.2014 -0.1418
 5819SOL    HW229094   3.777   2.564  11.956 -1.6669  0.5912  2.1501
 5820SOL     OW29095   2.448   1.125   9.633  0.4325  0.3393 -0.6064
 5820SOL    HW129096   2.478   1.210   9.601  2.2096  0.1578  0.5951
 5820SOL    HW229097   2.417   1.144   9.722 -0.6805 -0.8534 -0.7441
 5821SOL     OW29098   0.639   1.624   7.930 -0.0548  0.5748  0.0512
 5821SOL    HW129099   0.623   1.543   7.881 -1.6070  1.4664 -0.8967
 5821SOL    HW229100   0.610   1.688   7.865 -2.1747 -0.2466  0.1918
 5822SOL     OW29101   2.085   3.266  12.302  0.2283 -0.4595 -0.0028
 5822SOL    HW129102   2.071   3.360  12.300  0.0407 -0.4425  2.1298
 5822SOL    HW229103   2.020   3.230  12.242  0.0142  1.2291 -0.7706
 5823SOL     OW29104   4.442   3.961  13.695  0.2371 -0.1904  0.1048
 5823SOL    HW129105   4.503   4.026  13.660 -0.7233  0.6280 -0.0305
 5823SOL    HW229106   4.361   4.012  13.689 -1.4840 -2.6368  2.5250
 5824SOL     OW29107   0.933   3.531   5.638  0.2314 -0.5270 -0.6396
 5824SOL    HW129108   0.968   3.620   5.630 -2.4553  0.7101  1.3600
 5824SOL    HW229109   0.888   3.522   5.554 -2.3797  0.5211  0.6656
 5825SOL     OW29110   2.164   0.469   5.282  0.2935  0.3896  0.2826
 5825SOL    HW129111   2.202   0.482   5.369  0.3689 -0.7640  0.4148
 5825SOL    HW229112   2.226   0.512   5.223 -0.4620 -1.0643 -1.5810
 5826SOL     OW29113   3.762   2.457   9.174 -0.0804 -0.3115  0.2846
 5826SOL    HW129114   3.787   2.548   9.190 -0.6844 -0.1256  0.1854
 5826SOL    HW229115   3.686   2.472   9.117 -0.4884 -0.1639  0.8641
 5827SOL     OW29116   0.133   1.841   2.500 -0.0007  0.4030  0.2419
 5827SOL    HW129117   0.103   1.808   2.415  0.6202 -0.2339  0.2690
 5827SOL    HW229118   0.200   1.775   2.516 -0.1519  0.0053 -0.7508
 5828SOL     OW29119   3.994   4.379   4.776 -0.8663 -0.0192  0.1856
 5828SOL    HW129120   3.902   4.374   4.750 -0.9284  1.9817  0.0212
 5828SOL    HW229121   4.022   4.289   4.763  0.9947  0.4351  0.9417
 5829SOL     OW29122   0.699   3.416   6.240  0.5009  0.5317 -0.1862
 5829SOL    HW129123   0.670   3.399   6.330 -0.5033 -0.1120 -0.6285
 5829SOL    HW229124   0.670   3.505   6.220  0.9428  0.3470 -1.6229
 5830SOL     OW29125   3.876   4.002   9.274  0.7087 -0.5449 -0.9488
 5830SOL    HW129126   3.852   4.010   9.182 -1.2935  0.7724 -0.3017
 5830SOL    HW229127   3.968   4.028   9.278  0.1426  1.3384 -0.2160
 5831SOL     OW29128   2.948   1.965   3.474  0.1769  0.0797 -0.0759
 5831SOL    HW129129   2.879   2.028   3.493  0.7746  0.4834  0.7633
 5831SOL    HW229130   3.029   2.016   3.467 -0.3555  0.9436  0.0872
 5832SOL     OW29131   3.597   0.379   7.360 -0.3254  0.1231  0.5410
 5832SOL    HW129132   3.557   0.392   7.446 -1.3000  0.4043  0.0415
 5832SOL    HW229133   3.653   0.303   7.376 -0.3905 -0.2816 -1.1407
 5833SOL     OW29134   4.206   3.418   5.075  0.1873 -0.7585 -1.0184
 5833SOL    HW129135   4.148   3.367   5.131 -0.7805  1.5788  0.0896
 5833SOL    HW229136   4.158   3.501   5.076 -0.1322 -0.9483 -0.1118
 5834SOL     OW29137   2.632   0.926  14.812 -0.2910 -0.1085  0.6712
 5834SOL    HW129138   2.637   0.955  14.721  1.2893 -1.7067  0.2480
 5834SOL    HW229139   2.595   0.839  14.793 -2.2634  1.1020 -1.0729
 5835SOL     OW29140   1.194   0.491  16.879  0.2930  0.1169  0.2007
 5835SOL    HW129141   1.241   0.415  16.845  1.0411  0.6584 -0.0005
 5835SOL    HW229142   1.123   0.453  16.931 -1.5217  2.1019 -0.8302
 5836SOL     OW29143   1.135   3.499   2.768  0.2434  0.3185 -0.1220
 5836SOL    HW129144   1.219   3.492   2.724 -0.5157  2.4940 -1.9341
 5836SOL    HW229145   1.175   3.558   2.832 -1.8539  1.2049  0.3841
 5837SOL     OW29146   0.343   0.527   3.705  0.1062 -0.0058  0.3022
 5837SOL    HW129147   0.273   0.577   3.747  1.3046  0.5952  1.5978
 5837SOL    HW229148   0.337   0.566   3.618 -1.6440  0.4327  0.6300
 5838SOL     OW29149   1.465   4.565   8.732  0.4548 -0.5255 -0.3163
 5838SOL    HW129150   1.451   4.588   8.824  0.3587  1.7451 -0.8874
 5838SOL    HW229151   1.561   4.564   8.734  0.4541  1.6058  1.3655
 5839SOL     OW29152   1.048   1.739   4.223  0.2191  0.1848 -0.6752
 5839SOL    HW129153   0.978   1.800   4.200  0.3267  0.9649  1.0917
 5839SOL    HW229154   1.007   1.653   4.217 -1.5562  0.7406  3.4395
 5840SOL     OW29155   3.807   1.429  16.440 -0.1166  0.4939 -0.1002
 5840SOL    HW129156   3.730   1.482  16.417  0.5327  1.6137  0.2827
 5840SOL    HW229157   3.876   1.490  16.415 -0.2032  0.9557  0.7587
 5841SOL     OW29158   2.365   4.163   0.645 -0.1984 -0.6378  0.0266
 5841SOL    HW129159   2.309   4.188   0.718  1.0316  0.0495  0.7290
 5841SOL    HW229160   2.308   4.134   0.574 -1.8492 -1.3775  1.6495
 5842SOL     OW29161   2.379   4.460   9.569 -0.4416  0.0128 -0.4113
 5842SOL    HW129162   2.458   4.464   9.515 -1.0984  3.7114 -1.0646
 5842SOL    HW229163   2.316   4.505   9.514 -0.2063  0.4373 -0.3379
 5843SOL     OW29164   2.395   0.761   8.483  0.2068 -0.1567  0.0846
 5843SOL    HW129165   2.347   0.683   8.511 -1.4337  0.3067 -1.3866
 5843SOL    HW229166   2.413   0.790   8.572  0.3051  1.1922 -0.3705
 5844SOL     OW29167   1.792   1.560   3.465  0.1126 -0.5535  0.0132
 5844SOL    HW129168   1.864   1.500   3.485  1.0497  0.8076  0.8066
 5844SOL    HW229169   1.718   1.502   3.484 -0.0898 -0.4781 -0.5508
 5845SOL     OW29170   4.300   2.890   4.600 -0.7519 -0.3025 -0.5841
 5845SOL    HW129171   4.224   2.949   4.597  0.8036  1.7875  1.2507
 5845SOL    HW229172   4.361   2.943   4.550  0.7664 -0.0704  1.5081
 5846SOL     OW29173   4.426   2.296   4.093 -0.1129 -0.0119  0.1788
 5846SOL    HW129174   4.361   2.295   4.164 -1.1418 -0.7111 -0.7648
 5846SOL    HW229175   4.482   2.227   4.130  0.7906  0.6496  0.0387
 5847SOL     OW29176   1.447   2.251  11.095 -0.2380 -0.6535  0.3709
 5847SOL    HW129177   1.473   2.342  11.104  0.8555 -0.6976 -2.4718
 5847SOL    HW229178   1.480   2.207  11.173 -1.1608 -1.4349  0.3225
 5848SOL     OW29179   0.081   4.043   8.766  0.6508  0.4757 -0.9806
 5848SOL    HW129180   0.144   4.079   8.704  0.9403  1.0366 -0.3582
 5848SOL    HW229181   0.043   4.123   8.802  1.3339 -0.0407  0.8901
 5849SOL     OW29182   3.738   2.073   2.742  0.2995 -0.4351  0.0683
 5849SOL    HW129183   3.770   2.118   2.664  0.4444  1.3688  1.1673
 5849SOL    HW229184   3.769   1.986   2.717 -2.9985 -1.5186 -0.1164
 5850SOL     OW29185   1.418   3.863  10.414  0.4386 -0.7638 -0.1500
 5850SOL    HW129186   1.512   3.844  10.417  1.2085  3.1644  1.1484
 5850SOL    HW229187   1.418   3.954  10.443  3.2734 -0.7884 -0.1224
 5851SOL     OW29188   2.554   0.809   4.735  0.1523 -0.1588 -0.5031
 5851SOL    HW129189   2.619   0.753   4.777  0.7830  1.7116  1.0380
 5851SOL    HW229190   2.487   0.747   4.706  0.7101 -0.5248 -1.0046
 5852SOL     OW29191   3.671   0.381   6.164  0.0642 -0.0771  0.2457
 5852SOL    HW129192   3.578   0.403   6.173  0.6678  2.0380  1.2691
 5852SOL    HW229193   3.703   0.428   6.241 -1.7304  0.8579  0.4362
 5853SOL     OW29194   2.633   0.907   6.415  0.5809 -0.2997 -0.6235
 5853SOL    HW129195   2.650   0.814   6.430  0.2974 -0.1452  0.7249
 5853SOL    HW229196   2.546   0.897   6.377  0.7889 -2.7408 -0.4807
 5854SOL     OW29197   3.613   2.770  17.256  0.2567 -0.0869 -0.0410
 5854SOL    HW129198   3.529   2.750  17.215 -0.2855  0.7493  0.6551
 5854SOL    HW229199   3.599   2.736  17.344 -1.1819  2.3482  0.6757
 5855SOL     OW29200   0.439   1.206   4.558 -0.5719  0.5095  0.5307
 5855SOL    HW129201   0.407   1.160   4.635  0.8072 -0.3106  0.6254
 5855SOL    HW229202   0.363   1.220   4.502 -1.6094 -1.2910  1.4868
 5856SOL     OW29203   0.999   1.120   4.709  0.1051 -0.1122 -0.1851
 5856SOL    HW129204   1.018   1.081   4.795 -0.5277 -0.5936 -0.2670
 5856SOL    HW229205   1.041   1.054   4.655 -1.2170 -2.2261  1.4027
 5857SOL     OW29206   0.482   2.104  10.478 -0.6273 -0.2776 -0.5219
 5857SOL    HW129207   0.417   2.036  10.462 -3.2490  1.2963  3.4281
 5857SOL    HW229208   0.450   2.155  10.552  0.0687  0.9327 -1.0545
 5858SOL     OW29209   0.538   1.364   4.158  0.3908  0.5017  0.1059
 5858SOL    HW129210   0.576   1.352   4.245  0.5852  0.9926  0.0886
 5858SOL    HW229211   0.449   1.329   4.168  1.7484 -2.4567  1.5840
 5859SOL     OW29212   2.085   2.718  17.280  0.3349 -0.1545 -1.0297
 5859SOL    HW129213   2.079   2.809  17.309  0.7371 -0.6537  0.6270
 5859SOL    HW229214   2.179   2.720  17.261  0.6073 -1.4768  0.2124
 5860SOL     OW29215   3.475   0.829  15.049  0.2986 -0.0488 -0.2711
 5860SOL    HW129216   3.464   0.788  15.135  0.4248 -1.1824 -0.7919
 5860SOL    HW229217   3.435   0.915  15.059 -1.1876 -0.9668  1.6610
 5861SOL     OW29218   0.060   2.243   1.949  0.7374  0.0826  0.4081
 5861SOL    HW129219   0.102   2.197   2.021  0.4353 -0.8738 -0.0286
 5861SOL    HW229220   0.060   2.179   1.878  2.4525 -0.6607  1.1082
 5862SOL     OW29221   0.092   3.306   4.267 -0.6092 -0.3444 -0.3631
 5862SOL    HW129222   0.168   3.343   4.222 -0.6633  0.9514  0.6368
 5862SOL    HW229223   0.106   3.214   4.244 -0.7792 -0.7823  1.2986
 5863SOL     OW29224   1.723   0.251   7.414  0.0415  0.5664 -0.0581
 5863SOL    HW129225   1.690   0.336   7.442  0.5904  0.3803  1.1757
 5863SOL    HW229226   1.761   0.213   7.494 -2.8172  1.3347  1.6436
 5864SOL     OW29227   2.844   0.125   3.119  0.9817  0.4226 -0.1559
 5864SOL    HW129228   2.932   0.160   3.131  0.6632  0.8570  0.9022
 5864SOL    HW229229   2.794   0.176   3.182  0.3948 -0.0669 -0.2223
 5865SOL     OW29230   0.753   2.403   2.314  0.3620  0.3660 -0.0613
 5865SOL    HW129231   0.845   2.402   2.287 -0.5673  0.7488 -3.1765
 5865SOL    HW229232   0.707   2.480   2.282  0.5333  1.1485  1.5538
 5866SOL     OW29233   4.126   3.222   5.574 -0.3484 -0.1865 -0.2996
 5866SOL    HW129234   4.070   3.300   5.570 -0.3898 -0.1891  0.2988
 5866SOL    HW229235   4.069   3.157   5.615 -0.6219 -0.4873 -1.1643
 5867SOL     OW29236   3.611   2.999  10.202 -0.0418 -0.3962 -0.3450
 5867SOL    HW129237   3.676   3.004  10.132 -0.7724  1.3216 -0.9205
 5867SOL    HW229238   3.546   2.943  10.161  1.0181 -0.0260 -2.5108
 5868SOL     OW29239   1.149   1.017   7.269 -0.4457  0.2696  0.0690
 5868SOL    HW129240   1.122   1.065   7.191 -0.3008 -0.9408 -0.7366
 5868SOL    HW229241   1.241   1.039   7.273 -1.0354  2.3306  1.9399
 5869SOL     OW29242   2.735   2.805  17.001 -0.8290  0.1844  0.1058
 5869SOL    HW129243   2.680   2.777  17.074 -1.2669  0.1651 -0.2309
 5869SOL    HW229244   2.711   2.748  16.928 -0.2930 -0.4911  0.4517
 5870SOL     OW29245   4.724   0.474   1.536  0.2665  0.7639 -0.0017
 5870SOL    HW129246   0.078   0.485   1.533  0.0144  2.5928 -1.1697
 5870SOL    HW229247   4.696   0.527   1.461 -1.1337 -1.6422 -1.1951
 5871SOL     OW29248   0.757   2.113   3.601 -0.2528 -0.1485  0.3491
 5871SOL    HW129249   0.840   2.088   3.642 -0.5878 -0.8929  0.5898
 5871SOL    HW229250   0.790   2.143   3.516  1.2024 -0.1853  0.9104
 5872SOL     OW29251   3.318   0.266   6.388 -0.1886 -0.0242  0.3162
 5872SOL    HW129252   3.380   0.200   6.420  0.1445 -0.3977 -1.1070
 5872SOL    HW229253   3.263   0.199   6.349  0.3607 -0.6830  0.6701
 5873SOL     OW29254   0.153   4.606   6.920 -0.2862 -0.3283 -0.1901
 5873SOL    HW129255   0.223   4.596   6.985 -0.5283 -0.4586  0.0512
 5873SOL    HW229256   0.114   4.519   6.921 -2.0650  0.4478 -1.6975
 5874SOL     OW29257   2.297   2.093  14.555  0.0886  0.0750 -0.3969
 5874SOL    HW129258   2.371   2.068  14.500 -1.1959 -2.8090 -0.7992
 5874SOL    HW229259   2.231   2.129  14.495 -0.3217  0.6299  0.3848
 5875SOL     OW29260   2.701   3.021   3.165 -0.6120  0.1200 -0.0130
 5875SOL    HW129261   2.772   3.051   3.221  0.1683 -1.1878 -0.2999
 5875SOL    HW229262   2.700   3.087   3.096 -2.4035  1.5968  1.4317
 5876SOL     OW29263   0.912   4.132  13.602 -0.2847  0.1577  0.0524
 5876SOL    HW129264   1.000   4.104  13.625 -0.2332 -1.3779 -2.0011
 5876SOL    HW229265   0.910   4.222  13.634 -1.8595  0.3426 -0.5360
 5877SOL     OW29266   1.093   1.243  12.200  0.5070 -0.3038 -0.0937
 5877SOL    HW129267   1.057   1.330  12.182  1.5718  0.3510  0.8854
 5877SOL    HW229268   1.042   1.202  12.270  0.9864  0.1378  0.5238
 5878SOL     OW29269   3.014   0.778   8.137 -0.0335  0.1854 -0.1427
 5878SOL    HW129270   3.055   0.805   8.219 -0.8739 -0.5390  0.5068
 5878SOL    HW229271   3.092   0.767   8.083 -1.2466 -0.5033 -1.7438
 5879SOL     OW29272   2.049   2.824   0.605 -0.3255  0.1920 -0.5006
 5879SOL    HW129273   2.020   2.843   0.694  0.7014 -0.9234  0.0743
 5879SOL    HW229274   2.139   2.802   0.629 -0.6833 -0.6848  0.0222
 5880SOL     OW29275   4.403   2.159   9.225 -0.0497  0.2007 -0.9399
 5880SOL    HW129276   4.439   2.081   9.267 -3.2694 -0.6060  0.3734
 5880SOL    HW229277   4.478   2.218   9.227  0.6881 -0.7901  0.2851
 5881SOL     OW29278   4.524   3.020   1.896 -0.1299  0.0686 -0.0043
 5881SOL    HW129279   4.428   3.022   1.900 -0.1981  0.0526 -1.7322
 5881SOL    HW229280   4.545   3.092   1.836 -1.4937 -0.1728 -0.7750
 5882SOL     OW29281   4.154   0.128   0.995 -0.1002  0.2245 -0.0546
 5882SOL    HW129282   4.183   0.137   1.086  1.0311 -0.1781 -0.3720
 5882SOL    HW229283   4.233   0.123   0.942 -0.5271  0.7473 -0.7432
 5883SOL     OW29284   2.952   4.329   8.471 -0.0571  0.8384  0.8417
 5883SOL    HW129285   3.042   4.359   8.456  0.4883 -1.2023 -0.0400
 5883SOL    HW229286   2.972   4.235   8.461  2.9791  1.6190 -0.3378
 5884SOL     OW29287   3.034   1.760   3.777  0.0370  0.3034 -0.5188
 5884SOL    HW129288   3.089   1.811   3.718  3.9032 -1.0527  1.8670
 5884SOL    HW229289   3.029   1.678   3.727  0.3341 -0.1121  0.1204
 5885SOL     OW29290   2.700   0.862  10.738 -0.1139 -0.5862  0.1546
 5885SOL    HW129291   2.607   0.868  10.717  0.3216  1.1263 -1.3002
 5885SOL    HW229292   2.733   0.791  10.684  0.4225  0.7391 -1.2501
 5886SOL     OW29293   2.631   2.498   7.775  0.1063 -0.1010 -0.3938
 5886SOL    HW129294   2.593   2.410   7.765 -1.8648  0.5849  1.1096
 5886SOL    HW229295   2.562   2.521   7.837  1.1361  1.7033  0.0772
 5887SOL     OW29296   1.714   0.031   7.613  0.1300 -0.3720 -0.2699
 5887SOL    HW129297   1.730   4.682   7.586  2.3435 -0.0881  0.0523
 5887SOL    HW229298   1.621   0.026   7.635  0.3511 -0.5041  0.6510
 5888SOL     OW29299   4.377   2.123   8.679 -0.3313  0.4280 -0.1010
 5888SOL    HW129300   4.353   2.037   8.714  0.5248  1.3284  2.6791
 5888SOL    HW229301   4.468   2.098   8.663 -0.4970 -1.2622  1.5560
 5889SOL     OW29302   1.477   1.628   4.262 -0.0297 -0.1306  0.2688
 5889SOL    HW129303   1.427   1.570   4.319 -0.5363 -0.3286 -0.3851
 5889SOL    HW229304   1.550   1.644   4.322 -1.1805 -0.3474  1.7167
 5890SOL     OW29305   2.042   1.761   7.913 -0.1805 -0.2772  0.2582
 5890SOL    HW129306   2.079   1.749   8.000 -1.0210  0.4896  0.7149
 5890SOL    HW229307   2.108   1.819   7.875  0.0069  0.5786  1.9165
 5891SOL     OW29308   3.797   0.846  16.996 -0.1652 -0.2992  0.2175
 5891SOL    HW129309   3.836   0.887  17.073  2.7796 -0.9828 -0.9073
 5891SOL    HW229310   3.823   0.756  17.018 -2.5719 -0.7993  0.9700
 5892SOL     OW29311   1.343   3.729   5.597 -0.3007  0.0323 -0.1690
 5892SOL    HW129312   1.313   3.737   5.507 -2.1081 -0.1506  0.4148
 5892SOL    HW229313   1.388   3.645   5.582 -1.8705 -0.2282 -3.2523
 5893SOL     OW29314   2.577   0.206   4.744 -0.4181 -0.0047  0.6399
 5893SOL    HW129315   2.513   0.253   4.691  1.0245 -0.5587 -1.5812
 5893SOL    HW229316   2.643   0.274   4.751  0.6966 -1.4368  4.0979
 5894SOL     OW29317   2.759   4.438  12.762 -0.3625 -0.1760 -0.3092
 5894SOL    HW129318   2.851   4.453  12.743  0.0793 -1.1150  1.0630
 5894SOL    HW229319   2.756   4.387  12.843 -0.5490 -0.9462 -0.8027
 5895SOL     OW29320   0.693   1.963  12.728  0.1935 -0.5389  0.1755
 5895SOL    HW129321   0.759   2.031  12.715  0.1302 -0.4869  0.1261
 5895SOL    HW229322   0.751   1.887  12.732 -1.3180 -1.7519 -0.7730
 5896SOL     OW29323   2.304   2.086   4.415  0.3179  0.5905 -0.5501
 5896SOL    HW129324   2.363   2.016   4.445  0.3180  1.7098  2.0039
 5896SOL    HW229325   2.337   2.165   4.458  2.2751 -0.6575  0.2586
 5897SOL     OW29326   2.973   0.274   3.445  0.8525 -0.8037  0.7000
 5897SOL    HW129327   2.892   0.282   3.395  1.8663 -0.3856 -0.8963
 5897SOL    HW229328   2.967   0.184   3.476  1.5496 -0.3824  2.0764
 5898SOL     OW29329   0.464   4.167   5.683 -0.7446  0.0840 -0.4586
 5898SOL    HW129330   0.532   4.198   5.744 -0.8644  0.2781 -0.4228
 5898SOL    HW229331   0.463   4.074   5.708 -1.7298 -0.3605 -2.1579
 5899SOL     OW29332   3.229   3.045   7.733 -0.2475 -0.7040 -0.1949
 5899SOL    HW129333   3.156   3.028   7.793 -1.5037  2.7976 -0.6695
 5899SOL    HW229334   3.275   3.098   7.798 -0.9865 -0.6662  0.3014
 5900SOL     OW29335   3.816   4.585   4.924  0.2646 -0.1994  0.1936
 5900SOL    HW129336   3.883   4.544   4.978  1.3008 -0.2556 -1.1160
 5900SOL    HW229337   3.845   4.677   4.925  2.0935 -0.7949  1.6051
 5901SOL     OW29338   1.717   1.256  10.105  0.0096  0.3711 -0.4794
 5901SOL    HW129339   1.793   1.198  10.097  0.0475  0.3668 -0.0776
 5901SOL    HW229340   1.754   1.309  10.175  2.8267 -1.8043 -0.3335
 5902SOL     OW29341   4.114   0.498  15.753  0.0510 -0.1411 -0.0180
 5902SOL    HW129342   4.108   0.495  15.849  0.7302  2.8932  0.1079
 5902SOL    HW229343   4.205   0.472  15.741  0.5259  2.0141 -0.9295
 5903SOL     OW29344   4.015   2.537   8.373  0.1431  0.2725  0.0865
 5903SOL    HW129345   3.947   2.521   8.308 -0.2805 -2.5940  1.2015
 5903SOL    HW229346   3.969   2.605   8.422 -0.8615 -1.0881  1.0598
 5904SOL     OW29347   1.156   3.708   5.867  0.6352 -0.0256 -0.4983
 5904SOL    HW129348   1.209   3.700   5.788 -0.4832  2.6210 -1.4880
 5904SOL    HW229349   1.221   3.716   5.937 -0.2456  3.0755 -0.0585
 5905SOL     OW29350   4.431   3.205   8.408 -0.1637 -0.3739 -0.1164
 5905SOL    HW129351   4.375   3.241   8.338 -0.8019 -0.5935  0.2852
 5905SOL    HW229352   4.359   3.187   8.469 -0.5571 -1.6987 -0.9618
 5906SOL     OW29353   1.548   0.105   7.265 -0.4469 -0.3051 -0.1281
 5906SOL    HW129354   1.555   0.165   7.190  0.0527  0.3318  0.4290
 5906SOL    HW229355   1.614   0.145   7.322 -0.3939 -1.9569  0.9653
 5907SOL     OW29356   2.666   1.075  15.489  0.0871  0.0415  0.0759
 5907SOL    HW129357   2.627   1.108  15.408 -0.4517 -0.6084  0.0682
 5907SOL    HW229358   2.709   0.992  15.469 -0.0343 -0.2313  0.9590
 5908SOL     OW29359   1.974   2.047   2.432  0.1442  0.2637  0.2547
 5908SOL    HW129360   2.063   2.080   2.421 -0.0681  1.3361  1.6310
 5908SOL    HW229361   1.997   1.958   2.407 -2.8058 -0.2361 -0.6729
 5909SOL     OW29362   0.072   1.744   4.478  0.5651  0.7238  0.3380
 5909SOL    HW129363   0.119   1.693   4.412  1.8643  0.0503  1.7873
 5909SOL    HW229364   0.149   1.792   4.508  0.3336 -0.7588  3.3210
 5910SOL     OW29365   1.767   3.652  16.176 -0.4806  0.2109 -0.4942
 5910SOL    HW129366   1.775   3.735  16.223  2.6577 -0.9918  1.0825
 5910SOL    HW229367   1.696   3.677  16.117 -1.0522 -0.1425  0.0435
 5911SOL     OW29368   1.302   2.492  17.652 -0.2222  0.3686 -0.0720
 5911SOL    HW129369   1.240   2.460  17.718 -0.6876 -1.4940 -1.4194
 5911SOL    HW229370   1.251   2.475  17.574  2.4274  0.6682 -1.8843
 5912SOL     OW29371   1.554   0.306  14.858 -0.2434  0.6582 -0.0725
 5912SOL    HW129372   1.481   0.367  14.849 -1.9432 -1.0531  2.0739
 5912SOL    HW229373   1.546   0.257  14.776 -3.4357  1.1372 -0.0445
 5913SOL     OW29374   1.277   2.381   2.851  0.1611  0.2551  0.1174
 5913SOL    HW129375   1.233   2.310   2.804  1.0137  2.2147 -3.5559
 5913SOL    HW229376   1.286   2.334   2.934  2.9517 -1.4443 -1.1241
 5914SOL     OW29377   3.571   0.158   5.761 -0.4347 -0.0048 -0.1245
 5914SOL    HW129378   3.578   0.063   5.746  0.2647 -0.1720  1.2831
 5914SOL    HW229379   3.624   0.173   5.839  2.9509 -0.1632 -2.3876
 5915SOL     OW29380   1.468   4.722   3.594 -0.2204  0.2770 -0.5283
 5915SOL    HW129381   1.400   4.662   3.563 -0.7420  0.1570  0.8915
 5915SOL    HW229382   1.513   4.656   3.647 -3.2836 -0.3521  1.2291
 5916SOL     OW29383   3.526   3.047   1.016 -0.2517 -0.0369 -0.0403
 5916SOL    HW129384   3.505   3.134   0.982  0.9405 -0.4892 -1.9256
 5916SOL    HW229385   3.618   3.054   1.042  0.5442 -0.7679 -2.7164
 5917SOL     OW29386   3.820   2.150   2.164  0.6993  0.0021  0.5386
 5917SOL    HW129387   3.734   2.133   2.202 -0.0028 -0.1539 -1.1497
 5917SOL    HW229388   3.827   2.242   2.136 -0.9012  0.2973  1.1095
 5918SOL     OW29389   4.715   1.755  12.615 -0.0195  0.4614  0.5249
 5918SOL    HW129390   0.026   1.717  12.544  3.2426  1.1959  2.5157
 5918SOL    HW229391   4.631   1.713  12.598 -0.9958  2.3514  0.7152
 5919SOL     OW29392   1.359   1.354  16.507  0.2954  0.3626 -0.2351
 5919SOL    HW129393   1.283   1.297  16.518  0.4059  0.1238 -0.7451
 5919SOL    HW229394   1.315   1.414  16.447  2.3451  0.9162 -1.1794
 5920SOL     OW29395   0.593   0.350   7.612  0.4991 -0.5322 -0.8043
 5920SOL    HW129396   0.585   0.338   7.517 -1.4127  0.9879 -0.8316
 5920SOL    HW229397   0.632   0.268   7.644  2.6222 -0.5240 -3.3727
 5921SOL     OW29398   3.001   1.319   2.000  0.1317  0.0849  0.1489
 5921SOL    HW129399   2.972   1.339   2.089  0.2784 -0.1857  0.2576
 5921SOL    HW229400   3.097   1.317   2.004  0.2187  2.0320 -0.8117
 5922SOL     OW29401   3.257   4.215   7.177  0.0386  0.1099  0.1632
 5922SOL    HW129402   3.179   4.259   7.211  0.5251 -0.1427  1.6368
 5922SOL    HW229403   3.298   4.190   7.260  0.5599  3.6349  0.9670
 5923SOL     OW29404   0.428   2.148   8.249  0.2636  0.6637 -0.0141
 5923SOL    HW129405   0.382   2.219   8.293 -1.5694  0.5637 -1.7506
 5923SOL    HW229406   0.441   2.190   8.164 -0.0383  0.1984 -0.2884
 5924SOL     OW29407   0.573   1.441   6.820  0.9234 -0.4113 -0.3634
 5924SOL    HW129408   0.522   1.420   6.742  0.6102  0.4622 -0.3949
 5924SOL    HW229409   0.662   1.434   6.785  1.4151  1.3295  0.5425
 5925SOL     OW29410   4.627   2.144   7.078 -0.2993 -0.6927 -0.2364
 5925SOL    HW129411   4.623   2.234   7.110 -2.4157 -0.9483  0.2048
 5925SOL    HW229412   4.626   2.103   7.165 -3.2592 -1.6353 -0.7206
 5926SOL     OW29413   1.432   2.582   1.368 -0.3921 -0.4671 -0.0592
 5926SOL    HW129414   1.485   2.539   1.301  1.3446 -0.2924  1.2181
 5926SOL    HW229415   1.408   2.509   1.425 -2.2517  0.9505  0.9878
 5927SOL     OW29416   1.562   3.147   2.438  0.1574 -0.6003  0.0908
 5927SOL    HW129417   1.600   3.101   2.512 -0.4214 -0.6597  0.3480
 5927SOL    HW229418   1.588   3.237   2.457 -0.8976 -0.3247  0.2357
 5928SOL     OW29419   2.223   3.108   6.306  0.6297  0.2079 -0.3863
 5928SOL    HW129420   2.153   3.045   6.288  2.4551 -1.6201 -1.1003
 5928SOL    HW229421   2.301   3.054   6.305  1.0428  0.7777  1.9112
 5929SOL     OW29422   2.021   1.494   1.870 -0.5381  0.4134  0.3227
 5929SOL    HW129423   1.936   1.499   1.912 -0.1318  0.2663  1.1534
 5929SOL    HW229424   2.014   1.451   1.785  0.1013  1.3071 -0.1880
 5930SOL     OW29425   1.371   4.413   7.554 -0.3450  0.4416 -0.3828
 5930SOL    HW129426   1.350   4.480   7.488 -0.1519  1.2453  0.3638
 5930SOL    HW229427   1.304   4.418   7.623 -0.7275 -2.3934 -0.5845
 5931SOL     OW29428   3.426   4.422   4.742  0.6177  0.1767  0.1519
 5931SOL    HW129429   3.406   4.511   4.770 -2.4353 -1.3184  2.6524
 5931SOL    HW229430   3.403   4.372   4.820  1.7337  0.6186  0.7572
 5932SOL     OW29431   2.674   4.298   3.502 -0.1136 -0.0293  0.3437
 5932SOL    HW129432   2.615   4.232   3.537 -0.9876 -0.3927 -1.8172
 5932SOL    HW229433   2.651   4.366   3.566  0.9168  1.8956 -1.3213
 5933SOL     OW29434   3.155   2.024   4.402 -0.4542  0.4151  0.6810
 5933SOL    HW129435   3.085   1.958   4.402  1.9926 -2.1702  2.0116
 5933SOL    HW229436   3.155   2.054   4.311  1.1154 -1.6366  0.0289
 5934SOL     OW29437   0.434   2.589   6.488  0.4326 -0.0956  0.1934
 5934SOL    HW129438   0.352   2.616   6.447  1.3003  0.7310 -1.0240
 5934SOL    HW229439   0.485   2.670   6.497  1.8489 -1.0816  1.1081
 5935SOL     OW29440   2.586   0.568  15.560  0.7932  1.1778  0.5178
 5935SOL    HW129441   2.630   0.575  15.475 -0.6629  2.7369 -0.1213
 5935SOL    HW229442   2.561   0.476  15.554 -1.5843  1.8373  0.0538
 5936SOL     OW29443   1.109   0.242   4.646 -0.5542 -0.7043  0.3222
 5936SOL    HW129444   1.197   0.227   4.682 -0.4119  0.4727  0.4620
 5936SOL    HW229445   1.059   0.226   4.725  0.1617 -1.9755  0.5100
 5937SOL     OW29446   3.596   2.590  12.194 -0.0608  0.3321 -0.3260
 5937SOL    HW129447   3.624   2.551  12.111  0.4937  0.3502 -0.1448
 5937SOL    HW229448   3.546   2.666  12.164  0.1300 -0.3256 -2.3331
 5938SOL     OW29449   3.290   3.526   6.114  0.6430  0.3929 -0.4159
 5938SOL    HW129450   3.242   3.494   6.038  1.3608  0.8043 -1.0433
 5938SOL    HW229451   3.368   3.564   6.074  0.0981 -1.8257 -3.5934
 5939SOL     OW29452   3.617   0.361   8.263  0.4555  0.2927 -0.2481
 5939SOL    HW129453   3.583   0.290   8.317 -0.5142 -0.2341 -1.5343
 5939SOL    HW229454   3.708   0.373   8.290  0.4292  1.5912 -0.7356
 5940SOL     OW29455   3.008   1.536   9.578 -0.2109  0.2522  0.3778
 5940SOL    HW129456   3.045   1.595   9.644 -0.7769 -1.1563  1.9654
 5940SOL    HW229457   3.010   1.590   9.499  0.7066  1.4812  1.2342
 5941SOL     OW29458   4.368   3.746   3.818 -0.3438  0.4333 -0.0607
 5941SOL    HW129459   4.283   3.761   3.859 -1.4088 -1.5703 -1.5155
 5941SOL    HW229460   4.386   3.837   3.795 -2.0245  1.1133  1.2888
 5942SOL     OW29461   3.082   0.841  15.844 -0.0552 -0.1952 -0.1308
 5942SOL    HW129462   3.112   0.897  15.772  1.8232 -1.4571 -0.3342
 5942SOL    HW229463   3.156   0.835  15.904 -0.4214  1.5896  0.5177
 5943SOL     OW29464   0.661   1.081   5.811  0.0461  0.7677 -0.0668
 5943SOL    HW129465   0.673   1.019   5.738 -1.5607  1.5559 -0.9855
 5943SOL    HW229466   0.571   1.063   5.837 -0.2570  0.5354 -1.2664
 5944SOL     OW29467   1.613   3.634   8.070 -0.6026  0.0714  0.1873
 5944SOL    HW129468   1.701   3.615   8.039 -1.7642 -3.2300 -1.1250
 5944SOL    HW229469   1.637   3.658   8.159  2.5315 -0.1023 -0.6101
 5945SOL     OW29470   1.451   3.533   6.495  0.0195  0.4090 -1.0059
 5945SOL    HW129471   1.416   3.620   6.515 -0.6297  0.1070 -0.8399
 5945SOL    HW229472   1.407   3.507   6.415  0.2353  0.4433 -1.1348
 5946SOL     OW29473   4.590   4.061   1.002  0.1426 -0.1660 -0.4478
 5946SOL    HW129474   4.637   3.993   0.954 -0.0763 -0.4015 -0.3300
 5946SOL    HW229475   4.646   4.054   1.079  0.9542 -0.7318 -1.0848
 5947SOL     OW29476   3.208   3.078   3.882  0.3313  0.1288 -0.1005
 5947SOL    HW129477   3.135   3.064   3.942  1.9919  2.0353  2.3476
 5947SOL    HW229478   3.163   3.123   3.810 -0.1144 -1.2674 -0.6941
 5948SOL     OW29479   1.558   0.132  12.044 -0.5840  0.0304  0.6238
 5948SOL    HW129480   1.546   0.173  11.959 -1.3439 -1.4058  0.0573
 5948SOL    HW229481   1.513   0.199  12.096 -0.1995  1.6358 -1.1429
 5949SOL     OW29482   0.552   0.905   6.837 -0.3951 -0.3351  0.4902
 5949SOL    HW129483   0.493   0.840   6.799  0.6347 -1.9074  1.5328
 5949SOL    HW229484   0.640   0.879   6.811 -0.5103 -1.6881  1.4092
 5950SOL     OW29485   1.295   2.074   4.317  0.2775 -0.2849  0.3393
 5950SOL    HW129486   1.264   2.004   4.374 -3.2792  0.8604 -0.2167
 5950SOL    HW229487   1.304   2.030   4.233 -0.3612 -0.8727  0.5795
 5951SOL     OW29488   2.200   4.490  14.931  0.7908  0.6626  0.4393
 5951SOL    HW129489   2.150   4.419  14.971  0.1137  2.5563  2.9739
 5951SOL    HW229490   2.200   4.541  15.013  1.2460  1.7128 -0.2183
 5952SOL     OW29491   4.479   1.359   8.981 -1.1005 -0.2807  0.0247
 5952SOL    HW129492   4.529   1.421   9.034 -1.3444 -0.9598  1.0488
 5952SOL    HW229493   4.529   1.370   8.900 -1.3607 -0.1036 -0.1144
 5953SOL     OW29494   3.290   0.122   0.327 -0.1558 -0.3253  0.7567
 5953SOL    HW129495   3.305   0.158   0.414 -1.7880  0.6526  0.6305
 5953SOL    HW229496   3.379   0.125   0.292 -0.1274  1.0516  0.9274
 5954SOL     OW29497   4.447   2.911   3.987 -0.1863  0.1861 -0.9404
 5954SOL    HW129498   4.399   2.835   4.019  1.9815 -0.1345  1.4924
 5954SOL    HW229499   4.435   2.899   3.893  0.2012 -1.4024 -0.7783
 5955SOL     OW29500   1.552   3.353   7.580  0.0579  0.0599  0.5984
 5955SOL    HW129501   1.518   3.363   7.669 -1.0384 -1.4382  0.3554
 5955SOL    HW229502   1.474   3.385   7.534 -0.6739  0.4953  2.1259
 5956SOL     OW29503   2.546   3.333   8.284  0.0091  0.1954  0.6330
 5956SOL    HW129504   2.599   3.374   8.353 -0.3308 -2.1015  2.2683
 5956SOL    HW229505   2.597   3.319   8.204  1.4019 -0.8635  1.6977
 5957SOL     OW29506   0.702   0.819   1.769  0.7190 -0.8202  0.5298
 5957SOL    HW129507   0.700   0.724   1.756 -0.0655 -0.9897  1.8728
 5957SOL    HW229508   0.625   0.831   1.825 -2.2573 -3.3481 -3.0658
 5958SOL     OW29509   2.575   1.942   7.554 -0.1810  0.0548  0.1085
 5958SOL    HW129510   2.542   1.975   7.470  0.3251  0.0443 -0.0920
 5958SOL    HW229511   2.656   1.902   7.524  0.5645  1.9630 -0.4371
 5959SOL     OW29512   0.272   1.613  12.270 -0.6702  0.6107  0.0943
 5959SOL    HW129513   0.182   1.583  12.283 -0.4702 -2.0438 -4.8344
 5959SOL    HW229514   0.316   1.561  12.337 -0.8710  0.0194 -0.2323
 5960SOL     OW29515   3.388   0.183   9.681 -0.5949 -0.2133 -0.4499
 5960SOL    HW129516   3.459   0.190   9.616 -0.6655 -1.9061 -0.7133
 5960SOL    HW229517   3.317   0.152   9.626  0.6956  0.7453 -2.6761
 5961SOL     OW29518   1.115   0.578  16.160  0.3678 -0.5362 -0.0713
 5961SOL    HW129519   1.119   0.591  16.065  1.6394  0.3384  0.1004
 5961SOL    HW229520   1.185   0.637  16.187  1.4996 -2.2146  0.6736
 5962SOL     OW29521   4.527   1.150   3.305 -0.1482  0.1838 -0.0186
 5962SOL    HW129522   4.447   1.175   3.258 -0.5756  0.5271  0.8934
 5962SOL    HW229523   4.517   1.191   3.391 -0.8922 -0.7684  0.3517
 5963SOL     OW29524   0.264   4.277  17.261  0.6734  0.3505 -0.6362
 5963SOL    HW129525   0.329   4.233  17.207  0.1667 -1.4161  0.2160
 5963SOL    HW229526   0.295   4.364  17.235 -0.8532  0.9923 -0.2831
 5964SOL     OW29527   3.850   0.418   1.618 -0.2512 -0.4205  0.0883
 5964SOL    HW129528   3.771   0.454   1.657  1.6395  4.7875 -0.9518
 5964SOL    HW229529   3.806   0.373   1.546  1.9968 -0.0165 -1.5638
 5965SOL     OW29530   0.782   2.118  16.425 -0.5978 -0.5978  0.2631
 5965SOL    HW129531   0.850   2.051  16.426  0.8607  0.8947  1.7029
 5965SOL    HW229532   0.819   2.173  16.356 -0.5449 -0.9592  0.0072
 5966SOL     OW29533   3.076   2.378   3.912  0.0052 -0.3087 -0.0795
 5966SOL    HW129534   3.063   2.463   3.954 -0.9725  0.6140 -2.1924
 5966SOL    HW229535   3.147   2.333   3.957  0.6258 -1.5605 -2.2992
 5967SOL     OW29536   1.381   2.033  12.379  0.2064 -0.0682 -0.4901
 5967SOL    HW129537   1.444   2.010  12.447  0.2978  0.9815 -0.2145
 5967SOL    HW229538   1.396   1.952  12.330 -1.8232 -0.3572 -0.6533
 5968SOL     OW29539   0.547   4.036   9.510  0.4092  0.2221  0.1945
 5968SOL    HW129540   0.593   3.988   9.579  1.8110  0.9123 -0.2565
 5968SOL    HW229541   0.542   3.976   9.436  1.2413 -1.7786  1.7345
 5969SOL     OW29542   1.432   1.978   6.544  0.4157 -0.4265  0.0337
 5969SOL    HW129543   1.387   1.900   6.576  2.2218 -0.9838  1.1750
 5969SOL    HW229544   1.438   2.032   6.623 -0.1112  2.2495 -1.7393
 5970SOL     OW29545   3.921   3.043   1.428 -0.0493 -0.2898  0.0681
 5970SOL    HW129546   3.938   2.952   1.454  2.2264  0.8779  2.5691
 5970SOL    HW229547   3.829   3.037   1.457 -0.3896 -0.5356 -1.0453
 5971SOL     OW29548   4.130   3.882  12.352 -0.2390  0.3403  0.5899
 5971SOL    HW129549   4.093   3.967  12.327 -2.0059  0.0229  2.1576
 5971SOL    HW229550   4.104   3.836  12.273 -0.8767  2.9155 -0.7022
 5972SOL     OW29551   0.666   4.215  12.770  0.2309  0.3048 -0.3511
 5972SOL    HW129552   0.761   4.209  12.777  0.0196 -0.5511  1.5930
 5972SOL    HW229553   0.644   4.216  12.676  0.4495  1.0409 -0.3946
 5973SOL     OW29554   4.001   2.565   4.233 -0.4876 -0.4933 -0.0901
 5973SOL    HW129555   4.025   2.490   4.179 -1.2644 -0.1175 -0.9567
 5973SOL    HW229556   3.920   2.534   4.274 -1.1865  0.9984 -0.3325
 5974SOL     OW29557   1.625   4.255   9.070 -0.2544 -0.0261 -0.1822
 5974SOL    HW129558   1.552   4.255   9.132 -0.1039  1.9464 -0.0013
 5974SOL    HW229559   1.653   4.346   9.073  0.4205 -0.2479  0.4729
 5975SOL     OW29560   0.177   1.485   7.424  0.2757 -0.0678  0.2447
 5975SOL    HW129561   0.232   1.502   7.347  0.8983 -0.9043  0.5026
 5975SOL    HW229562   0.097   1.532   7.401  1.3736  2.1758  0.9223
 5976SOL     OW29563   1.107   0.816  11.663  0.1144 -0.1065  0.3740
 5976SOL    HW129564   1.027   0.801  11.613  0.5438  1.8156 -0.8837
 5976SOL    HW229565   1.083   0.774  11.746 -0.7927  0.3614  0.3453
 5977SOL     OW29566   0.457   1.070   4.825 -0.1262  1.1605 -0.4742
 5977SOL    HW129567   0.539   1.027   4.801  0.4608  1.2836  1.2783
 5977SOL    HW229568   0.410   0.991   4.852 -1.1696  1.5420 -1.1790
 5978SOL     OW29569   1.602   1.341   9.146 -0.0135  0.4686  0.1101
 5978SOL    HW129570   1.593   1.309   9.056 -1.2212  0.9848  0.0453
 5978SOL    HW229571   1.606   1.435   9.129  0.5202  0.0636 -2.0166
 5979SOL     OW29572   0.165   3.434   2.249 -0.0542  0.1375  0.3147
 5979SOL    HW129573   0.254   3.404   2.269 -1.1611 -2.0166  2.0677
 5979SOL    HW229574   0.113   3.362   2.214  1.6110 -0.8156 -0.1801
 5980SOL     OW29575   3.690   2.838   0.879  0.1774 -0.0294 -0.5031
 5980SOL    HW129576   3.778   2.834   0.843  1.1990 -1.1654  2.1222
 5980SOL    HW229577   3.662   2.922   0.841 -0.7246  0.2116  0.7020
 5981SOL     OW29578   1.955   4.014   5.490  0.1205  0.1293 -0.1348
 5981SOL    HW129579   2.027   4.050   5.542 -1.9389  2.0430  1.3701
 5981SOL    HW229580   1.887   4.081   5.488  0.3352  0.3277 -1.0260
 5982SOL     OW29581   2.909   2.406   3.704 -0.1568  0.3127 -0.3248
 5982SOL    HW129582   2.820   2.404   3.741 -0.0109  1.5401  0.0665
 5982SOL    HW229583   2.954   2.387   3.786 -1.1787  0.6312  0.3120
 5983SOL     OW29584   2.461   2.007   2.889 -0.1832 -0.1981 -0.1650
 5983SOL    HW129585   2.497   1.925   2.922  0.7561 -0.8520 -2.8717
 5983SOL    HW229586   2.482   1.993   2.797  2.2380  1.5781  0.1102
 5984SOL     OW29587   3.796   0.007  13.684  0.2728  0.2446  0.2377
 5984SOL    HW129588   3.740   0.073  13.726 -0.1614  0.4012 -0.6007
 5984SOL    HW229589   3.731   4.686  13.651  0.5957 -0.2949  0.6045
 5985SOL     OW29590   1.574   2.940  12.558 -0.4388  0.4951  0.7853
 5985SOL    HW129591   1.492   2.960  12.604 -0.7416 -1.5866  1.1478
 5985SOL    HW229592   1.542   2.858  12.521 -1.8492 -0.0514  3.2155
 5986SOL     OW29593   1.118   2.800   6.609  0.0608 -0.1884  0.2261
 5986SOL    HW129594   1.170   2.875   6.640 -0.8072  0.2112  0.7061
 5986SOL    HW229595   1.031   2.831   6.634 -0.0267 -0.8025  0.6654
 5987SOL     OW29596   3.639   4.129   8.666 -0.1451  0.0023 -0.2756
 5987SOL    HW129597   3.684   4.188   8.727  1.2454 -0.7847 -0.5373
 5987SOL    HW229598   3.588   4.073   8.725  1.1478 -2.1571 -1.2372
 5988SOL     OW29599   3.190   4.020   5.772 -0.4296 -0.0179 -0.2168
 5988SOL    HW129600   3.285   4.014   5.781 -0.6655  1.3012  3.2434
 5988SOL    HW229601   3.166   3.958   5.841  1.7197  0.6298  1.1162
 5989SOL     OW29602   2.673   1.248  11.146  0.3945  0.1838  0.3879
 5989SOL    HW129603   2.759   1.273  11.181 -0.8552  0.4883  3.2586
 5989SOL    HW229604   2.677   1.155  11.168  0.4139  0.7448  2.7424
 5990SOL     OW29605   1.558   3.833   8.698 -0.1206 -0.6154 -0.3632
 5990SOL    HW129606   1.577   3.746   8.664  1.2975 -0.8538  1.0365
 5990SOL    HW229607   1.525   3.814   8.786 -0.0402  0.5450 -0.0782
 5991SOL     OW29608   0.257   1.244   1.831 -0.4564  0.5351  0.1076
 5991SOL    HW129609   0.303   1.327   1.825 -0.5392  0.5149 -0.7067
 5991SOL    HW229610   0.330   1.189   1.802 -0.1676  1.6544 -1.2554
 5992SOL     OW29611   2.493   1.810   1.894  0.5251  0.0716  0.1985
 5992SOL    HW129612   2.418   1.753   1.906 -0.5784  0.9357 -2.4851
 5992SOL    HW229613   2.558   1.754   1.851  1.2805  0.0221  1.4186
 5993SOL     OW29614   0.580   0.009   6.932 -0.7534  0.3973  0.4896
 5993SOL    HW129615   0.489   0.039   6.943 -1.2867 -1.6601  1.7893
 5993SOL    HW229616   0.610   0.062   6.859 -1.4453 -1.5095 -1.1685
 5994SOL     OW29617   3.197   2.699   9.156 -0.0945  0.1344  0.5169
 5994SOL    HW129618   3.241   2.628   9.109 -1.8102 -1.3437  1.1748
 5994SOL    HW229619   3.149   2.747   9.089 -0.7435  0.3179  1.1151
 5995SOL     OW29620   1.694   0.788   1.929 -0.0071  0.1555 -0.3166
 5995SOL    HW129621   1.730   0.739   2.003 -0.0107 -2.7498 -2.2313
 5995SOL    HW229622   1.771   0.829   1.888  0.4452 -2.3029 -1.9716
 5996SOL     OW29623   1.692   4.229   3.334  0.2146  0.0770 -0.3590
 5996SOL    HW129624   1.750   4.289   3.381 -0.5996 -0.2013  1.0005
 5996SOL    HW229625   1.668   4.286   3.261 -1.7511 -0.4545 -0.1347
 5997SOL     OW29626   0.994   4.570   4.087 -0.5330 -0.0341  0.1397
 5997SOL    HW129627   0.921   4.537   4.140 -1.4542  0.1397 -1.0362
 5997SOL    HW229628   0.988   4.666   4.086 -0.7278 -0.0464  0.1078
 5998SOL     OW29629   0.561   0.059   0.256  0.3218 -0.1549 -0.0939
 5998SOL    HW129630   0.574   4.738   0.184 -4.2717 -0.7407 -0.3808
 5998SOL    HW229631   0.541   0.145   0.219 -0.8990 -0.2522  0.3468
 5999SOL     OW29632   2.744   0.393  15.699 -0.3489  0.7122 -0.0045
 5999SOL    HW129633   2.699   0.474  15.720 -0.4967  0.7625 -0.5214
 5999SOL    HW229634   2.820   0.424  15.650  0.0241  0.7561  0.5959
 6000SOL     OW29635   0.497   0.319  13.872 -0.1834  0.0529 -0.1648
 6000SOL    HW129636   0.425   0.358  13.921  0.1826 -0.3985  0.7248
 6000SOL    HW229637   0.454   0.242  13.834  1.8162 -1.5344  0.7801
 6001SOL     OW29638   1.565   1.092   7.918 -0.1444 -0.3524 -0.7029
 6001SOL    HW129639   1.567   0.998   7.899  1.5100 -1.0797  2.9490
 6001SOL    HW229640   1.603   1.092   8.006 -0.0711 -0.8594 -0.7349
 6002SOL     OW29641   3.809   2.361   9.733 -0.2583 -0.0437  0.1488
 6002SOL    HW129642   3.897   2.334   9.760 -0.0315 -0.7055 -1.2368
 6002SOL    HW229643   3.811   2.356   9.637  1.1467 -0.3838  0.1864
 6003SOL     OW29644   0.091   3.362   7.392  0.1684 -0.0210  0.1301
 6003SOL    HW129645   0.069   3.455   7.399  0.7772 -0.0452  2.5053
 6003SOL    HW229646   0.002   3.333   7.372 -0.2433  0.8439  0.7093
 6004SOL     OW29647   4.615   4.506   2.417  0.2765  0.3716  0.0268
 6004SOL    HW129648   4.656   4.542   2.495 -0.4049 -1.1469  1.0769
 6004SOL    HW229649   4.526   4.487   2.448 -0.1573 -0.0463 -1.4812
 6005SOL     OW29650   2.046   4.285   4.985 -0.7589  0.0060 -0.0181
 6005SOL    HW129651   2.086   4.207   4.945  2.7650  2.3896 -1.1628
 6005SOL    HW229652   2.006   4.317   4.904  1.3169  0.4469 -0.8531
 6006SOL     OW29653   2.658   0.499   4.227 -0.3583 -0.7266  0.0221
 6006SOL    HW129654   2.605   0.497   4.147  0.9407 -1.3547 -0.8193
 6006SOL    HW229655   2.594   0.544   4.283 -0.9460  1.1719 -2.1762
 6007SOL     OW29656   3.920   0.836   0.735  0.4714  0.2661  0.0227
 6007SOL    HW129657   3.911   0.748   0.698  1.7595 -0.6883  1.9937
 6007SOL    HW229658   3.865   0.894   0.683 -0.4189 -0.7536 -0.1721
 6008SOL     OW29659   0.810   1.558   8.138 -0.5865  0.3672  0.0429
 6008SOL    HW129660   0.777   1.626   8.196  0.4085  0.5337  0.4205
 6008SOL    HW229661   0.751   1.582   8.067  2.2562  2.9305 -1.4331
 6009SOL     OW29662   0.552   1.657   8.205  0.2808 -0.2131  0.1006
 6009SOL    HW129663   0.562   1.624   8.116 -0.1505  0.8629 -0.3526
 6009SOL    HW229664   0.512   1.743   8.189  2.5947  0.4575 -1.9883
 6010SOL     OW29665   3.510   2.412  17.720 -0.2611 -0.0623  0.6858
 6010SOL    HW129666   3.474   2.340  17.669 -2.2309  0.3681  1.4687
 6010SOL    HW229667   3.593   2.402  17.675 -1.5672  2.5852 -2.2395
 6011SOL     OW29668   0.152   1.289  11.480  0.1963 -0.1711 -0.4443
 6011SOL    HW129669   0.096   1.214  11.503 -0.5516  0.6260  0.3267
 6011SOL    HW229670   0.196   1.301  11.564 -0.5264 -0.4059 -0.0243
 6012SOL     OW29671   4.132   2.450  15.946  0.3650  0.1337  0.1021
 6012SOL    HW129672   4.172   2.529  15.983 -0.8575  0.1643  1.3664
 6012SOL    HW229673   4.080   2.487  15.875  1.2051  1.8230  0.3618
 6013SOL     OW29674   0.475   3.869   5.477 -0.5866 -0.6762  0.0866
 6013SOL    HW129675   0.449   3.777   5.469 -1.2516 -0.7550  3.1698
 6013SOL    HW229676   0.449   3.893   5.566 -0.0940 -1.8261  0.5453
 6014SOL     OW29677   2.385   3.760   2.521 -0.0162 -0.5423  0.0980
 6014SOL    HW129678   2.380   3.854   2.538 -0.8706 -1.0830  2.9530
 6014SOL    HW229679   2.477   3.739   2.540  0.1267 -0.0452 -0.0563
 6015SOL     OW29680   4.461   3.075   8.728 -0.1799 -0.1948  0.0996
 6015SOL    HW129681   4.554   3.093   8.740  0.5216 -2.4798 -1.9355
 6015SOL    HW229682   4.423   3.163   8.723  0.5543 -0.0363 -2.5368
 6016SOL     OW29683   2.228   2.757  12.071 -0.0406 -0.3161  0.0808
 6016SOL    HW129684   2.177   2.780  12.148 -0.4480  2.9969 -1.1682
 6016SOL    HW229685   2.192   2.810  12.000 -0.2478  0.3011  0.6492
 6017SOL     OW29686   3.162   1.859   4.026 -0.1352  0.6785 -0.2700
 6017SOL    HW129687   3.117   1.833   3.946 -0.6632 -0.1567  0.2955
 6017SOL    HW229688   3.098   1.912   4.073 -0.1899 -0.2457  0.6995
 6018SOL     OW29689   2.737   1.381  10.905 -0.5714 -0.0236 -0.4046
 6018SOL    HW129690   2.714   1.323  10.977  1.5895  0.0029  0.2980
 6018SOL    HW229691   2.822   1.338  10.891 -1.0813 -0.9091 -0.8190
 6019SOL     OW29692   0.197   2.969   4.006  0.2906 -0.2111 -0.1433
 6019SOL    HW129693   0.233   2.917   3.934  1.4801  2.2495 -1.3115
 6019SOL    HW229694   0.116   3.012   3.979  0.5498 -0.8999 -1.9677
 6020SOL     OW29695   1.196   3.307   3.753 -0.0445 -0.1411 -0.1764
 6020SOL    HW129696   1.111   3.351   3.766  0.7244  1.1802  0.4634
 6020SOL    HW229697   1.165   3.258   3.678 -0.9720  1.3762 -0.8013
 6021SOL     OW29698   4.593   4.490  10.417  0.0488 -0.2785  0.1167
 6021SOL    HW129699   4.643   4.465  10.495 -2.7588 -2.0781  1.3499
 6021SOL    HW229700   4.553   4.406  10.392  0.1154 -0.6879  1.3831
 6022SOL     OW29701   3.632   4.669   2.096  0.4430  0.2229  0.2042
 6022SOL    HW129702   3.605   4.628   2.178  0.9948 -1.6799 -0.5498
 6022SOL    HW229703   3.666   4.592   2.049 -1.8480  1.0597 -2.8666
 6023SOL     OW29704   0.415   4.328   7.601 -0.3856 -0.2387 -0.3208
 6023SOL    HW129705   0.393   4.271   7.528 -0.8435 -0.9590  0.3715
 6023SOL    HW229706   0.507   4.344   7.582 -0.6776  1.6367 -0.1855
 6024SOL     OW29707   3.689   3.234   2.762  0.0405  0.3724  0.3903
 6024SOL    HW129708   3.621   3.253   2.697  0.3792  0.4442  0.0593
 6024SOL    HW229709   3.698   3.323   2.795  0.6533  0.1317  0.8711
 6025SOL     OW29710   0.263   1.998   9.435 -0.0549  0.2900 -0.6280
 6025SOL    HW129711   0.187   2.035   9.391 -1.0275 -0.2556  0.6087
 6025SOL    HW229712   0.244   2.022   9.525  2.6050  1.7652 -0.4696
 6026SOL     OW29713   4.143   2.055   4.553  0.0376 -0.1763  0.2281
 6026SOL    HW129714   4.082   2.011   4.494 -1.6307 -0.2316  1.9796
 6026SOL    HW229715   4.221   2.064   4.498 -0.6101 -0.3281 -0.7133
 6027SOL     OW29716   0.224   2.775  12.214  0.4251  0.0094  0.5227
 6027SOL    HW129717   0.199   2.730  12.134 -1.8409  0.2357  1.1191
 6027SOL    HW229718   0.182   2.723  12.282  0.0950  1.9332  1.8153
 6028SOL     OW29719   4.438   1.772   5.066  0.1047 -0.4806  0.5936
 6028SOL    HW129720   4.382   1.782   4.989  0.4063 -4.1527 -0.1370
 6028SOL    HW229721   4.463   1.862   5.085  1.1480 -0.7095  0.3481
 6029SOL     OW29722   2.799   4.102   3.350 -0.9496  0.1958  0.4407
 6029SOL    HW129723   2.773   4.185   3.390  0.2676  0.1125  1.3837
 6029SOL    HW229724   2.823   4.130   3.261  1.0802 -0.2376  0.8540
 6030SOL     OW29725   0.527   0.136   7.925 -0.0526  0.7284  0.7060
 6030SOL    HW129726   0.434   0.113   7.922 -0.1064  1.2573 -1.9430
 6030SOL    HW229727   0.528   0.196   8.000  0.3788 -2.2929  3.1010
 6031SOL     OW29728   3.497   2.171  16.739 -0.1877  0.4765 -0.6950
 6031SOL    HW129729   3.542   2.246  16.699  2.2037 -0.3586  0.4362
 6031SOL    HW229730   3.408   2.205  16.754  0.1989  0.6651  1.1626
 6032SOL     OW29731   3.205   2.191   0.279  0.7426 -0.3636 -0.7659
 6032SOL    HW129732   3.168   2.276   0.303 -0.4758 -1.4831  1.3675
 6032SOL    HW229733   3.292   2.217   0.250  0.8338  1.1047  0.8529
 6033SOL     OW29734   1.638   0.831   5.668  0.5716  0.0564 -0.6584
 6033SOL    HW129735   1.651   0.895   5.738 -0.3335 -1.3783  0.8287
 6033SOL    HW229736   1.570   0.879   5.621  0.5529 -0.0179 -0.7086
 6034SOL     OW29737   3.399   3.036  12.564 -0.1519  0.2693 -0.5498
 6034SOL    HW129738   3.323   3.094  12.570  0.8946  1.7969 -1.8649
 6034SOL    HW229739   3.433   3.027  12.653 -1.5195 -1.8123 -0.2514
 6035SOL     OW29740   3.652   4.355   6.678 -0.1623  0.3164  0.1576
 6035SOL    HW129741   3.629   4.441   6.642  1.8855  1.1204  0.7858
 6035SOL    HW229742   3.661   4.309   6.594 -3.5095 -1.9378  0.9975
 6036SOL     OW29743   3.325   4.612   6.400  0.5749  0.8797  0.8798
 6036SOL    HW129744   3.406   4.572   6.367  0.2046  1.5198 -0.7546
 6036SOL    HW229745   3.361   4.675   6.462 -0.3633  1.1275  1.1627
 6037SOL     OW29746   4.652   0.874   9.503 -0.5011  0.2598 -0.3850
 6037SOL    HW129747   4.682   0.884   9.593 -2.1101  0.9600  0.0819
 6037SOL    HW229748   4.693   0.790   9.482 -1.0869  1.0044 -4.5098
 6038SOL     OW29749   3.357   1.486   6.910  0.6552 -0.0854 -0.0276
 6038SOL    HW129750   3.429   1.448   6.961 -0.5790 -2.3109  0.0056
 6038SOL    HW229751   3.402   1.540   6.845  0.7856 -2.8534 -2.2260
 6039SOL     OW29752   0.797   1.980  11.700 -0.4186 -0.0618 -0.2098
 6039SOL    HW129753   0.737   1.960  11.629 -1.5454  0.2290  0.6705
 6039SOL    HW229754   0.854   1.903  11.698  0.0211  0.2848 -0.8315
 6040SOL     OW29755   2.331   4.346  13.553 -0.4223 -0.2448  0.6127
 6040SOL    HW129756   2.243   4.310  13.552 -0.2412 -0.6885  0.9555
 6040SOL    HW229757   2.381   4.277  13.597 -0.9832 -1.1981 -0.2679
 6041SOL     OW29758   0.848   4.574   9.173  0.4060  0.2156 -0.0881
 6041SOL    HW129759   0.889   4.492   9.143 -1.6838  0.0662 -2.5439
 6041SOL    HW229760   0.894   4.633   9.114  1.0509  0.2081  0.4090
 6042SOL     OW29761   0.860   4.527   4.985 -0.3182  0.4986 -0.0097
 6042SOL    HW129762   0.919   4.457   5.013 -2.0228 -0.9496 -0.0674
 6042SOL    HW229763   0.877   4.525   4.891  1.3227 -0.7535  0.3134
 6043SOL     OW29764   0.994   1.465   1.655  0.4058 -0.8349 -0.1947
 6043SOL    HW129765   1.081   1.425   1.655 -0.5868 -3.0263 -0.2926
 6043SOL    HW229766   0.985   1.503   1.567  0.9426 -3.2072 -1.2747
 6044SOL     OW29767   3.514   1.884   4.886  0.2558 -0.0956 -0.4833
 6044SOL    HW129768   3.591   1.920   4.931  0.5036 -1.3386  0.1015
 6044SOL    HW229769   3.455   1.959   4.893 -0.4132 -0.7498  0.9262
 6045SOL     OW29770   1.729   4.185   6.864  0.2034 -0.2598  0.2497
 6045SOL    HW129771   1.781   4.163   6.787  1.7130  2.5739  0.4621
 6045SOL    HW229772   1.710   4.095   6.893  3.5345 -0.7514  0.9446
 6046SOL     OW29773   1.074   4.293   7.128  0.8084 -0.3296 -0.0014
 6046SOL    HW129774   1.047   4.364   7.070  1.3229  0.4485  0.7042
 6046SOL    HW229775   1.166   4.318   7.139  1.1231 -1.7262  0.5876
 6047SOL     OW29776   2.868   2.652  12.562 -0.0918  0.1305  0.6384
 6047SOL    HW129777   2.782   2.626  12.595 -0.0898 -1.8301 -0.8984
 6047SOL    HW229778   2.848   2.653  12.468  1.0222 -0.9935  0.3887
 6048SOL     OW29779   4.487   4.495   9.288 -0.3949 -0.2039 -0.1544
 6048SOL    HW129780   4.419   4.561   9.276  0.0390  0.6181  1.9040
 6048SOL    HW229781   4.446   4.413   9.317  1.0561 -1.2057 -0.9634
 6049SOL     OW29782   3.443   0.384   3.342 -0.7902 -0.1008  0.4625
 6049SOL    HW129783   3.416   0.333   3.265 -1.1328  1.0463 -0.1739
 6049SOL    HW229784   3.375   0.367   3.407 -2.1706  0.9237 -0.7153
 6050SOL     OW29785   1.825   1.884   8.769 -0.0067  0.1931  0.1443
 6050SOL    HW129786   1.919   1.867   8.772  0.0979  1.0122  1.6702
 6050SOL    HW229787   1.818   1.969   8.725  0.6612 -0.4913 -1.2967
 6051SOL     OW29788   2.428   0.868  10.708 -0.1056  0.1657  0.1999
 6051SOL    HW129789   2.362   0.873  10.640  0.3973  0.8024 -0.2400
 6051SOL    HW229790   2.406   0.782  10.744  0.7184  0.0080  0.3241
 6052SOL     OW29791   4.206   4.617   0.521 -0.8596 -0.1414  0.3892
 6052SOL    HW129792   4.182   4.708   0.504 -2.4086 -0.7290 -0.6600
 6052SOL    HW229793   4.162   4.571   0.449 -1.7664 -1.6362  1.9049
 6053SOL     OW29794   3.248   2.018   5.669 -0.3151 -0.3379 -0.1319
 6053SOL    HW129795   3.326   1.965   5.657 -0.0311 -0.0275  0.3415
 6053SOL    HW229796   3.268   2.104   5.634  1.7446 -0.7740  0.0020
 6054SOL     OW29797   0.838   4.565  13.020  0.3677  0.0471 -0.4123
 6054SOL    HW129798   0.892   4.494  13.056  0.0755  0.0224 -0.0296
 6054SOL    HW229799   0.895   4.596  12.949  2.5437 -1.1255  0.8400
 6055SOL     OW29800   3.262   1.986  13.139  0.3974 -0.2256 -0.6307
 6055SOL    HW129801   3.192   1.924  13.120 -0.6184  0.3249  1.3315
 6055SOL    HW229802   3.251   1.986  13.234  2.1442 -2.3336 -0.4444
 6056SOL     OW29803   1.401   2.038   0.314 -0.3288  0.0246  0.4527
 6056SOL    HW129804   1.483   2.016   0.270 -1.0398 -0.9287 -0.3793
 6056SOL    HW229805   1.439   2.022   0.401 -2.6474 -0.5730  1.3396
 6057SOL     OW29806   0.231   2.707   9.419 -0.0102 -0.1975  0.0895
 6057SOL    HW129807   0.265   2.766   9.351  0.3243 -0.6956 -0.1747
 6057SOL    HW229808   0.305   2.697   9.478  1.1717 -1.0582 -1.5451
 6058SOL     OW29809   1.796   2.271   8.918 -0.2261 -0.4065 -0.1764
 6058SOL    HW129810   1.832   2.191   8.957  2.6125  0.5568 -0.8610
 6058SOL    HW229811   1.713   2.233   8.889 -1.0868  1.3691 -0.0227
 6059SOL     OW29812   1.356   4.191   0.563 -0.5109 -0.3258  0.2921
 6059SOL    HW129813   1.380   4.100   0.548  0.7497 -0.3886  2.6866
 6059SOL    HW229814   1.405   4.205   0.643 -2.5338  0.4263  1.4175
 6060SOL     OW29815   2.797   1.481   7.760  0.1445  0.2514  0.0203
 6060SOL    HW129816   2.713   1.516   7.789 -1.9612 -3.1330 -1.9536
 6060SOL    HW229817   2.800   1.518   7.672 -2.4005  0.9154  0.2254
 6061SOL     OW29818   3.319   4.114   9.905 -0.2915 -0.0180  0.0345
 6061SOL    HW129819   3.258   4.064   9.851  0.0711  1.0094 -1.3321
 6061SOL    HW229820   3.270   4.124   9.986 -0.7534 -0.2900 -0.2081
 6062SOL     OW29821   2.662   1.132  16.416  0.6196  0.0362 -0.1176
 6062SOL    HW129822   2.683   1.188  16.490  0.0046  1.6666 -1.1771
 6062SOL    HW229823   2.602   1.066  16.450 -0.7658  3.1154  3.3142
 6063SOL     OW29824   0.709   4.202   7.778 -0.3702  0.2592  0.0938
 6063SOL    HW129825   0.653   4.188   7.701  0.2883  1.1692 -0.5592
 6063SOL    HW229826   0.753   4.117   7.774 -1.4355 -0.3027  0.3112
 6064SOL     OW29827   3.577   3.015  14.525  0.2465 -0.3284  0.6097
 6064SOL    HW129828   3.558   2.954  14.596 -0.1512 -0.4761  0.3741
 6064SOL    HW229829   3.644   3.071  14.563  1.2509 -1.0603 -0.0806
 6065SOL     OW29830   3.375   2.577   0.104  0.4277 -0.0980  0.0318
 6065SOL    HW129831   3.314   2.542   0.168  0.9438  0.2850  0.7258
 6065SOL    HW229832   3.406   2.497   0.063  1.4373  0.1872  0.2363
 6066SOL     OW29833   2.394   4.481   7.161  0.2373 -0.4174 -0.1160
 6066SOL    HW129834   2.435   4.463   7.076 -1.6434 -0.6563 -0.9934
 6066SOL    HW229835   2.423   4.405   7.212  1.9174 -1.3617 -2.5041
 6067SOL     OW29836   1.112   3.243  15.823  0.4549  0.2540  0.3526
 6067SOL    HW129837   1.184   3.192  15.860 -0.3711 -0.5443  0.8870
 6067SOL    HW229838   1.086   3.197  15.743 -2.8704 -0.1351  1.6317
 6068SOL     OW29839   4.194   0.244   4.141 -0.1150  0.1473 -0.1691
 6068SOL    HW129840   4.153   0.165   4.176  1.4330 -0.3323  0.5273
 6068SOL    HW229841   4.217   0.219   4.052  0.0704 -1.3488  0.3084
 6069SOL     OW29842   0.599   1.524  14.411  0.1164 -0.0310  0.6465
 6069SOL    HW129843   0.631   1.572  14.487 -2.3811  2.4754  0.1282
 6069SOL    HW229844   0.547   1.598  14.380  1.9452  1.0269  0.0839
 6070SOL     OW29845   4.693   0.528   9.038 -0.3724 -0.3595  0.2433
 6070SOL    HW129846   4.737   0.560   9.117 -1.5545  2.4287 -0.2066
 6070SOL    HW229847   4.638   0.460   9.077 -0.1584 -1.2207 -0.9456
 6071SOL     OW29848   4.112   2.828   3.599 -0.0302  0.2401 -0.2051
 6071SOL    HW129849   4.098   2.736   3.620 -1.2748  0.1944 -1.2640
 6071SOL    HW229850   4.071   2.867   3.677  1.9638  2.1801 -0.1175
 6072SOL     OW29851   0.968   4.246   3.762 -0.4411 -0.1785  0.1295
 6072SOL    HW129852   1.034   4.312   3.783 -2.6547  2.2677 -0.5102
 6072SOL    HW229853   0.982   4.175   3.824 -2.4967 -0.3891  0.3733
 6073SOL     OW29854   4.094   1.031  13.264 -0.8230 -0.5638 -0.1388
 6073SOL    HW129855   4.056   1.090  13.198 -0.1940  1.9796  1.7625
 6073SOL    HW229856   4.061   0.947  13.234 -2.2734  0.6389 -1.9443
 6074SOL     OW29857   1.355   2.064   8.015 -0.4926  0.0813  0.1789
 6074SOL    HW129858   1.369   2.095   7.925  1.6633 -0.1513  0.4348
 6074SOL    HW229859   1.432   2.102   8.057  1.0844 -2.6454 -0.2873
 6075SOL     OW29860   4.606   1.055   8.648 -0.6768 -0.5271  0.5152
 6075SOL    HW129861   4.679   1.068   8.708  0.0767 -1.0177 -0.2926
 6075SOL    HW229862   4.545   1.027   8.716  2.6887 -0.9062  3.3655
 6076SOL     OW29863   3.847   4.156   5.889  0.6787 -0.6785 -0.1918
 6076SOL    HW129864   3.891   4.178   5.971 -1.7733 -0.4940  1.0886
 6076SOL    HW229865   3.921   4.144   5.830 -0.5305  0.9305 -2.0502
 6077SOL     OW29866   1.899   2.956   2.456  0.3921 -0.2594 -0.2140
 6077SOL    HW129867   1.951   2.977   2.379  2.2898 -1.1863  0.8161
 6077SOL    HW229868   1.900   2.862   2.439  1.3385 -0.1858 -0.5863
 6078SOL     OW29869   3.066   0.422   5.821  0.0324  0.1164  0.3909
 6078SOL    HW129870   3.023   0.350   5.867  0.2786 -0.0753  0.3185
 6078SOL    HW229871   3.151   0.381   5.803  0.6177  1.1554  0.7119
 6079SOL     OW29872   2.828   4.247   4.173  0.2741 -0.0494 -0.2439
 6079SOL    HW129873   2.852   4.329   4.130  0.3763  0.5892  1.0339
 6079SOL    HW229874   2.879   4.259   4.253 -1.0488 -2.4169  0.9676
 6080SOL     OW29875   4.497   0.657   3.476 -0.1937 -0.2225 -0.0048
 6080SOL    HW129876   4.510   0.683   3.567  2.0138  1.7678 -0.9166
 6080SOL    HW229877   4.576   0.605   3.460 -0.1513  0.9407 -3.5298
 6081SOL     OW29878   3.337   3.999   1.244 -0.1660  0.8888 -0.1223
 6081SOL    HW129879   3.387   3.946   1.182  0.0689  0.5975  0.3099
 6081SOL    HW229880   3.372   4.082   1.213  0.1729  1.1051  0.8241
 6082SOL     OW29881   1.016   1.433   5.547  0.1836 -0.1566  0.2981
 6082SOL    HW129882   0.954   1.436   5.620  0.2697 -0.8642  0.3971
 6082SOL    HW229883   0.953   1.454   5.478  1.4407 -1.4187 -1.2340
 6083SOL     OW29884   1.215   3.078   2.878 -0.6281  0.2264 -0.0021
 6083SOL    HW129885   1.256   3.038   2.801 -2.0304 -3.6148  1.2340
 6083SOL    HW229886   1.130   3.034   2.879 -0.8985  0.7503 -0.6616
 6084SOL     OW29887   2.602   4.491  11.984 -0.0303  0.0568 -0.3894
 6084SOL    HW129888   2.551   4.529  11.913 -0.3188  0.4575  0.0319
 6084SOL    HW229889   2.602   4.555  12.055 -1.7783  0.1092 -0.4303
 6085SOL     OW29890   0.863   1.294   6.177  0.2206 -0.4184 -0.4655
 6085SOL    HW129891   0.908   1.210   6.188  2.9269  1.4033  2.3909
 6085SOL    HW229892   0.934   1.347   6.142 -1.0891  0.8381 -1.2394
 6086SOL     OW29893   0.782   2.239  13.945  0.6070  0.0336 -0.2038
 6086SOL    HW129894   0.846   2.255  14.015 -1.2643  1.8563  1.0858
 6086SOL    HW229895   0.798   2.146  13.930 -0.3544 -0.1463 -0.0910
 6087SOL     OW29896   0.150   4.633   7.778 -0.0998  0.3841 -0.1564
 6087SOL    HW129897   0.237   4.607   7.750  1.0568  3.0842  0.9604
 6087SOL    HW229898   0.102   4.552   7.761  0.8879 -0.6238  1.9440
 6088SOL     OW29899   1.662   0.445   2.235 -0.6017  0.4644  0.9040
 6088SOL    HW129900   1.613   0.526   2.242  0.1492  0.9733  0.3213
 6088SOL    HW229901   1.686   0.427   2.326  0.1722  1.3897  0.8874
 6089SOL     OW29902   4.080   0.404   9.313  0.6177 -0.2068  0.3463
 6089SOL    HW129903   4.099   0.472   9.249 -2.0200  0.3910  0.1796
 6089SOL    HW229904   3.984   0.406   9.316  0.6645  1.5203  0.6553
 6090SOL     OW29905   3.984   4.551   6.904  0.0933 -0.1237  0.0518
 6090SOL    HW129906   4.020   4.618   6.845  1.3089 -0.1431  0.7763
 6090SOL    HW229907   3.901   4.590   6.930 -1.1642 -2.4195 -0.4908
 6091SOL     OW29908   1.457   0.729   0.716 -0.9554 -0.1480 -0.1981
 6091SOL    HW129909   1.495   0.750   0.801  0.3371 -0.8363 -0.6148
 6091SOL    HW229910   1.406   0.808   0.701  1.1349  1.2587  0.2114
 6092SOL     OW29911   2.088   4.178   6.243 -0.3485 -0.4953  0.1569
 6092SOL    HW129912   2.173   4.135   6.256 -0.2001  0.3266  1.8623
 6092SOL    HW229913   2.074   4.154   6.151 -0.7935 -0.9004  0.3302
 6093SOL     OW29914   2.516   2.262   5.290  0.0888 -0.5512 -0.3164
 6093SOL    HW129915   2.545   2.238   5.202 -0.1924  1.3111 -0.9096
 6093SOL    HW229916   2.500   2.356   5.281 -1.1598 -0.6705  0.6936
 6094SOL     OW29917   4.187   2.809   3.259  0.1828  0.1640  0.1129
 6094SOL    HW129918   4.130   2.885   3.271 -1.9458 -1.7324  1.9465
 6094SOL    HW229919   4.113   2.751   3.272 -0.5794  1.1659  0.2481
 6095SOL     OW29920   3.045   2.358  14.101 -0.5185  0.1170 -0.2246
 6095SOL    HW129921   3.126   2.317  14.071 -0.6199 -0.5134  0.3554
 6095SOL    HW229922   3.069   2.389  14.188  1.9542 -1.2193 -0.4150
 6096SOL     OW29923   3.867   3.386   6.750 -0.2615  0.1925  0.1626
 6096SOL    HW129924   3.906   3.456   6.803 -0.4109 -0.1233  0.6867
 6096SOL    HW229925   3.915   3.405   6.669  1.1631 -1.1006  0.7164
 6097SOL     OW29926   4.688   4.375   7.846  0.6999 -0.0592  0.2907
 6097SOL    HW129927   4.717   4.307   7.908  1.5385  1.7341  1.8858
 6097SOL    HW229928   4.631   4.332   7.783  1.2635 -0.7697  0.2519
 6098SOL     OW29929   2.858   4.182  16.441  0.6381 -0.4587  0.7119
 6098SOL    HW129930   2.893   4.194  16.530  0.0706  1.8177  0.6201
 6098SOL    HW229931   2.878   4.089  16.427  1.3654 -0.4602  1.7204
 6099SOL     OW29932   1.381   4.676  17.298 -0.2111  0.1303 -0.3661
 6099SOL    HW129933   1.324   4.718  17.233  0.8589  1.3958 -0.4950
 6099SOL    HW229934   1.330   4.596  17.310 -0.3876  0.2702 -0.1743
 6100SOL     OW29935   3.331   2.620   5.848 -0.4191 -0.0082  0.0388
 6100SOL    HW129936   3.390   2.604   5.774 -1.3233 -0.0456 -0.6617
 6100SOL    HW229937   3.376   2.596   5.929 -0.6075 -1.2368 -0.2215
 6101SOL     OW29938   3.991   2.181  13.642 -0.3137 -0.3493  0.6082
 6101SOL    HW129939   4.080   2.213  13.633  0.2306 -1.6029  1.6026
 6101SOL    HW229940   3.960   2.247  13.703 -0.1368  0.1610  0.1427
 6102SOL     OW29941   3.274   0.212  17.537  0.5435  0.1389  0.1792
 6102SOL    HW129942   3.249   0.197  17.629  3.0729 -0.7426  0.7047
 6102SOL    HW229943   3.194   0.201  17.486 -0.2115 -0.3546  1.4558
 6103SOL     OW29944   0.442   4.515   6.810  0.1021 -0.3801 -0.2357
 6103SOL    HW129945   0.402   4.576   6.748  0.6532  0.1932 -0.0330
 6103SOL    HW229946   0.515   4.561   6.853 -0.4963 -1.0375  1.4552
 6104SOL     OW29947   4.536   4.182  10.325 -0.0821  0.2785 -0.2418
 6104SOL    HW129948   4.611   4.172  10.268  0.2413  1.2676  0.0121
 6104SOL    HW229949   4.572   4.148  10.407 -0.8959  0.2597  0.1076
 6105SOL     OW29950   3.606   1.939  16.684  0.3028  0.2196 -0.1202
 6105SOL    HW129951   3.594   2.034  16.688  1.5172  0.3412  0.4894
 6105SOL    HW229952   3.527   1.917  16.635  1.5307 -0.3923 -1.7759
 6106SOL     OW29953   2.836   2.542  17.035 -0.9575  0.2699  0.0526
 6106SOL    HW129954   2.876   2.600  16.970 -0.7857 -1.4623 -1.3708
 6106SOL    HW229955   2.828   2.597  17.113  5.0761  1.1001  0.0478
 6107SOL     OW29956   0.612   4.187   5.443 -0.7787 -0.1374  0.5270
 6107SOL    HW129957   0.699   4.222   5.462  0.4853 -2.5168 -0.8440
 6107SOL    HW229958   0.572   4.196   5.530 -0.2944 -1.5759  0.9039
 6108SOL     OW29959   0.231   4.278   5.558  0.4233 -0.3546  0.4514
 6108SOL    HW129960   0.223   4.256   5.650 -0.2178  1.1376  0.7651
 6108SOL    HW229961   0.326   4.277   5.550  0.6025  1.9423  2.4417
 6109SOL     OW29962   2.031   2.657   7.567 -0.6092  0.6111 -0.0809
 6109SOL    HW129963   1.943   2.665   7.604 -0.5606 -0.5574  0.2772
 6109SOL    HW229964   2.039   2.725   7.500 -1.4678 -0.9096 -1.7021
 6110SOL     OW29965   3.312   2.411   9.316 -0.1731 -0.1183  0.2358
 6110SOL    HW129966   3.343   2.416   9.226  0.5618  1.0175  0.5506
 6110SOL    HW229967   3.361   2.487   9.347  1.4910 -1.0636 -0.1125
 6111SOL     OW29968   4.364   1.540   7.639  0.3107 -0.0177  0.6707
 6111SOL    HW129969   4.358   1.613   7.576  1.3399 -0.3395  0.2064
 6111SOL    HW229970   4.351   1.469   7.577  1.8504  0.0272  0.2914
 6112SOL     OW29971   4.544   1.631   4.197 -0.1897  0.5322 -0.3582
 6112SOL    HW129972   4.472   1.586   4.154 -0.3560 -1.0770  1.6276
 6112SOL    HW229973   4.617   1.620   4.136  0.0552  1.0428 -0.1565
 6113SOL     OW29974   2.279   4.069   4.592 -0.1414  0.5222 -0.2740
 6113SOL    HW129975   2.275   3.973   4.586  2.0448  0.4544 -0.7357
 6113SOL    HW229976   2.186   4.087   4.580 -0.0354  0.4348 -1.2459
 6114SOL     OW29977   2.676   4.167  17.218 -1.0163  0.0226  0.1855
 6114SOL    HW129978   2.692   4.250  17.262 -0.4669 -0.7210  1.3920
 6114SOL    HW229979   2.654   4.102  17.285  5.6513 -0.8897  1.4569
 6115SOL     OW29980   4.569   0.670   4.256 -0.4203  0.8977  0.1237
 6115SOL    HW129981   4.559   0.728   4.180 -1.2065 -0.0657 -0.5068
 6115SOL    HW229982   4.614   0.733   4.313  1.8038 -0.7748  0.2301
 6116SOL     OW29983   0.139   2.938   9.643 -0.2845 -0.3149 -0.1799
 6116SOL    HW129984   0.230   2.963   9.628  0.2229 -0.4744  2.5259
 6116SOL    HW229985   0.094   2.954   9.560 -0.3410  2.1664  0.3257
 6117SOL     OW29986   3.093   2.528   0.750 -0.1780  0.0210  0.3932
 6117SOL    HW129987   3.033   2.549   0.822 -0.2743 -0.3209  0.4133
 6117SOL    HW229988   3.157   2.597   0.767 -0.0694 -0.3006  1.3083
 6118SOL     OW29989   4.248   0.940  12.303  0.1977  0.1036 -0.3443
 6118SOL    HW129990   4.263   0.906  12.215  0.2842 -0.3333 -0.1632
 6118SOL    HW229991   4.153   0.947  12.298  0.0223 -0.7392  2.0400
 6119SOL     OW29992   0.666   4.581   5.460  0.1255 -0.1577  0.2067
 6119SOL    HW129993   0.631   4.521   5.394 -0.6994  0.5587 -0.0046
 6119SOL    HW229994   0.601   4.651   5.460 -1.2080 -1.3887  0.2529
 6120SOL     OW29995   3.966   3.130   6.089  0.5464 -0.5244  0.1630
 6120SOL    HW129996   4.046   3.126   6.142  0.0708 -3.7346  0.6254
 6120SOL    HW229997   3.915   3.087   6.158  0.7755 -0.5667  0.3089
 6121SOL     OW29998   2.080   1.770   8.640  0.1808 -0.1100  0.0772
 6121SOL    HW129999   2.110   1.680   8.632  1.1467  0.0743  1.6095
 6121SOL    HW230000   2.006   1.778   8.580  0.5052  0.2079 -0.2815
 6122SOL     OW30001   0.473   4.345   1.574 -0.3765  0.0155  0.1294
 6122SOL    HW130002   0.547   4.374   1.522 -1.0974 -1.4411 -1.7097
 6122SOL    HW230003   0.444   4.277   1.513 -0.1827  0.4148 -0.4070
 6123SOL     OW30004   0.893   3.828  17.368  0.2705 -0.2208  0.0132
 6123SOL    HW130005   0.986   3.848  17.362  0.5087 -1.7827 -1.3283
 6123SOL    HW230006   0.904   3.747  17.319 -1.5392  0.1593 -1.0414
 6124SOL     OW30007   2.484   3.238   1.625  0.3781  0.4266 -0.3200
 6124SOL    HW130008   2.389   3.229   1.620  0.7440 -2.4235 -1.9736
 6124SOL    HW230009   2.491   3.327   1.659 -0.1569  0.7207 -0.9634
 6125SOL     OW30010   4.626   1.831   0.887  0.2542  0.1886 -0.2348
 6125SOL    HW130011   4.632   1.898   0.956  0.3514  1.9695 -1.9686
 6125SOL    HW230012   4.570   1.772   0.936  0.9185 -0.2711 -0.0217
 6126SOL     OW30013   1.472   0.643   2.636  0.0942 -0.3743  0.4831
 6126SOL    HW130014   1.530   0.719   2.645 -0.2002 -0.1834  0.7708
 6126SOL    HW230015   1.429   0.637   2.722  0.9437  1.0699  1.0168
 6127SOL     OW30016   3.869   1.119   2.545 -0.1649  0.9815  0.5446
 6127SOL    HW130017   3.811   1.067   2.601 -1.1910  1.5371  0.0014
 6127SOL    HW230018   3.821   1.111   2.463 -0.8890 -1.7291  1.2353
 6128SOL     OW30019   2.775   3.295  13.187 -0.5317  0.6623  0.2403
 6128SOL    HW130020   2.771   3.209  13.230  0.2136  2.6379  4.2266
 6128SOL    HW230021   2.860   3.327  13.215 -1.0216  1.1616  1.1319
 6129SOL     OW30022   3.309   3.375   2.904  0.0285  0.2995  0.3436
 6129SOL    HW130023   3.215   3.386   2.921  0.5976  3.0535  1.7717
 6129SOL    HW230024   3.321   3.410   2.816  1.3001  0.1896  0.4708
 6130SOL     OW30025   1.457   4.715  16.725  0.0715 -0.1752 -0.1531
 6130SOL    HW130026   1.455   4.620  16.737  1.1986 -0.1702  0.0307
 6130SOL    HW230027   1.470   4.718  16.630  0.0616  2.1243 -0.0806
 6131SOL     OW30028   4.163   2.348   2.442 -0.0409  0.1488  0.3047
 6131SOL    HW130029   4.166   2.262   2.400  0.4423 -0.7131  2.1246
 6131SOL    HW230030   4.140   2.400   2.364  1.1021  0.8388  0.4279
 6132SOL     OW30031   1.067   3.389   5.293 -0.2275  0.8226  0.0670
 6132SOL    HW130032   1.099   3.341   5.369  0.6211  0.7545 -0.3300
 6132SOL    HW230033   1.008   3.322   5.257 -0.6291 -0.2109  2.6576
 6133SOL     OW30034   2.459   3.362  12.441  0.3364  0.4069  0.3763
 6133SOL    HW130035   2.393   3.357  12.510 -1.0182 -2.0424 -1.1039
 6133SOL    HW230036   2.425   3.428  12.382 -0.1149 -1.3062 -1.2743
 6134SOL     OW30037   1.129   0.427   2.192 -0.2069  0.2571  0.2795
 6134SOL    HW130038   1.157   0.517   2.209 -0.2852  0.6472 -1.6864
 6134SOL    HW230039   1.189   0.380   2.250 -1.0487  1.5567  2.1822
 6135SOL     OW30040   4.526   3.861  10.177  0.2036  0.2441  0.1472
 6135SOL    HW130041   4.498   3.900  10.094  0.7848  1.7497  0.6703
 6135SOL    HW230042   4.442   3.864  10.222  0.0743  0.9019 -0.1437
 6136SOL     OW30043   0.675   1.289   8.555 -0.2039  0.1667  0.1345
 6136SOL    HW130044   0.683   1.323   8.466  0.1296  0.9823  0.4744
 6136SOL    HW230045   0.655   1.196   8.548 -0.5900  0.3145 -0.8162
 6137SOL     OW30046   3.208   0.008  14.036  0.7330 -0.5159 -0.3484
 6137SOL    HW130047   3.159   4.733  13.955 -0.0714  0.4994 -0.0548
 6137SOL    HW230048   3.140   4.731  14.101 -0.4710  0.2085 -1.4087
 6138SOL     OW30049   0.900   2.895   0.837  0.1504  0.3943 -0.0211
 6138SOL    HW130050   0.878   2.984   0.866 -3.3542  0.0692 -1.7577
 6138SOL    HW230051   0.954   2.907   0.759 -3.2476 -1.7955 -2.7118
 6139SOL     OW30052   0.007   1.583   7.070 -0.0079 -0.0356  0.3731
 6139SOL    HW130053   0.099   1.571   7.091 -0.0993  0.9037  1.2555
 6139SOL    HW230054   4.732   1.669   7.107 -2.2832  0.4725 -1.7825
 6140SOL     OW30055   1.470   2.115   1.269  0.5267 -0.0534  0.7193
 6140SOL    HW130056   1.552   2.160   1.285  0.4906  0.1013  0.4564
 6140SOL    HW230057   1.490   2.030   1.309 -0.7704 -0.6119  0.1988
 6141SOL     OW30058   0.267   0.691  10.848 -0.3253 -0.1253  0.2570
 6141SOL    HW130059   0.229   0.771  10.810 -0.3631  0.1596  0.9032
 6141SOL    HW230060   0.356   0.726  10.846  0.0699 -1.1656  0.1261
 6142SOL     OW30061   3.791   2.381  15.601 -0.0223 -0.1855 -0.0369
 6142SOL    HW130062   3.739   2.398  15.680 -3.3392 -0.4923 -2.1213
 6142SOL    HW230063   3.875   2.356  15.638  0.3948  2.1913  0.6349
 6143SOL     OW30064   4.363   3.124   5.760  0.5167  0.2668  0.2975
 6143SOL    HW130065   4.319   3.203   5.728 -1.6487  0.1249  2.8565
 6143SOL    HW230066   4.367   3.072   5.679  3.3106 -1.3562  1.4919
 6144SOL     OW30067   3.098   3.710   5.088 -0.1757  0.0833  0.3517
 6144SOL    HW130068   3.039   3.775   5.050 -0.7558 -0.5817  0.1040
 6144SOL    HW230069   3.042   3.679   5.159  1.6783 -0.7966  1.4321
 6145SOL     OW30070   1.154   1.814   8.296 -0.0847  0.3283  0.4288
 6145SOL    HW130071   1.064   1.831   8.324 -0.5718 -0.3659 -0.7072
 6145SOL    HW230072   1.148   1.720   8.277 -0.0069  0.1987  1.0269
 6146SOL     OW30073   0.453   0.536  12.047  0.4584  0.1869  0.5620
 6146SOL    HW130074   0.385   0.509  12.109  0.0663 -2.3610 -1.0087
 6146SOL    HW230075   0.521   0.568  12.107  1.5650 -1.7016  0.3079
 6147SOL     OW30076   4.681   1.412   0.613 -0.5008  0.4716  0.0377
 6147SOL    HW130077   0.007   1.391   0.678  0.4687 -2.2476 -1.8610
 6147SOL    HW230078   4.679   1.326   0.572 -0.0499 -0.2609  1.5611
 6148SOL     OW30079   1.561   0.575   4.659  0.2388 -0.0916  0.0721
 6148SOL    HW130080   1.593   0.493   4.695 -1.0332 -1.0578 -1.0123
 6148SOL    HW230081   1.586   0.568   4.566  1.1736  1.3045  0.2102
 6149SOL     OW30082   2.966   2.584  15.445  0.9631  0.2764 -0.2784
 6149SOL    HW130083   2.894   2.528  15.475 -1.4142  1.9194 -2.9077
 6149SOL    HW230084   3.021   2.538  15.381 -0.4506 -1.2118 -0.4498
 6150SOL     OW30085   2.100   3.998   8.114 -0.0539  0.5190 -0.2612
 6150SOL    HW130086   2.021   4.025   8.161  0.4735  2.0167 -0.2253
 6150SOL    HW230087   2.151   4.073   8.144 -0.3992  0.9043 -0.6314
 6151SOL     OW30088   1.374   0.733  10.117  0.2812  0.1288  0.0278
 6151SOL    HW130089   1.459   0.720  10.075 -0.0056  1.7867 -1.0537
 6151SOL    HW230090   1.307   0.732  10.049  2.3830 -0.0760 -2.0113
 6152SOL     OW30091   1.238   4.711   8.973 -0.0092  0.3628  0.3845
 6152SOL    HW130092   1.300   0.022   9.025 -0.2333 -1.2830  2.3362
 6152SOL    HW230093   1.223   4.629   9.021 -0.5231 -0.8853 -1.9035
 6153SOL     OW30094   3.170   4.232   4.006  0.5132  0.0083  0.2698
 6153SOL    HW130095   3.159   4.321   4.039 -0.7366  0.3503 -1.0477
 6153SOL    HW230096   3.149   4.255   3.915  1.5721 -3.8554 -0.9455
 6154SOL     OW30097   2.367   2.802   5.440  0.0530 -0.3813  0.1361
 6154SOL    HW130098   2.436   2.869   5.443 -0.7458  0.3929  0.8338
 6154SOL    HW230099   2.363   2.796   5.345  2.4585  2.9331 -0.2043
 6155SOL     OW30100   4.522   0.161   4.216  0.0796  0.1458  0.2482
 6155SOL    HW130101   4.558   0.249   4.216  0.4370 -0.0002 -0.0822
 6155SOL    HW230102   4.429   0.184   4.210  0.0597  0.2382  0.9206
 6156SOL     OW30103   0.346   0.581   3.075  0.0803  0.4621 -0.1076
 6156SOL    HW130104   0.342   0.569   2.980 -3.8321 -0.0158  0.1362
 6156SOL    HW230105   0.421   0.635   3.101 -0.5939  0.6257  1.4853
 6157SOL     OW30106   1.926   1.083  10.118 -0.1714  0.7033 -0.3148
 6157SOL    HW130107   1.932   1.044  10.031  2.3115  1.5791 -0.5440
 6157SOL    HW230108   1.996   1.036  10.164 -0.8708  0.8634  0.9218
 6158SOL     OW30109   4.585   0.953   8.025 -0.0693 -0.1990 -0.1254
 6158SOL    HW130110   4.524   0.933   7.955  0.7691 -1.1023 -0.6007
 6158SOL    HW230111   4.632   0.869   8.029 -0.7105 -0.5358  0.5040
 6159SOL     OW30112   2.731   0.611  15.311 -0.4420 -0.0959 -0.3264
 6159SOL    HW130113   2.695   0.654  15.233 -0.3908 -0.7582 -0.7195
 6159SOL    HW230114   2.814   0.575  15.278  1.2265  3.4423 -0.0187
 6160SOL     OW30115   2.106   0.216   7.592 -0.3122  0.1659  0.1958
 6160SOL    HW130116   2.177   0.187   7.534  2.8659  3.4735  2.3621
 6160SOL    HW230117   2.074   0.293   7.545 -1.0067  0.0987  0.5626
 6161SOL     OW30118   4.351   2.374   2.645  0.2126 -0.6480  0.9017
 6161SOL    HW130119   4.289   2.383   2.572  0.7715 -1.3317  0.3421
 6161SOL    HW230120   4.413   2.445   2.624 -0.1035 -0.6475 -0.0568
 6162SOL     OW30121   2.103   3.522   6.543 -0.1355 -0.3993 -0.1858
 6162SOL    HW130122   2.018   3.538   6.501  0.3907  0.1634 -1.0352
 6162SOL    HW230123   2.108   3.428   6.526  0.2029 -0.4082 -0.0242
 6163SOL     OW30124   1.371   3.610   7.973 -0.3114 -0.3726  0.7733
 6163SOL    HW130125   1.296   3.624   8.031 -0.2403  0.2904  0.7121
 6163SOL    HW230126   1.445   3.630   8.031 -0.2152  1.3092  0.0568
 6164SOL     OW30127   2.895   1.480   6.087 -0.6586 -0.2780 -0.1895
 6164SOL    HW130128   2.843   1.476   6.006 -0.2445  1.0603 -0.5323
 6164SOL    HW230129   2.949   1.558   6.071 -0.8114 -0.5400 -2.0417
 6165SOL     OW30130   2.080   0.954   6.587 -0.1566 -0.1812  0.1324
 6165SOL    HW130131   2.032   1.033   6.613 -0.6881  0.1884 -1.9865
 6165SOL    HW230132   2.049   0.936   6.498 -0.1385  2.6864 -0.4369
 6166SOL     OW30133   0.776   2.073   9.297 -0.1922 -0.5905 -0.4169
 6166SOL    HW130134   0.760   2.085   9.203 -0.0418 -0.1039 -0.3818
 6166SOL    HW230135   0.691   2.054   9.336  0.4415 -0.2362  1.1197
 6167SOL     OW30136   3.926   0.482   1.869 -0.0266 -0.2466 -0.3059
 6167SOL    HW130137   3.941   0.394   1.904  2.5220  0.8251  1.3013
 6167SOL    HW230138   3.900   0.472   1.777  1.1687  0.4089 -0.7155
 6168SOL     OW30139   0.466   2.221  12.852 -0.3731  0.0952 -0.0650
 6168SOL    HW130140   0.538   2.217  12.915  0.6271  2.7605 -1.0510
 6168SOL    HW230141   0.488   2.287  12.786  0.0290 -0.5038 -0.5180
 6169SOL     OW30142   1.037   1.349   6.507 -0.4653 -0.2641  0.4633
 6169SOL    HW130143   1.093   1.409   6.458 -0.2097 -1.8159 -1.1523
 6169SOL    HW230144   0.968   1.411   6.533  1.6323  2.1177  0.4080
 6170SOL     OW30145   4.634   0.294   7.131 -0.0182  0.1798  0.1150
 6170SOL    HW130146   4.594   0.207   7.129  2.0482 -0.7280 -1.8033
 6170SOL    HW230147   4.686   0.287   7.211 -0.3370 -0.0436  0.3048
 6171SOL     OW30148   3.306   0.878  15.980 -0.7383  0.7399  0.4208
 6171SOL    HW130149   3.382   0.903  15.926 -2.1537  2.2324 -0.8813
 6171SOL    HW230150   3.336   0.805  16.034 -2.1182  0.5323  0.8996
 6172SOL     OW30151   1.147   2.269  17.024 -0.5061  0.1405 -0.3873
 6172SOL    HW130152   1.128   2.184  16.985  0.0856 -0.0785 -0.1914
 6172SOL    HW230153   1.187   2.318  16.952 -0.7503  0.8989 -0.0066
 6173SOL     OW30154   3.055   0.505   4.687  0.1206  0.5196  0.4026
 6173SOL    HW130155   3.116   0.557   4.740  1.1119  0.0674 -0.3058
 6173SOL    HW230156   3.014   0.577   4.638  0.5870  1.6760  1.7250
 6174SOL     OW30157   2.195   2.345   1.935 -0.0484 -0.9401  0.5240
 6174SOL    HW130158   2.185   2.373   2.026 -3.0327 -0.7160  0.1092
 6174SOL    HW230159   2.291   2.337   1.933  0.1275  1.1253  0.8522
 6175SOL     OW30160   3.782   1.473   5.608  0.1542  0.3303  0.2934
 6175SOL    HW130161   3.734   1.445   5.530  1.9495 -0.6781 -0.4583
 6175SOL    HW230162   3.854   1.410   5.611 -0.2486 -0.0294  2.3656
 6176SOL     OW30163   4.543   0.094   7.962  0.5810 -0.1415  0.0874
 6176SOL    HW130164   4.496   0.042   8.027 -0.0973 -0.6780 -0.8420
 6176SOL    HW230165   4.545   0.040   7.884  1.3527 -0.2928  0.2131
 6177SOL     OW30166   0.630   4.375   5.052 -0.1434  0.4415  0.3289
 6177SOL    HW130167   0.698   4.433   5.018 -1.4168  1.1081 -1.0689
 6177SOL    HW230168   0.592   4.356   4.967  3.1013 -0.6845 -0.8581
 6178SOL     OW30169   2.133   2.511   3.699 -0.8244  0.7620 -1.0717
 6178SOL    HW130170   2.101   2.422   3.709  1.2793 -0.0398 -1.4682
 6178SOL    HW230171   2.085   2.533   3.620 -1.1096  3.1858 -0.2192
 6179SOL     OW30172   1.859   1.582   9.756 -0.3448  0.2999 -0.1974
 6179SOL    HW130173   1.876   1.545   9.842 -0.9578  1.0831  0.2589
 6179SOL    HW230174   1.837   1.504   9.705  0.9356  0.3552 -0.8276
 6180SOL     OW30175   3.475   3.671   2.901 -0.1002 -0.2321 -0.1513
 6180SOL    HW130176   3.542   3.725   2.858 -0.7679 -1.5222 -2.8373
 6180SOL    HW230177   3.401   3.681   2.841  0.0852 -2.2094 -0.7098
 6181SOL     OW30178   4.465   2.252   2.283 -0.1115  0.4815 -0.2639
 6181SOL    HW130179   4.388   2.206   2.316  0.2479 -1.9809 -2.7814
 6181SOL    HW230180   4.533   2.222   2.343  0.1181 -0.6274 -1.0650
 6182SOL     OW30181   3.487   2.458   3.384 -0.4019 -0.0969 -0.4922
 6182SOL    HW130182   3.473   2.463   3.289  2.6692 -0.5113 -0.9707
 6182SOL    HW230183   3.400   2.472   3.420 -0.8502  2.1887 -2.4534
 6183SOL     OW30184   0.961   2.048   9.693 -0.4644  0.2258  0.3540
 6183SOL    HW130185   1.010   1.998   9.758  0.0964  0.9518  0.4825
 6183SOL    HW230186   1.024   2.029   9.625 -0.5050 -0.2275  0.4400
 6184SOL     OW30187   2.824   0.595  10.632  0.7719  0.4444  0.1439
 6184SOL    HW130188   2.821   0.520  10.573  0.5214 -0.1741  0.9279
 6184SOL    HW230189   2.880   0.662  10.592  2.9405 -0.6843  1.2288
 6185SOL     OW30190   2.048   0.624   3.222 -0.2193 -0.2440 -0.1291
 6185SOL    HW130191   1.956   0.649   3.237  0.5996  2.7730 -0.0937
 6185SOL    HW230192   2.086   0.702   3.262 -0.1601  1.7184 -3.9832
 6186SOL     OW30193   0.963   0.063  12.889 -0.4236  0.1991 -0.2898
 6186SOL    HW130194   0.985   0.144  12.842  1.3690  1.1772  2.2639
 6186SOL    HW230195   0.966   4.735  12.822 -0.1038 -1.7113  1.7226
 6187SOL     OW30196   3.064   3.196  17.061 -0.1803  0.1079  0.2873
 6187SOL    HW130197   3.131   3.256  17.029  1.3898 -0.8632  1.8378
 6187SOL    HW230198   2.986   3.234  17.021 -0.2794 -1.6181 -1.1830
 6188SOL     OW30199   3.170   3.438   8.172  0.3931 -0.1274  0.1965
 6188SOL    HW130200   3.240   3.464   8.113  1.2415 -0.1198  1.2043
 6188SOL    HW230201   3.110   3.405   8.106 -0.1892 -0.4280  0.8740
 6189SOL     OW30202   1.584   2.693   5.267  1.1719 -0.1292  0.1891
 6189SOL    HW130203   1.620   2.644   5.342 -0.8614 -0.9175  0.6297
 6189SOL    HW230204   1.555   2.622   5.210 -0.4231  2.1213 -1.7839
 6190SOL     OW30205   0.568   0.834   3.063 -0.3064  0.6603  0.1701
 6190SOL    HW130206   0.624   0.758   3.049  0.0674  1.2537 -1.4432
 6190SOL    HW230207   0.592   0.891   2.991 -3.5630  2.1534  0.2755
 6191SOL     OW30208   4.498   4.525   5.836 -0.2937  0.0119  0.2156
 6191SOL    HW130209   4.524   4.594   5.775 -1.6349 -1.4405 -2.0132
 6191SOL    HW230210   4.526   4.447   5.788  0.8864  0.2165  0.5843
 6192SOL     OW30211   2.317   4.542   2.898 -0.0646 -0.3966 -0.4966
 6192SOL    HW130212   2.330   4.488   2.976 -1.0117 -0.1160 -0.1420
 6192SOL    HW230213   2.337   4.628   2.933  0.4688 -0.0604 -1.6100
 6193SOL     OW30214   1.078   3.240   2.391  0.3435  0.2437 -0.0579
 6193SOL    HW130215   1.054   3.332   2.381  2.0608  0.6825 -0.2528
 6193SOL    HW230216   1.020   3.198   2.455 -1.4317  2.6411 -0.1063
 6194SOL     OW30217   3.893   4.497   1.292  0.7806  0.3546  1.1685
 6194SOL    HW130218   3.934   4.549   1.223  0.5405 -1.8349 -0.6621
 6194SOL    HW230219   3.930   4.538   1.370  1.6438  0.8136  0.5134
 6195SOL     OW30220   3.886   2.351   5.989  0.1515 -0.3653 -0.0086
 6195SOL    HW130221   3.888   2.407   6.067 -0.3453  0.9081 -0.8955
 6195SOL    HW230222   3.910   2.411   5.919  1.0519  1.5930  1.9484
 6196SOL     OW30223   0.020   0.505   7.536 -0.0704 -0.0969 -0.0379
 6196SOL    HW130224   0.051   0.442   7.601  0.0482  0.7534  0.7262
 6196SOL    HW230225   0.090   0.517   7.473  0.0081 -0.7392 -0.0676
 6197SOL     OW30226   3.393   3.103  13.124 -0.0816 -0.0280  0.3642
 6197SOL    HW130227   3.359   3.157  13.195 -0.6639  1.6589 -1.1929
 6197SOL    HW230228   3.316   3.046  13.117  0.0541  0.2104 -2.9861
 6198SOL     OW30229   3.827   2.794   0.244  0.0423 -0.3657 -1.0930
 6198SOL    HW130230   3.815   2.707   0.283 -0.8655  1.1772  2.0337
 6198SOL    HW230231   3.922   2.807   0.234  0.3834 -0.4966  1.8731
 6199SOL     OW30232   1.260   2.686  17.128  0.2894 -0.6448 -0.6546
 6199SOL    HW130233   1.296   2.671  17.215 -1.6349  1.8230  0.5514
 6199SOL    HW230234   1.318   2.627  17.079 -1.2458 -1.9598 -0.8685
 6200SOL     OW30235   1.332   2.697   5.026  0.4212  0.1215 -0.5844
 6200SOL    HW130236   1.334   2.677   4.932  1.0973  0.2198 -0.5910
 6200SOL    HW230237   1.279   2.626   5.059 -1.7840  0.6653 -2.9049
 6201SOL     OW30238   2.652   1.420   0.794  0.0600 -0.4262 -0.0606
 6201SOL    HW130239   2.569   1.437   0.751 -0.0194  1.6637  0.9012
 6201SOL    HW230240   2.659   1.491   0.858 -3.0864  1.2578 -1.5815
 6202SOL     OW30241   0.506   4.144  16.588  0.8528 -0.3421 -0.1926
 6202SOL    HW130242   0.438   4.082  16.612  0.8322  0.4685  1.9086
 6202SOL    HW230243   0.477   4.234  16.607 -2.0846 -1.1686 -0.8255
 6203SOL     OW30244   0.402   0.756   7.827 -0.6206 -0.6730 -0.0019
 6203SOL    HW130245   0.477   0.811   7.804 -1.5954  0.4120 -0.6230
 6203SOL    HW230246   0.428   0.714   7.909  0.5781  0.1928  0.0600
 6204SOL     OW30247   1.185   0.701   2.021 -0.2314 -0.0189 -0.3120
 6204SOL    HW130248   1.126   0.740   2.085  0.5392  0.2550  0.2392
 6204SOL    HW230249   1.120   0.650   1.973 -0.6254 -0.6946  0.9353
 6205SOL     OW30250   1.207   2.035   9.519  0.1680 -0.2575 -0.6868
 6205SOL    HW130251   1.165   2.091   9.454  0.2614 -0.2107 -0.7071
 6205SOL    HW230252   1.295   2.031   9.480  1.9334 -1.1861  3.4385
 6206SOL     OW30253   1.763   3.141  12.462  0.3800  0.3359 -0.0019
 6206SOL    HW130254   1.745   3.057  12.503 -0.7620 -1.2869 -3.8316
 6206SOL    HW230255   1.672   3.163  12.443 -0.4631 -1.9645  1.3216
 6207SOL     OW30256   0.834   4.146   2.004  0.3060 -0.3750  0.1098
 6207SOL    HW130257   0.772   4.074   2.000  0.5547 -0.5899  0.1484
 6207SOL    HW230258   0.917   4.111   2.036  1.3526  0.3746 -1.8008
 6208SOL     OW30259   2.752   3.633  11.007  0.0412  0.3560 -0.2367
 6208SOL    HW130260   2.782   3.695  11.074  1.1345 -1.3214  0.8397
 6208SOL    HW230261   2.774   3.551  11.051 -0.0902 -0.3860 -1.5558
 6209SOL     OW30262   1.351   0.279  13.182 -0.5313  0.2157 -0.4841
 6209SOL    HW130263   1.316   0.345  13.123 -2.4446 -0.1381  0.2682
 6209SOL    HW230264   1.378   0.218  13.113 -0.8772  1.1933 -1.4799
 6210SOL     OW30265   3.591   3.929   5.198  0.2104 -0.9316  0.4692
 6210SOL    HW130266   3.505   3.919   5.158  1.3546 -2.6485 -1.5644
 6210SOL    HW230267   3.644   3.894   5.126  0.2302  2.0196 -0.9506
 6211SOL     OW30268   0.156   4.013  16.899 -0.8035 -0.5879  0.6216
 6211SOL    HW130269   0.177   3.944  16.962  1.8485 -0.0975  0.2430
 6211SOL    HW230270   0.234   4.068  16.891 -2.8165  1.9180 -1.5812
 6212SOL     OW30271   3.991   0.617   3.259 -0.3470  0.0919  0.7590
 6212SOL    HW130272   3.980   0.709   3.284 -3.0633 -0.3423  1.1955
 6212SOL    HW230273   4.044   0.627   3.180 -3.5018 -1.6703 -1.5854
 6213SOL     OW30274   2.169   4.680  12.069 -0.2269 -0.5084  0.2888
 6213SOL    HW130275   2.236   4.642  12.127  1.4679  1.8788 -0.0979
 6213SOL    HW230276   2.093   4.623  12.081 -1.5203  0.7635 -1.8863
 6214SOL     OW30277   1.222   2.802   0.247  0.7611  0.3557  0.0837
 6214SOL    HW130278   1.246   2.851   0.325 -2.8002 -1.5304  2.3514
 6214SOL    HW230279   1.294   2.740   0.239  2.9284  2.7914  0.6107
 6215SOL     OW30280   0.542   2.517   9.802  0.0519 -0.7525  0.5345
 6215SOL    HW130281   0.448   2.497   9.807 -0.0162 -0.9679 -1.9386
 6215SOL    HW230282   0.568   2.504   9.894 -1.9198  0.6396  1.2943
 6216SOL     OW30283   2.741   4.297   8.099  0.0854  0.2756  0.2724
 6216SOL    HW130284   2.692   4.307   8.180  2.1024  4.5441  0.9975
 6216SOL    HW230285   2.747   4.202   8.091 -2.5348  0.2609 -1.6185
 6217SOL     OW30286   0.337   0.977   2.774  0.1529 -0.4100 -0.3881
 6217SOL    HW130287   0.289   0.904   2.813  2.1842 -0.9845  1.0180
 6217SOL    HW230288   0.304   0.990   2.685  0.7603 -0.5319 -0.6267
 6218SOL     OW30289   3.918   3.272  12.799  0.6299 -0.8537 -0.0487
 6218SOL    HW130290   3.855   3.208  12.832  0.3549 -0.5255  0.0609
 6218SOL    HW230291   3.998   3.221  12.814 -0.6958 -2.9106 -0.0063
 6219SOL     OW30292   0.675   1.970   5.998 -0.2551  0.2281  0.6917
 6219SOL    HW130293   0.615   2.016   6.056 -0.9999 -0.1824  0.2411
 6219SOL    HW230294   0.676   1.889   6.048  1.6924  1.8689  3.3499
 6220SOL     OW30295   2.599   3.731   3.079 -0.2750 -0.3760 -0.5574
 6220SOL    HW130296   2.588   3.714   3.172 -2.4845  2.1818 -0.3490
 6220SOL    HW230297   2.655   3.808   3.076  0.7857 -1.1499 -0.4524
 6221SOL     OW30298   3.665   2.715  16.202  0.0675  0.2785 -0.3442
 6221SOL    HW130299   3.740   2.717  16.143 -0.6006  0.8451 -1.1693
 6221SOL    HW230300   3.667   2.798  16.249  1.6216 -0.1967  0.4254
 6222SOL     OW30301   3.313   3.987   4.862 -0.5709 -0.1486  0.5524
 6222SOL    HW130302   3.244   4.050   4.840 -0.3475  0.0713  0.4875
 6222SOL    HW230303   3.387   4.046   4.853  0.7549 -2.0717 -1.0830
 6223SOL     OW30304   4.736   2.136   0.860  0.1652 -0.8341 -0.6853
 6223SOL    HW130305   0.078   2.149   0.813 -0.5506 -2.8800 -2.5091
 6223SOL    HW230306   4.684   2.083   0.801 -1.8904  1.3098 -0.8069
 6224SOL     OW30307   2.137   0.637   4.827 -0.4207  0.4365  0.3761
 6224SOL    HW130308   2.056   0.658   4.780 -1.0219 -1.8731  0.3568
 6224SOL    HW230309   2.091   0.590   4.898 -1.0859  1.0180  0.3297
 6225SOL     OW30310   3.202   4.559   9.387  0.2449  0.0908  0.1888
 6225SOL    HW130311   3.156   4.641   9.372 -1.1912 -0.7957 -0.2198
 6225SOL    HW230312   3.144   4.521   9.453 -0.4288  1.4816  0.3967
 6226SOL     OW30313   2.004   1.671   2.130 -0.2451 -0.0234 -0.1545
 6226SOL    HW130314   1.941   1.664   2.058 -0.0578 -1.1335 -0.2085
 6226SOL    HW230315   2.052   1.749   2.103  0.8876 -0.4744  0.5604
 6227SOL     OW30316   3.138   0.468   6.452 -0.4746  0.0748  0.1515
 6227SOL    HW130317   3.206   0.422   6.404 -1.0386 -1.2270  0.5954
 6227SOL    HW230318   3.095   0.389   6.483  0.7797 -0.5641  0.2447
 6228SOL     OW30319   3.181   4.325  11.099  0.8432  0.3492 -0.1368
 6228SOL    HW130320   3.275   4.321  11.115  1.0452  2.2899 -0.9390
 6228SOL    HW230321   3.147   4.361  11.181 -0.9524  0.4600 -0.9338
 6229SOL     OW30322   3.016   1.933   0.541  0.1565  0.5738 -0.4848
 6229SOL    HW130323   2.973   1.874   0.602  2.3108 -1.4451 -0.9448
 6229SOL    HW230324   2.955   2.007   0.545  0.1453  0.5407 -0.0708
 6230SOL     OW30325   0.882   2.190  11.505  0.6855 -0.1086 -0.5525
 6230SOL    HW130326   0.925   2.147  11.578  1.4139  1.5433 -0.0126
 6230SOL    HW230327   0.875   2.113  11.449  0.1807  0.1729 -0.8827
 6231SOL     OW30328   0.004   0.614  13.559 -0.0534 -0.3009 -0.1965
 6231SOL    HW130329   4.714   0.630  13.648  0.6766 -0.5278  0.0971
 6231SOL    HW230330   0.058   0.539  13.583  0.1121  0.8900  3.2454
 6232SOL     OW30331   1.909   3.439   8.300  0.5908  0.1553  0.5170
 6232SOL    HW130332   1.906   3.520   8.249 -2.9420 -0.4315 -0.1495
 6232SOL    HW230333   2.001   3.441   8.327  0.8391  1.3271 -0.3760
 6233SOL     OW30334   3.346   4.522  10.398  0.4296 -0.0775 -0.0605
 6233SOL    HW130335   3.278   4.539  10.463  0.6805  2.6659 -0.5167
 6233SOL    HW230336   3.397   4.460  10.452 -0.0865 -0.3362  0.1272
 6234SOL     OW30337   0.593   3.761   6.939  0.4376  0.1326  0.4515
 6234SOL    HW130338   0.619   3.848   6.969  0.4483  0.4199 -0.3787
 6234SOL    HW230339   0.631   3.710   7.011  2.5509  1.2734  0.1595
 6235SOL     OW30340   4.126   3.911   2.005  0.0102  0.0207  0.0616
 6235SOL    HW130341   4.210   3.934   1.966  0.1471 -1.4620 -0.5114
 6235SOL    HW230342   4.090   3.848   1.943  0.0154  0.6083 -0.5388
 6236SOL     OW30343   0.312   0.132   0.618 -0.4004  0.3287 -0.1618
 6236SOL    HW130344   0.268   0.064   0.670  1.4412 -2.9915 -2.9765
 6236SOL    HW230345   0.403   0.113   0.639 -0.3114  0.5400 -0.3627
 6237SOL     OW30346   2.095   0.043   4.187 -0.0739  0.5825 -0.0775
 6237SOL    HW130347   2.149   0.017   4.262 -0.0181  0.1830 -0.2562
 6237SOL    HW230348   2.094   4.699   4.142 -1.4004 -0.1887  1.4018
 6238SOL     OW30349   0.809   0.445   2.042 -0.3421 -0.4748  0.1175
 6238SOL    HW130350   0.858   0.363   2.053  0.2961 -0.0133  0.7333
 6238SOL    HW230351   0.720   0.421   2.069 -0.6387 -0.6360 -1.0005
 6239SOL     OW30352   0.869   2.148   3.361 -0.6776  0.1880  0.0774
 6239SOL    HW130353   0.941   2.182   3.308 -0.7107  0.8258  0.4450
 6239SOL    HW230354   0.798   2.135   3.297 -0.3235 -0.0221 -0.2715
 6240SOL     OW30355   3.010   1.093   3.381 -0.2980 -0.9363  0.2674
 6240SOL    HW130356   2.938   1.149   3.351 -0.8482 -0.5380  2.3203
 6240SOL    HW230357   2.970   1.007   3.392 -1.3731 -0.4043  0.5175
 6241SOL     OW30358   4.439   0.990   6.276 -0.3173 -0.5273  0.2317
 6241SOL    HW130359   4.355   0.991   6.322  0.0364  0.3552  0.8501
 6241SOL    HW230360   4.496   0.963   6.348  0.4391 -1.8911 -0.8789
 6242SOL     OW30361   4.626   0.669  13.308 -0.4839 -0.5818  0.0680
 6242SOL    HW130362   4.644   0.589  13.259 -0.6297 -0.5766  0.0051
 6242SOL    HW230363   4.617   0.631  13.395 -0.9940 -0.4252  0.0831
 6243SOL     OW30364   0.226   1.152   6.272 -0.2923 -0.0523  0.0369
 6243SOL    HW130365   0.259   1.227   6.223 -0.1441 -0.2325 -0.1422
 6243SOL    HW230366   0.176   1.193   6.342  0.1403  0.2687  0.1536
 6244SOL     OW30367   3.693   1.354   1.418  0.4044  0.0199 -0.2540
 6244SOL    HW130368   3.669   1.417   1.486  1.3559  0.5456 -0.4013
 6244SOL    HW230369   3.664   1.400   1.339 -2.1726 -0.2253  0.5384
 6245SOL     OW30370   4.538   2.241   4.904 -0.2299 -0.2319 -0.5165
 6245SOL    HW130371   4.557   2.322   4.855 -0.0993  0.8639  1.3423
 6245SOL    HW230372   4.470   2.205   4.847  0.5163  0.0546 -1.5876
 6246SOL     OW30373   1.930   3.364   1.879 -0.1254  0.0880  0.3205
 6246SOL    HW130374   1.869   3.292   1.864  0.1693 -0.3128  1.0309
 6246SOL    HW230375   1.880   3.435   1.838 -0.0445 -1.1748 -1.9700
 6247SOL     OW30376   2.159   4.615   6.292 -0.0913 -0.7335  0.8149
 6247SOL    HW130377   2.127   4.538   6.340 -0.5365 -0.1551  1.4516
 6247SOL    HW230378   2.211   4.579   6.220 -2.6391 -0.0565 -1.3486
 6248SOL     OW30379   2.585   2.800   2.944  0.4298 -0.0140 -0.0921
 6248SOL    HW130380   2.589   2.873   3.007 -0.0216 -1.3196  1.4499
 6248SOL    HW230381   2.526   2.835   2.876  0.3629 -1.0215 -0.5448
 6249SOL     OW30382   1.731   2.186   5.058 -0.6088 -0.5853 -0.1131
 6249SOL    HW130383   1.718   2.279   5.042 -0.3558 -0.5836 -0.3133
 6249SOL    HW230384   1.701   2.149   4.975 -2.3787  0.0021  0.2710
 6250SOL     OW30385   2.604   1.762   2.824  0.6183 -0.0261 -0.0677
 6250SOL    HW130386   2.555   1.787   2.746 -0.9074 -0.3293  0.7959
 6250SOL    HW230387   2.559   1.680   2.845  0.9705 -0.6799 -1.8646
 6251SOL     OW30388   0.479   4.364  15.156 -0.0563 -0.3211  0.1155
 6251SOL    HW130389   0.409   4.411  15.200  0.5691 -0.0154  0.7898
 6251SOL    HW230390   0.436   4.335  15.076  0.6226 -1.1765  0.0587
 6252SOL     OW30391   1.931   1.055   4.584  0.5621 -0.4980  0.5421
 6252SOL    HW130392   2.027   1.052   4.577  0.5595 -0.3533  0.4466
 6252SOL    HW230393   1.900   1.014   4.504  0.1565  0.4569  0.2142
 6253SOL     OW30394   4.134   0.345   2.685  0.8081 -0.0282 -0.2266
 6253SOL    HW130395   4.107   0.285   2.755 -1.4189 -0.6912 -1.6321
 6253SOL    HW230396   4.131   0.285   2.610 -0.6790  1.2487 -1.1825
 6254SOL     OW30397   4.001   2.303  16.861 -0.1407  0.5031  0.2731
 6254SOL    HW130398   3.956   2.372  16.909 -0.2085  0.0866  0.8153
 6254SOL    HW230399   4.076   2.285  16.918 -0.6809  2.1391  1.4892
 6255SOL     OW30400   4.598   2.853   2.975  0.0839  0.5233 -0.0392
 6255SOL    HW130401   4.615   2.799   2.898  1.1975 -0.8069  1.1244
 6255SOL    HW230402   4.534   2.914   2.938 -0.0836 -1.0384 -2.3179
 6256SOL     OW30403   3.966   2.121   8.857  0.4184  0.5381 -0.1428
 6256SOL    HW130404   3.966   2.091   8.947  0.1506 -0.1432 -0.3672
 6256SOL    HW230405   3.961   2.033   8.821 -1.4457  0.4763  0.3079
 6257SOL     OW30406   3.177   2.824  17.115 -0.3598 -0.0888  0.1958
 6257SOL    HW130407   3.146   2.782  17.196  0.3558 -0.9784  0.0105
 6257SOL    HW230408   3.151   2.913  17.138  0.2634 -0.6811  3.2172
 6258SOL     OW30409   2.313   4.024   9.278 -0.4277 -0.3535 -0.2129
 6258SOL    HW130410   2.283   3.936   9.254  0.2551 -0.4565 -0.6880
 6258SOL    HW230411   2.407   4.011   9.283 -0.2324  1.2331  0.1965
 6259SOL     OW30412   2.264   3.554   1.893 -0.2449  0.4241 -0.2877
 6259SOL    HW130413   2.316   3.571   1.814 -0.5736  1.3530 -0.3106
 6259SOL    HW230414   2.261   3.460   1.911 -0.2214  0.3335 -0.7465
 6260SOL     OW30415   3.738   2.247   6.463 -0.0623 -0.7153  0.1550
 6260SOL    HW130416   3.769   2.275   6.377 -2.0408  0.4904 -0.1445
 6260SOL    HW230417   3.754   2.330   6.508  1.6425 -0.1401 -1.5220
 6261SOL     OW30418   1.850   0.801  13.669  0.4715  0.2858  0.1467
 6261SOL    HW130419   1.924   0.761  13.624 -0.2701 -2.6210  1.5653
 6261SOL    HW230420   1.780   0.738  13.659 -1.0778  2.5497 -3.3281
 6262SOL     OW30421   1.009   0.763   6.087 -0.1344  0.5371  0.2867
 6262SOL    HW130422   1.095   0.804   6.101 -0.8849  3.1457 -2.9170
 6262SOL    HW230423   0.963   0.841   6.056  1.3604  0.5600 -1.8685
 6263SOL     OW30424   2.330   3.661   8.774  0.2122 -0.5850  0.2842
 6263SOL    HW130425   2.244   3.682   8.739  0.7292 -0.3598 -0.8602
 6263SOL    HW230426   2.371   3.641   8.690  3.5594  0.3248  1.7240
 6264SOL     OW30427   0.815   0.281  12.136  0.1679  0.0495  0.0507
 6264SOL    HW130428   0.858   0.212  12.186  3.0814  2.6440  1.1173
 6264SOL    HW230429   0.728   0.243  12.122  0.9785 -1.6254 -0.2979
 6265SOL     OW30430   3.702   4.079   6.976 -0.3395  0.1133  0.7271
 6265SOL    HW130431   3.796   4.062   6.979 -0.5383 -1.3372 -1.1485
 6265SOL    HW230432   3.692   4.173   6.993  1.9614  0.4159  0.3492
 6266SOL     OW30433   0.394   2.102   0.159  0.4262 -0.2415 -0.1844
 6266SOL    HW130434   0.317   2.069   0.205  0.8330  1.0950  1.4632
 6266SOL    HW230435   0.453   2.122   0.231  1.2437 -2.9962 -0.0947
 6267SOL     OW30436   3.953   1.411  16.794 -0.3730 -0.4577  0.6362
 6267SOL    HW130437   3.897   1.475  16.750 -0.1051 -1.1469 -0.6902
 6267SOL    HW230438   3.975   1.461  16.873  1.5510  0.8613 -0.7537
 6268SOL     OW30439   2.539   2.729  12.333 -0.0822 -0.4042  0.2698
 6268SOL    HW130440   2.485   2.671  12.387 -1.2540 -0.6707 -1.1926
 6268SOL    HW230441   2.488   2.724  12.252  0.2709  0.1526  0.0111
 6269SOL     OW30442   4.146   0.906   2.636  0.2685  0.0938  0.1999
 6269SOL    HW130443   4.145   0.811   2.629  1.0952  0.3448 -3.4121
 6269SOL    HW230444   4.128   0.932   2.545  1.4756 -0.6582 -0.2549
 6270SOL     OW30445   0.771   1.484   9.935  0.3247  0.2458 -0.2924
 6270SOL    HW130446   0.781   1.565   9.884 -0.4952  1.7630  1.9419
 6270SOL    HW230447   0.706   1.506  10.001 -0.2916 -0.8773 -0.5198
 6271SOL     OW30448   0.156   3.655   5.614 -0.3643 -0.5283 -0.4661
 6271SOL    HW130449   0.119   3.683   5.530  0.8511  0.9367 -0.5287
 6271SOL    HW230450   0.092   3.690   5.675  0.9930 -0.9573  1.1952
 6272SOL     OW30451   3.767   2.701   2.332  0.2973  0.2606  0.0390
 6272SOL    HW130452   3.712   2.734   2.404 -1.0312 -1.5846 -0.1283
 6272SOL    HW230453   3.787   2.775   2.274  1.4404 -1.6535 -1.9873
 6273SOL     OW30454   0.329   1.894   5.168 -0.0174  0.2655  0.1352
 6273SOL    HW130455   0.261   1.961   5.160  0.7334  0.7420 -2.2737
 6273SOL    HW230456   0.304   1.860   5.254  1.7928 -0.5534  0.3261
 6274SOL     OW30457   4.509   3.585   6.803 -0.3071  0.0684  0.4664
 6274SOL    HW130458   4.523   3.607   6.895  2.1676 -0.2329  0.1686
 6274SOL    HW230459   4.414   3.581   6.794 -0.3897 -1.1699  1.8030
 6275SOL     OW30460   1.692   1.331   8.528  0.6903 -0.1059 -0.2732
 6275SOL    HW130461   1.755   1.265   8.498 -1.1016 -2.3523  0.9861
 6275SOL    HW230462   1.620   1.279   8.562  0.4615  0.0383 -0.5375
 6276SOL     OW30463   4.161   0.207   7.497 -0.0009  0.2682  0.3983
 6276SOL    HW130464   4.194   0.176   7.413  1.9813 -0.4563  1.4516
 6276SOL    HW230465   4.086   0.152   7.518 -1.2376  2.5474  1.8742
 6277SOL     OW30466   2.210   1.182  11.223 -0.2425 -0.0876 -0.5960
 6277SOL    HW130467   2.243   1.179  11.312 -0.5786  0.6033 -0.4463
 6277SOL    HW230468   2.190   1.090  11.210  1.0101 -0.3753 -0.4807
 6278SOL     OW30469   1.500   3.973   6.030  0.6024  0.9946 -0.4952
 6278SOL    HW130470   1.593   3.991   6.016  0.3692  3.5299  1.1429
 6278SOL    HW230471   1.471   3.973   5.939  1.7385 -0.5332 -0.8580
 6279SOL     OW30472   2.206   0.295   7.263 -0.5156  0.0651  0.0261
 6279SOL    HW130473   2.156   0.328   7.189 -0.9152  1.8363  1.0774
 6279SOL    HW230474   2.159   0.336   7.336  0.4411 -0.6831  1.0645
 6280SOL     OW30475   1.186   0.020   7.955 -0.2190 -0.0871  0.0120
 6280SOL    HW130476   1.201   4.724   7.868  0.1210 -0.2551  0.1394
 6280SOL    HW230477   1.119   4.698   7.985 -0.0196 -1.0234 -1.4879
 6281SOL     OW30478   2.848   0.214  15.049  0.2084 -0.3534  0.5429
 6281SOL    HW130479   2.846   0.306  15.023  2.2216 -0.3445  0.4258
 6281SOL    HW230480   2.936   0.191  15.020 -0.2607 -0.1920 -0.9892
 6282SOL     OW30481   4.689   2.432   6.737  0.4818  0.3900  0.4546
 6282SOL    HW130482   4.613   2.456   6.790  0.3045  0.1121  0.3242
 6282SOL    HW230483   4.681   2.341   6.767 -2.0277  0.5963  0.4219
 6283SOL     OW30484   3.192   4.140   8.341 -0.0239  0.1051 -0.4541
 6283SOL    HW130485   3.189   4.076   8.269 -0.3842  0.2747 -0.5881
 6283SOL    HW230486   3.177   4.221   8.292  1.1702  0.1036 -0.8443
 6284SOL     OW30487   0.531   0.735   7.388  0.0213  0.1578  0.0146
 6284SOL    HW130488   0.482   0.753   7.308 -1.0030  1.5152  0.9564
 6284SOL    HW230489   0.463   0.712   7.452  0.9347 -0.2154  0.8612
 6285SOL     OW30490   2.717   3.669   5.448  0.2284  0.2745  0.3903
 6285SOL    HW130491   2.695   3.636   5.535 -0.0900  0.3950  0.3592
 6285SOL    HW230492   2.655   3.742   5.441 -0.4433 -0.1241  2.2279
 6286SOL     OW30493   2.755   4.277   3.885 -0.5597  0.3835  0.5933
 6286SOL    HW130494   2.709   4.196   3.863  0.3887  0.3562 -1.2778
 6286SOL    HW230495   2.807   4.254   3.961  0.2392 -1.3544 -0.4986
 6287SOL     OW30496   1.311   0.157   2.046  0.0931 -0.0774 -0.7126
 6287SOL    HW130497   1.309   0.080   1.988  0.7233  0.1969 -1.1016
 6287SOL    HW230498   1.245   0.128   2.108  0.8876  0.2143  0.2613
 6288SOL     OW30499   2.363   1.950   1.076  0.0477  0.2262  0.0414
 6288SOL    HW130500   2.446   1.916   1.107 -0.7056  0.5708  2.3955
 6288SOL    HW230501   2.342   2.004   1.152  1.6242  0.4002  0.3359
 6289SOL     OW30502   3.979   1.434   7.507 -0.2873 -0.7124  0.4232
 6289SOL    HW130503   3.935   1.497   7.564  2.8548  0.2740  1.7510
 6289SOL    HW230504   3.981   1.489   7.428 -2.6786  0.4881  1.2059
 6290SOL     OW30505   2.285   2.623   6.475  0.2988  0.0365  0.0442
 6290SOL    HW130506   2.287   2.718   6.487 -0.7467  0.1719 -0.9370
 6290SOL    HW230507   2.215   2.592   6.533  1.9042 -2.6010  0.5982
 6291SOL     OW30508   4.175   2.806   1.315  0.4965  0.2394  0.4042
 6291SOL    HW130509   4.119   2.730   1.325  2.1467 -1.2347 -1.5666
 6291SOL    HW230510   4.228   2.784   1.239 -1.6646  1.0254 -1.3401
 6292SOL     OW30511   0.432   4.129  16.924  0.6824 -0.0694  0.0095
 6292SOL    HW130512   0.511   4.093  16.884 -0.4267 -0.3284 -1.9307
 6292SOL    HW230513   0.465   4.166  17.006 -0.1144 -0.0300  0.3130
 6293SOL     OW30514   3.495   4.544   2.992  0.0928  0.0341  0.7514
 6293SOL    HW130515   3.422   4.563   3.051  1.5435 -0.4174  2.6803
 6293SOL    HW230516   3.557   4.596   3.043 -2.0327  1.5152  1.8617
 6294SOL     OW30517   2.093   3.608   4.436  0.1148  0.0247 -0.5886
 6294SOL    HW130518   2.101   3.602   4.341  2.6803  0.4892 -0.4247
 6294SOL    HW230519   2.164   3.559   4.478 -0.7816 -0.5617  0.2238
 6295SOL     OW30520   0.022   4.609   3.129  0.4065 -0.1437  0.3488
 6295SOL    HW130521   0.089   4.659   3.083  0.8813 -1.5496 -0.4591
 6295SOL    HW230522   0.061   4.522   3.137  1.4461  0.1725 -1.3905
 6296SOL     OW30523   3.749   3.793   8.713  0.0824 -0.4427 -0.1199
 6296SOL    HW130524   3.840   3.790   8.684  0.3332  1.7934  0.4279
 6296SOL    HW230525   3.725   3.700   8.721 -0.9146 -0.1997 -0.2191
 6297SOL     OW30526   3.962   2.675   5.526 -0.4088  0.0442  0.4895
 6297SOL    HW130527   3.937   2.624   5.603 -1.7138  0.3766  0.2904
 6297SOL    HW230528   4.052   2.688   5.556 -0.8669  3.1706  0.5135
 6298SOL     OW30529   0.919   0.690   9.093 -0.2141 -0.3915  0.2139
 6298SOL    HW130530   0.905   0.784   9.084  1.2162 -0.6105 -4.4431
 6298SOL    HW230531   0.840   0.662   9.140 -0.5261 -1.2779 -0.8459
 6299SOL     OW30532   1.772   3.041   5.670 -0.6513  0.7243 -0.2950
 6299SOL    HW130533   1.736   3.026   5.757  0.8698  0.9142  0.3518
 6299SOL    HW230534   1.759   2.961   5.619 -3.5299  0.5064  0.7471
 6300SOL     OW30535   0.330   1.716   6.855 -0.1749 -0.0040  0.3041
 6300SOL    HW130536   0.286   1.678   6.779  0.6488 -0.6579  0.1603
 6300SOL    HW230537   0.400   1.764   6.812  1.0217 -0.6240  1.5673
 6301SOL     OW30538   4.645   2.568  15.538  0.3377  0.4829  0.0098
 6301SOL    HW130539   4.713   2.516  15.581  0.3560  1.4831  1.1906
 6301SOL    HW230540   4.688   2.577  15.453  0.2330  0.9182  0.0011
 6302SOL     OW30541   3.217   0.189   0.060  0.2753 -0.3888  0.5628
 6302SOL    HW130542   3.194   0.196   0.153 -1.5710 -1.3329  0.1743
 6302SOL    HW230543   3.221   0.094   0.050 -0.4108 -0.3097 -0.4002
 6303SOL     OW30544   2.606   1.236   1.086 -0.1087 -0.4396  0.5016
 6303SOL    HW130545   2.544   1.259   1.017  1.9330 -0.6247 -1.3901
 6303SOL    HW230546   2.676   1.187   1.043 -2.6861 -2.0643 -1.8178
 6304SOL     OW30547   2.064   1.365   3.051  0.1539  0.1409  0.2652
 6304SOL    HW130548   2.067   1.300   2.982  0.4590  0.4276  0.0134
 6304SOL    HW230549   2.150   1.348   3.088  0.3039 -0.3751 -0.3335
 6305SOL     OW30550   3.446   3.936   5.819  0.2569 -0.3043  0.4273
 6305SOL    HW130551   3.520   3.989   5.791 -1.0190  0.1821 -1.9781
 6305SOL    HW230552   3.493   3.871   5.873 -0.0343 -1.5515 -0.8266
 6306SOL     OW30553   3.747   3.047  12.631  0.5666  0.1682 -0.0510
 6306SOL    HW130554   3.697   2.982  12.581  0.9863  0.8182 -1.2986
 6306SOL    HW230555   3.811   2.986  12.667 -0.0403 -0.9691 -0.9121
 6307SOL     OW30556   0.894   4.591   2.558 -0.9729 -0.1352  0.0373
 6307SOL    HW130557   0.883   4.534   2.635  0.1590 -0.0318  0.2645
 6307SOL    HW230558   0.942   4.660   2.603  1.3559 -1.5645 -0.2810
 6308SOL     OW30559   0.142   3.447   0.044  0.2572  0.3362 -0.6016
 6308SOL    HW130560   0.160   3.443  17.711  0.1188 -3.2629 -0.4761
 6308SOL    HW230561   0.227   3.469   0.080  0.3350 -0.5474 -0.2567
 6309SOL     OW30562   1.942   2.672  11.670 -0.2688  0.1985 -0.6785
 6309SOL    HW130563   2.019   2.652  11.724 -0.8910 -3.3196 -1.1428
 6309SOL    HW230564   1.979   2.684  11.583  1.6866 -1.5349 -0.0692
 6310SOL     OW30565   1.698   0.538   1.796  0.3110 -0.0055  0.1965
 6310SOL    HW130566   1.671   0.468   1.854 -0.2458 -0.4555 -0.5987
 6310SOL    HW230567   1.663   0.623   1.822  1.1796 -0.0567  1.5132
 6311SOL     OW30568   2.670   0.592   4.816 -0.6256 -0.3336  0.0191
 6311SOL    HW130569   2.582   0.602   4.854 -2.0466 -1.2114 -2.9944
 6311SOL    HW230570   2.721   0.581   4.895  0.0370  0.8479 -0.2403
 6312SOL     OW30571   0.476   3.057   8.484 -0.0802  0.1359  0.2084
 6312SOL    HW130572   0.390   3.020   8.506  0.0770  1.2397  2.6891
 6312SOL    HW230573   0.453   3.085   8.395  0.6114  1.1245  0.3357
 6313SOL     OW30574   2.115   2.077   3.802  0.7803  0.1915  0.2171
 6313SOL    HW130575   2.063   1.998   3.818  1.8114 -0.8581 -1.5661
 6313SOL    HW230576   2.106   2.124   3.884  2.1755 -1.7172  1.4599
 6314SOL     OW30577   2.055   3.477  10.486 -0.3645  0.4787  0.2564
 6314SOL    HW130578   2.126   3.422  10.519  0.9062  1.6972 -0.4429
 6314SOL    HW230579   2.064   3.552  10.545  1.8834  1.1175 -0.8895
 6315SOL     OW30580   3.331   0.575  11.172 -0.0678 -0.2435 -0.3167
 6315SOL    HW130581   3.272   0.511  11.132  0.1528 -0.3662 -0.4496
 6315SOL    HW230582   3.399   0.575  11.104  0.7778 -0.5728  0.5224
 6316SOL     OW30583   2.889   4.582  17.682 -0.1821  0.9068  0.0748
 6316SOL    HW130584   2.828   4.627  17.740  0.1434  0.3411  0.8533
 6316SOL    HW230585   2.845   4.498  17.667  1.0654  0.0975  0.9754
 6317SOL     OW30586   0.581   4.033   8.426 -0.2986  0.5147  0.2459
 6317SOL    HW130587   0.524   4.083   8.368  0.5994  2.1301  0.7792
 6317SOL    HW230588   0.532   4.045   8.508  0.1596  2.4765  0.2231
 6318SOL     OW30589   2.020   0.676  15.442 -0.4862 -0.5134  0.0482
 6318SOL    HW130590   2.093   0.680  15.503 -1.4256  2.8531  0.9584
 6318SOL    HW230591   1.977   0.756  15.473  2.0256  1.1180 -0.6682
 6319SOL     OW30592   4.456   2.478   9.643  0.2757 -0.0752  0.1493
 6319SOL    HW130593   4.531   2.532   9.621  0.5034 -1.2926 -2.1040
 6319SOL    HW230594   4.411   2.485   9.559 -1.0690  1.4004  0.9973
 6320SOL     OW30595   2.811   2.857   3.884 -0.2935  0.0980 -0.2072
 6320SOL    HW130596   2.740   2.851   3.948  0.1748 -2.5451  0.0829
 6320SOL    HW230597   2.810   2.947   3.851 -1.3319 -0.3757 -1.4612
 6321SOL     OW30598   1.439   0.951  16.163  0.4647 -0.0369 -0.0404
 6321SOL    HW130599   1.389   0.987  16.090  1.2452 -0.7898 -0.9318
 6321SOL    HW230600   1.473   1.034  16.197  0.5683  0.1675 -0.6514
 6322SOL     OW30601   1.606   1.545   4.032  0.4498 -0.0064  0.2411
 6322SOL    HW130602   1.558   1.587   4.104  1.9751  1.4820  0.3941
 6322SOL    HW230603   1.636   1.468   4.079 -0.1450  0.0198  0.6781
 6323SOL     OW30604   2.757   1.702   3.475 -0.0609  0.5505  0.1989
 6323SOL    HW130605   2.757   1.761   3.399 -0.1996  0.8326  0.4182
 6323SOL    HW230606   2.730   1.753   3.551  0.7621 -0.1361  0.9450
 6324SOL     OW30607   1.380   0.164   3.300  0.1085 -0.0609  0.8266
 6324SOL    HW130608   1.345   0.133   3.383 -3.8158  1.6746 -0.1895
 6324SOL    HW230609   1.367   0.258   3.306  0.0280 -0.2347  3.0864
 6325SOL     OW30610   3.621   2.037   4.559  0.1899 -0.0961 -0.2269
 6325SOL    HW130611   3.623   2.019   4.465  1.7833 -1.1153  0.0011
 6325SOL    HW230612   3.676   1.975   4.607 -2.6915 -2.5085 -0.0216
 6326SOL     OW30613   3.815   0.131  16.208 -0.0571  0.0612  0.1861
 6326SOL    HW130614   3.794   0.224  16.209  1.1713  0.3179  1.6424
 6326SOL    HW230615   3.781   0.103  16.293 -0.8785 -2.9610 -1.1494
 6327SOL     OW30616   0.108   2.616   3.962 -0.0358 -0.9362  0.0068
 6327SOL    HW130617   0.111   2.685   3.896  0.2772 -1.8980 -0.9814
 6327SOL    HW230618   0.035   2.630   4.023 -0.1653 -0.4300 -0.2637
 6328SOL     OW30619   2.503   2.275   8.864  0.3397 -0.0363  0.7166
 6328SOL    HW130620   2.561   2.199   8.856  0.3721  0.3256 -2.3994
 6328SOL    HW230621   2.514   2.318   8.949  1.8979  0.6471  0.1671
 6329SOL     OW30622   3.099   4.514   0.330  0.2251  0.4540 -0.2901
 6329SOL    HW130623   3.075   4.585   0.389  1.4871  0.2623  0.4349
 6329SOL    HW230624   3.028   4.458   0.363  0.2652  0.6908  0.1983
 6330SOL     OW30625   4.574   4.267   1.909 -0.1117  0.3334 -0.1142
 6330SOL    HW130626   4.585   4.186   1.859  1.0355  0.9437 -0.8470
 6330SOL    HW230627   4.641   4.251   1.976 -2.5282  1.5734  2.5745
 6331SOL     OW30628   1.663   3.858   6.525 -0.1263 -0.1673 -0.1686
 6331SOL    HW130629   1.574   3.892   6.513 -0.2178  0.1173  1.2418
 6331SOL    HW230630   1.711   3.935   6.494 -1.2044  0.9528  0.9102
 6332SOL     OW30631   0.564   4.537   6.545  0.5731 -0.3610 -0.3138
 6332SOL    HW130632   0.510   4.524   6.467 -0.1197  0.7659 -0.0219
 6332SOL    HW230633   0.553   4.631   6.560  0.2658 -0.3624 -0.5385
 6333SOL     OW30634   3.809   0.771   8.888 -0.0023 -0.1994 -0.1736
 6333SOL    HW130635   3.898   0.801   8.906 -0.9857  1.0289  2.7106
 6333SOL    HW230636   3.815   0.740   8.798 -2.8834  0.8399 -0.7357
 6334SOL     OW30637   0.172   0.795   2.895 -0.4582 -0.2005 -0.1050
 6334SOL    HW130638   0.080   0.775   2.878 -0.4763  0.8353 -1.1582
 6334SOL    HW230639   0.168   0.786   2.991  0.9657  1.7726  0.1392
 6335SOL     OW30640   0.528   1.595   3.703 -0.0245  0.2674  0.1414
 6335SOL    HW130641   0.481   1.565   3.782  0.9797  1.6902  1.2799
 6335SOL    HW230642   0.464   1.664   3.680  0.2729  0.1308 -1.0843
 6336SOL     OW30643   3.402   4.239   3.563  0.0892 -0.1586  0.3704
 6336SOL    HW130644   3.430   4.147   3.561  0.5625 -0.0114  0.2333
 6336SOL    HW230645   3.451   4.272   3.487  0.0742  0.6961  0.7352
 6337SOL     OW30646   2.040   1.992   5.855 -0.8206  0.1944  0.1636
 6337SOL    HW130647   1.951   1.983   5.821 -0.2161  0.0073 -1.3728
 6337SOL    HW230648   2.025   2.002   5.949  1.4344 -2.2345  0.7531
 6338SOL     OW30649   4.567   2.078  10.782 -0.1550  0.2023 -0.3063
 6338SOL    HW130650   4.495   2.058  10.842  0.2080 -1.0458 -0.2657
 6338SOL    HW230651   4.612   2.148  10.829 -2.2048  2.2312 -1.3631
 6339SOL     OW30652   4.392   3.581   5.427 -0.0647 -0.2613 -0.4802
 6339SOL    HW130653   4.457   3.516   5.400 -0.2361 -0.7084  0.1685
 6339SOL    HW230654   4.426   3.662   5.389 -0.0049  0.1607  0.4637
 6340SOL     OW30655   2.232   4.258   3.770 -0.7358  0.6801 -0.4856
 6340SOL    HW130656   2.225   4.353   3.772 -0.1892  0.7662 -2.4085
 6340SOL    HW230657   2.244   4.248   3.675 -0.6694  0.7905 -0.4883
 6341SOL     OW30658   2.143   3.583   7.827  0.2171 -0.2812 -0.3600
 6341SOL    HW130659   2.068   3.598   7.884  0.6229  2.7568 -0.6520
 6341SOL    HW230660   2.104   3.531   7.757  0.3404 -1.4864  0.4693
 6342SOL     OW30661   3.027   1.164   3.713  0.3345  0.1360 -1.1340
 6342SOL    HW130662   3.034   1.207   3.798 -0.9929  1.3747 -1.6631
 6342SOL    HW230663   2.950   1.206   3.675  0.8588  1.0025 -1.2631
 6343SOL     OW30664   1.843   3.647  14.846 -0.2696 -0.0296 -0.4567
 6343SOL    HW130665   1.829   3.649  14.941 -0.6011 -0.4387 -0.5000
 6343SOL    HW230666   1.917   3.709  14.839 -0.5312  0.3708  0.2866
 6344SOL     OW30667   4.620   2.317  14.771 -0.4568 -0.2522 -0.4335
 6344SOL    HW130668   4.606   2.370  14.692 -1.1780 -0.1458 -0.2350
 6344SOL    HW230669   4.527   2.303  14.791 -0.0662  1.4691  2.5395
 6345SOL     OW30670   0.152   2.532  14.717 -0.0474 -0.2489 -0.1522
 6345SOL    HW130671   0.109   2.454  14.751 -0.7107  0.5751  0.9202
 6345SOL    HW230672   0.089   2.560  14.650  0.0566 -0.5812 -0.3871
 6346SOL     OW30673   4.390   2.021   1.262 -0.3620  0.2666  0.2126
 6346SOL    HW130674   4.322   2.018   1.194  0.6558  0.9416 -0.8209
 6346SOL    HW230675   4.367   1.949   1.322 -4.0270 -0.2867 -1.8130
 6347SOL     OW30676   3.523   0.955   5.501 -0.0483 -0.1246 -0.1074
 6347SOL    HW130677   3.579   0.979   5.427 -1.1915 -1.3423 -1.3750
 6347SOL    HW230678   3.574   0.972   5.580 -0.5456  1.3142 -0.1034
 6348SOL     OW30679   2.220   4.015   1.884  0.2145 -0.0952 -0.0399
 6348SOL    HW130680   2.289   3.953   1.858  0.2243 -0.3084  0.5028
 6348SOL    HW230681   2.286   4.076   1.916 -0.2347 -0.3192  1.3085
 6349SOL     OW30682   2.775   0.495  10.213 -0.4383 -0.0916  0.4132
 6349SOL    HW130683   2.808   0.431  10.276 -0.2731  1.2120  1.6360
 6349SOL    HW230684   2.763   0.442  10.134  0.4920  0.5178 -0.1421
 6350SOL     OW30685   0.661   4.284   6.237  0.5960 -0.2479 -0.6217
 6350SOL    HW130686   0.725   4.312   6.303  0.8255 -1.5643 -0.2841
 6350SOL    HW230687   0.599   4.237   6.293 -0.7422 -0.2014 -2.0796
 6351SOL     OW30688   4.732   2.655  11.363 -0.6716 -0.2636 -0.0901
 6351SOL    HW130689   0.053   2.607  11.308 -0.0028 -0.4286  0.8067
 6351SOL    HW230690   0.057   2.714  11.400 -0.9553  0.1684 -0.2745
 6352SOL     OW30691   4.385   3.832   6.431 -0.1930  0.0223 -1.1508
 6352SOL    HW130692   4.421   3.919   6.417  2.4820 -0.7068  1.4118
 6352SOL    HW230693   4.460   3.788   6.392  0.7344 -0.1975  0.8943
 6353SOL     OW30694   4.442   3.163  14.067  0.3437 -0.3962  0.1512
 6353SOL    HW130695   4.515   3.207  14.024 -0.6120  0.3956 -0.6381
 6353SOL    HW230696   4.367   3.223  14.063  1.6362  1.0885 -1.8682
 6354SOL     OW30697   3.270   2.932   6.043 -0.1750 -0.5375 -0.7563
 6354SOL    HW130698   3.316   3.014   6.058  3.0210 -2.4867  0.1676
 6354SOL    HW230699   3.334   2.865   6.068  1.1971  1.3742  0.8049
 6355SOL     OW30700   3.357   1.481  16.497  0.0880  0.5707  0.7292
 6355SOL    HW130701   3.281   1.424  16.501  0.3722  0.2313  1.2713
 6355SOL    HW230702   3.323   1.553  16.444 -0.1091 -1.6462 -2.1514
 6356SOL     OW30703   0.977   0.184   2.960  0.2982  0.1698 -0.0193
 6356SOL    HW130704   0.923   0.148   3.031 -4.9905  1.4949 -3.3362
 6356SOL    HW230705   0.923   0.251   2.918  2.1358  1.3177 -0.5139
 6357SOL     OW30706   0.609   2.909  17.250 -0.1540 -0.1452 -0.1400
 6357SOL    HW130707   0.670   2.949  17.188 -0.3215 -0.8626 -0.7704
 6357SOL    HW230708   0.642   2.943  17.333  1.9481 -0.3249 -0.9031
 6358SOL     OW30709   3.982   3.330  14.689 -0.4030 -0.2013 -0.2937
 6358SOL    HW130710   4.019   3.347  14.603 -1.5728  1.7603 -0.3990
 6358SOL    HW230711   4.020   3.397  14.746 -0.5740 -1.6311  1.5118
 6359SOL     OW30712   2.909   4.563   9.169  0.1645 -0.7211 -0.7209
 6359SOL    HW130713   2.814   4.546   9.167  0.2001 -1.2270  1.3217
 6359SOL    HW230714   2.941   4.513   9.094  1.6815 -2.3188  1.0118
 6360SOL     OW30715   2.094   4.392  13.015 -0.0354  0.3355  0.0469
 6360SOL    HW130716   2.074   4.432  13.100 -0.6733 -0.1358  0.1236
 6360SOL    HW230717   2.188   4.387  13.030 -0.1229 -1.6493 -0.0810
 6361SOL     OW30718   1.631   2.315   6.605  0.1292 -0.0743  0.1084
 6361SOL    HW130719   1.677   2.379   6.660  1.2724 -1.3710  0.6635
 6361SOL    HW230720   1.547   2.305   6.650  0.2693 -0.1519  0.3502
 6362SOL     OW30721   2.349   3.433   8.948  0.0649  0.2008  0.7738
 6362SOL    HW130722   2.370   3.370   8.879 -2.8489  1.3238 -1.1630
 6362SOL    HW230723   2.323   3.513   8.901  1.0222 -0.3148 -0.6500
 6363SOL     OW30724   3.462   2.481   2.448 -0.4173 -0.1861  0.5174
 6363SOL    HW130725   3.408   2.498   2.526 -0.6555  2.5211 -0.2254
 6363SOL    HW230726   3.543   2.462   2.495 -0.2070 -1.4262 -0.3444
 6364SOL     OW30727   2.122   3.083   8.520 -0.4552 -0.2858  0.0913
 6364SOL    HW130728   2.038   3.100   8.478  0.7068  2.6231 -1.0688
 6364SOL    HW230729   2.140   3.160   8.573  2.2964 -2.1906  1.8934
 6365SOL     OW30730   1.418   0.930  14.627  0.7375  0.8260  0.2856
 6365SOL    HW130731   1.475   0.990  14.579 -0.3000  1.3572 -0.2766
 6365SOL    HW230732   1.345   0.991  14.627 -0.0740 -0.1611  0.9424
 6366SOL     OW30733   3.575   2.028  15.583 -0.3109  0.3643  0.4405
 6366SOL    HW130734   3.669   2.018  15.599 -0.4759  1.9301  2.4154
 6366SOL    HW230735   3.536   1.965  15.644 -1.7163 -0.3029 -1.1466
 6367SOL     OW30736   1.380   0.180   6.633 -0.1623  0.2137 -0.4483
 6367SOL    HW130737   1.301   0.156   6.681 -0.0721 -0.4321 -0.6141
 6367SOL    HW230738   1.418   0.095   6.610 -2.2575 -2.2136  5.1466
 6368SOL     OW30739   0.200   1.516   5.915 -0.2322  0.1762 -0.1203
 6368SOL    HW130740   0.173   1.426   5.899  1.1159  0.0364 -1.6271
 6368SOL    HW230741   0.287   1.508   5.875 -0.2401 -1.4794  0.1866
 6369SOL     OW30742   2.179   2.156   6.325 -0.3637 -0.9552  0.0333
 6369SOL    HW130743   2.149   2.245   6.306  2.8594  0.6465  2.3485
 6369SOL    HW230744   2.253   2.168   6.385  0.9404  0.9130 -1.9435
 6370SOL     OW30745   2.328   0.673   5.584 -0.6403  0.7042 -0.1670
 6370SOL    HW130746   2.356   0.583   5.569  0.2081  1.1684 -1.2991
 6370SOL    HW230747   2.412   0.719   5.593 -0.2735 -0.3807  2.0293
 6371SOL     OW30748   2.260   3.648   6.332 -0.2508 -0.6785  0.2962
 6371SOL    HW130749   2.222   3.625   6.417 -2.1224  0.4670 -0.2415
 6371SOL    HW230750   2.240   3.567   6.286  4.9246 -1.2126 -0.9608
 6372SOL     OW30751   0.948   3.421   3.876 -0.1341 -0.3938  0.0366
 6372SOL    HW130752   0.984   3.420   3.964  3.7163  0.2088 -1.5297
 6372SOL    HW230753   0.868   3.369   3.883  0.4781 -1.3727 -0.2262
 6373SOL     OW30754   3.848   3.768   5.664  0.2681  0.3151 -1.3189
 6373SOL    HW130755   3.844   3.812   5.579  2.8970  0.5570 -1.3173
 6373SOL    HW230756   3.785   3.699   5.644  1.5481 -1.0557 -0.5505
 6374SOL     OW30757   0.830   3.974   4.574 -0.2030 -0.1091 -0.1633
 6374SOL    HW130758   0.779   3.895   4.592  0.7257 -0.6395  0.1464
 6374SOL    HW230759   0.902   3.950   4.633 -0.3755 -0.7490 -0.2080
 6375SOL     OW30760   2.840   3.530   4.511 -0.3683  0.0758  0.4197
 6375SOL    HW130761   2.836   3.553   4.418  1.1617  1.3846  0.6698
 6375SOL    HW230762   2.817   3.437   4.520 -2.5686  0.8659  2.7909
 6376SOL     OW30763   1.271   4.536  16.952 -0.6908  0.3891 -0.2553
 6376SOL    HW130764   1.282   4.455  16.902 -3.2825 -0.6413  0.7956
 6376SOL    HW230765   1.359   4.561  16.979 -0.9002 -0.0524  0.8358
 6377SOL     OW30766   1.259   3.585   4.883 -0.2321  0.5142  0.4191
 6377SOL    HW130767   1.172   3.574   4.845 -0.4936  1.7930  0.6431
 6377SOL    HW230768   1.278   3.512   4.942  1.1920 -0.8331 -1.7141
 6378SOL     OW30769   4.527   2.236   7.719 -0.3477 -0.5477 -0.1781
 6378SOL    HW130770   4.497   2.321   7.752  0.0668 -0.6091  0.3566
 6378SOL    HW230771   4.587   2.209   7.788  0.2867  0.6896 -0.2268
 6379SOL     OW30772   0.879   3.212   6.567 -0.1849 -0.3307  0.6935
 6379SOL    HW130773   0.905   3.121   6.584  3.7176  0.4093 -1.1790
 6379SOL    HW230774   0.965   3.254   6.572  0.5010 -1.7571  0.9438
 6380SOL     OW30775   0.066   1.954   3.890 -0.0616  0.7185  0.0611
 6380SOL    HW130776   4.729   2.009   3.902 -0.7206  0.2832 -2.2688
 6380SOL    HW230777   0.130   2.025   3.883 -0.7610  1.1632 -1.6506
 6381SOL     OW30778   4.655   2.151   2.453  0.1858  0.1398 -0.9536
 6381SOL    HW130779   4.726   2.186   2.507 -1.1949  0.2215  0.8030
 6381SOL    HW230780   4.627   2.081   2.512  0.7049 -0.4867 -1.4523
 6382SOL     OW30781   2.894   3.145   8.455  0.2754  0.1679  0.5706
 6382SOL    HW130782   2.857   3.090   8.523 -0.8363  0.2655  0.0479
 6382SOL    HW230783   2.817   3.192   8.424  0.0943 -0.1847  0.4911
 6383SOL     OW30784   2.573   0.850   3.492  1.0397 -0.0038  0.0292
 6383SOL    HW130785   2.547   0.831   3.402 -0.0115 -0.6964  0.4740
 6383SOL    HW230786   2.539   0.938   3.508  0.0303 -0.5027  0.6615
 6384SOL     OW30787   3.188   1.809   9.226  0.3973 -0.1475 -0.1377
 6384SOL    HW130788   3.173   1.880   9.289 -1.0043 -0.5794  0.0113
 6384SOL    HW230789   3.248   1.856   9.168 -0.8358  0.1914 -1.1318
 6385SOL     OW30790   1.905   2.799  14.244  0.1893 -0.1964 -0.3408
 6385SOL    HW130791   1.871   2.884  14.216  2.4550  1.1559  1.0140
 6385SOL    HW230792   1.969   2.788  14.173  0.0284 -3.6744  0.0783
 6386SOL     OW30793   3.000   3.508   7.447  0.4034  0.2581 -0.3096
 6386SOL    HW130794   3.057   3.522   7.371  1.2549  1.1504  0.4884
 6386SOL    HW230795   2.940   3.447   7.405  1.2183  0.0767 -1.2158
 6387SOL     OW30796   2.699   4.058   4.887 -0.8037  0.2248 -0.3862
 6387SOL    HW130797   2.661   3.971   4.878 -0.3667 -0.0336  0.2158
 6387SOL    HW230798   2.668   4.068   4.977  0.5644 -0.9898  0.2321
 6388SOL     OW30799   1.389   1.678  11.051 -0.5745 -0.8886 -0.2740
 6388SOL    HW130800   1.378   1.666  11.146  2.1542  0.6721  0.2576
 6388SOL    HW230801   1.469   1.729  11.052 -1.3171  0.2656 -1.9998
 6389SOL     OW30802   4.271   1.829   9.171 -0.6806  0.3286  0.1233
 6389SOL    HW130803   4.307   1.752   9.214 -0.4712  1.2646  1.6052
 6389SOL    HW230804   4.341   1.889   9.196 -1.0689  1.4326 -1.4005
 6390SOL     OW30805   2.280   0.829   5.801 -0.2444  0.2075 -0.1475
 6390SOL    HW130806   2.281   0.794   5.712  0.7740  0.3581 -0.1956
 6390SOL    HW230807   2.209   0.893   5.792 -2.0581 -1.8004 -0.0055
 6391SOL     OW30808   2.111   2.177   7.787 -0.6699  0.7448  0.0465
 6391SOL    HW130809   2.083   2.189   7.696  0.1642  0.9713 -0.1757
 6391SOL    HW230810   2.162   2.096   7.784 -1.1378  0.4637 -0.3413
 6392SOL     OW30811   2.649   3.997  13.788 -0.6995 -0.2207  0.0438
 6392SOL    HW130812   2.692   3.914  13.767  0.3090 -0.1046  1.6711
 6392SOL    HW230813   2.714   4.063  13.763  0.0939 -0.5590  1.1900
 6393SOL     OW30814   4.100   1.454  13.321 -0.0291  0.0230  0.0128
 6393SOL    HW130815   4.034   1.508  13.275 -0.9203 -1.1853 -0.1225
 6393SOL    HW230816   4.122   1.519  13.388 -0.0767 -0.2841  0.3254
 6394SOL     OW30817   1.960   1.168   2.166 -0.5114 -0.2671 -0.3955
 6394SOL    HW130818   2.043   1.154   2.120  0.4989 -1.6921  1.8747
 6394SOL    HW230819   1.902   1.170   2.091  0.6265 -1.1901 -1.2995
 6395SOL     OW30820   2.301   0.071   7.975  0.0764  0.2144  0.2351
 6395SOL    HW130821   2.375   0.131   7.969 -1.1667  1.9428  2.1048
 6395SOL    HW230822   2.297   0.038   7.886 -0.6938  1.2580 -0.1144
 6396SOL     OW30823   3.278   4.573   3.189 -0.7377  0.0967  0.0585
 6396SOL    HW130824   3.216   4.500   3.198  0.1973 -0.7371 -0.3638
 6396SOL    HW230825   3.304   4.576   3.281  1.8252 -0.1450 -0.6595
 6397SOL     OW30826   1.254   0.116  12.611 -0.1390 -0.4829  0.0570
 6397SOL    HW130827   1.292   0.096  12.697 -0.9067 -0.5399  0.3817
 6397SOL    HW230828   1.259   0.040  12.553 -0.2051 -0.1727 -0.3541
 6398SOL     OW30829   3.336   1.698   7.691  0.1615 -0.1756  0.4293
 6398SOL    HW130830   3.393   1.751   7.747 -0.7865  0.3666  0.8715
 6398SOL    HW230831   3.365   1.731   7.606 -3.8575  0.2277 -0.7602
 6399SOL     OW30832   0.058   4.241  11.224  0.1272  0.0215  0.6336
 6399SOL    HW130833   0.046   4.314  11.285  0.3281 -1.8191  2.8769
 6399SOL    HW230834   0.150   4.239  11.200 -0.1251 -1.1663 -0.2329
 6400SOL     OW30835   1.470   3.328   2.791 -0.5253 -0.0128 -0.0651
 6400SOL    HW130836   1.460   3.255   2.730  1.2968 -0.2026 -0.1444
 6400SOL    HW230837   1.494   3.271   2.863  0.0975  1.6741  1.0705
 6401SOL     OW30838   2.216   2.524   5.619 -0.0651 -0.3832  0.4122
 6401SOL    HW130839   2.120   2.526   5.615 -0.0993  0.6345  1.8148
 6401SOL    HW230840   2.237   2.514   5.526 -1.9453 -0.4292 -0.0272
 6402SOL     OW30841   1.630   0.008   2.986 -0.6165 -0.3862  0.1352
 6402SOL    HW130842   1.721   0.022   2.958  0.2436 -1.2876  2.4554
 6402SOL    HW230843   1.650   0.037   3.075  1.0984 -0.4145 -0.2342
 6403SOL     OW30844   1.823   0.619   4.343  0.1425 -0.5058 -0.0875
 6403SOL    HW130845   1.870   0.566   4.407  1.1612  1.7752  1.0649
 6403SOL    HW230846   1.733   0.592   4.364  0.7299 -1.2399  1.5113
 6404SOL     OW30847   0.993   2.100  13.469 -0.8827  0.5806 -0.1377
 6404SOL    HW130848   1.076   2.072  13.508 -2.1541 -0.2977  1.8796
 6404SOL    HW230849   0.937   2.056  13.532  1.2956 -0.3157  1.1746
 6405SOL     OW30850   0.879   2.093   0.838 -0.0344 -0.2679 -0.2730
 6405SOL    HW130851   0.951   2.098   0.776 -0.4005  0.0238 -0.6751
 6405SOL    HW230852   0.835   2.177   0.828  0.6668  0.2407  0.8706
 6406SOL     OW30853   2.903   0.332   9.020 -0.2832 -0.3686  0.0858
 6406SOL    HW130854   2.846   0.264   8.983 -0.5891  0.7438 -1.4547
 6406SOL    HW230855   2.986   0.308   8.979 -0.4126  3.0936 -2.1636
 6407SOL     OW30856   2.552   2.535  17.132  0.0049  0.5807  0.3280
 6407SOL    HW130857   2.631   2.484  17.146  1.9741  2.4563 -3.9188
 6407SOL    HW230858   2.546   2.518  17.038 -0.5509 -3.1855  1.0474
 6408SOL     OW30859   1.970   1.300  15.211 -0.3211  0.3778  0.0389
 6408SOL    HW130860   1.924   1.286  15.128 -0.0649  3.1814 -0.5862
 6408SOL    HW230861   1.968   1.396  15.216  2.1424  0.4668 -1.0191
 6409SOL     OW30862   1.866   4.013  15.251  0.1522  0.0859 -0.4995
 6409SOL    HW130863   1.812   4.090  15.266  1.5091  1.2274 -1.4588
 6409SOL    HW230864   1.798   3.949  15.274  0.1499  1.2485  2.6213
 6410SOL     OW30865   0.289   2.102   5.674 -0.2385  0.2347 -0.5004
 6410SOL    HW130866   0.375   2.113   5.632  0.2157 -0.6279  0.2102
 6410SOL    HW230867   0.292   2.185   5.722  1.2230 -0.7760  1.1778
 6411SOL     OW30868   4.040   3.691   7.492 -0.0018 -0.0995 -0.0508
 6411SOL    HW130869   4.071   3.613   7.538  0.2631 -0.1607 -0.3250
 6411SOL    HW230870   3.955   3.700   7.534 -0.4899 -1.3754 -0.7614
 6412SOL     OW30871   0.197   1.013   0.511 -0.2452 -0.3623  0.1338
 6412SOL    HW130872   0.105   0.992   0.526 -0.2777 -1.1287 -1.1709
 6412SOL    HW230873   0.221   0.931   0.468  0.3855 -0.7486  1.2181
 6413SOL     OW30874   4.385   4.456  15.543  0.1742  0.1134  0.2534
 6413SOL    HW130875   4.376   4.361  15.547  1.4248  0.0290  1.0433
 6413SOL    HW230876   4.471   4.478  15.578 -0.6906  0.9801  1.8445
 6414SOL     OW30877   4.445   0.777   3.239  0.0264 -0.0689 -0.1231
 6414SOL    HW130878   4.468   0.756   3.329  0.2320 -0.9891 -0.3882
 6414SOL    HW230879   4.370   0.835   3.255  1.1207  1.5144 -0.7927
 6415SOL     OW30880   2.405   2.562  12.129  0.1876 -0.7865 -0.2136
 6415SOL    HW130881   2.333   2.499  12.115 -0.5447 -0.5509  2.3865
 6415SOL    HW230882   2.358   2.643  12.110  1.7235 -0.1758 -1.3699
 6416SOL     OW30883   3.083   0.551  13.433  0.0805  0.4030  0.0838
 6416SOL    HW130884   3.171   0.563  13.397 -0.4786 -0.5787 -1.5984
 6416SOL    HW230885   3.047   0.471  13.395  1.4957 -1.2046  2.0862
 6417SOL     OW30886   4.362   1.032   4.124  0.0837 -0.0571  0.0578
 6417SOL    HW130887   4.306   1.044   4.201  0.5369  1.7929  0.0903
 6417SOL    HW230888   4.300   0.990   4.064 -0.9703  1.0131  0.3961
 6418SOL     OW30889   2.520   1.270   4.695 -0.0510 -0.5632  0.1056
 6418SOL    HW130890   2.473   1.201   4.741  2.6170 -2.3040  0.2374
 6418SOL    HW230891   2.482   1.348   4.736  1.8657 -1.0485  2.8041
 6419SOL     OW30892   2.173   4.594   7.064  0.0238 -0.6837  0.2448
 6419SOL    HW130893   2.261   4.577   7.097  0.4043  0.5926 -0.0979
 6419SOL    HW230894   2.158   4.688   7.053  1.0863 -0.1877  2.7891
 6420SOL     OW30895   0.190   1.552   8.007  0.3462  0.0408 -0.3743
 6420SOL    HW130896   0.193   1.581   8.098 -2.4958 -0.5198 -0.1149
 6420SOL    HW230897   0.153   1.630   7.965  1.8102 -0.3577 -2.4491
 6421SOL     OW30898   4.296   2.235   6.035  0.3523 -0.6969 -0.5545
 6421SOL    HW130899   4.316   2.212   5.945  0.8733 -1.9579 -0.1149
 6421SOL    HW230900   4.370   2.204   6.087 -0.9817  0.2809  1.9271
 6422SOL     OW30901   1.303   2.928  14.545  0.6479  0.0528 -0.1364
 6422SOL    HW130902   1.326   2.921  14.452  0.6688 -0.1700 -0.1160
 6422SOL    HW230903   1.318   2.840  14.580 -1.3625 -1.1237 -2.1522
 6423SOL     OW30904   2.309   2.286   2.235 -0.0135  0.0052  0.0613
 6423SOL    HW130905   2.321   2.381   2.231  0.9312 -0.1506 -0.8648
 6423SOL    HW230906   2.402   2.265   2.241  0.1463  1.0013  1.2145
 6424SOL     OW30907   4.555   0.599   8.090  0.2670  0.3201  0.4784
 6424SOL    HW130908   4.529   0.581   8.000 -1.3941  1.4837  0.7249
 6424SOL    HW230909   4.543   0.509   8.119  0.9623  0.3242  0.7776
 6425SOL     OW30910   3.170   3.207  12.603  0.0304 -0.0431  0.0975
 6425SOL    HW130911   3.143   3.235  12.515 -1.8427 -1.0420  0.3383
 6425SOL    HW230912   3.141   3.116  12.596  0.5020  0.0439 -3.4001
 6426SOL     OW30913   4.717   1.646   4.763 -0.2021  0.4351 -0.5440
 6426SOL    HW130914   4.689   1.663   4.674  0.9404  1.7337 -0.6534
 6426SOL    HW230915   4.637   1.649   4.815 -0.6463 -1.3954 -1.1064
 6427SOL     OW30916   1.178   1.817   1.021 -0.0325 -0.1368  0.3469
 6427SOL    HW130917   1.133   1.791   1.101 -0.6181  2.4363  0.8480
 6427SOL    HW230918   1.106   1.819   0.958 -1.8963 -2.2383  2.3884
 6428SOL     OW30919   3.007   1.716   4.787  0.5449  0.3870 -0.6966
 6428SOL    HW130920   3.102   1.732   4.787  0.3822  1.3508 -1.3314
 6428SOL    HW230921   3.005   1.624   4.763  2.8864 -0.1350  1.1311
 6429SOL     OW30922   2.772   1.349   1.860  0.2135  0.1814  0.4078
 6429SOL    HW130923   2.829   1.364   1.785 -0.0280  2.2884  0.6558
 6429SOL    HW230924   2.835   1.331   1.929  1.6692 -0.0756 -0.9753
 6430SOL     OW30925   0.561   0.305   7.300  0.1649 -0.1913 -0.2759
 6430SOL    HW130926   0.497   0.370   7.272 -0.8522 -0.9354  0.3098
 6430SOL    HW230927   0.638   0.340   7.254  0.3523  0.3856  0.4843
 6431SOL     OW30928   4.061   1.368   7.933 -0.0125 -0.2608  0.2441
 6431SOL    HW130929   4.069   1.351   8.027 -0.0701 -0.8206  0.1428
 6431SOL    HW230930   4.119   1.304   7.894  1.2363  0.7388  0.4573
 6432SOL     OW30931   4.423   2.471  10.546  0.2826  0.1820 -0.7174
 6432SOL    HW130932   4.462   2.553  10.575  0.5619 -0.4320  0.6347
 6432SOL    HW230933   4.339   2.471  10.593  1.1285  1.2602  0.7885
 6433SOL     OW30934   0.507   1.638  11.549  0.3664 -0.3899  0.4470
 6433SOL    HW130935   0.413   1.632  11.530  0.4759  1.5006 -0.6900
 6433SOL    HW230936   0.525   1.559  11.600 -0.7231 -1.3222 -0.6110
 6434SOL     OW30937   0.075   0.441  16.815 -0.2373 -0.1469  0.1595
 6434SOL    HW130938   0.072   0.518  16.872 -1.7427 -2.4784  3.2853
 6434SOL    HW230939   0.069   0.364  16.872 -1.5461 -0.7626 -0.8405
 6435SOL     OW30940   3.859   3.761  10.922  0.0993  0.3585  0.4473
 6435SOL    HW130941   3.776   3.720  10.895 -0.1340  0.8794  0.3871
 6435SOL    HW230942   3.885   3.680  10.966  0.1084  0.8088  1.2626
 6436SOL     OW30943   2.202   4.389   8.941  0.1533  0.1992 -0.0612
 6436SOL    HW130944   2.267   4.339   8.892  0.0935 -0.9796  1.0536
 6436SOL    HW230945   2.176   4.323   9.006 -0.6148  1.1567  0.6097
 6437SOL     OW30946   4.454   3.562   5.687 -0.2260 -0.2376 -0.4199
 6437SOL    HW130947   4.371   3.603   5.711 -0.3462 -0.6204 -0.1922
 6437SOL    HW230948   4.457   3.581   5.593 -2.0447  0.1083 -0.4087
 6438SOL     OW30949   2.236   1.897   8.825  0.0589  0.6405 -0.4231
 6438SOL    HW130950   2.176   1.874   8.895  2.0988 -0.0313  1.1128
 6438SOL    HW230951   2.188   1.866   8.748 -0.6578 -0.5237  0.4947
 6439SOL     OW30952   2.858   1.485   8.470  0.4384  0.4078 -0.1549
 6439SOL    HW130953   2.917   1.560   8.477  2.2506 -1.1975  2.1264
 6439SOL    HW230954   2.836   1.478   8.377  2.5563  0.7322 -0.6799
 6440SOL     OW30955   4.401   0.050  16.793 -0.7989  0.5965  0.1518
 6440SOL    HW130956   4.490   0.015  16.794 -2.2789 -3.1297 -0.3586
 6440SOL    HW230957   4.357   4.716  16.835 -1.0956  1.3025  1.1037
 6441SOL     OW30958   0.212   3.519  10.049  0.1203 -0.5915  0.3393
 6441SOL    HW130959   0.142   3.576  10.081 -0.1433 -0.5323 -0.3315
 6441SOL    HW230960   0.238   3.477  10.131 -0.4872 -0.1879  0.7419
 6442SOL     OW30961   4.461   2.469   1.079 -0.6561  0.2316 -0.0227
 6442SOL    HW130962   4.397   2.413   1.036  0.9977 -0.2974 -1.7513
 6442SOL    HW230963   4.509   2.397   1.119  0.1366  1.4478  1.2160
 6443SOL     OW30964   2.903   2.902  14.091 -0.0998  0.2500 -0.2166
 6443SOL    HW130965   2.977   2.962  14.080  0.0768 -0.1565 -1.2793
 6443SOL    HW230966   2.940   2.814  14.085 -1.8224 -0.4566 -0.5287
 6444SOL     OW30967   3.098   4.567   6.949  0.0937  0.0663 -0.0964
 6444SOL    HW130968   3.081   4.586   7.042 -0.1055 -1.7058  0.2449
 6444SOL    HW230969   3.009   4.576   6.915 -0.7668 -1.5427  1.7249
 6445SOL     OW30970   4.445   0.442   4.475  0.2748  0.0700 -0.3818
 6445SOL    HW130971   4.452   0.521   4.422 -0.6235  1.2264  1.2267
 6445SOL    HW230972   4.353   0.417   4.470  1.1053 -2.7807 -1.3693
 6446SOL     OW30973   3.800   0.378   9.251  0.4604  0.0480  0.3701
 6446SOL    HW130974   3.808   0.432   9.172 -0.2571 -1.3926 -0.6947
 6446SOL    HW230975   3.728   0.427   9.291  0.8041 -0.0035  1.0369
 6447SOL     OW30976   3.189   3.231   8.384 -0.2193  0.1640  1.3783
 6447SOL    HW130977   3.191   3.309   8.328 -1.2474 -1.2525 -0.6267
 6447SOL    HW230978   3.107   3.190   8.358  0.0254  0.3413  0.3325
 6448SOL     OW30979   4.313   0.036  13.868 -0.1494  0.1909  0.6842
 6448SOL    HW130980   4.230   4.732  13.852  1.9282 -3.3706 -0.2406
 6448SOL    HW230981   4.372   4.720  13.818 -1.8317 -1.0521  0.0962
 6449SOL     OW30982   4.320   0.633   3.971 -0.4651 -0.3624  0.2640
 6449SOL    HW130983   4.249   0.694   3.950  1.7907  2.7454  1.5978
 6449SOL    HW230984   4.328   0.657   4.063 -1.7132  1.1475 -0.0092
 6450SOL     OW30985   0.958   2.413  10.822 -0.0314  0.7658  0.4121
 6450SOL    HW130986   0.941   2.359  10.745 -1.7069  2.0830 -0.1429
 6450SOL    HW230987   1.052   2.399  10.826  0.0504  1.4089  0.8369
 6451SOL     OW30988   1.945   1.215  11.546  0.0228 -0.3049 -0.1986
 6451SOL    HW130989   1.982   1.274  11.481  0.7230 -0.6263 -0.0918
 6451SOL    HW230990   1.952   1.282  11.613  0.2132 -0.3740 -0.1507
 6452SOL     OW30991   0.287   2.070   2.427  0.3287  0.0150 -0.3671
 6452SOL    HW130992   0.363   2.019   2.457  1.1479 -0.3481 -3.0440
 6452SOL    HW230993   0.218   2.011   2.456  1.0462 -0.5618  0.1638
 6453SOL     OW30994   4.053   2.780   6.068 -0.0645  0.4265  0.2735
 6453SOL    HW130995   4.030   2.818   5.984  0.6348  0.1833 -0.0323
 6453SOL    HW230996   3.970   2.746   6.101  1.9684 -1.2963  3.7085
 6454SOL     OW30997   0.943   3.861   5.181  0.1007  0.0695 -0.8413
 6454SOL    HW130998   0.940   3.787   5.119 -0.2078  0.8029 -1.7091
 6454SOL    HW230999   0.851   3.886   5.176 -0.2683 -0.7686  2.1756
 6455SOL     OW31000   3.271   3.136   1.962 -0.0420  0.0839  0.4765
 6455SOL    HW131001   3.273   3.226   1.994  0.0044 -0.0357  0.8098
 6455SOL    HW231002   3.185   3.101   1.984 -1.4799  2.4592 -1.4053
 6456SOL     OW31003   2.335   4.740   7.708 -0.2449  0.0393  0.2817
 6456SOL    HW131004   2.358   4.723   7.617  0.9557  0.7087  0.4601
 6456SOL    HW231005   2.296   4.657   7.735  0.9353 -0.5719  0.1351
 6457SOL     OW31006   0.853   3.046   1.961  0.3603  0.4260  0.0014
 6457SOL    HW131007   0.770   3.066   1.918  1.6952  2.1177 -1.7966
 6457SOL    HW231008   0.819   3.017   2.045  1.0041 -0.8477 -0.1869
 6458SOL     OW31009   4.345   2.826  17.549  0.5938 -0.4005 -0.0424
 6458SOL    HW131010   4.423   2.871  17.581 -0.7047  3.4266 -2.2641
 6458SOL    HW231011   4.266   2.863  17.590 -1.0950 -0.5616 -3.2143
 6459SOL     OW31012   3.553   3.103   5.603 -0.0879  0.3433 -0.3024
 6459SOL    HW131013   3.511   3.056   5.675  1.0705 -0.3265 -0.0717
 6459SOL    HW231014   3.647   3.107   5.620 -0.3907  0.2165  1.3238
 6460SOL     OW31015   3.403   4.556  11.856  0.2411  0.9503  0.2965
 6460SOL    HW131016   3.330   4.511  11.898 -1.6403  1.6149 -2.2785
 6460SOL    HW231017   3.438   4.594  11.936  0.8649 -2.4574  1.6727
 6461SOL     OW31018   1.251   1.764   4.424 -0.3012  0.2042 -0.0286
 6461SOL    HW131019   1.308   1.695   4.391 -0.3907  0.4801 -0.7767
 6461SOL    HW231020   1.168   1.756   4.377  0.2556  0.3418 -1.0572
 6462SOL     OW31021   2.740   2.875  12.049  0.1492 -0.2965  0.1261
 6462SOL    HW131022   2.651   2.901  12.027  0.4072 -0.3979 -1.0261
 6462SOL    HW231023   2.728   2.781  12.062  1.8966 -0.6308 -0.5912
 6463SOL     OW31024   0.386   2.233  10.706  0.2748 -0.2510 -0.3041
 6463SOL    HW131025   0.402   2.311  10.758  1.5466 -3.5050  4.1504
 6463SOL    HW231026   0.407   2.160  10.763 -0.8633 -0.0166  0.4256
 6464SOL     OW31027   2.634   4.539   2.812  0.1264  0.4551 -0.7417
 6464SOL    HW131028   2.573   4.594   2.762 -0.0310  0.5562 -0.4392
 6464SOL    HW231029   2.710   4.598   2.816  1.4026 -1.2800  0.3334
 6465SOL     OW31030   0.995   3.167  11.895  0.6893 -0.0183 -0.3841
 6465SOL    HW131031   1.009   3.256  11.863 -0.5464 -0.1965 -1.4521
 6465SOL    HW231032   1.056   3.182  11.967 -0.2475  2.0830 -0.0231
 6466SOL     OW31033   1.515   2.694  17.602  0.1292 -0.3279  0.0038
 6466SOL    HW131034   1.528   2.739  17.686  0.4208 -0.1942 -0.1118
 6466SOL    HW231035   1.442   2.643  17.637  0.3083  0.0722  0.9871
 6467SOL     OW31036   0.969   3.425   3.004 -0.4158 -0.3412 -0.1487
 6467SOL    HW131037   1.034   3.451   2.938 -0.6959 -0.0020 -0.2921
 6467SOL    HW231038   0.988   3.490   3.072 -0.8735 -0.1816 -0.1730
 6468SOL     OW31039   1.486   2.917   5.093 -0.0822  0.3836  0.3400
 6468SOL    HW131040   1.435   2.841   5.065  0.2811  0.1767  0.2302
 6468SOL    HW231041   1.469   2.913   5.187  2.6350 -2.4497  0.7353
 6469SOL     OW31042   0.796   0.361   3.488 -0.2437 -0.3040  0.4263
 6469SOL    HW131043   0.768   0.398   3.405  2.4032 -0.5154 -0.5583
 6469SOL    HW231044   0.729   0.292   3.495 -0.7568  0.1290 -0.1962
 6470SOL     OW31045   0.001   1.492   4.019  0.2081  0.3162 -0.1329
 6470SOL    HW131046   4.734   1.428   3.948 -1.9585  1.0880 -0.6141
 6470SOL    HW231047   0.042   1.573   3.988  0.6863  0.3275  0.5550
 6471SOL     OW31048   0.844   1.114   3.049  0.0301  0.4787 -0.1316
 6471SOL    HW131049   0.785   1.148   2.982  0.8760  1.9708 -0.1363
 6471SOL    HW231050   0.880   1.041   2.999  0.2146 -0.7077  1.7649
 6472SOL     OW31051   0.745   4.091   0.635 -0.5145  0.8669  0.4295
 6472SOL    HW131052   0.805   4.099   0.561 -0.6095 -2.5891 -0.0318
 6472SOL    HW231053   0.796   4.145   0.695 -0.2631  0.1502  0.8655
 6473SOL     OW31054   3.540   1.391   7.085  0.7896  0.3131  0.0508
 6473SOL    HW131055   3.588   1.315   7.053 -1.3723 -0.6886 -0.8475
 6473SOL    HW231056   3.494   1.344   7.155 -0.0725  0.3616 -0.4732
 6474SOL     OW31057   2.280   3.706   3.916 -0.0104 -0.2885 -0.6194
 6474SOL    HW131058   2.275   3.774   3.848 -0.0505  1.2447  0.9193
 6474SOL    HW231059   2.236   3.633   3.872 -0.9217  0.7146 -1.3831
 6475SOL     OW31060   0.097   2.231   2.675  0.1628 -0.0192  0.2166
 6475SOL    HW131061   0.184   2.263   2.652 -0.9161  1.6068 -1.6134
 6475SOL    HW231062   0.086   2.293   2.747 -0.1104  0.8262 -0.5670
 6476SOL     OW31063   2.225   0.718  15.607 -0.2595 -0.1799  0.2166
 6476SOL    HW131064   2.320   0.728  15.613 -0.3832  1.9108 -1.4421
 6476SOL    HW231065   2.196   0.764  15.686  0.0592  0.5615 -0.1078
 6477SOL     OW31066   2.336   0.477   5.844  0.3622  0.4487 -0.4104
 6477SOL    HW131067   2.374   0.398   5.806 -1.0898 -0.1980 -0.4986
 6477SOL    HW231068   2.247   0.460   5.872  0.5727  0.1098  0.0491
 6478SOL     OW31069   0.470   0.604   1.584  0.3551 -0.4188 -0.4006
 6478SOL    HW131070   0.484   0.698   1.590  1.0427 -0.3207 -3.6904
 6478SOL    HW231071   0.508   0.569   1.665 -2.5700 -1.6925  0.4529
 6479SOL     OW31072   4.602   2.006   1.498 -0.5046  0.3160  0.5362
 6479SOL    HW131073   4.632   2.072   1.436 -1.1270 -1.0640 -1.2515
 6479SOL    HW231074   4.676   1.946   1.507 -1.6591 -1.2240 -0.1917
 6480SOL     OW31075   3.197   3.743   7.666  0.2806  0.3510  0.2935
 6480SOL    HW131076   3.156   3.784   7.590 -2.3697 -2.8534 -0.0238
 6480SOL    HW231077   3.283   3.728   7.627 -0.3545 -1.0889 -0.5493
 6481SOL     OW31078   0.929   2.195   7.706 -0.5414  0.5800  0.0737
 6481SOL    HW131079   0.980   2.177   7.784  0.4325  2.4585 -0.1165
 6481SOL    HW231080   0.968   2.134   7.643 -0.0761 -1.1702  2.0522
 6482SOL     OW31081   4.640   2.001   1.129 -0.4069 -0.4599  0.1099
 6482SOL    HW131082   4.645   2.096   1.115 -1.5317 -0.2682  0.9929
 6482SOL    HW231083   4.573   1.978   1.193 -2.2133  3.7720 -0.2855
 6483SOL     OW31084   2.831   0.825  15.456 -0.0264 -0.0267  0.9641
 6483SOL    HW131085   2.837   0.867  15.370 -1.7252 -0.0931  0.8199
 6483SOL    HW231086   2.788   0.744  15.425  0.6767 -0.2339  0.5200
 6484SOL     OW31087   0.304   0.399  16.035 -0.5202 -0.0869  0.7781
 6484SOL    HW131088   0.389   0.413  15.993 -0.4966  0.3239  0.9576
 6484SOL    HW231089   0.323   0.323  16.091  1.3154 -0.5956 -0.5332
 6485SOL     OW31090   3.121   0.925   5.739  0.5221 -0.1727 -0.2265
 6485SOL    HW131091   3.070   0.901   5.815  0.8208  0.0410  0.0412
 6485SOL    HW231092   3.204   0.952   5.779 -0.7866  1.3781  1.4470
 6486SOL     OW31093   0.059   3.704  10.187  0.8241  0.3821  0.4777
 6486SOL    HW131094   4.719   3.755  10.183 -0.1636 -1.1928  0.3361
 6486SOL    HW231095   0.129   3.767  10.201  1.1998  0.0859 -0.0935
 6487SOL     OW31096   0.032   0.754  16.137 -0.4318 -0.4863  0.1278
 6487SOL    HW131097   0.085   0.788  16.064 -0.4576 -1.5674 -0.3924
 6487SOL    HW231098   0.089   0.689  16.178  0.2984  0.1925  0.1899
 6488SOL     OW31099   1.212   2.712   1.247 -0.4161 -0.0942  0.3294
 6488SOL    HW131100   1.293   2.665   1.270 -1.3233 -1.8091  0.0261
 6488SOL    HW231101   1.173   2.726   1.333  0.6564  0.9383  0.6431
 6489SOL     OW31102   3.643   0.691   4.532 -0.0332  0.6896 -0.5299
 6489SOL    HW131103   3.567   0.721   4.581  0.1746  0.7280 -0.2305
 6489SOL    HW231104   3.704   0.760   4.557 -1.3888  2.6675 -2.6923
 6490SOL     OW31105   3.443   3.777   3.408  0.4829 -0.2665  0.2674
 6490SOL    HW131106   3.367   3.771   3.350  1.1600 -3.8960 -0.1998
 6490SOL    HW231107   3.521   3.799   3.357 -0.0175 -1.0978 -0.8480
 6491SOL     OW31108   2.431   0.362   8.381 -0.2087  0.3521  0.0858
 6491SOL    HW131109   2.521   0.362   8.414 -0.5056  2.0295  0.8904
 6491SOL    HW231110   2.387   0.426   8.437  1.7607 -1.3640  3.5741
 6492SOL     OW31111   3.002   0.007   3.908 -0.3428 -0.1935  0.1266
 6492SOL    HW131112   3.052   0.086   3.931  0.4330 -0.8672  0.7385
 6492SOL    HW231113   2.922   0.017   3.961  0.4272  1.0352  1.0648
 6493SOL     OW31114   1.019   0.351   9.333 -0.8551  0.2289  0.1484
 6493SOL    HW131115   1.049   0.430   9.288 -1.0894  0.3560  0.2153
 6493SOL    HW231116   1.001   0.388   9.420 -2.7616  0.2438 -0.2552
 6494SOL     OW31117   0.729   3.311   9.164  0.2527  0.2101  0.1260
 6494SOL    HW131118   0.666   3.239   9.157  1.5971 -0.8876 -0.8494
 6494SOL    HW231119   0.812   3.264   9.174 -1.3007 -2.5825 -0.0764
 6495SOL     OW31120   4.044   4.201   5.659  0.2917  0.3253  0.5589
 6495SOL    HW131121   4.139   4.200   5.656  0.3060 -1.1082  1.7726
 6495SOL    HW231122   4.015   4.165   5.575 -0.4974  1.4889  0.3247
 6496SOL     OW31123   0.259   3.785  15.107  0.2506  0.3429 -0.1992
 6496SOL    HW131124   0.235   3.706  15.156  0.1188  0.6670  0.2570
 6496SOL    HW231125   0.349   3.759  15.085  1.0591  0.8760  2.4723
 6497SOL     OW31126   2.619   4.111  11.101  0.2308 -0.1400 -0.1022
 6497SOL    HW131127   2.572   4.145  11.025  1.1392  1.1540 -0.0864
 6497SOL    HW231128   2.554   4.057  11.146  0.7240 -0.3125  0.4072
 6498SOL     OW31129   1.588   1.414   8.149 -0.2583  0.3216 -0.0918
 6498SOL    HW131130   1.511   1.457   8.189 -0.6700 -0.8789  0.3966
 6498SOL    HW231131   1.569   1.321   8.159 -1.8843  0.6180 -0.3850
 6499SOL     OW31132   3.560   0.697   6.044 -0.3190  1.0694  0.1851
 6499SOL    HW131133   3.473   0.691   6.084 -0.3084  0.2705  0.0884
 6499SOL    HW231134   3.609   0.756   6.103 -1.4109  0.2835  1.8725
 6500SOL     OW31135   1.389   0.324   1.861 -0.3331  0.3345  0.6073
 6500SOL    HW131136   1.461   0.350   1.920  0.3076 -1.4571  0.6176
 6500SOL    HW231137   1.352   0.259   1.921  0.7420  2.1414  3.2342
 6501SOL     OW31138   2.956   4.199   5.241  0.3267  0.0828 -0.0317
 6501SOL    HW131139   2.951   4.159   5.154 -2.9797  0.3328  0.0389
 6501SOL    HW231140   2.869   4.238   5.250 -0.1080 -0.7020 -0.8285
 6502SOL     OW31141   4.456   2.479   7.859 -0.3996  0.4978  0.1984
 6502SOL    HW131142   4.408   2.558   7.832 -1.1680 -0.2576 -0.6228
 6502SOL    HW231143   4.546   2.506   7.843  0.8195 -1.6565  3.4955
 6503SOL     OW31144   4.347   4.151   2.535  0.3610  0.7636  1.1174
 6503SOL    HW131145   4.313   4.123   2.620 -1.0769  1.8938  0.9041
 6503SOL    HW231146   4.360   4.067   2.490  2.2804  1.1107  1.0163
 6504SOL     OW31147   4.264   1.150  11.481  0.1547  0.0892 -0.3904
 6504SOL    HW131148   4.188   1.208  11.484  0.4061  0.1670  3.9699
 6504SOL    HW231149   4.321   1.210  11.528  0.5528 -0.6717  0.0991
 6505SOL     OW31150   1.158   1.170   3.134  0.6304 -0.0876 -0.0102
 6505SOL    HW131151   1.160   1.155   3.039 -3.1524 -1.1450  0.0530
 6505SOL    HW231152   1.100   1.246   3.138 -0.3967 -0.7529 -2.0407
 6506SOL     OW31153   2.150   4.290   8.081 -0.1811  0.4134  0.1471
 6506SOL    HW131154   2.192   4.376   8.082 -1.1650  0.9002 -0.2695
 6506SOL    HW231155   2.218   4.239   8.125 -1.8919 -2.4340 -0.4996
 6507SOL     OW31156   1.977   3.374   1.551 -0.1103  0.0830 -0.3162
 6507SOL    HW131157   1.949   3.446   1.608 -0.2914  2.1087 -2.9457
 6507SOL    HW231158   1.899   3.355   1.498  0.7462  1.0920 -1.9268
 6508SOL     OW31159   2.802   2.093   0.461 -0.4240  0.2395 -0.0007
 6508SOL    HW131160   2.723   2.040   0.460 -0.0394 -0.3141 -0.8192
 6508SOL    HW231161   2.815   2.098   0.367  3.2507 -1.5075  0.3869
 6509SOL     OW31162   1.981   4.642   6.619  0.6179 -0.0977 -0.0806
 6509SOL    HW131163   2.031   4.561   6.607  0.1943 -0.2461 -0.8638
 6509SOL    HW231164   1.939   4.624   6.704  0.2804  1.3990  0.0741
 6510SOL     OW31165   2.666   2.355   4.879 -0.0656 -0.0010 -0.1654
 6510SOL    HW131166   2.718   2.404   4.815 -0.4745  1.9347  0.9932
 6510SOL    HW231167   2.622   2.424   4.928 -0.7342 -0.1853 -0.5076
 6511SOL     OW31168   1.857   0.636   2.120  0.2119  0.1658  0.1192
 6511SOL    HW131169   1.891   0.713   2.166  0.4194  1.0823 -1.5544
 6511SOL    HW231170   1.802   0.594   2.186  0.5432  0.2637  0.4601
 6512SOL     OW31171   1.248   1.339  15.161 -0.2786 -0.1272 -0.1643
 6512SOL    HW131172   1.248   1.435  15.168 -2.5368 -0.0379 -1.4076
 6512SOL    HW231173   1.190   1.325  15.086 -0.3587 -1.0231  0.0674
 6513SOL     OW31174   2.360   4.401  10.241 -0.4491 -0.1881 -0.1244
 6513SOL    HW131175   2.438   4.347  10.230  1.6369  2.1319  3.2900
 6513SOL    HW231176   2.360   4.455  10.162  3.0966  0.5251  0.3729
 6514SOL     OW31177   1.368   2.202   7.412 -0.3812  0.0000  0.5007
 6514SOL    HW131178   1.428   2.231   7.482  2.0555 -3.3777 -0.1899
 6514SOL    HW231179   1.340   2.116   7.445 -1.3470  1.1318  2.6524
 6515SOL     OW31180   0.613   2.190  16.604  0.2743 -0.8402  0.5330
 6515SOL    HW131181   0.661   2.173  16.523  0.4141  4.6099 -0.5316
 6515SOL    HW231182   0.554   2.259  16.575 -2.1035 -3.0332  0.2057
 6516SOL     OW31183   1.038   1.992   8.009  0.0712 -0.4649  0.2335
 6516SOL    HW131184   0.986   2.049   8.066  1.1889  0.4540  0.3269
 6516SOL    HW231185   1.091   2.061   7.970 -1.1425  1.0198  1.2196
 6517SOL     OW31186   2.169   1.684   0.390 -0.0591  0.3036 -0.0178
 6517SOL    HW131187   2.168   1.773   0.423  2.0158  1.4162 -2.9398
 6517SOL    HW231188   2.078   1.679   0.359 -0.2626 -0.3870  0.6985
 6518SOL     OW31189   0.270   4.323  16.782  0.2786 -0.4503 -0.4535
 6518SOL    HW131190   0.221   4.359  16.855 -1.1458 -1.2187 -1.0160
 6518SOL    HW231191   0.315   4.253  16.830 -2.5221 -1.0055  1.3661
 6519SOL     OW31192   4.363   1.366   4.568 -0.5899 -0.5993  0.0266
 6519SOL    HW131193   4.281   1.318   4.558  0.3701 -2.0614 -0.7783
 6519SOL    HW231194   4.349   1.422   4.644  1.2375  2.1055 -1.6710
 6520SOL     OW31195   3.822   0.205  15.722  0.2584  0.1785  0.4320
 6520SOL    HW131196   3.898   0.208  15.781  0.0196 -0.0937  0.7591
 6520SOL    HW231197   3.842   0.275  15.661  2.8068 -1.0046 -0.0798
 6521SOL     OW31198   1.755   1.476   0.018 -0.3830  0.4035  0.1899
 6521SOL    HW131199   1.835   1.523  17.757  1.3762 -1.8879  1.6413
 6521SOL    HW231200   1.680   1.530  17.755 -0.3596  0.5667  0.4926
 6522SOL     OW31201   0.433   0.845  16.079  0.4679 -0.3044  0.7532
 6522SOL    HW131202   0.343   0.848  16.047  0.8758  1.9291 -0.2135
 6522SOL    HW231203   0.446   0.752  16.095 -2.7146 -0.8153  0.3482
 6523SOL     OW31204   0.976   1.229   0.893  0.2032 -0.1939 -0.5007
 6523SOL    HW131205   0.980   1.287   0.969  2.6290  2.0734 -2.3487
 6523SOL    HW231206   0.884   1.238   0.868 -0.2337  2.5946  2.0440
 6524SOL     OW31207   3.237   3.587   4.427 -0.3404 -0.1685  0.3755
 6524SOL    HW131208   3.233   3.605   4.521 -3.0996  0.2910  0.1845
 6524SOL    HW231209   3.274   3.667   4.390  1.2744 -1.7281 -1.3424
 6525SOL     OW31210   2.212   0.425   4.363  0.3402 -0.6032  0.5784
 6525SOL    HW131211   2.139   0.450   4.307 -1.4790 -0.6742  2.9064
 6525SOL    HW231212   2.179   0.471   4.440  1.0470 -0.2635  0.6800
 6526SOL     OW31213   0.024   2.137   9.439 -0.4692 -0.1004  0.2631
 6526SOL    HW131214   4.735   2.199   9.372 -0.2936  0.7798  1.0017
 6526SOL    HW231215   0.018   2.186   9.522 -3.0966  1.0341 -0.5878
 6527SOL     OW31216   1.999   0.307   9.554 -0.2976  0.8409  0.6283
 6527SOL    HW131217   1.943   0.326   9.479  0.2953  0.9450  0.2069
 6527SOL    HW231218   2.006   0.392   9.598  0.5321  0.7251  0.7313
 6528SOL     OW31219   1.615   3.212   6.378 -0.5595 -0.2177 -0.2174
 6528SOL    HW131220   1.590   3.286   6.324  0.5256 -0.1721 -0.6453
 6528SOL    HW231221   1.604   3.141   6.315  1.1621 -0.4807 -0.2273
 6529SOL     OW31222   1.036   1.197   9.567  0.7354  0.1118 -0.4522
 6529SOL    HW131223   1.028   1.225   9.476 -4.0450 -1.3340 -0.4760
 6529SOL    HW231224   1.122   1.156   9.572  0.8852  0.2258 -2.0582
 6530SOL     OW31225   1.637   0.313   3.938 -0.0884 -0.2885 -0.5831
 6530SOL    HW131226   1.664   0.230   3.897  0.8278  1.0247 -2.6475
 6530SOL    HW231227   1.552   0.327   3.896 -1.0891 -0.6952  1.3185
 6531SOL     OW31228   1.365   1.938   2.257 -0.1518 -0.3067 -0.2464
 6531SOL    HW131229   1.383   1.880   2.331 -0.9901  0.6190  0.6812
 6531SOL    HW231230   1.370   2.027   2.291 -2.6644 -0.0686 -0.4838
 6532SOL     OW31231   1.981   4.667   2.090  0.6160 -0.5234 -0.7749
 6532SOL    HW131232   2.058   4.674   2.033  2.0030  0.0190  1.1694
 6532SOL    HW231233   1.926   4.599   2.050 -0.3336 -1.2527  1.7944
 6533SOL     OW31234   3.351   2.649   6.431  0.4811  0.4503 -0.3183
 6533SOL    HW131235   3.305   2.588   6.373 -1.8786 -0.5472  2.6194
 6533SOL    HW231236   3.285   2.675   6.495  0.1287 -2.7216  0.5919
 6534SOL     OW31237   4.177   3.827   8.417  0.1228  0.2298  0.2913
 6534SOL    HW131238   4.127   3.797   8.493  0.1810 -3.4731 -1.1543
 6534SOL    HW231239   4.131   3.911   8.413 -0.1202  0.0898  0.1132
 6535SOL     OW31240   2.295   1.557   2.345  0.0993  0.0055  0.2829
 6535SOL    HW131241   2.293   1.500   2.421 -0.2866  3.6043  2.9915
 6535SOL    HW231242   2.261   1.509   2.269 -1.3300  0.2377  0.7785
 6536SOL     OW31243   2.475   1.727  15.106  0.1281  0.2503  0.0297
 6536SOL    HW131244   2.499   1.669  15.178 -0.6683  1.9829  1.6519
 6536SOL    HW231245   2.507   1.809  15.143  0.0854  1.0251 -1.6403
 6537SOL     OW31246   3.255   4.075  12.665 -0.2786 -0.0836 -0.1896
 6537SOL    HW131247   3.239   4.048  12.575  1.2117  1.8766 -1.0551
 6537SOL    HW231248   3.195   4.150  12.668  0.3960  0.4223  0.6083
 6538SOL     OW31249   0.217   2.883   5.021 -0.4328 -0.3668  0.4483
 6538SOL    HW131250   0.229   2.853   4.931 -0.1889 -2.1486  1.0643
 6538SOL    HW231251   0.272   2.961   5.018 -1.5517  0.5242  2.8899
 6539SOL     OW31252   3.707   1.736   6.821  0.5454 -0.0820 -0.2331
 6539SOL    HW131253   3.758   1.778   6.751 -0.6204 -0.6935 -1.4514
 6539SOL    HW231254   3.731   1.646   6.798  3.0658  0.9066 -1.4703
 6540SOL     OW31255   1.935   1.117   6.834  0.1068  0.1717  0.8523
 6540SOL    HW131256   1.949   1.107   6.928  0.4039  2.5019  1.0412
 6540SOL    HW231257   1.848   1.081   6.815 -0.6358  2.7901 -0.6048
 6541SOL     OW31258   3.915   1.990   4.372  0.0941 -0.0331 -0.0620
 6541SOL    HW131259   3.824   2.017   4.384 -0.3494 -1.6796  0.1762
 6541SOL    HW231260   3.893   1.898   4.364 -0.8757  0.0058  2.1113
 6542SOL     OW31261   4.591   1.554   7.357 -0.6923  0.0212 -0.4760
 6542SOL    HW131262   4.623   1.611   7.287 -1.4728  0.4635 -0.4731
 6542SOL    HW231263   4.530   1.498   7.308 -1.4660  0.1833  0.2977
 6543SOL     OW31264   3.223   3.223  13.281  0.2874 -0.3364 -0.3174
 6543SOL    HW131265   3.140   3.204  13.323 -0.0011 -0.9666 -1.1637
 6543SOL    HW231266   3.183   3.241  13.196 -2.6419 -1.6200  0.8137
 6544SOL     OW31267   4.656   4.126  10.554 -0.0765  0.1854  0.5115
 6544SOL    HW131268   4.635   4.208  10.599  0.9040 -0.7800  2.7635
 6544SOL    HW231269   4.593   4.059  10.584 -1.4945  0.7546 -1.2173
 6545SOL     OW31270   0.782   1.033   3.564 -0.9116 -0.4438 -0.3423
 6545SOL    HW131271   0.822   1.044   3.478 -1.0916 -2.1680 -0.6318
 6545SOL    HW231272   0.756   1.123   3.586  0.6042  0.2325 -1.4020
 6546SOL     OW31273   2.529   1.207   3.309  0.6396 -0.1902  0.3718
 6546SOL    HW131274   2.620   1.208   3.339  0.2852 -0.9158  1.4830
 6546SOL    HW231275   2.524   1.127   3.257  1.2457  0.9052 -1.3517
 6547SOL     OW31276   0.738   2.488   8.362 -0.5370 -0.1795 -0.3670
 6547SOL    HW131277   0.709   2.566   8.409 -2.3248 -1.0889  0.0526
 6547SOL    HW231278   0.681   2.507   8.287  0.1433  1.1717 -0.5284
 6548SOL     OW31279   3.943   0.354  14.064 -0.1989 -0.1776 -0.0631
 6548SOL    HW131280   3.905   0.414  14.128  1.6653 -1.3240  2.1003
 6548SOL    HW231281   3.872   0.346  14.000  0.0412 -1.2658 -0.1883
 6549SOL     OW31282   1.439   2.122   6.772 -0.1960  0.0456  0.1289
 6549SOL    HW131283   1.349   2.119   6.802  0.3240 -3.3237  1.3059
 6549SOL    HW231284   1.491   2.156   6.845 -2.2889 -2.4878  2.7586
 6550SOL     OW31285   0.977   2.490   8.238  0.1457  0.0262 -0.0267
 6550SOL    HW131286   0.892   2.486   8.283  0.7430  2.2026  1.3073
 6550SOL    HW231287   0.959   2.450   8.153  1.3198  1.3288 -0.8709
 6551SOL     OW31288   0.628   2.451   0.047  0.3290  0.5269  0.1480
 6551SOL    HW131289   0.647   2.437  17.715 -3.1586  1.1378 -0.6606
 6551SOL    HW231290   0.650   2.368   0.088 -1.9737  0.8330  1.9978
 6552SOL     OW31291   1.153   0.947   4.007  0.1053  0.1865  0.3208
 6552SOL    HW131292   1.067   0.986   3.992 -0.4988 -1.5438 -0.6036
 6552SOL    HW231293   1.135   0.858   4.035  3.0695 -0.6265 -0.4124
 6553SOL     OW31294   0.483   1.041   5.536 -0.4227 -0.1499 -0.0688
 6553SOL    HW131295   0.524   1.094   5.605  0.6776 -0.8075 -0.2050
 6553SOL    HW231296   0.431   0.979   5.587  0.2248 -1.2865 -0.7843
 6554SOL     OW31297   4.357   2.181   5.489 -0.2361 -0.3667 -0.1664
 6554SOL    HW131298   4.304   2.166   5.411  1.4085  0.8459 -1.5099
 6554SOL    HW231299   4.366   2.088   5.513 -2.9553 -0.2710  1.2389
 6555SOL     OW31300   1.807   4.505   1.949 -0.2995  0.2147 -0.0977
 6555SOL    HW131301   1.788   4.423   1.903 -2.7559  0.5572  0.3548
 6555SOL    HW231302   1.722   4.528   1.986 -1.0947  1.0651 -2.4716
 6556SOL     OW31303   0.261   1.751   8.900  0.5544  0.3989 -0.4867
 6556SOL    HW131304   0.350   1.716   8.907  1.8361  3.4894 -1.0480
 6556SOL    HW231305   0.252   1.812   8.974 -1.3557  1.0230 -1.2211
 6557SOL     OW31306   1.573   0.393   2.496 -0.0924  0.5976 -0.4215
 6557SOL    HW131307   1.564   0.474   2.547  0.4107  1.0504 -1.0613
 6557SOL    HW231308   1.530   0.330   2.554 -0.8422 -0.1984 -1.8505
 6558SOL     OW31309   2.922   1.281  11.220  0.1448  0.5296  0.0438
 6558SOL    HW131310   2.954   1.267  11.131  0.7269  3.6137 -0.2197
 6558SOL    HW231311   2.968   1.353  11.263 -0.1249 -0.0128  1.2344
 6559SOL     OW31312   3.617   1.518   1.631 -0.5699  0.4802 -0.6283
 6559SOL    HW131313   3.683   1.586   1.645 -0.6514  0.1933  1.1373
 6559SOL    HW231314   3.541   1.545   1.682  0.5562  0.5889  0.9723
 6560SOL     OW31315   0.203   2.525  11.257 -0.0396  0.5269 -0.5634
 6560SOL    HW131316   0.224   2.460  11.190  2.1725  0.5189  0.1486
 6560SOL    HW231317   0.262   2.492  11.325 -0.3950  1.4497  0.1920
 6561SOL     OW31318   1.201   3.667   2.463 -0.8250 -0.8128 -0.6310
 6561SOL    HW131319   1.256   3.744   2.446 -2.1523  0.3816  0.4783
 6561SOL    HW231320   1.257   3.610   2.515  1.1702  1.1690 -0.6135
 6562SOL     OW31321   3.840   2.954   2.509  0.4310  0.3567 -0.5658
 6562SOL    HW131322   3.909   2.998   2.460  1.1519 -2.6582 -2.2380
 6562SOL    HW231323   3.857   2.975   2.601 -2.3642 -0.6393  0.1679
 6563SOL     OW31324   0.080   2.319  11.634  0.2048  0.0206  0.3403
 6563SOL    HW131325   4.738   2.272  11.642  0.0186 -0.3713 -3.8576
 6563SOL    HW231326   0.129   2.261  11.576 -0.2575  0.2257 -0.2583
 6564SOL     OW31327   0.731   0.775   5.857  0.2182  0.0783 -0.1495
 6564SOL    HW131328   0.761   0.759   5.767  2.1460 -2.2258  0.8756
 6564SOL    HW231329   0.645   0.733   5.854  0.4580 -0.5375  1.5231
 6565SOL     OW31330   2.074   1.732   9.630 -0.2474 -0.4185 -0.3378
 6565SOL    HW131331   2.078   1.780   9.713 -0.6712 -1.3842  0.2388
 6565SOL    HW231332   2.004   1.670   9.651  0.6739 -0.5441  2.2743
 6566SOL     OW31333   4.421   2.989   3.290  0.2515 -0.4561 -0.3533
 6566SOL    HW131334   4.413   3.074   3.247  1.5316 -0.6796 -1.0380
 6566SOL    HW231335   4.336   2.950   3.273  0.0096  0.7312 -1.8370
 6567SOL     OW31336   4.630   1.768  10.981  0.3592  0.0773 -0.0091
 6567SOL    HW131337   4.596   1.784  11.069 -0.4109 -0.2593 -0.2456
 6567SOL    HW231338   4.724   1.776  10.998  0.3921 -1.6805  0.6286
 6568SOL     OW31339   1.355   0.776   3.910 -0.3644 -0.1404  0.1303
 6568SOL    HW131340   1.413   0.761   3.985 -1.8305 -0.4157  1.2077
 6568SOL    HW231341   1.294   0.839   3.949 -0.6949 -0.7172  0.5417
 6569SOL     OW31342   1.391   0.372  10.140  0.0869  0.0173  0.1567
 6569SOL    HW131343   1.423   0.441  10.200 -1.3357 -0.0816  1.0181
 6569SOL    HW231344   1.378   0.426  10.063  1.9418  1.2316  0.6842
 6570SOL     OW31345   4.436   1.974   8.398 -0.3835  0.1134 -0.7796
 6570SOL    HW131346   4.494   1.956   8.472  0.1438 -0.0150 -1.2306
 6570SOL    HW231347   4.447   1.904   8.334 -2.3064  0.4349 -1.4724
 6571SOL     OW31348   2.964   2.306  15.708  0.0913 -0.0460  0.5614
 6571SOL    HW131349   2.962   2.392  15.750 -1.5943 -0.4069  1.2148
 6571SOL    HW231350   2.962   2.254  15.788 -1.5337 -0.9722 -0.0684
 6572SOL     OW31351   3.412   2.757  17.598 -0.7514 -0.0312 -0.6632
 6572SOL    HW131352   3.504   2.784  17.597 -1.0334  1.0596  1.3728
 6572SOL    HW231353   3.397   2.713  17.682 -1.0058  0.4213 -0.4736
 6573SOL     OW31354   4.416   0.086   4.515 -0.5412 -0.4063  0.2180
 6573SOL    HW131355   4.373   0.007   4.483  1.1659 -0.5512 -1.7340
 6573SOL    HW231356   4.366   0.159   4.478 -1.4567 -0.9709  0.3460
 6574SOL     OW31357   4.308   2.847   5.028 -0.1758  0.1080 -0.3741
 6574SOL    HW131358   4.318   2.866   5.121 -0.7068  1.8726 -0.6725
 6574SOL    HW231359   4.337   2.757   5.042 -0.4053 -0.2200 -2.0195
 6575SOL     OW31360   3.717   2.232   5.539 -0.0369 -0.3880  0.1582
 6575SOL    HW131361   3.769   2.185   5.604 -1.0072 -2.0307 -0.2269
 6575SOL    HW231362   3.788   2.239   5.476  0.2554  4.0272  1.0263
 6576SOL     OW31363   1.386   3.609  16.714  0.4417 -0.5671 -0.3830
 6576SOL    HW131364   1.348   3.555  16.645  0.1259 -0.5580 -0.2132
 6576SOL    HW231365   1.312   3.630  16.771  1.0900  0.4525  0.0743
 6577SOL     OW31366   4.448   0.406   0.785  0.3642  0.1517  0.3028
 6577SOL    HW131367   4.395   0.472   0.738  0.4597 -0.0855 -0.1419
 6577SOL    HW231368   4.528   0.409   0.733  0.3559 -0.7400  0.2463
 6578SOL     OW31369   1.587   4.474  13.657 -0.1664  0.1834  0.3914
 6578SOL    HW131370   1.605   4.554  13.608 -0.9531 -0.9655 -1.7833
 6578SOL    HW231371   1.530   4.500  13.729 -2.6257 -0.6379 -1.2461
 6579SOL     OW31372   3.318   4.448   3.769 -0.2377 -0.5021 -0.5448
 6579SOL    HW131373   3.331   4.379   3.704  1.7275  0.1876 -0.8686
 6579SOL    HW231374   3.406   4.472   3.795  0.9604 -2.6904 -2.6254
 6580SOL     OW31375   2.714   3.657   1.056 -0.3691  0.1793 -0.0785
 6580SOL    HW131376   2.799   3.619   1.033  0.2813  0.7800  1.2863
 6580SOL    HW231377   2.703   3.732   0.997  0.5147  0.2728 -0.1362
 6581SOL     OW31378   2.744   3.414   8.480  0.4512  0.4319  0.2214
 6581SOL    HW131379   2.761   3.500   8.440 -2.8486  1.0642  0.1191
 6581SOL    HW231380   2.824   3.394   8.528 -1.2578 -2.3624  1.8902
 6582SOL     OW31381   0.101   0.411   5.257  0.0272 -0.1155 -0.1964
 6582SOL    HW131382   0.193   0.393   5.237 -0.0102 -1.4421  0.8027
 6582SOL    HW231383   0.065   0.338   5.207 -0.4548 -0.3737  0.5253
 6583SOL     OW31384   2.934   1.740   6.042  0.3650 -1.3836  0.2906
 6583SOL    HW131385   2.992   1.813   6.017 -3.3197  1.1227 -0.9147
 6583SOL    HW231386   2.900   1.720   5.955  0.0631 -1.7237  0.4897
 6584SOL     OW31387   4.055   3.848   8.684  0.1302  0.0716 -0.0641
 6584SOL    HW131388   4.066   3.829   8.777  0.4514  2.3521  0.3536
 6584SOL    HW231389   4.134   3.902   8.682  0.8027 -0.9336 -0.6730
 6585SOL     OW31390   3.668   2.807  11.188 -0.3173 -0.4672 -0.2704
 6585SOL    HW131391   3.682   2.762  11.105 -3.0419  0.0886 -1.0254
 6585SOL    HW231392   3.579   2.777  11.204 -0.7730 -0.0697 -2.0476
 6586SOL     OW31393   0.152   2.572  12.016  0.3210 -0.2977  0.3300
 6586SOL    HW131394   0.128   2.510  12.084 -0.7794 -1.6171 -1.2602
 6586SOL    HW231395   0.084   2.547  11.952 -0.6666 -0.0837  1.2958
 6587SOL     OW31396   2.437   2.156   6.473  0.3186 -0.0186 -0.0795
 6587SOL    HW131397   2.485   2.082   6.438  2.0525  0.7113  0.7785
 6587SOL    HW231398   2.472   2.226   6.417  0.9530  0.8491  1.4134
 6588SOL     OW31399   3.593   0.450   2.639 -0.3931  0.6557 -0.6807
 6588SOL    HW131400   3.676   0.472   2.595 -0.2593 -0.6936 -1.0799
 6588SOL    HW231401   3.568   0.364   2.606  0.1113 -0.7450  2.6065
 6589SOL     OW31402   1.659   3.984   1.236 -0.5569  0.1709  0.7144
 6589SOL    HW131403   1.589   4.046   1.215  0.7249  1.2700 -0.3075
 6589SOL    HW231404   1.732   4.018   1.183  0.6570 -2.0491  0.9548
 6590SOL     OW31405   1.751   0.936  12.990  0.3573  0.0164  0.0624
 6590SOL    HW131406   1.739   1.025  13.022 -2.5506  0.5201 -2.4616
 6590SOL    HW231407   1.812   0.946  12.918 -1.0204 -0.4681 -1.1725
 6591SOL     OW31408   4.486   4.643   8.900  0.1418  0.1420  0.2558
 6591SOL    HW131409   4.413   4.628   8.959  0.5588 -0.6978  0.5533
 6591SOL    HW231410   4.445   4.635   8.814 -0.4179 -3.0265  0.8294
 6592SOL     OW31411   3.597   2.549   0.307  0.4552 -0.3639 -0.1442
 6592SOL    HW131412   3.557   2.605   0.240  0.1807 -1.3228 -0.7723
 6592SOL    HW231413   3.519   2.552   0.363  0.3631  0.4336 -0.3056
 6593SOL     OW31414   4.654   0.403   4.265  0.2577  0.3991  0.4389
 6593SOL    HW131415   4.596   0.478   4.254 -0.6612 -0.3799 -0.1631
 6593SOL    HW231416   4.729   0.433   4.214 -0.4051 -0.0713 -0.8366
 6594SOL     OW31417   3.096   1.955   5.892 -0.0004 -0.1427 -0.2145
 6594SOL    HW131418   3.159   1.972   5.823 -0.4607 -0.7311 -0.7774
 6594SOL    HW231419   3.035   2.027   5.879  2.0319  1.4433 -0.9348
 6595SOL     OW31420   0.766   0.552   9.263 -0.4948 -0.1769  0.4030
 6595SOL    HW131421   0.774   0.479   9.202 -1.4799 -0.1548  0.2481
 6595SOL    HW231422   0.764   0.504   9.346 -1.3258  2.0637  1.6613
 6596SOL     OW31423   4.569   3.955   8.670  0.0715 -0.4504 -0.4651
 6596SOL    HW131424   4.664   3.962   8.661  0.3363 -1.7809  1.1991
 6596SOL    HW231425   4.552   4.026   8.733  1.3585  0.2041 -0.8481
 6597SOL     OW31426   1.921   2.437   2.944 -0.3533 -0.2169  0.1795
 6597SOL    HW131427   1.862   2.374   2.903 -1.7533  0.8161  0.6402
 6597SOL    HW231428   1.945   2.378   3.016  2.8714  0.4110 -0.3537
 6598SOL     OW31429   2.007   3.090   5.961  0.1405  0.2976 -0.0145
 6598SOL    HW131430   1.988   3.013   5.907 -2.4315  1.0888 -0.1909
 6598SOL    HW231431   2.058   3.149   5.906  0.1881  1.0363  0.8178
 6599SOL     OW31432   0.195   2.961  11.961  0.3145 -0.3553  0.1892
 6599SOL    HW131433   0.251   2.893  11.923 -3.2075 -3.3607  0.4429
 6599SOL    HW231434   0.183   2.996  11.873 -0.6016 -1.3016 -0.0686
 6600SOL     OW31435   3.616   2.188   3.234 -0.0716 -0.3656 -0.0481
 6600SOL    HW131436   3.586   2.279   3.233 -1.2989 -0.7906 -1.3811
 6600SOL    HW231437   3.610   2.162   3.142  0.2768 -0.5394 -0.0223
 6601SOL     OW31438   4.318   2.435   6.525  0.2333 -0.1494 -0.7388
 6601SOL    HW131439   4.392   2.385   6.490  0.9820  0.5875 -0.2175
 6601SOL    HW231440   4.348   2.526   6.517 -1.9617  0.5959 -0.4689
 6602SOL     OW31441   0.221   0.902   5.389 -0.4034  0.1994 -0.0905
 6602SOL    HW131442   0.249   0.989   5.361  0.1702  0.1451  0.3077
 6602SOL    HW231443   0.290   0.866   5.444  0.8027  0.1976 -1.5917
 6603SOL     OW31444   4.125   4.126   4.153  0.7197  0.4500 -0.6521
 6603SOL    HW131445   4.197   4.063   4.152  2.0515  1.9533  1.4793
 6603SOL    HW231446   4.098   4.115   4.244  2.8749  3.2341  0.2957
 6604SOL     OW31447   0.368   4.345   8.725  0.6497  0.4275 -0.2147
 6604SOL    HW131448   0.386   4.369   8.817  2.0560 -0.6668 -0.2088
 6604SOL    HW231449   0.356   4.431   8.686 -0.9786  1.1714  1.8566
 6605SOL     OW31450   2.885   2.662   8.929 -0.5698 -0.0724 -0.5433
 6605SOL    HW131451   2.910   2.729   8.865 -0.7123  0.1066 -0.4114
 6605SOL    HW231452   2.942   2.591   8.899 -2.3529 -1.0296 -1.6198
 6606SOL     OW31453   3.822   1.893   4.716  0.7657  0.4731 -0.7017
 6606SOL    HW131454   3.860   1.969   4.760  0.7064  0.2574 -0.2879
 6606SOL    HW231455   3.882   1.826   4.748 -1.6250 -1.2135  0.2067
 6607SOL     OW31456   2.071   0.124   2.257  0.0823 -0.3222 -0.2277
 6607SOL    HW131457   2.011   0.198   2.262  1.7361  0.9277  1.2278
 6607SOL    HW231458   2.023   0.075   2.190 -1.3559  2.3731 -1.1642
 6608SOL     OW31459   2.935   4.144   7.106 -0.4834  0.4104  0.1328
 6608SOL    HW131460   2.895   4.225   7.074 -0.5173  1.3402  2.4623
 6608SOL    HW231461   2.931   4.163   7.200  0.2880  1.4535 -0.0355
 6609SOL     OW31462   2.987   2.252   8.553  0.3185 -0.3996 -0.0552
 6609SOL    HW131463   3.027   2.194   8.619 -0.5576  0.1677  0.9551
 6609SOL    HW231464   2.898   2.262   8.584 -0.0482  0.4526 -1.3811
 6610SOL     OW31465   0.270   1.551  15.348  0.2552 -0.2624 -0.6857
 6610SOL    HW131466   0.331   1.575  15.278  2.4466  0.0285  1.3495
 6610SOL    HW231467   0.329   1.531  15.420 -2.2034 -0.7972  1.1736
 6611SOL     OW31468   3.193   2.885  11.989 -0.1868  0.3728  0.7606
 6611SOL    HW131469   3.187   2.975  12.022  1.8011  0.5347  0.6887
 6611SOL    HW231470   3.119   2.872  11.930  0.9974 -1.6230 -0.2640
 6612SOL     OW31471   2.888   2.129   6.099  0.1911  0.0753 -0.5175
 6612SOL    HW131472   2.936   2.136   6.016 -2.9015 -2.2741 -2.5066
 6612SOL    HW231473   2.805   2.101   6.060 -0.0309  0.4905 -0.3458
 6613SOL     OW31474   1.369   3.334   0.899  0.1308 -0.2057  0.0077
 6613SOL    HW131475   1.377   3.248   0.940  3.0209  0.3735  0.6250
 6613SOL    HW231476   1.462   3.352   0.892 -0.1987  0.9525 -1.3558
 6614SOL     OW31477   1.047   1.786  13.413  0.1910 -0.5057  0.4971
 6614SOL    HW131478   0.996   1.729  13.471 -0.0605  0.2450  1.0109
 6614SOL    HW231479   1.068   1.866  13.461  2.9856 -1.0529  0.1637
 6615SOL     OW31480   2.393   1.506   4.762 -0.5678 -0.4272  0.6385
 6615SOL    HW131481   2.371   1.569   4.830 -1.7580 -0.9875  0.7850
 6615SOL    HW231482   2.311   1.461   4.739  1.3703 -2.4109 -2.3826
 6616SOL     OW31483   4.072   0.194   5.138 -0.4739  0.1872 -0.4788
 6616SOL    HW131484   4.121   0.267   5.175  1.2775 -0.6522 -1.1422
 6616SOL    HW231485   4.111   0.123   5.188  1.6032  0.0812 -2.2683
 6617SOL     OW31486   2.399   4.296   3.277  0.0599  0.1620  0.2083
 6617SOL    HW131487   2.471   4.354   3.252  0.5161 -0.1811  0.7263
 6617SOL    HW231488   2.324   4.336   3.234 -0.3867 -2.5454 -1.5219
 6618SOL     OW31489   2.355   0.859   6.430 -0.0557  0.1056  0.5571
 6618SOL    HW131490   2.337   0.819   6.345 -1.1100 -0.8929  1.2410
 6618SOL    HW231491   2.277   0.909   6.454 -1.6292 -2.7878  1.5718
 6619SOL     OW31492   0.918   3.736   5.433 -0.1480  0.4218 -0.0751
 6619SOL    HW131493   0.920   3.805   5.367  1.8965  1.6788  1.2965
 6619SOL    HW231494   0.882   3.782   5.508  2.2473  0.1754  1.2311
 6620SOL     OW31495   3.978   0.554   6.645  0.1254 -0.3299  0.0521
 6620SOL    HW131496   3.998   0.555   6.739  2.0189  0.7974 -0.3642
 6620SOL    HW231497   4.003   0.462   6.644 -2.3473 -0.9915 -0.8051
 6621SOL     OW31498   4.620   4.677  17.585 -0.1844 -0.2307 -0.2708
 6621SOL    HW131499   4.693   4.623  17.555 -1.4362 -2.1521  0.1875
 6621SOL    HW231500   4.625   4.734  17.508 -0.2111  3.7866  2.7098
 6622SOL     OW31501   4.264   3.472   8.652  1.1844  0.3273 -0.1291
 6622SOL    HW131502   4.319   3.396   8.633 -0.4468 -0.3764 -2.0447
 6622SOL    HW231503   4.304   3.552   8.618 -0.7884  1.3076 -0.1223
 6623SOL     OW31504   3.833   2.228   8.026 -0.6245 -0.5405  0.2756
 6623SOL    HW131505   3.780   2.149   8.013 -2.1519  0.3173  1.1598
 6623SOL    HW231506   3.910   2.203   8.076 -0.6135  2.1721  1.5933
 6624SOL     OW31507   1.245   0.760   7.226 -0.2029 -0.2439 -0.5383
 6624SOL    HW131508   1.201   0.839   7.256  0.2661  0.0915 -0.7378
 6624SOL    HW231509   1.261   0.777   7.133  2.1946  2.3856  0.3617
 6625SOL     OW31510   2.135   0.423  10.762 -0.1231 -0.6593  0.2060
 6625SOL    HW131511   2.140   0.492  10.695  1.0307  0.1937  1.1627
 6625SOL    HW231512   2.045   0.395  10.750 -0.2693 -0.0129 -0.2350
 6626SOL     OW31513   1.779   1.560   7.416  0.5740  0.5470  0.4408
 6626SOL    HW131514   1.780   1.508   7.496 -1.6079 -2.3836 -1.4457
 6626SOL    HW231515   1.689   1.591   7.429 -0.6447 -2.7034 -0.2307
 6627SOL     OW31516   3.743   3.531  10.890 -0.2475 -0.1756  0.0786
 6627SOL    HW131517   3.728   3.467  10.821  1.0318 -0.2274 -0.1547
 6627SOL    HW231518   3.825   3.508  10.934  1.3901 -0.3925 -3.0666
 6628SOL     OW31519   2.425   4.094   7.176  0.0514  0.3144 -0.4368
 6628SOL    HW131520   2.339   4.135   7.171 -0.1261  0.2291  2.2817
 6628SOL    HW231521   2.416   4.012   7.127  0.4533 -1.2018  2.0561
 6629SOL     OW31522   2.768   1.978   6.536 -0.2774 -0.1529  0.4572
 6629SOL    HW131523   2.829   1.905   6.527 -1.4085 -1.2868  1.9452
 6629SOL    HW231524   2.743   1.977   6.629  0.6308 -1.2095  0.6869
 6630SOL     OW31525   0.066   2.089   8.299 -0.4305  0.5816 -0.2828
 6630SOL    HW131526   4.722   2.113   8.260 -0.5091 -0.3783 -0.7044
 6630SOL    HW231527   0.087   2.004   8.260 -2.0518 -0.2205  0.5789
 6631SOL     OW31528   1.952   0.998   6.333 -0.5743 -0.0702  0.6708
 6631SOL    HW131529   2.029   1.046   6.300 -1.2215  0.0083 -0.7323
 6631SOL    HW231530   1.885   1.062   6.356 -0.4606  0.8441 -1.5023
 6632SOL     OW31531   1.426   1.864  13.613 -0.0997  0.1345  0.1753
 6632SOL    HW131532   1.479   1.908  13.679 -0.1022  1.3714 -0.6527
 6632SOL    HW231533   1.437   1.774  13.644 -2.7649 -0.4873 -0.6717
 6633SOL     OW31534   1.416   3.544  10.873 -0.4099  0.2189 -0.0620
 6633SOL    HW131535   1.379   3.562  10.959 -2.1804  0.1517 -0.7881
 6633SOL    HW231536   1.344   3.504  10.824  0.5635  0.1615 -1.4433
 6634SOL     OW31537   4.454   1.398   8.311 -0.3129 -0.3344 -0.1262
 6634SOL    HW131538   4.485   1.318   8.268 -0.0475 -0.5901  0.5351
 6634SOL    HW231539   4.538   1.444   8.313 -0.8778  0.6252  1.6691
 6635SOL     OW31540   2.134   0.992   9.169  0.6321  0.7002  0.2850
 6635SOL    HW131541   2.078   1.012   9.244  0.4883  0.4956  0.2349
 6635SOL    HW231542   2.194   1.065   9.162  0.4433  0.6698 -1.9464
 6636SOL     OW31543   4.006   2.280  16.572  0.4863 -0.0171 -0.9796
 6636SOL    HW131544   3.978   2.276  16.663  0.0840 -0.4284 -1.1219
 6636SOL    HW231545   4.077   2.343  16.574 -0.7241  1.3463 -1.3855
 6637SOL     OW31546   2.855   3.196   9.313 -0.1808  0.3129 -0.1351
 6637SOL    HW131547   2.778   3.140   9.304  0.7027 -0.6887 -1.4566
 6637SOL    HW231548   2.909   3.146   9.375 -0.0454 -0.7614 -1.1300
 6638SOL     OW31549   0.696   0.815  16.727  0.1654 -0.0820  0.4349
 6638SOL    HW131550   0.755   0.835  16.800 -1.9782  0.6187  1.9926
 6638SOL    HW231551   0.744   0.754  16.671 -0.6675 -1.7882  1.5844
 6639SOL     OW31552   2.473   3.459  15.023  0.4076  0.1436 -0.0778
 6639SOL    HW131553   2.503   3.374  15.053 -1.5389  0.5981  3.2493
 6639SOL    HW231554   2.496   3.445  14.931  0.1039 -0.4276 -0.0630
 6640SOL     OW31555   0.207   2.092  11.881 -0.0542  0.1954  0.5638
 6640SOL    HW131556   0.207   2.182  11.849 -1.4610 -0.0084 -0.0242
 6640SOL    HW231557   0.289   2.096  11.931  1.2012 -0.4767 -1.4422
 6641SOL     OW31558   1.607   4.156  12.979 -0.0138 -0.5576  0.3080
 6641SOL    HW131559   1.524   4.152  12.932  0.5220  3.3355 -0.9485
 6641SOL    HW231560   1.611   4.251  12.991 -0.7754 -0.6054  0.9392
 6642SOL     OW31561   4.272   1.761  11.240  0.5405  0.5870  0.7318
 6642SOL    HW131562   4.218   1.716  11.305 -2.4098 -0.2130 -2.2443
 6642SOL    HW231563   4.206   1.779  11.173  1.5562 -0.3498 -0.5169
 6643SOL     OW31564   3.365   1.177  16.090 -0.1960 -0.0668 -0.5674
 6643SOL    HW131565   3.373   1.090  16.051  2.3529  0.0191 -0.2361
 6643SOL    HW231566   3.440   1.158  16.147 -0.4962  0.7861  0.1072
 6644SOL     OW31567   1.590   0.708   2.289 -0.6752  0.0168 -0.2284
 6644SOL    HW131568   1.569   0.799   2.267 -1.6783 -0.8123 -2.7499
 6644SOL    HW231569   1.668   0.715   2.344 -0.0182 -0.0448 -1.1540
 6645SOL     OW31570   0.234   1.864   7.069 -0.1322  0.6975  0.1723
 6645SOL    HW131571   0.260   1.793   7.011 -1.4417 -1.5035  2.2850
 6645SOL    HW231572   0.272   1.829   7.149  2.2282 -1.3704 -1.8600
 6646SOL     OW31573   1.338   1.312   8.416 -0.4263 -0.2401 -0.2150
 6646SOL    HW131574   1.249   1.340   8.441 -0.6986 -0.9600 -0.3865
 6646SOL    HW231575   1.334   1.217   8.421 -2.5553  0.0605  3.3361
 6647SOL     OW31576   0.005   1.604   3.169  0.3021  0.0691  0.0939
 6647SOL    HW131577   0.088   1.637   3.135  0.6128  0.2935  1.0786
 6647SOL    HW231578   0.025   1.591   3.262 -0.1296  0.6404  0.2692
 6648SOL     OW31579   0.874   1.057   8.867 -0.2154 -0.2229  0.1624
 6648SOL    HW131580   0.953   1.004   8.868  0.1287  0.2923  0.3013
 6648SOL    HW231581   0.896   1.120   8.798  1.0815 -1.7832 -0.8625
 6649SOL     OW31582   3.433   1.981   2.018  0.1544 -0.3679 -0.0384
 6649SOL    HW131583   3.425   2.014   1.928 -2.2166  1.2722  0.7722
 6649SOL    HW231584   3.379   2.048   2.061 -0.9277 -0.6055 -1.0043
 6650SOL     OW31585   4.210   2.886   7.331 -0.5404 -0.1214  0.0857
 6650SOL    HW131586   4.288   2.833   7.320  0.1867  0.7884  0.8867
 6650SOL    HW231587   4.227   2.962   7.276  1.3410 -0.4376  0.2500
 6651SOL     OW31588   4.625   4.667   4.362  0.0777 -0.3564 -0.3726
 6651SOL    HW131589   4.585   4.740   4.409 -0.7976 -0.5871 -0.7601
 6651SOL    HW231590   4.660   4.611   4.430  1.2999  1.9217  0.8751
 6652SOL     OW31591   2.282   2.141   6.949 -0.0186 -0.2889 -0.0999
 6652SOL    HW131592   2.330   2.065   6.981 -1.0465  0.1684  2.5624
 6652SOL    HW231593   2.320   2.135   6.861 -1.5734 -1.6895 -0.6545
 6653SOL     OW31594   0.754   2.209   8.448  0.3025  0.2256 -0.0706
 6653SOL    HW131595   0.762   2.303   8.431  0.9021  0.2889  0.5783
 6653SOL    HW231596   0.663   2.183   8.434  0.9200 -2.9204  2.0231
 6654SOL     OW31597   3.602   2.325   3.849 -0.2000 -0.4953 -0.1759
 6654SOL    HW131598   3.517   2.286   3.833 -0.7261 -0.1174  1.7055
 6654SOL    HW231599   3.614   2.364   3.762 -0.4957  1.1867  0.5268
 6655SOL     OW31600   2.176   1.572   3.293 -0.1894  0.0883 -0.7328
 6655SOL    HW131601   2.162   1.504   3.228  0.5353  1.3570 -2.2223
 6655SOL    HW231602   2.261   1.552   3.332 -0.5956 -0.5535 -0.1681
 6656SOL     OW31603   2.967   0.596   3.437 -0.5359 -0.3729  0.0449
 6656SOL    HW131604   2.922   0.524   3.394 -1.2356  0.3678 -0.4620
 6656SOL    HW231605   3.036   0.561   3.492 -0.1658  0.2094 -0.0470
 6657SOL     OW31606   2.221   1.018   9.505  0.1301  0.2819  0.4511
 6657SOL    HW131607   2.296   1.075   9.518 -1.6501  2.8120 -0.3331
 6657SOL    HW231608   2.255   0.929   9.506 -0.7843 -0.1017 -1.9090
 6658SOL     OW31609   4.274   3.905   4.353 -0.8744 -0.5537  0.0164
 6658SOL    HW131610   4.264   3.811   4.339 -1.3959 -0.7783  1.9322
 6658SOL    HW231611   4.184   3.921   4.382 -0.1120  0.7715  1.5999
 6659SOL     OW31612   4.095   2.768   9.199  0.2442  0.9399  0.1763
 6659SOL    HW131613   4.089   2.678   9.169 -0.8571  1.3828 -0.9455
 6659SOL    HW231614   4.185   2.768   9.233  0.0340 -2.0675  0.6790
 6660SOL     OW31615   4.405   2.232   2.865 -0.4700 -0.2791  0.6490
 6660SOL    HW131616   4.439   2.301   2.923  2.7990 -1.4794  0.1850
 6660SOL    HW231617   4.385   2.286   2.789 -2.8118  2.9214  3.4869
 6661SOL     OW31618   2.046   2.052   4.535  0.3859  0.0115  0.4413
 6661SOL    HW131619   2.132   2.066   4.494  0.5045 -1.9314  0.0116
 6661SOL    HW231620   2.070   2.070   4.625 -2.5267  0.4740  1.1173
 6662SOL     OW31621   4.311   1.438   7.271  0.2736 -0.1873 -0.1701
 6662SOL    HW131622   4.331   1.348   7.247  1.5582  0.7613 -2.5994
 6662SOL    HW231623   4.283   1.415   7.359 -1.1270  2.4162  0.0575
 6663SOL     OW31624   2.413   1.725   8.930 -0.8952  0.8796  0.2058
 6663SOL    HW131625   2.468   1.781   8.985  1.2914 -0.8952 -0.1667
 6663SOL    HW231626   2.359   1.798   8.900  0.1298  1.5060 -0.1083
 6664SOL     OW31627   3.991   0.644   8.034  0.4599  0.0037 -0.0002
 6664SOL    HW131628   3.915   0.587   8.026  0.3161 -0.0296  1.5714
 6664SOL    HW231629   4.045   0.600   8.099 -2.8462  0.0336  2.8140
 6665SOL     OW31630   2.232   0.470   9.694 -0.4244 -0.1342  0.2305
 6665SOL    HW131631   2.285   0.396   9.664 -2.4315 -0.8157 -1.6790
 6665SOL    HW231632   2.273   0.534   9.636 -0.5476 -0.8159 -0.6230
 6666SOL     OW31633   1.045   2.431   0.859 -0.0647 -0.7235  0.3311
 6666SOL    HW131634   0.972   2.465   0.911  0.1376  1.3730 -0.7671
 6666SOL    HW231635   1.054   2.495   0.789  0.9445 -1.3504 -0.1131
 6667SOL     OW31636   2.766   1.172   6.858  0.5859  0.4060  0.0972
 6667SOL    HW131637   2.692   1.225   6.830 -0.0196 -0.7529 -0.4724
 6667SOL    HW231638   2.846   1.226   6.857  0.7148  0.3041  3.1244
 6668SOL     OW31639   1.602   3.394   7.007  0.2056 -0.3033 -0.1959
 6668SOL    HW131640   1.613   3.469   7.065 -1.0885  0.9271 -1.5214
 6668SOL    HW231641   1.574   3.432   6.924 -0.7114 -1.5726 -0.4748
 6669SOL     OW31642   2.419   4.702  13.669  0.8902  0.1185  0.3309
 6669SOL    HW131643   2.343   4.670  13.620  1.8699 -0.9790 -0.4712
 6669SOL    HW231644   2.467   0.012  13.604 -1.3847 -0.1641 -1.5696
 6670SOL     OW31645   0.883   2.845   5.054  0.5429 -0.1275  0.0606
 6670SOL    HW131646   0.817   2.887   5.110  2.3438  0.4817  1.7417
 6670SOL    HW231647   0.846   2.877   4.972 -2.4747 -1.8837  0.7529
 6671SOL     OW31648   0.697   1.711  11.928 -0.1136 -0.3479 -0.2086
 6671SOL    HW131649   0.677   1.803  11.910  0.3700 -0.3638 -0.8251
 6671SOL    HW231650   0.612   1.678  11.959 -0.2711 -0.1343 -0.4045
 6672SOL     OW31651   3.197   4.452   8.410 -0.1192 -0.2221 -0.2087
 6672SOL    HW131652   3.178   4.447   8.503  0.7234 -0.3358 -0.0387
 6672SOL    HW231653   3.142   4.529   8.394  0.9278  0.7397  0.8382
 6673SOL     OW31654   3.910   1.583  14.231  0.3735 -0.6673 -0.5839
 6673SOL    HW131655   3.993   1.611  14.268  1.0313 -1.9732 -1.0525
 6673SOL    HW231656   3.841   1.607  14.293  0.6241 -0.6445 -0.3148
 6674SOL     OW31657   3.111   4.338   8.113  0.0959 -0.0992  1.0422
 6674SOL    HW131658   3.169   4.414   8.110 -0.7572  0.5277  0.6083
 6674SOL    HW231659   3.026   4.380   8.122 -0.9071 -1.6271 -1.0824
 6675SOL     OW31660   0.440   1.239   0.674  0.0431 -0.2496 -0.2477
 6675SOL    HW131661   0.474   1.259   0.762  0.6718 -1.1781 -0.2841
 6675SOL    HW231662   0.478   1.310   0.622  0.0357 -1.4873 -1.9330
 6676SOL     OW31663   0.533   2.778   5.089  0.0696 -0.5551  0.4207
 6676SOL    HW131664   0.591   2.842   5.130 -1.4629  0.0200  1.6708
 6676SOL    HW231665   0.490   2.738   5.164  0.2413  1.2566  1.4619
 6677SOL     OW31666   3.030   0.794  15.168  0.4222  0.2519  0.1709
 6677SOL    HW131667   3.021   0.792  15.072  0.8001  1.8761  0.1162
 6677SOL    HW231668   3.048   0.887  15.182  0.2614  0.5154 -1.2989
 6678SOL     OW31669   0.885   4.152  13.959 -0.1736 -0.1977  0.2742
 6678SOL    HW131670   0.940   4.086  13.916  1.6750  1.8919 -0.5772
 6678SOL    HW231671   0.798   4.129  13.928  0.8392 -0.9865 -1.9571
 6679SOL     OW31672   1.251   3.547  17.226 -0.3226 -0.1219 -0.0044
 6679SOL    HW131673   1.216   3.537  17.138 -1.6576  0.0859  0.5042
 6679SOL    HW231674   1.346   3.536  17.221 -0.1877  1.0155  0.0417
 6680SOL     OW31675   1.554   2.673   3.585 -0.3999  0.0495  0.1830
 6680SOL    HW131676   1.472   2.659   3.633  1.0554 -1.4191  2.2137
 6680SOL    HW231677   1.610   2.613   3.634  0.6402 -0.7489 -1.9625
 6681SOL     OW31678   3.069   3.492  10.107 -0.1778  0.2635 -0.0748
 6681SOL    HW131679   3.072   3.570  10.162 -1.9114  0.3137 -0.0509
 6681SOL    HW231680   2.985   3.505  10.064  0.1081  1.5362 -0.2495
 6682SOL     OW31681   2.377   0.673   2.353 -0.3915  0.2998 -0.2768
 6682SOL    HW131682   2.346   0.723   2.429 -0.7171  2.1486 -1.6066
 6682SOL    HW231683   2.327   0.592   2.357 -0.3279  0.2471 -0.5600
 6683SOL     OW31684   4.465   3.552   3.295 -0.3631 -0.0042 -0.1023
 6683SOL    HW131685   4.484   3.636   3.337  2.0201 -0.2870 -0.6336
 6683SOL    HW231686   4.509   3.490   3.353 -1.1294  1.1571  1.7412
 6684SOL     OW31687   1.276   1.691  11.823  0.6166  0.5756  0.0835
 6684SOL    HW131688   1.264   1.700  11.728 -0.3948  0.7053  0.2181
 6684SOL    HW231689   1.229   1.608  11.832 -3.1950  2.6595 -0.1622
 6685SOL     OW31690   0.459   1.627   9.068  0.0101  0.1481 -0.6859
 6685SOL    HW131691   0.507   1.581   9.137  0.7120  2.2755  0.2329
 6685SOL    HW231692   0.433   1.557   9.008 -1.6068  0.8231 -0.7877
 6686SOL     OW31693   1.745   0.583   5.708  0.6933  0.4187 -0.4257
 6686SOL    HW131694   1.677   0.650   5.702  0.6453  0.5235  1.4100
 6686SOL    HW231695   1.710   0.525   5.775 -1.8171  1.0163 -1.2153
 6687SOL     OW31696   0.232   3.506  15.173 -0.0160 -0.3102  0.1446
 6687SOL    HW131697   0.273   3.464  15.097 -0.3920  0.7307 -0.6366
 6687SOL    HW231698   0.229   3.434  15.236 -1.3219  1.5179  2.1630
 6688SOL     OW31699   2.216   2.472   6.228 -0.1314  0.3868 -0.5845
 6688SOL    HW131700   2.262   2.526   6.293 -0.6555  1.3197 -0.9814
 6688SOL    HW231701   2.124   2.498   6.230  0.5366  2.6161  1.2067
 6689SOL     OW31702   0.595   0.437   8.639 -0.3522  0.0485  0.3174
 6689SOL    HW131703   0.635   0.444   8.725 -0.1065 -2.0659  0.3822
 6689SOL    HW231704   0.519   0.495   8.644 -0.1256  0.6712 -3.4860
 6690SOL     OW31705   2.759   1.852   6.272 -0.4259 -0.2420  0.0917
 6690SOL    HW131706   2.778   1.937   6.312  0.2380  0.7201 -2.2778
 6690SOL    HW231707   2.848   1.827   6.248 -0.3925  2.0190 -2.1619
 6691SOL     OW31708   2.314   2.998   3.943  0.1394  0.0382 -0.0403
 6691SOL    HW131709   2.376   3.066   3.916 -2.2816  1.4282 -2.1818
 6691SOL    HW231710   2.240   3.056   3.965  0.3757  1.4813 -3.0555
 6692SOL     OW31711   3.140   4.151   4.752 -0.6743 -0.1401  0.1881
 6692SOL    HW131712   3.105   4.120   4.668  0.0832  2.2581 -0.9994
 6692SOL    HW231713   3.194   4.224   4.723  0.4383 -1.3545 -0.7700
 6693SOL     OW31714   3.100   3.707   6.990 -0.2575  0.1514 -0.1060
 6693SOL    HW131715   3.022   3.726   7.042 -0.6912 -0.5142 -0.5125
 6693SOL    HW231716   3.154   3.786   7.000  2.2778 -1.3783 -1.6721
 6694SOL     OW31717   1.395   2.089  13.415 -0.5524  0.5722 -0.3316
 6694SOL    HW131718   1.349   2.147  13.476  0.0627  0.0304  0.6442
 6694SOL    HW231719   1.412   2.011  13.468 -2.1388  1.1270  1.0042
 6695SOL     OW31720   3.141   2.619  16.952 -0.3526 -0.3466 -0.1896
 6695SOL    HW131721   3.139   2.705  16.995  1.9779  0.5516 -1.9081
 6695SOL    HW231722   3.222   2.634  16.904  0.4563 -1.9007  0.6859
 6696SOL     OW31723   4.363   3.888  15.755 -0.1853 -0.3574 -0.5563
 6696SOL    HW131724   4.296   3.848  15.699 -0.7055 -0.0882 -0.1219
 6696SOL    HW231725   4.431   3.914  15.694 -1.3276 -0.6934 -1.9763
 6697SOL     OW31726   0.802   1.058  16.327 -0.4927  0.0510  0.1815
 6697SOL    HW131727   0.772   1.075  16.416 -0.1185  2.3811 -0.1390
 6697SOL    HW231728   0.721   1.067  16.277 -0.9866  0.8669  1.1386
 6698SOL     OW31729   0.105   3.811   0.143  0.5343 -0.2023 -0.1107
 6698SOL    HW131730   0.084   3.732   0.194 -1.8362  0.5217  0.0368
 6698SOL    HW231731   0.193   3.793   0.109  0.9736  1.6601  0.0730
 6699SOL     OW31732   0.392   1.034   8.093  0.6283  0.6152  0.5113
 6699SOL    HW131733   0.328   1.013   8.161 -0.1581 -0.5390 -0.5894
 6699SOL    HW231734   0.377   0.964   8.029  2.0396 -0.0372  0.8829
 6700SOL     OW31735   4.261   0.093   7.263  0.4277 -0.4159 -0.2968
 6700SOL    HW131736   4.304   0.092   7.177 -2.6826  0.9530 -1.8819
 6700SOL    HW231737   4.333   0.051   7.309  0.5676 -0.7725 -0.8456
 6701SOL     OW31738   3.532   1.561   2.283 -0.3555  0.2120  0.1028
 6701SOL    HW131739   3.437   1.566   2.274 -0.4646  1.8346  2.0203
 6701SOL    HW231740   3.552   1.635   2.226 -0.1415 -0.6383 -0.9331
 6702SOL     OW31741   3.315   1.000  14.249  0.0622  0.4580 -0.0360
 6702SOL    HW131742   3.240   0.992  14.308  0.0588  0.0801 -0.0958
 6702SOL    HW231743   3.337   1.093  14.239  0.7155  0.3384  0.2823
 6703SOL     OW31744   1.028   0.482  16.543 -0.2969 -0.1552  0.8986
 6703SOL    HW131745   1.038   0.461  16.636 -0.5501 -0.7083  0.7980
 6703SOL    HW231746   1.016   0.577  16.544  0.9816 -0.0001  1.2565
 6704SOL     OW31747   2.709   0.447   9.962 -0.0619  0.3522  0.7852
 6704SOL    HW131748   2.783   0.462   9.904  2.0679  2.0125  3.9441
 6704SOL    HW231749   2.642   0.399   9.913 -0.9284  0.2717  2.0547
 6705SOL     OW31750   1.475   3.332   4.140  0.2454  0.5813 -0.1234
 6705SOL    HW131751   1.436   3.336   4.053  2.3293 -1.5867 -1.1503
 6705SOL    HW231752   1.496   3.239   4.147  0.4518  0.6144 -0.3355
 6706SOL     OW31753   2.084   1.825   4.828 -0.5053  0.0159 -0.1775
 6706SOL    HW131754   2.110   1.804   4.739 -1.2905 -0.2389 -0.3480
 6706SOL    HW231755   2.163   1.800   4.876 -1.5034 -0.3519  1.3010
 6707SOL     OW31756   0.064   1.689  15.252 -0.0868  0.6884  0.2844
 6707SOL    HW131757   0.096   1.678  15.162 -1.2870  1.1658 -0.1995
 6707SOL    HW231758   0.106   1.615  15.294 -0.9307 -0.3774 -0.7418
 6708SOL     OW31759   3.075   2.887  12.515  1.0561  0.2838  0.2299
 6708SOL    HW131760   2.985   2.860  12.495  1.3208 -0.4927  0.0799
 6708SOL    HW231761   3.113   2.802  12.536 -1.2385 -1.1363 -1.4632
 6709SOL     OW31762   1.777   4.461   9.342  0.9257 -0.5776 -0.2495
 6709SOL    HW131763   1.721   4.396   9.384  2.5066 -1.1794  0.8815
 6709SOL    HW231764   1.718   4.532   9.316  1.1198 -0.4020 -0.2050
 6710SOL     OW31765   0.493   0.477  10.336  0.0892  0.0892 -0.2795
 6710SOL    HW131766   0.516   0.444  10.423 -2.7326 -3.4740 -0.8988
 6710SOL    HW231767   0.582   0.489  10.302  0.6060 -1.0871  0.6544
 6711SOL     OW31768   0.839   4.151   8.449  0.0079  0.4943 -0.6812
 6711SOL    HW131769   0.834   4.244   8.471  0.6923  0.5821 -0.9092
 6711SOL    HW231770   0.746   4.129   8.455  0.0092  0.9495  1.0636
 6712SOL     OW31771   2.230   0.411   2.399 -0.3546 -0.5308 -0.4587
 6712SOL    HW131772   2.223   0.436   2.491 -0.1812  0.0798 -0.6132
 6712SOL    HW231773   2.135   0.402   2.388 -0.6601  0.5346  1.3193
 6713SOL     OW31774   3.538   4.688  10.348 -0.4863  0.1177 -0.5721
 6713SOL    HW131775   3.609   4.667  10.408  1.5292  1.0041 -2.6213
 6713SOL    HW231776   3.469   4.624  10.367 -0.6901  0.6399  0.4343
 6714SOL     OW31777   2.471   0.688   4.030  0.0639 -0.2534 -0.0047
 6714SOL    HW131778   2.391   0.634   4.031 -2.0904  2.9408 -0.1687
 6714SOL    HW231779   2.500   0.693   3.939 -0.4876 -0.7267 -0.2069
 6715SOL     OW31780   0.123   3.149  16.616 -0.2609 -0.4594 -0.0334
 6715SOL    HW131781   0.172   3.166  16.697 -2.4264  0.9351  0.9873
 6715SOL    HW231782   0.034   3.152  16.651 -0.0919 -1.0964  0.4592
 6716SOL     OW31783   2.330   0.947   6.716  0.0220 -0.6819  0.0220
 6716SOL    HW131784   2.327   0.926   6.810  1.1393  0.0532  0.2176
 6716SOL    HW231785   2.242   0.974   6.690 -0.4646  0.5979  2.9186
 6717SOL     OW31786   0.804   3.372   5.074 -0.1349 -0.1807 -0.0373
 6717SOL    HW131787   0.871   3.311   5.104  0.4088 -0.4564 -1.8418
 6717SOL    HW231788   0.787   3.426   5.152  0.8648  1.2162 -0.7865
 6718SOL     OW31789   3.202   2.676   5.440 -0.0426  0.5265  0.6227
 6718SOL    HW131790   3.120   2.660   5.487 -0.8361  2.2400 -0.1874
 6718SOL    HW231791   3.187   2.765   5.407  2.7503  1.0163  0.6878
 6719SOL     OW31792   0.538   1.122  10.199  0.2121  0.2206  0.1691
 6719SOL    HW131793   0.585   1.096  10.119  0.1994  1.1905 -0.1450
 6719SOL    HW231794   0.452   1.080  10.194  0.1979  0.3419 -0.5856
 6720SOL     OW31795   4.126   0.344   3.115  0.1544 -0.3491  0.3844
 6720SOL    HW131796   4.083   0.340   3.200 -0.1955 -2.7583  0.1193
 6720SOL    HW231797   4.210   0.375   3.146 -0.8839  1.3762  1.4428
 6721SOL     OW31798   2.483   1.697   5.254  0.2124 -0.2776  0.5124
 6721SOL    HW131799   2.503   1.782   5.215  0.1435 -1.0499 -1.2151
 6721SOL    HW231800   2.436   1.649   5.186  0.5371  0.0243  0.0820
 6722SOL     OW31801   0.136   0.073  13.193  0.0656  0.0476  0.0289
 6722SOL    HW131802   0.170   0.146  13.142  2.0346 -1.5619 -0.9667
 6722SOL    HW231803   0.110   0.116  13.274 -0.9115 -1.5942  0.5933
 6723SOL     OW31804   2.863   1.045   6.493 -0.1459 -0.2356 -0.9746
 6723SOL    HW131805   2.826   1.133   6.498  1.7041  0.5070 -0.5808
 6723SOL    HW231806   2.790   0.985   6.476  0.2460 -1.1732  0.7262
 6724SOL     OW31807   4.244   3.075  14.324 -0.1450 -0.4578 -0.5052
 6724SOL    HW131808   4.190   3.070  14.245 -2.1982 -1.8461  0.9757
 6724SOL    HW231809   4.296   3.155  14.314  0.7364 -1.0449 -0.5925
 6725SOL     OW31810   1.152   3.810  17.285  0.4879 -0.1248  0.0644
 6725SOL    HW131811   1.187   3.722  17.279  0.0813 -0.1781 -1.4965
 6725SOL    HW231812   1.228   3.868  17.296 -1.1229  1.5675  2.5444
 6726SOL     OW31813   3.265   1.815   8.948 -0.0958  0.0807 -0.7269
 6726SOL    HW131814   3.351   1.801   8.907 -0.2971 -0.7928 -0.8587
 6726SOL    HW231815   3.262   1.744   9.012 -0.2992  0.2799 -0.5180
 6727SOL     OW31816   3.930   0.880   8.206 -0.7180  0.0545  0.3520
 6727SOL    HW131817   4.016   0.919   8.221 -1.7591  1.7822  1.9256
 6727SOL    HW231818   3.951   0.797   8.249  2.5527  1.5355  1.5968
 6728SOL     OW31819   3.361   0.074   8.189 -0.6496  0.6276  0.3516
 6728SOL    HW131820   3.310   0.130   8.247  1.4204  0.9139  1.8980
 6728SOL    HW231821   3.394   0.137   8.124  0.4806 -0.5993 -0.2579
 6729SOL     OW31822   0.916   3.406   8.918 -0.3288  0.1498 -0.4389
 6729SOL    HW131823   0.837   3.458   8.932 -0.2497  0.6727 -1.9298
 6729SOL    HW231824   0.969   3.425   8.995  0.7095 -0.1393 -1.0828
 6730SOL     OW31825   3.996   1.449   5.913  0.0908  0.3189  0.1270
 6730SOL    HW131826   3.903   1.437   5.891 -0.4384  3.4921  0.7127
 6730SOL    HW231827   3.995   1.470   6.006 -1.7314  3.4064 -0.5801
 6731SOL     OW31828   1.614   4.670   9.289  0.5070  0.4608 -0.1391
 6731SOL    HW131829   1.550   4.686   9.358  0.6235  3.2452 -0.6458
 6731SOL    HW231830   1.664   0.011   9.292  2.9468 -1.0334  0.3087
 6732SOL     OW31831   4.561   3.008   6.432 -0.0987  0.4409  0.0166
 6732SOL    HW131832   4.548   3.065   6.357  0.6434 -0.0753 -0.5022
 6732SOL    HW231833   4.536   3.065   6.505 -1.7359 -0.9875  0.5755
 6733SOL     OW31834   2.361   1.980  16.168  0.4368  0.7107  0.8203
 6733SOL    HW131835   2.356   1.912  16.101  0.4011  1.0570  0.4748
 6733SOL    HW231836   2.436   1.947  16.218  1.7458  1.7251 -0.4566
 6734SOL     OW31837   4.368   3.473   4.848  0.1462 -0.3928  0.0712
 6734SOL    HW131838   4.306   3.424   4.901 -0.4743  2.1728  1.7141
 6734SOL    HW231839   4.336   3.563   4.845 -2.3736 -1.2495  2.0285
 6735SOL     OW31840   3.267   2.448   2.663 -0.1881  0.2510 -0.0010
 6735SOL    HW131841   3.197   2.431   2.727  1.4371  1.1607  2.0296
 6735SOL    HW231842   3.268   2.365   2.615 -0.5219  0.5875 -0.5771
 6736SOL     OW31843   1.950   0.876   9.518 -1.0210 -0.0950  0.5860
 6736SOL    HW131844   2.033   0.904   9.558 -0.9499  0.8669 -0.2365
 6736SOL    HW231845   1.948   0.942   9.448 -2.6322  1.8281  2.4380
 6737SOL     OW31846   2.406   0.825  11.984 -0.3083  0.4058  0.4870
 6737SOL    HW131847   2.488   0.777  11.980 -1.4020 -1.4145  0.0378
 6737SOL    HW231848   2.354   0.755  11.945 -0.9600 -0.0544  2.1440
 6738SOL     OW31849   4.398   2.526   7.316 -0.1857  0.0361  0.1823
 6738SOL    HW131850   4.483   2.490   7.290 -0.0235  1.8935 -1.8348
 6738SOL    HW231851   4.389   2.508   7.410 -0.7125  1.4018  0.3917
 6739SOL     OW31852   0.602   2.485  10.484  0.1718  0.2564 -0.4176
 6739SOL    HW131853   0.617   2.529  10.401  0.6680  0.7072 -0.0937
 6739SOL    HW231854   0.634   2.395  10.472  0.1436  0.2441 -0.3996
 6740SOL     OW31855   4.637   3.332   6.320 -0.2760 -0.1997  0.2492
 6740SOL    HW131856   4.545   3.304   6.314 -0.6737  0.9432  0.9923
 6740SOL    HW231857   4.636   3.406   6.381  0.1569  0.0479 -0.0445
 6741SOL     OW31858   0.135   3.510  16.051 -0.0307 -0.2858  0.0240
 6741SOL    HW131859   0.044   3.488  16.034  0.7140 -2.6912 -0.8905
 6741SOL    HW231860   0.176   3.534  15.968  1.5950  2.0263  1.5012
 6742SOL     OW31861   4.086   4.737   3.923  0.8520  0.1055  0.1458
 6742SOL    HW131862   4.076   0.025   4.014  1.2149 -1.3680  0.6534
 6742SOL    HW231863   4.151   0.054   3.883 -1.2353  0.6391 -2.5055
 6743SOL     OW31864   3.792   4.405   3.282  0.4903  0.1385 -0.2965
 6743SOL    HW131865   3.854   4.336   3.307 -0.7928  0.2553  3.2428
 6743SOL    HW231866   3.846   4.483   3.292  1.3522 -0.4402 -0.4646
 6744SOL     OW31867   2.548   1.608   9.996 -0.5619 -0.2815 -0.0134
 6744SOL    HW131868   2.596   1.546  10.051 -2.1277  0.1634  1.8837
 6744SOL    HW231869   2.456   1.592  10.020 -1.1138  1.6999 -0.7928
 6745SOL     OW31870   4.622   3.382   8.820 -0.3382  0.7573 -0.0061
 6745SOL    HW131871   4.569   3.363   8.898  0.4336  1.0730  0.5850
 6745SOL    HW231872   4.667   3.456   8.860 -0.0685 -0.1412  1.3555
 6746SOL     OW31873   4.412   3.632   1.935  0.0097  0.5607  0.3235
 6746SOL    HW131874   4.427   3.679   2.017  1.7138  1.6313 -0.6137
 6746SOL    HW231875   4.483   3.568   1.934  0.0055  0.5628 -0.2550
 6747SOL     OW31876   3.178   4.224  13.305 -0.4109 -0.2697  0.5434
 6747SOL    HW131877   3.256   4.277  13.286 -0.5841  0.9142  3.1883
 6747SOL    HW231878   3.129   4.220  13.223  0.4801 -2.4966  0.1175
 6748SOL     OW31879   1.348   3.433  15.757 -0.1089 -0.2112  0.3695
 6748SOL    HW131880   1.306   3.504  15.710  0.1763 -0.7477 -0.6970
 6748SOL    HW231881   1.282   3.368  15.781  0.4586 -0.5317  1.0754
 6749SOL     OW31882   4.025   2.686   3.917 -0.0606 -0.0519 -0.2330
 6749SOL    HW131883   3.976   2.766   3.898 -1.7005 -1.3311 -1.3393
 6749SOL    HW231884   3.954   2.645   3.967  0.5398 -0.0354  0.6465
 6750SOL     OW31885   2.139   2.876   3.499  0.2583 -0.1459 -0.1203
 6750SOL    HW131886   2.179   2.853   3.415 -0.4813  0.9437 -0.7755
 6750SOL    HW231887   2.094   2.954   3.468  0.9195  0.2770 -0.0350
 6751SOL     OW31888   4.714   0.834   3.689 -0.0660  0.2578 -0.0181
 6751SOL    HW131889   4.625   0.867   3.708 -0.7169 -0.7530 -1.3206
 6751SOL    HW231890   0.018   0.865   3.768 -1.0955 -0.9711  1.0532
 6752SOL     OW31891   4.264   2.715   2.316 -0.3889  0.1421  0.0981
 6752SOL    HW131892   4.330   2.686   2.253  0.8359 -0.4579  1.6478
 6752SOL    HW231893   4.318   2.740   2.391 -0.7038  2.0399 -0.3179
 6753SOL     OW31894   4.079   0.456   8.585  0.3485 -0.4228 -0.7890
 6753SOL    HW131895   4.111   0.522   8.647  0.8604 -1.5322  0.1213
 6753SOL    HW231896   4.022   0.398   8.636 -0.6205  1.4029  0.2005
 6754SOL     OW31897   2.286   3.303   6.763 -0.7629 -0.8444 -0.4903
 6754SOL    HW131898   2.246   3.288   6.678  0.0512  1.2029 -1.2417
 6754SOL    HW231899   2.279   3.221   6.811 -1.3262 -0.9134 -0.6958
 6755SOL     OW31900   1.966   3.752   8.446 -0.6263  0.1652  0.1625
 6755SOL    HW131901   1.900   3.731   8.379 -0.4935  0.9441 -0.2148
 6755SOL    HW231902   2.043   3.746   8.389  0.3774 -0.6235  1.6158
 6756SOL     OW31903   1.268   4.490   2.785 -0.2748 -0.3864 -0.3038
 6756SOL    HW131904   1.230   4.473   2.699 -0.2324 -0.9412 -0.2098
 6756SOL    HW231905   1.198   4.475   2.849  1.6301 -3.1797  1.1278
 6757SOL     OW31906   3.112   1.037   6.291 -0.1640 -0.1488 -0.6271
 6757SOL    HW131907   3.080   0.949   6.310  2.0842 -0.8342  0.0239
 6757SOL    HW231908   3.033   1.090   6.302  1.2575  2.0825 -1.2293
 6758SOL     OW31909   0.924   4.178  12.860 -0.5161 -0.5609  0.0417
 6758SOL    HW131910   0.997   4.239  12.855  1.6379 -3.0779  0.3534
 6758SOL    HW231911   0.905   4.185  12.954  1.8415  0.0567  0.4782
 6759SOL     OW31912   2.969   1.613   2.376 -0.5025  0.0147  0.3177
 6759SOL    HW131913   3.012   1.698   2.387 -1.1970  0.2490  1.1803
 6759SOL    HW231914   2.884   1.628   2.417 -1.0716  0.7415 -1.1339
 6760SOL     OW31915   0.075   0.309   4.501 -0.3936 -0.7124 -0.0007
 6760SOL    HW131916   0.009   0.305   4.571  0.0288 -0.4264  0.4182
 6760SOL    HW231917   0.017   0.326   4.427  0.2427 -1.1835 -0.6100
 6761SOL     OW31918   1.317   3.272   8.273  0.8155 -0.4098  0.1849
 6761SOL    HW131919   1.392   3.325   8.298  0.5678  1.1226 -2.3815
 6761SOL    HW231920   1.274   3.256   8.357 -1.4150  3.1393 -0.3022
 6762SOL     OW31921   3.279   4.124  14.040 -0.1957 -0.4610 -0.6002
 6762SOL    HW131922   3.276   4.078  14.124 -1.0202  1.5360  0.4448
 6762SOL    HW231923   3.335   4.197  14.065 -0.8312 -0.1639 -0.0307
 6763SOL     OW31924   3.794   3.361  16.244  0.0163 -0.0758 -0.2373
 6763SOL    HW131925   3.838   3.276  16.244 -0.0234 -0.0949  0.5705
 6763SOL    HW231926   3.706   3.333  16.218 -0.3300 -0.9467  1.8477
 6764SOL     OW31927   3.263   4.578   8.091  0.0167  0.3923 -0.0944
 6764SOL    HW131928   3.249   4.622   8.007 -1.4680 -1.7570 -0.9749
 6764SOL    HW231929   3.322   4.637   8.138 -1.0781 -0.3943  2.2782
 6765SOL     OW31930   0.881   1.601   7.245  0.1523  0.2299 -0.3191
 6765SOL    HW131931   0.801   1.606   7.192  0.0056  0.0716 -0.1128
 6765SOL    HW231932   0.913   1.511   7.243  2.6821  1.0969  0.5590
 6766SOL     OW31933   3.120   1.225   9.572  0.1406 -0.1516  0.4214
 6766SOL    HW131934   3.127   1.200   9.479 -0.1155  2.8878 -0.4037
 6766SOL    HW231935   3.184   1.163   9.607 -0.7287 -0.0399  2.2010
 6767SOL     OW31936   4.144   1.684   5.436  0.2174 -0.4771  0.3987
 6767SOL    HW131937   4.116   1.629   5.509 -2.4933 -0.3214 -0.5008
 6767SOL    HW231938   4.203   1.619   5.398  0.3086  1.0391 -2.0341
 6768SOL     OW31939   4.429   1.550  11.095  0.1430  0.3337  0.3831
 6768SOL    HW131940   4.394   1.635  11.122  0.4800  1.6832 -3.3892
 6768SOL    HW231941   4.393   1.495  11.165  0.1732 -0.6698 -0.3886
 6769SOL     OW31942   2.422   1.742   1.608  0.4963  0.4394  0.1383
 6769SOL    HW131943   2.509   1.726   1.646  0.3974  0.5862  0.4286
 6769SOL    HW231944   2.353   1.732   1.674  0.2005 -1.0972 -0.3923
 6770SOL     OW31945   3.028   4.308   2.688  0.0822 -0.3568 -0.3340
 6770SOL    HW131946   3.050   4.343   2.601 -0.3256 -1.3750 -0.8519
 6770SOL    HW231947   2.933   4.318   2.686  0.1387  0.2558  0.0326
 6771SOL     OW31948   4.461   4.054   9.147 -0.6632  0.5981  0.4960
 6771SOL    HW131949   4.477   4.096   9.232 -0.6383  0.9132  0.3368
 6771SOL    HW231950   4.446   3.961   9.164 -0.0516 -0.1922 -3.4590
 6772SOL     OW31951   0.912   0.022   5.246  0.3392  0.0062  0.5303
 6772SOL    HW131952   1.000   0.033   5.209  0.5154  1.1445  1.2758
 6772SOL    HW231953   0.893   0.109   5.282  0.7224  0.8853 -1.4144
 6773SOL     OW31954   0.908   3.747   2.850 -0.1395  0.1581  0.0802
 6773SOL    HW131955   0.923   3.837   2.878 -1.5533  0.3424  0.2389
 6773SOL    HW231956   0.938   3.750   2.759 -1.2397 -1.0360 -0.3384
 6774SOL     OW31957   4.312   3.623   4.549  0.1917 -0.0034 -0.0445
 6774SOL    HW131958   4.311   3.607   4.454 -0.9439 -1.0844  0.1435
 6774SOL    HW231959   4.332   3.536   4.583  1.1770  0.9562  1.8457
 6775SOL     OW31960   2.294   2.330   2.622 -0.3506  0.3423  0.5807
 6775SOL    HW131961   2.380   2.331   2.580  0.2474 -1.3799  1.7506
 6775SOL    HW231962   2.326   2.325   2.713  0.8206 -0.1083  0.1507
 6776SOL     OW31963   2.484   3.549   1.163  0.1292  0.2727 -0.2170
 6776SOL    HW131964   2.563   3.580   1.119 -0.2325  2.6254  0.7863
 6776SOL    HW231965   2.498   3.455   1.149 -0.5361  0.8654 -4.5831
 6777SOL     OW31966   1.626   1.710   9.890 -0.2700 -0.1484 -0.4757
 6777SOL    HW131967   1.571   1.687   9.965  1.2138 -0.7600  0.4273
 6777SOL    HW231968   1.636   1.624   9.849  1.2617 -0.1266 -0.1312
 6778SOL     OW31969   3.370   1.429  15.921 -0.0033 -0.1589  0.1146
 6778SOL    HW131970   3.353   1.515  15.960  0.7662 -0.3016  0.7534
 6778SOL    HW231971   3.309   1.378  15.973  2.0295 -1.1885  1.5164
 6779SOL     OW31972   0.261   3.373   7.924 -1.1860 -0.7838 -0.3014
 6779SOL    HW131973   0.218   3.404   8.004  0.5579 -0.3806  0.4833
 6779SOL    HW231974   0.337   3.431   7.919 -0.2009 -2.0018  0.4292
 6780SOL     OW31975   1.036   1.549  10.671 -0.4553 -0.5131  0.0762
 6780SOL    HW131976   1.123   1.542  10.711  0.3446  0.7745 -1.4707
 6780SOL    HW231977   1.055   1.487  10.600 -1.4682 -0.3264 -0.3633
 6781SOL     OW31978   2.710   2.379   5.503  0.5061 -0.0131  0.0693
 6781SOL    HW131979   2.629   2.347   5.543  0.3850 -0.0905 -0.2347
 6781SOL    HW231980   2.706   2.324   5.424 -0.6345 -0.3547  0.3703
 6782SOL     OW31981   0.890   1.148  15.991 -0.0742  0.0637 -0.2189
 6782SOL    HW131982   0.857   1.102  15.914 -0.9818  0.3461  0.0142
 6782SOL    HW231983   0.873   1.240  15.974  0.3893  0.5086  1.6278
 6783SOL     OW31984   4.530   0.745  15.206 -0.0784  0.0530  0.4186
 6783SOL    HW131985   4.607   0.802  15.204  0.6076 -0.8345  1.2706
 6783SOL    HW231986   4.498   0.762  15.118  2.1143 -0.7801 -0.5260
 6784SOL     OW31987   4.486   3.522  14.834 -0.2012 -0.2564  0.0218
 6784SOL    HW131988   4.577   3.541  14.810  0.0734 -2.2623 -0.5230
 6784SOL    HW231989   4.433   3.573  14.773 -0.6345  3.6671  3.6899
 6785SOL     OW31990   1.377   2.882  16.615 -0.2583 -0.1252 -0.2397
 6785SOL    HW131991   1.344   2.953  16.671  3.9110  1.1278  0.5989
 6785SOL    HW231992   1.468   2.906  16.601 -0.7052  0.7076 -1.7563
 6786SOL     OW31993   2.661   3.565   9.045 -0.2323  0.0418  0.1286
 6786SOL    HW131994   2.579   3.614   9.044 -0.0463  0.3315 -1.0346
 6786SOL    HW231995   2.707   3.614   9.114 -0.3307 -3.2570  2.5088
 6787SOL     OW31996   2.046   4.603   2.781 -0.5402 -0.5052  0.1314
 6787SOL    HW131997   2.000   4.522   2.758 -1.2925  0.1936 -0.8127
 6787SOL    HW231998   2.134   4.566   2.786 -0.8804 -1.5195 -1.7202
 6788SOL     OW31999   3.689   4.107   0.916 -0.1074 -0.1849 -0.2625
 6788SOL    HW132000   3.723   4.019   0.901 -1.3429 -0.7932  0.4909
 6788SOL    HW232001   3.744   4.158   0.857  0.7991  0.3654  1.0526
 6789SOL     OW32002   4.286   2.276   3.860  0.0461  0.3179  0.0216
 6789SOL    HW132003   4.347   2.277   3.934 -0.6104 -1.0547  0.5900
 6789SOL    HW232004   4.253   2.365   3.868  0.4829  0.7178 -2.8283
 6790SOL     OW32005   0.803   0.824   3.762 -0.3321 -0.0699  0.8188
 6790SOL    HW132006   0.814   0.891   3.695  0.3880  0.2824  1.2939
 6790SOL    HW232007   0.749   0.761   3.714  0.2487  0.9914 -1.1840
 6791SOL     OW32008   4.480   0.366   9.187  0.1953  0.0912  0.5425
 6791SOL    HW132009   4.556   0.310   9.175 -0.2877 -0.2541 -0.9125
 6791SOL    HW232010   4.426   0.330   9.257  1.8104 -2.4053  0.5201
 6792SOL     OW32011   3.302   4.378   6.930  0.2385  0.4353  0.0523
 6792SOL    HW132012   3.291   4.305   6.992 -3.6167  0.2946 -0.8049
 6792SOL    HW232013   3.226   4.433   6.947  0.4891  1.0595 -0.9066
 6793SOL     OW32014   2.547   3.024  14.021  0.0033 -0.3268 -0.1035
 6793SOL    HW132015   2.623   3.060  13.976 -0.3368  1.8776  1.0877
 6793SOL    HW232016   2.474   3.054  13.967 -1.8434  0.7618  2.9728
 6794SOL     OW32017   1.216   3.916   5.179  0.2974  0.4106 -0.3679
 6794SOL    HW132018   1.222   3.833   5.226  0.1788 -0.1514 -1.3345
 6794SOL    HW232019   1.121   3.927   5.178  0.0836 -1.4178 -1.1055
 6795SOL     OW32020   3.053   0.835   2.449  0.4826  0.3772 -0.1490
 6795SOL    HW132021   3.108   0.869   2.519  1.2602 -0.1014 -0.5277
 6795SOL    HW232022   3.108   0.781   2.392  1.2292 -0.8654  1.7319
 6796SOL     OW32023   1.503   0.620   3.729  0.2238  0.1512  0.2451
 6796SOL    HW132024   1.447   0.545   3.711 -0.5575  0.0998  2.7731
 6796SOL    HW232025   1.460   0.674   3.796  2.0956  1.5325  0.3411
 6797SOL     OW32026   1.277   1.663  12.104  0.0963  0.8552 -0.4947
 6797SOL    HW132027   1.205   1.634  12.048 -0.1919  2.7896 -1.1603
 6797SOL    HW232028   1.349   1.600  12.111 -0.1658  0.7512  1.2571
 6798SOL     OW32029   2.922   0.025   8.761 -0.2897  0.1624 -0.2734
 6798SOL    HW132030   2.939   0.118   8.747 -2.1463  0.7713  1.4582
 6798SOL    HW232031   2.918   0.002   8.668  0.3943 -0.4745 -0.1371
 6799SOL     OW32032   2.624   2.152   5.084  0.2507 -0.1865  0.5514
 6799SOL    HW132033   2.635   2.208   5.007 -1.2844  0.0881  0.5445
 6799SOL    HW232034   2.713   2.151   5.120  0.4686 -0.4342  0.0190
 6800SOL     OW32035   3.884   0.438   2.405 -0.0271  0.4547 -0.0254
 6800SOL    HW132036   3.823   0.370   2.433  1.1599 -1.3815 -1.8756
 6800SOL    HW232037   3.969   0.395   2.392  0.6762  2.5217 -2.2344
 6801SOL     OW32038   1.132   1.007   7.849  0.1995  0.2597  1.0690
 6801SOL    HW132039   1.104   0.919   7.875 -2.5773  1.3158  1.6503
 6801SOL    HW232040   1.105   1.008   7.757 -0.0947  1.3801  1.1605
 6802SOL     OW32041   4.157   2.251   9.143 -0.2215 -0.7642  0.3299
 6802SOL    HW132042   4.152   2.284   9.232  2.2419  0.9371 -0.1727
 6802SOL    HW232043   4.225   2.185   9.154  0.1296 -0.6532 -1.2076
 6803SOL     OW32044   2.620   2.101   0.969 -0.0829  0.0501  0.2755
 6803SOL    HW132045   2.547   2.040   0.971 -1.0596  1.1658 -0.8175
 6803SOL    HW232046   2.574   2.184   0.981 -2.9261 -1.7862  1.8075
 6804SOL     OW32047   0.498   2.081   5.256 -0.2159  0.1690  0.2597
 6804SOL    HW132048   0.592   2.068   5.244 -0.3043 -0.1783 -0.0968
 6804SOL    HW232049   0.469   2.009   5.200 -1.5861  1.7477 -1.0511
 6805SOL     OW32050   3.626   3.444   9.028  0.5771  0.2518 -0.2499
 6805SOL    HW132051   3.609   3.362   9.075 -1.2376  1.6890  1.6207
 6805SOL    HW232052   3.684   3.485   9.093  2.9926  0.9992 -2.8891
 6806SOL     OW32053   2.211   1.743   3.891  0.5531  0.7163 -0.1840
 6806SOL    HW132054   2.185   1.830   3.919 -0.9190  0.1984  0.0428
 6806SOL    HW232055   2.207   1.689   3.970  1.4307  1.0508  0.0952
 6807SOL     OW32056   2.210   0.627   7.340  0.0352 -0.4145 -0.3625
 6807SOL    HW132057   2.294   0.628   7.386  0.0454  0.6076 -0.3898
 6807SOL    HW232058   2.178   0.717   7.348 -2.3928 -1.4060  0.9575
 6808SOL     OW32059   4.293   4.597  15.329 -0.1479 -0.3104 -0.4169
 6808SOL    HW132060   4.204   4.601  15.364 -0.1147  1.2995 -0.4959
 6808SOL    HW232061   4.329   4.537  15.394 -0.3168 -1.8905 -1.7865
 6809SOL     OW32062   1.845   2.741  15.739 -0.5296 -0.3461 -0.5183
 6809SOL    HW132063   1.752   2.719  15.745 -0.3530 -1.0610 -0.3619
 6809SOL    HW232064   1.846   2.780  15.826 -2.8901 -0.7739 -0.2965
 6810SOL     OW32065   3.975   0.769   1.912 -0.0589  0.2147 -0.4855
 6810SOL    HW132066   3.944   0.680   1.893  0.6952 -0.3075  0.7204
 6810SOL    HW232067   4.000   0.803   1.826 -0.9459  2.5232  0.1675
 6811SOL     OW32068   0.232   3.123   7.807  0.0356 -0.4719  0.0054
 6811SOL    HW132069   0.263   3.203   7.850  1.1328 -1.0817  0.3468
 6811SOL    HW232070   0.152   3.112   7.859 -0.7085 -0.4765 -1.1592
 6812SOL     OW32071   1.198   2.027   5.244  0.3493 -0.5249 -0.0206
 6812SOL    HW132072   1.147   1.963   5.193  1.5523 -1.0445 -0.5781
 6812SOL    HW232073   1.276   2.046   5.191  0.8215 -0.2485  0.7769
 6813SOL     OW32074   2.798   0.900   3.652 -0.4832 -0.4226 -0.4619
 6813SOL    HW132075   2.775   0.853   3.572 -2.3224  0.9804 -0.7737
 6813SOL    HW232076   2.812   0.986   3.613 -1.9562  0.5959  1.2186
 6814SOL     OW32077   0.949   1.693   8.878 -0.2520  0.3742 -0.3206
 6814SOL    HW132078   0.891   1.687   8.802 -0.1715  0.2232 -0.3687
 6814SOL    HW232079   1.001   1.771   8.856  0.5183  0.5722  2.1955
 6815SOL     OW32080   3.391   3.559  10.082  0.0679 -0.2879 -0.4042
 6815SOL    HW132081   3.378   3.648  10.047  2.0632 -0.9633 -2.8625
 6815SOL    HW232082   3.395   3.513   9.998 -0.3052 -0.2349 -0.4509
 6816SOL     OW32083   4.349   0.977  11.308 -0.1462 -0.4326 -0.5174
 6816SOL    HW132084   4.406   1.029  11.252 -0.5374  2.3431  1.6730
 6816SOL    HW232085   4.316   1.052  11.357 -0.4370 -0.1330 -1.1725
 6817SOL     OW32086   3.038   2.287  15.218 -0.3913  0.3296  0.2228
 6817SOL    HW132087   3.001   2.342  15.148  1.2253  0.2906 -0.6656
 6817SOL    HW232088   3.051   2.208  15.165  1.5432  0.6927  0.1638
 6818SOL     OW32089   0.959   2.906   2.442 -0.0292 -0.3026 -0.9279
 6818SOL    HW132090   0.972   2.981   2.500  0.3344 -0.1155 -1.2485
 6818SOL    HW232091   1.025   2.845   2.476 -0.2045  0.2316  0.3443
 6819SOL     OW32092   1.514   1.871   1.420  0.4390  0.3921  0.5082
 6819SOL    HW132093   1.518   1.915   1.505 -0.3185  0.3290  0.5787
 6819SOL    HW232094   1.606   1.855   1.403  0.0720 -3.2955  2.1139
 6820SOL     OW32095   2.597   0.044   9.595  0.2661 -0.4935 -0.0021
 6820SOL    HW132096   2.567   4.709   9.546 -0.2726  0.2281 -0.7725
 6820SOL    HW232097   2.651   0.006   9.664  1.2896 -1.3442 -1.2837
 6821SOL     OW32098   1.358   0.962   3.085 -0.2289  0.6473  0.0764
 6821SOL    HW132099   1.359   1.024   3.012  0.3302 -0.4348 -0.8443
 6821SOL    HW232100   1.264   0.952   3.101  0.2033  0.0613  2.1968
 6822SOL     OW32101   0.963   1.602   6.273  0.2105 -0.2308  0.0163
 6822SOL    HW132102   1.006   1.685   6.294  0.1555  0.1447 -1.3624
 6822SOL    HW232103   1.030   1.554   6.223  1.0258  1.2175 -0.2809
 6823SOL     OW32104   0.585   3.082   5.825 -0.0655  0.2013 -0.4338
 6823SOL    HW132105   0.593   3.121   5.912 -2.3363 -0.2176 -0.0403
 6823SOL    HW232106   0.537   3.145   5.771  1.5588  1.9846  0.2358
 6824SOL     OW32107   2.427   4.586   2.018 -0.3962  0.5274 -0.2875
 6824SOL    HW132108   2.427   4.530   2.096  1.9431  0.4210 -0.3720
 6824SOL    HW232109   2.342   4.629   2.023 -0.8695 -0.3422 -0.6706
 6825SOL     OW32110   1.111   2.547   3.191  0.6686  0.2780  0.1261
 6825SOL    HW132111   1.070   2.516   3.110 -0.0836 -1.0081  0.9839
 6825SOL    HW232112   1.030   2.553   3.243 -1.1283  0.0402 -2.6520
 6826SOL     OW32113   4.563   1.158  12.768  0.1529 -0.0247 -0.3756
 6826SOL    HW132114   4.563   1.250  12.739 -1.2422  0.6018  1.6494
 6826SOL    HW232115   4.537   1.166  12.859 -0.7868 -2.2895 -0.4682
 6827SOL     OW32116   1.750   2.746   6.170 -0.0435  0.4783  0.6390
 6827SOL    HW132117   1.798   2.776   6.247  0.8399 -0.1295  0.3225
 6827SOL    HW232118   1.662   2.733   6.205 -0.3860  2.9587  0.7596
 6828SOL     OW32119   2.429   4.036   2.614 -0.0082 -0.2360 -0.6734
 6828SOL    HW132120   2.454   3.980   2.687 -0.9192  1.6074  1.0519
 6828SOL    HW232121   2.465   4.121   2.640 -0.7190 -0.6122  1.5265
 6829SOL     OW32122   4.175   0.823   0.629 -0.5461 -0.2179 -0.1450
 6829SOL    HW132123   4.101   0.828   0.690  0.8896  0.6311  1.5301
 6829SOL    HW232124   4.178   0.919   0.622 -3.0087 -0.2053 -0.8648
 6830SOL     OW32125   3.262   2.374  15.374  0.5831  0.5461 -0.0261
 6830SOL    HW132126   3.171   2.356  15.351 -0.0465  1.7702  1.5010
 6830SOL    HW232127   3.319   2.365  15.298  0.7358 -1.4087  0.3163
 6831SOL     OW32128   1.824   2.824   9.338 -0.4747 -0.0227  0.5071
 6831SOL    HW132129   1.906   2.846   9.292 -0.4504 -1.9110 -0.3391
 6831SOL    HW232130   1.836   2.729   9.344  2.5141  0.2997 -0.3484
 6832SOL     OW32131   1.655   4.563  15.879  0.2835 -0.2521  0.1751
 6832SOL    HW132132   1.750   4.573  15.882  0.3323 -0.0487 -1.8292
 6832SOL    HW232133   1.640   4.635  15.818 -1.2455  0.8641  1.9090
 6833SOL     OW32134   0.015   0.121   6.066  0.4232  0.2437 -0.0800
 6833SOL    HW132135   0.016   0.043   6.011  0.2392 -0.5616  1.0444
 6833SOL    HW232136   0.045   0.193   6.010 -1.4602  1.0716 -0.0153
 6834SOL     OW32137   0.247   1.548  16.051  0.1830  0.4177 -0.1013
 6834SOL    HW132138   0.286   1.499  16.124  0.5609  0.9134  0.0290
 6834SOL    HW232139   0.153   1.530  16.041  0.2204 -0.4265  1.0892
 6835SOL     OW32140   4.315   0.646   5.997  0.2103  0.2443  0.2074
 6835SOL    HW132141   4.401   0.682   6.021  0.2013  0.5887 -0.2841
 6835SOL    HW232142   4.315   0.645   5.901  0.3626  1.0371  0.2024
 6836SOL     OW32143   3.987   0.210  11.962  0.0045  0.2617  0.1837
 6836SOL    HW132144   3.962   0.254  11.881  1.8438  0.3577 -0.3346
 6836SOL    HW232145   4.033   0.272  12.018 -1.9911  1.9804 -0.0726
 6837SOL     OW32146   4.436   4.204   4.683  0.4529  0.3974  0.6230
 6837SOL    HW132147   4.381   4.230   4.609  1.1726  2.4356  0.8114
 6837SOL    HW232148   4.435   4.109   4.670  1.1160  0.6348 -1.1500
 6838SOL     OW32149   0.165   3.636   2.443 -0.0671  0.3435 -0.0088
 6838SOL    HW132150   0.252   3.602   2.419  0.1484  1.4089 -0.7201
 6838SOL    HW232151   0.114   3.562   2.409 -0.3845  1.3147 -1.6709
 6839SOL     OW32152   1.957   1.756   7.403  0.3381  0.2956  0.4729
 6839SOL    HW132153   1.902   1.678   7.402  1.6174 -0.5940 -0.4019
 6839SOL    HW232154   1.946   1.789   7.492 -1.3356  1.7822 -0.2948
 6840SOL     OW32155   0.931   0.686   4.897  0.4717 -0.4168  0.3061
 6840SOL    HW132156   0.941   0.630   4.820 -0.2485  0.3641 -0.3590
 6840SOL    HW232157   1.022   0.694   4.925  1.1889  0.9594 -2.4760
 6841SOL     OW32158   1.443   1.523   7.923  0.0586 -0.3123  0.3865
 6841SOL    HW132159   1.348   1.518   7.914 -0.2331  1.3161  2.6463
 6841SOL    HW232160   1.458   1.460   7.994  1.3141  0.3652  0.7338
 6842SOL     OW32161   3.319   3.290   7.376 -0.6970 -0.4129  0.0249
 6842SOL    HW132162   3.397   3.342   7.394  0.6353 -1.8518 -1.5756
 6842SOL    HW232163   3.352   3.206   7.345  4.3576  1.4820  0.3137
 6843SOL     OW32164   2.567   3.545   6.996 -0.4563  0.5103 -0.4559
 6843SOL    HW132165   2.647   3.504   7.029 -0.7930  1.5851  1.7194
 6843SOL    HW232166   2.505   3.516   7.063  2.0160  0.3816  1.7763
 6844SOL     OW32167   1.172   3.762  10.840 -0.0143  0.4248  0.4327
 6844SOL    HW132168   1.188   3.728  10.752  2.1078  1.5938  0.3570
 6844SOL    HW232169   1.111   3.833  10.822 -1.0818 -0.7028 -0.3929
 6845SOL     OW32170   0.219   2.574   4.369 -0.0146 -0.3039  0.0370
 6845SOL    HW132171   0.275   2.622   4.308  0.7265 -0.6648  0.4357
 6845SOL    HW232172   0.230   2.620   4.452 -1.5204 -0.4029  0.2969
 6846SOL     OW32173   0.435   4.653   2.855  0.0006 -0.4615  0.2738
 6846SOL    HW132174   0.481   4.653   2.771 -1.5542  0.4064 -0.5820
 6846SOL    HW232175   0.411   4.561   2.863  4.1624 -1.4593  0.8071
 6847SOL     OW32176   3.867   4.537   8.158 -0.1466  0.0425  0.3929
 6847SOL    HW132177   3.859   4.443   8.178 -0.2820 -0.1331 -0.5027
 6847SOL    HW232178   3.772   4.547   8.153 -0.2191 -1.3964 -1.1119
 6848SOL     OW32179   3.861   1.271   9.057  0.4132  0.2198 -0.6151
 6848SOL    HW132180   3.868   1.178   9.036  1.5115  0.7760 -2.6731
 6848SOL    HW232181   3.917   1.277   9.134  1.5458  1.6909 -1.5607
 6849SOL     OW32182   4.715   2.777   4.161  0.4243  0.9645  0.3972
 6849SOL    HW132183   4.706   2.859   4.114 -2.7817 -0.0980 -0.8515
 6849SOL    HW232184   4.634   2.777   4.214  1.1675 -0.9495  1.5441
 6850SOL     OW32185   0.699   0.468   9.896 -0.6414  0.0027 -0.3035
 6850SOL    HW132186   0.679   0.459   9.803 -2.5985 -1.0322  0.2031
 6850SOL    HW232187   0.662   0.554   9.913 -0.7785 -0.2337  0.5960
 6851SOL     OW32188   1.014   3.515   2.348 -0.0586 -0.0019 -0.1108
 6851SOL    HW132189   1.069   3.576   2.396  1.0832 -0.7207 -0.5102
 6851SOL    HW232190   1.019   3.531   2.253  2.7601  0.8380  0.1819
 6852SOL     OW32191   4.545   2.514   1.722 -0.0510  0.1882  0.6322
 6852SOL    HW132192   4.573   2.605   1.734 -0.0123  0.3529 -0.7599
 6852SOL    HW232193   4.557   2.487   1.814  0.8332  0.0905  0.4938
 6853SOL     OW32194   2.398   0.599  10.775 -0.1416 -0.1211 -0.5868
 6853SOL    HW132195   2.373   0.517  10.733  1.0023 -1.4190  1.2892
 6853SOL    HW232196   2.486   0.578  10.805  0.1002  1.4750 -0.1672
 6854SOL     OW32197   3.066   3.443   4.645  0.1099 -0.3469  0.7456
 6854SOL    HW132198   2.991   3.477   4.596  0.1149 -0.0132  0.9683
 6854SOL    HW232199   3.065   3.489   4.729  0.0621  2.1048 -0.5739
 6855SOL     OW32200   0.734   2.746  10.689 -0.2010 -0.8426 -0.2171
 6855SOL    HW132201   0.650   2.750  10.733 -0.8192  0.0292 -1.4837
 6855SOL    HW232202   0.798   2.722  10.756 -1.7892 -0.7925  1.3195
 6856SOL     OW32203   3.083   0.180   7.321 -0.2990  0.4789  0.7162
 6856SOL    HW132204   3.152   0.247   7.318 -0.6626  0.9251  2.2254
 6856SOL    HW232205   3.015   0.221   7.266 -0.2899  0.0047  0.3535
 6857SOL     OW32206   3.998   2.410  14.029 -0.0728  0.0184  0.0999
 6857SOL    HW132207   4.060   2.483  14.029  0.2429 -0.2527  2.5993
 6857SOL    HW232208   4.045   2.344  13.979 -2.6533 -1.7647 -0.0036
 6858SOL     OW32209   1.065   4.201   4.036  0.8322  0.0216 -0.0443
 6858SOL    HW132210   1.097   4.270   3.978 -3.2599  1.1406 -0.9170
 6858SOL    HW232211   1.104   4.232   4.117  0.8769 -0.9040  0.2935
 6859SOL     OW32212   3.477   3.766  13.726  0.2567 -1.0265 -0.4870
 6859SOL    HW132213   3.420   3.805  13.793  0.7246  0.5783 -1.0377
 6859SOL    HW232214   3.524   3.842  13.693 -0.1298 -1.2594 -1.5918
 6860SOL     OW32215   2.689   4.010   1.542 -0.1784  0.5504  0.6200
 6860SOL    HW132216   2.708   3.953   1.467  1.3975  0.8559  0.7880
 6860SOL    HW232217   2.676   4.092   1.494 -1.2627  0.7149  1.1941
 6861SOL     OW32218   2.157   3.250   6.536 -0.0348  0.3970  0.0454
 6861SOL    HW132219   2.066   3.221   6.537 -0.4844  1.8362  1.0311
 6861SOL    HW232220   2.192   3.194   6.466 -0.1883 -0.4644  0.6578
 6862SOL     OW32221   0.030   3.049  10.145  0.2227 -0.4005  0.4375
 6862SOL    HW132222   4.719   3.109  10.198  1.8137  0.8786  0.5254
 6862SOL    HW232223   0.023   2.966  10.192 -0.0229 -1.5837 -1.6877
 6863SOL     OW32224   2.201   1.582   6.482 -0.5087  0.0400 -0.1434
 6863SOL    HW132225   2.262   1.621   6.545  1.0801 -0.8859 -1.1154
 6863SOL    HW232226   2.169   1.658   6.433 -1.5264 -0.3425 -0.0648
 6864SOL     OW32227   4.283   1.311   6.116  0.0130  0.1068 -0.8715
 6864SOL    HW132228   4.231   1.310   6.197  1.3827 -1.8534 -0.0037
 6864SOL    HW232229   4.324   1.398   6.116 -0.7541  0.4743  1.5813
 6865SOL     OW32230   3.654   2.419  11.410  0.7413  0.2111  0.1958
 6865SOL    HW132231   3.558   2.423  11.419  0.6605 -1.6935  0.1128
 6865SOL    HW232232   3.657   2.358  11.336 -0.0391  1.1226 -0.5908
 6866SOL     OW32233   3.547   1.402   4.014  0.2006 -0.3732  0.2921
 6866SOL    HW132234   3.521   1.438   4.099  0.7721 -1.2292  0.8315
 6866SOL    HW232235   3.517   1.313   4.028 -0.3060 -0.2420  0.0289
 6867SOL     OW32236   2.807   3.304   6.746 -0.0093 -0.5045 -0.1359
 6867SOL    HW132237   2.760   3.245   6.804  1.0297 -0.1067  1.1113
 6867SOL    HW232238   2.751   3.329   6.673  0.7508  1.4700 -0.0357
 6868SOL     OW32239   2.935   1.612   3.228 -0.1284  0.4966  0.7942
 6868SOL    HW132240   2.851   1.577   3.197 -0.9806  1.9498  1.4622
 6868SOL    HW232241   2.920   1.706   3.237 -3.1384  0.1300 -0.2696
 6869SOL     OW32242   2.418   1.543   3.422 -0.2517  0.6704 -0.1105
 6869SOL    HW132243   2.500   1.541   3.471  0.1331  0.0472 -0.7869
 6869SOL    HW232244   2.360   1.557   3.497  2.0711  1.1397  1.5999
 6870SOL     OW32245   2.267   1.069   7.525  0.2723 -0.3981 -0.1828
 6870SOL    HW132246   2.211   1.147   7.522  3.2726  1.7537  0.0858
 6870SOL    HW232247   2.348   1.109   7.494  0.6998 -0.9435  0.2524
 6871SOL     OW32248   1.552   1.427  14.106  0.5872  0.6538 -0.0120
 6871SOL    HW132249   1.602   1.345  14.111 -0.0353  0.2005 -1.1753
 6871SOL    HW232250   1.549   1.437  14.011  0.0507 -3.3847 -0.4403
 6872SOL     OW32251   2.479   0.444   7.203  0.1400 -0.0859 -0.2671
 6872SOL    HW132252   2.404   0.390   7.177  0.7932 -1.8920  1.6053
 6872SOL    HW232253   2.526   0.468   7.123 -0.9072  0.0959 -0.8295
 6873SOL     OW32254   4.034   2.091   5.952  0.2372 -0.2493  0.3011
 6873SOL    HW132255   3.974   2.158   5.984 -0.0023  0.6275 -2.0246
 6873SOL    HW232256   4.105   2.104   6.015  0.9943 -0.1216 -0.5800
 6874SOL     OW32257   2.840   2.971  12.294 -0.2611 -0.4187  0.5548
 6874SOL    HW132258   2.792   3.053  12.289 -2.0112 -1.4895 -0.5349
 6874SOL    HW232259   2.841   2.935  12.205 -3.8569 -2.0655  1.1892
 6875SOL     OW32260   0.474   1.698   4.899 -0.5017  0.1336 -0.5088
 6875SOL    HW132261   0.514   1.621   4.859 -0.9917  0.2631 -1.2494
 6875SOL    HW232262   0.475   1.665   4.989  0.9053 -0.7921 -0.8546
 6876SOL     OW32263   0.108   0.754   1.694 -0.8435  0.5282  0.7149
 6876SOL    HW132264   0.069   0.669   1.714 -1.7762  0.8028  0.0479
 6876SOL    HW232265   0.084   0.764   1.602 -0.1491  1.8709  0.6850
 6877SOL     OW32266   0.647   3.364   6.517 -0.1242  0.2118 -0.6319
 6877SOL    HW132267   0.623   3.353   6.609  4.7693 -1.5818  0.4246
 6877SOL    HW232268   0.725   3.308   6.517 -0.5247 -0.3491  0.2533
 6878SOL     OW32269   3.076   1.923   6.425 -0.2983  0.4193  0.6147
 6878SOL    HW132270   3.033   1.844   6.458 -0.1050  0.3144  0.6131
 6878SOL    HW232271   3.169   1.901   6.437 -1.1846 -4.3925 -1.0748
 6879SOL     OW32272   0.145   3.216   7.068  0.4020 -0.3536  0.0292
 6879SOL    HW132273   0.167   3.137   7.119 -0.4477 -0.3139  0.4530
 6879SOL    HW232274   0.225   3.269   7.070  0.4464 -0.4295  0.3045
 6880SOL     OW32275   0.776   1.468  14.979 -0.5183  0.3833 -0.2852
 6880SOL    HW132276   0.715   1.411  15.026 -0.3029 -0.0439 -0.5161
 6880SOL    HW232277   0.766   1.551  15.025  0.1458  0.5602 -0.4570
 6881SOL     OW32278   2.948   4.121   1.911  0.6475  0.4055  0.5272
 6881SOL    HW132279   2.861   4.105   1.874  0.5387 -0.5338  1.2088
 6881SOL    HW232280   2.970   4.202   1.865 -0.3468  1.8040  2.5064
 6882SOL     OW32281   4.118   0.806   8.865 -0.7527  0.0514 -0.4504
 6882SOL    HW132282   4.182   0.739   8.842 -0.4600  0.6951 -1.5226
 6882SOL    HW232283   4.140   0.820   8.957  1.3347  0.0421 -0.9513
 6883SOL     OW32284   2.773   1.820   2.546 -0.6442  0.2256  0.5449
 6883SOL    HW132285   2.683   1.832   2.577 -0.7480 -1.5777  0.9132
 6883SOL    HW232286   2.758   1.845   2.455  1.7020  1.6891  0.5741
 6884SOL     OW32287   3.544   2.802   8.212  0.4964  0.1592  0.2534
 6884SOL    HW132288   3.466   2.749   8.227  0.0822  0.4430 -0.8545
 6884SOL    HW232289   3.572   2.802   8.120  1.1647 -0.9413  0.4617
 6885SOL     OW32290   2.599   2.840   4.067  0.3432  0.2729 -0.0380
 6885SOL    HW132291   2.576   2.757   4.026  0.4254  0.6786 -0.9066
 6885SOL    HW232292   2.527   2.892   4.032 -0.6739 -0.6505  0.7251
 6886SOL     OW32293   2.431   4.174   1.920 -1.0215 -0.1325  0.4280
 6886SOL    HW132294   2.436   4.256   1.871  1.2590  1.0359  2.5826
 6886SOL    HW232295   2.520   4.145   1.901 -0.5026  1.8367 -0.1363
 6887SOL     OW32296   4.067   2.221  16.086 -1.1243 -0.0221  0.0716
 6887SOL    HW132297   4.064   2.305  16.041 -2.6677 -0.1492 -0.0678
 6887SOL    HW232298   4.143   2.231  16.143  0.1977 -0.8991 -1.5426
 6888SOL     OW32299   2.635   4.357   7.586 -0.5048 -0.0826 -0.1436
 6888SOL    HW132300   2.650   4.298   7.512  0.0130 -2.5416  1.9248
 6888SOL    HW232301   2.680   4.308   7.655 -1.5473 -1.0053 -0.1123
 6889SOL     OW32302   3.196   2.219   8.297 -0.3497  0.2789 -0.3416
 6889SOL    HW132303   3.145   2.275   8.238 -0.2859 -0.4440 -1.0841
 6889SOL    HW232304   3.231   2.149   8.241 -1.5811 -0.8073  0.2612
 6890SOL     OW32305   3.540   3.141   2.094  0.3948  0.1842 -0.1258
 6890SOL    HW132306   3.502   3.143   2.182  1.0886  0.6298  0.1704
 6890SOL    HW232307   3.468   3.125   2.034  0.0516 -1.7411  0.7810
 6891SOL     OW32308   4.664   3.437  10.156  0.2131 -0.0845 -0.4702
 6891SOL    HW132309   4.626   3.440  10.068 -0.3546  3.2444 -0.1085
 6891SOL    HW232310   0.015   3.460  10.140 -0.2104  1.2361 -1.0404
 6892SOL     OW32311   1.209   2.169   3.772  0.2154 -0.6727 -0.3741
 6892SOL    HW132312   1.223   2.100   3.838 -1.2041 -1.9761 -1.4233
 6892SOL    HW232313   1.298   2.204   3.764  1.0014 -2.4718  0.3856
 6893SOL     OW32314   2.910   0.505   7.611 -0.0122  0.4547  0.0990
 6893SOL    HW132315   3.004   0.519   7.606  0.1019 -1.2439 -2.6178
 6893SOL    HW232316   2.884   0.597   7.604  1.4734  0.7606 -1.3598
 6894SOL     OW32317   1.792   1.514   7.991 -0.4648  0.2735 -0.3679
 6894SOL    HW132318   1.783   1.590   7.933 -0.6527  0.1218 -0.5363
 6894SOL    HW232319   1.704   1.496   8.022  0.5924 -0.1445  2.3632
 6895SOL     OW32320   4.675   4.682   2.177 -0.5376 -0.1496  0.0179
 6895SOL    HW132321   4.656   4.603   2.228 -2.2967 -0.2431 -0.7747
 6895SOL    HW232322   4.667   4.649   2.088  2.5365  2.9452 -1.3750
 6896SOL     OW32323   0.329   1.394  16.238  0.1457 -0.4211 -0.4587
 6896SOL    HW132324   0.413   1.349  16.229  0.2556 -0.5809  1.3733
 6896SOL    HW232325   0.312   1.379  16.331 -0.2698 -0.9248 -0.6151
 6897SOL     OW32326   4.248   2.115   5.256 -0.0172  0.3014 -0.1363
 6897SOL    HW132327   4.327   2.106   5.203 -0.0313  1.5431 -0.3739
 6897SOL    HW232328   4.205   2.030   5.266 -0.7594  0.3761 -2.7026
 6898SOL     OW32329   3.294   1.684  15.954 -0.4422 -0.2204 -0.6205
 6898SOL    HW132330   3.199   1.691  15.945 -0.3663  3.1285  1.4488
 6898SOL    HW232331   3.312   1.731  16.036 -3.3459 -1.4382  0.7102
 6899SOL     OW32332   2.812   2.637  11.789 -0.0913 -0.3311  0.3947
 6899SOL    HW132333   2.731   2.614  11.743 -1.6112 -0.0767  2.9510
 6899SOL    HW232334   2.772   2.661  11.873 -0.8716  2.1628 -0.6900
 6900SOL     OW32335   4.491   3.772   9.183  0.3040 -0.6335 -0.1568
 6900SOL    HW132336   4.587   3.765   9.181  0.4361  0.2287  2.6689
 6900SOL    HW232337   4.455   3.684   9.191  0.8356 -0.6517  2.0531
 6901SOL     OW32338   1.441   0.536  10.371 -0.0962 -0.1754  0.3535
 6901SOL    HW132339   1.363   0.589  10.351  2.0857  3.4066  1.3182
 6901SOL    HW232340   1.493   0.596  10.425  1.6559  1.0582 -2.7061
 6902SOL     OW32341   0.983   3.161   5.129  0.7262 -0.5971  0.2275
 6902SOL    HW132342   1.035   3.110   5.067  0.0224 -0.7794 -0.2146
 6902SOL    HW232343   0.970   3.100   5.201  0.7177  0.4973  1.1577
 6903SOL     OW32344   1.917   0.875   4.354  0.8493 -0.2637 -0.2079
 6903SOL    HW132345   1.984   0.873   4.286  1.2356 -0.6512  0.1747
 6903SOL    HW232346   1.885   0.786   4.337 -1.2826  0.4071  0.2956
 6904SOL     OW32347   0.892   2.925   6.691 -0.1192 -0.5668  0.3847
 6904SOL    HW132348   0.904   2.909   6.785 -2.0253 -0.4984  0.6311
 6904SOL    HW232349   0.798   2.914   6.677  0.4143 -2.1368 -1.9602
 6905SOL     OW32350   1.074   0.005  11.537 -0.0962  0.3197  0.2737
 6905SOL    HW132351   1.136   0.062  11.491 -1.5472  1.5526 -0.1200
 6905SOL    HW232352   1.007   0.069  11.559 -0.5779  0.6753 -2.2429
 6906SOL     OW32353   0.304   4.089  10.823 -0.7337  0.0835  0.6416
 6906SOL    HW132354   0.225   4.099  10.875  0.2970  1.1488  2.0151
 6906SOL    HW232355   0.274   4.106  10.734 -3.3225  1.1617  1.7149
 6907SOL     OW32356   4.723   2.175   4.485 -0.1601 -0.5144 -0.0502
 6907SOL    HW132357   0.022   2.140   4.405 -0.0670 -2.4715  0.8548
 6907SOL    HW232358   0.025   2.128   4.557 -0.3989  0.1308  0.5149
 6908SOL     OW32359   3.837   0.667   2.733 -0.1870 -0.5695 -0.0208
 6908SOL    HW132360   3.772   0.629   2.792  0.2150  1.3238  1.6588
 6908SOL    HW232361   3.882   0.739   2.779 -1.5485 -0.1949  0.7443
 6909SOL     OW32362   3.303   4.727   4.410 -0.1369 -0.5042 -0.2432
 6909SOL    HW132363   3.350   4.708   4.329 -1.2253  0.0882 -1.0057
 6909SOL    HW232364   3.368   0.044   4.450 -1.6489  0.7205  0.4270
 6910SOL     OW32365   2.172   2.422  12.082 -0.4271  0.6455  0.8691
 6910SOL    HW132366   2.087   2.388  12.054 -0.0225 -1.1325  1.7661
 6910SOL    HW232367   2.150   2.462  12.166 -1.9300  1.1637  0.2323
 6911SOL     OW32368   2.104   3.431  13.372 -0.8853 -0.0706  0.2125
 6911SOL    HW132369   2.100   3.441  13.277 -1.3300  0.8916  0.3384
 6911SOL    HW232370   2.196   3.453  13.391 -0.6075  1.5481 -3.0766
 6912SOL     OW32371   2.642   2.003   2.055  0.0353 -0.0151 -0.1844
 6912SOL    HW132372   2.594   1.962   1.983 -1.1795 -2.1041  1.8193
 6912SOL    HW232373   2.652   1.934   2.120  1.7796  0.9555  0.5883
 6913SOL     OW32374   4.247   2.103   6.406 -0.4816 -0.6432  0.7999
 6913SOL    HW132375   4.257   2.170   6.474  1.5388  0.6689 -0.8009
 6913SOL    HW232376   4.342   2.089   6.399 -0.3621  1.3062 -1.4713
 6914SOL     OW32377   0.708   2.221   8.749  0.3711 -0.1805 -0.0233
 6914SOL    HW132378   0.619   2.249   8.767  1.0875  2.2109 -0.2243
 6914SOL    HW232379   0.743   2.300   8.709 -3.4252  0.3289 -2.3303
 6915SOL     OW32380   2.030   3.141  15.983 -0.3522 -0.2531 -0.4038
 6915SOL    HW132381   2.098   3.076  16.001 -0.9411 -0.8452 -0.3215
 6915SOL    HW232382   2.081   3.208  15.939  0.3671 -0.7654 -0.3416
 6916SOL     OW32383   0.506   1.120   3.296  0.0869  0.1287 -0.0811
 6916SOL    HW132384   0.477   1.172   3.221 -0.5956 -1.0156 -0.6020
 6916SOL    HW232385   0.588   1.164   3.318  0.2779 -0.3573  0.1723
 6917SOL     OW32386   2.202   3.741  12.937  0.5925  0.0589 -0.2158
 6917SOL    HW132387   2.242   3.673  12.883 -0.4589 -0.6108 -0.1517
 6917SOL    HW232388   2.113   3.744  12.902 -0.0813 -0.4131  1.4517
 6918SOL     OW32389   3.039   0.839   7.378 -0.3264 -0.2782  0.1434
 6918SOL    HW132390   2.979   0.767   7.361 -0.8757 -0.0666  1.1883
 6918SOL    HW232391   3.009   0.900   7.311 -0.8256  0.3099  0.9079
 6919SOL     OW32392   3.339   4.383   5.994  0.3666  0.3134  0.2459
 6919SOL    HW132393   3.298   4.389   6.080 -0.6100  0.5490 -0.2333
 6919SOL    HW232394   3.261   4.368   5.939  1.1488  1.3092 -1.1525
 6920SOL     OW32395   4.607   1.823   8.241  0.1341 -0.1528 -0.5664
 6920SOL    HW132396   4.686   1.855   8.285 -0.7702  1.8234 -0.4309
 6920SOL    HW232397   4.618   1.731   8.214  1.9672  0.3102 -1.4242
 6921SOL     OW32398   1.514   3.946   7.223 -0.2170 -0.6471  0.5179
 6921SOL    HW132399   1.467   4.025   7.250  1.0000 -0.6961  2.7072
 6921SOL    HW232400   1.600   3.987   7.237 -0.6871  1.0909 -1.5587
 6922SOL     OW32401   0.395   1.884   3.612 -0.7431 -0.5790 -0.0562
 6922SOL    HW132402   0.301   1.879   3.594 -0.5320  1.9626 -1.8680
 6922SOL    HW232403   0.392   1.959   3.672 -2.7670  1.0303 -2.1341
 6923SOL     OW32404   0.422   2.098   9.048  0.1331 -0.1881 -0.6266
 6923SOL    HW132405   0.518   2.103   9.056  0.0513  0.3368  0.0299
 6923SOL    HW232406   0.395   2.009   9.066  0.7872 -0.1321  0.6069
 6924SOL     OW32407   2.635   4.559   9.037 -0.3274  0.1858 -0.2959
 6924SOL    HW132408   2.570   4.555   8.966  0.2124  0.1666 -0.7874
 6924SOL    HW232409   2.667   4.469   9.029  1.3798  0.5923  1.8887
 6925SOL     OW32410   1.071   1.867   1.993 -0.3392 -0.4972 -0.3751
 6925SOL    HW132411   1.094   1.846   1.902  0.4152  2.5389 -0.8785
 6925SOL    HW232412   1.043   1.783   2.028  1.4913 -1.2522 -0.7201
 6926SOL     OW32413   3.307   4.672   5.346 -0.9132 -0.1344  0.5053
 6926SOL    HW132414   3.313   0.021   5.379 -2.4629  0.2134 -0.1731
 6926SOL    HW232415   3.246   4.683   5.273 -2.5743 -0.6617  1.8243
 6927SOL     OW32416   4.193   1.492  15.445  0.3252 -0.7721  0.4601
 6927SOL    HW132417   4.245   1.571  15.431  0.8840 -1.0950  0.6902
 6927SOL    HW232418   4.254   1.444  15.502  0.8258  0.1522  0.6917
 6928SOL     OW32419   3.936   2.273   3.839  0.2092  0.1943  0.0526
 6928SOL    HW132420   3.841   2.266   3.837  0.3629 -2.6356  2.0878
 6928SOL    HW232421   3.956   2.275   3.745  2.8514  3.3190  0.6592
 6929SOL     OW32422   1.053   1.626   4.755  0.1253  0.1775  0.1614
 6929SOL    HW132423   0.984   1.560   4.749 -0.0468  0.2830  0.8867
 6929SOL    HW232424   1.046   1.653   4.664 -0.3610 -0.5523 -0.0146
 6930SOL     OW32425   2.534   0.181   5.290 -0.0300  0.0584 -0.2674
 6930SOL    HW132426   2.603   0.209   5.351 -0.7220  0.1773  0.4559
 6930SOL    HW232427   2.566   0.093   5.267 -0.5903 -0.7349  1.9663
 6931SOL     OW32428   0.353   2.823   9.856 -0.0180  0.2296 -0.7614
 6931SOL    HW132429   0.288   2.790   9.918 -0.9041  1.9343 -0.7937
 6931SOL    HW232430   0.403   2.887   9.907  1.2276  0.0481 -1.7472
 6932SOL     OW32431   2.272   0.982  14.770  0.2606  0.0224 -0.7336
 6932SOL    HW132432   2.343   0.980  14.834 -0.9050  0.2373  0.5482
 6932SOL    HW232433   2.290   0.905  14.716  1.2782  0.8201 -1.5115
 6933SOL     OW32434   2.654   4.509  13.335  0.2496  0.2154 -0.0889
 6933SOL    HW132435   2.569   4.550  13.351  0.3311  0.4837 -0.3332
 6933SOL    HW232436   2.634   4.422  13.367 -1.7266 -0.3326 -2.7623
 6934SOL     OW32437   2.914   0.123   5.644 -0.1108 -0.1163  0.0795
 6934SOL    HW132438   2.937   0.147   5.734 -0.7620 -0.8896  0.4415
 6934SOL    HW232439   2.932   0.029   5.645  0.8462  0.0435 -1.6789
 6935SOL     OW32440   2.755   3.572   7.351  0.0036  0.1650  0.2520
 6935SOL    HW132441   2.812   3.639   7.314 -0.9853  1.3548  0.8815
 6935SOL    HW232442   2.746   3.616   7.436 -0.7680  0.4549  0.0215
 6936SOL     OW32443   2.801   3.482   9.276 -0.1689  0.0567 -0.1652
 6936SOL    HW132444   2.887   3.511   9.307 -0.1060  1.2094 -1.4066
 6936SOL    HW232445   2.809   3.387   9.281  0.2268  0.1443  0.9555
 6937SOL     OW32446   3.112   1.504   7.365  0.3511  0.4412  0.0485
 6937SOL    HW132447   3.099   1.594   7.335 -0.8846 -0.2817 -1.5428
 6937SOL    HW232448   3.155   1.473   7.284 -0.4616 -0.9248  0.1367
 6938SOL     OW32449   3.422   1.878  15.754  0.1097 -0.3581 -0.0024
 6938SOL    HW132450   3.415   1.932  15.833  1.0383  2.2271 -1.6636
 6938SOL    HW232451   3.392   1.794  15.787  0.0448  0.2957  1.5892
 6939SOL     OW32452   3.767   0.063   1.893 -0.0593  0.3003 -0.3397
 6939SOL    HW132453   3.733   0.003   1.959 -0.6119  0.3169 -0.6037
 6939SOL    HW232454   3.862   0.055   1.893  0.1313  2.3112 -1.3850
 6940SOL     OW32455   3.963   2.569   0.365 -0.3179  0.5193  0.4081
 6940SOL    HW132456   3.883   2.518   0.378  1.0174 -0.7415  3.6161
 6940SOL    HW232457   3.967   2.562   0.270 -3.8778 -0.2663  0.3140
 6941SOL     OW32458   2.041   4.055   3.805 -0.2431 -0.1649  0.1564
 6941SOL    HW132459   2.058   4.149   3.802 -1.8007  0.0898 -0.7877
 6941SOL    HW232460   2.127   4.022   3.779 -0.0973  0.9400 -0.7344
 6942SOL     OW32461   0.829   3.888  16.677 -0.0111  0.9124  0.2127
 6942SOL    HW132462   0.828   3.923  16.766  0.2022 -1.0655  0.9975
 6942SOL    HW232463   0.743   3.910  16.643  1.1594  3.0577 -1.3645
 6943SOL     OW32464   1.601   0.675  17.345 -0.2078  0.4190 -0.2330
 6943SOL    HW132465   1.666   0.706  17.282  0.0140 -1.8800 -1.1138
 6943SOL    HW232466   1.518   0.703  17.307 -0.5262 -2.2470 -1.4912
 6944SOL     OW32467   0.718   0.749   3.380 -0.1107 -0.0213  0.5157
 6944SOL    HW132468   0.690   0.754   3.471  0.0415 -1.5641  0.6455
 6944SOL    HW232469   0.772   0.828   3.375  1.0106 -0.8225  0.0644
 6945SOL     OW32470   4.569   2.069  10.491  0.3277  0.1391 -0.0481
 6945SOL    HW132471   4.539   2.025  10.570 -1.6787 -3.2354 -2.6964
 6945SOL    HW232472   4.661   2.091  10.509  0.4883 -0.2853 -0.3572
 6946SOL     OW32473   2.448   2.544   8.004 -0.1557  0.1294  0.2159
 6946SOL    HW132474   2.415   2.633   8.011 -0.1273  0.0728  1.1718
 6946SOL    HW232475   2.470   2.532   8.097 -1.7162 -1.5937  0.3583
 6947SOL     OW32476   4.728   3.646  15.224  0.7559  0.4030  0.5400
 6947SOL    HW132477   4.649   3.591  15.227  0.6354  0.2893 -4.1780
 6947SOL    HW232478   0.065   3.593  15.205  0.0043 -0.2539 -0.6819
 6948SOL     OW32479   4.678   1.460   6.115  0.7353 -0.4037  0.5704
 6948SOL    HW132480   4.655   1.401   6.187 -1.8988  1.7372  1.4816
 6948SOL    HW232481   0.033   1.451   6.118  0.8446 -0.0474 -1.4045
 6949SOL     OW32482   3.638   3.756  10.633  0.0946  0.4964 -0.2709
 6949SOL    HW132483   3.721   3.713  10.616  0.8028  1.6515  0.2707
 6949SOL    HW232484   3.594   3.729  10.552  1.0299 -0.8241 -0.3273
 6950SOL     OW32485   3.374   3.811  10.018 -0.0537  0.5692 -0.1626
 6950SOL    HW132486   3.372   3.809  10.114 -0.4019  1.5622 -0.1526
 6950SOL    HW232487   3.434   3.884  10.006 -0.2011  0.2818 -2.6632
 6951SOL     OW32488   1.685   0.238   6.292  0.6484  0.6384  0.6267
 6951SOL    HW132489   1.739   0.177   6.342  0.9058  0.3459 -0.0171
 6951SOL    HW232490   1.661   0.186   6.216 -1.3733 -0.6364  2.1237
 6952SOL     OW32491   4.384   3.686   0.950 -0.8516 -0.0484  0.2070
 6952SOL    HW132492   4.411   3.685   1.042  0.9260 -2.3988 -0.3507
 6952SOL    HW232493   4.456   3.732   0.908 -0.1556 -2.1343 -0.8875
 6953SOL     OW32494   4.523   3.930   6.191 -0.0826  0.2198  0.4623
 6953SOL    HW132495   4.489   4.003   6.243 -0.2131  2.0121 -2.1617
 6953SOL    HW232496   4.462   3.927   6.118 -1.1879  0.1883  1.3925
 6954SOL     OW32497   4.063   0.238  14.393 -0.7944  0.0542  0.4236
 6954SOL    HW132498   4.075   0.146  14.416  0.6914  0.0990 -0.1487
 6954SOL    HW232499   4.148   0.278  14.414 -0.1695 -0.1713 -1.6694
 6955SOL     OW32500   3.618   1.957  12.984  0.3075 -0.0028 -0.6740
 6955SOL    HW132501   3.558   1.973  12.911 -0.8561 -2.5594 -0.2938
 6955SOL    HW232502   3.590   2.017  13.053  0.7582 -0.4074 -0.1470
 6956SOL     OW32503   4.088   4.367   7.747  0.0305 -0.4945  0.4557
 6956SOL    HW132504   4.051   4.282   7.724 -0.3170  0.2458 -1.7089
 6956SOL    HW232505   4.009   4.417   7.725 -0.0778 -1.7958 -2.1446
 6957SOL     OW32506   4.265   3.386   6.932  0.0953 -0.3487 -0.0621
 6957SOL    HW132507   4.336   3.421   6.986 -0.1907  1.3989 -0.7955
 6957SOL    HW232508   4.253   3.299   6.969 -1.5228 -0.2837 -0.4255
 6958SOL     OW32509   3.581   0.681   7.630 -0.2531  1.0042 -0.1731
 6958SOL    HW132510   3.661   0.724   7.601  1.1167 -1.0755  0.5678
 6958SOL    HW232511   3.554   0.750   7.691 -1.8959  0.1422  0.0753
 6959SOL     OW32512   4.142   2.627  12.748 -0.1329 -0.2731  0.0159
 6959SOL    HW132513   4.185   2.690  12.807  1.3133 -1.9734  0.7805
 6959SOL    HW232514   4.180   2.653  12.664 -2.5374  1.9417 -0.3830
 6960SOL     OW32515   3.265   2.774   5.108 -0.0820  0.0422  0.2197
 6960SOL    HW132516   3.312   2.832   5.049 -1.7014  2.3041  1.1238
 6960SOL    HW232517   3.297   2.815   5.189  1.5427 -0.1804 -0.3143
 6961SOL     OW32518   4.720   2.218   9.713  0.0030  0.1540 -0.1159
 6961SOL    HW132519   4.643   2.228   9.769 -1.9675  0.3470 -2.8851
 6961SOL    HW232520   0.030   2.292   9.747  0.1785 -0.6077  1.3003
 6962SOL     OW32521   1.463   1.923   8.594  0.1670 -0.2706  0.6282
 6962SOL    HW132522   1.442   1.842   8.547 -0.5189 -0.1291  0.6928
 6962SOL    HW232523   1.383   1.975   8.592  0.3997  0.0468 -0.7063
 6963SOL     OW32524   3.254   1.996   8.115  0.2343 -0.4452  0.3508
 6963SOL    HW132525   3.260   2.035   8.028  1.5928  1.8699  1.4727
 6963SOL    HW232526   3.347   1.976   8.128  0.8840  2.3988  0.1925
 6964SOL     OW32527   3.864   0.799   7.316  0.0124 -0.1051 -0.0821
 6964SOL    HW132528   3.837   0.815   7.407 -1.4362  0.4616 -0.6074
 6964SOL    HW232529   3.859   0.704   7.315 -0.0318 -0.0804 -2.2625
 6965SOL     OW32530   2.858   2.149   7.980 -0.1476  0.1126  0.8869
 6965SOL    HW132531   2.854   2.190   8.066 -0.3164 -1.5855  1.6901
 6965SOL    HW232532   2.821   2.061   7.988  1.7690 -0.7072  0.8822
 6966SOL     OW32533   4.642   1.918   3.389  0.6362  0.1036 -0.0545
 6966SOL    HW132534   4.584   1.929   3.314 -0.4831 -0.3856  0.7372
 6966SOL    HW232535   4.597   1.851   3.441 -0.3095  1.0561  0.3647
 6967SOL     OW32536   2.268   0.527  13.241  0.1104  0.4093 -0.2527
 6967SOL    HW132537   2.300   0.439  13.256 -1.6733 -0.3712 -0.9842
 6967SOL    HW232538   2.346   0.581  13.248  0.4095 -0.3668  2.4702
 6968SOL     OW32539   0.074   1.827   1.573  0.2777 -0.1102 -0.4465
 6968SOL    HW132540   0.050   1.741   1.609 -1.3350  0.7312  0.5135
 6968SOL    HW232541   0.165   1.815   1.545 -0.7710  0.4949 -4.1715
 6969SOL     OW32542   4.116   2.929   7.603  0.3510  0.3526  0.2321
 6969SOL    HW132543   4.133   2.858   7.664 -3.0381 -0.3095  0.4023
 6969SOL    HW232544   4.157   2.900   7.521  1.9542  0.3177  1.0457
 6970SOL     OW32545   2.955   4.303   7.520  0.1154 -0.0866 -0.0622
 6970SOL    HW132546   3.028   4.261   7.565  0.3591  0.1104 -0.2718
 6970SOL    HW232547   2.917   4.229   7.473 -1.3490  1.1229 -0.8009
 6971SOL     OW32548   1.201   1.418  14.286  0.0376  0.0435  0.9981
 6971SOL    HW132549   1.227   1.346  14.228  1.7790  1.7844 -0.3585
 6971SOL    HW232550   1.279   1.473  14.293 -0.4164  0.8945 -0.7706
 6972SOL     OW32551   0.447   4.245   2.416  0.6033 -0.4449 -0.4118
 6972SOL    HW132552   0.505   4.285   2.480  2.6156 -0.9406 -1.8917
 6972SOL    HW232553   0.437   4.153   2.442 -2.6505 -0.1848 -0.7244
 6973SOL     OW32554   1.153   2.071   9.069  0.4361  0.0822 -0.3229
 6973SOL    HW132555   1.148   2.162   9.039  3.1211 -0.0784 -1.2698
 6973SOL    HW232556   1.070   2.030   9.045 -0.3984  3.4550 -3.1613
 6974SOL     OW32557   3.576   0.901   4.960  0.0165  0.2802 -0.1514
 6974SOL    HW132558   3.508   0.878   5.023  2.4978 -3.6485  1.1030
 6974SOL    HW232559   3.548   0.992   4.955 -2.2673 -0.3428  1.5554
 6975SOL     OW32560   0.526   2.199   3.734 -0.1346 -0.5812  0.0624
 6975SOL    HW132561   0.591   2.148   3.685  1.1957  0.8497  0.3433
 6975SOL    HW232562   0.591   2.264   3.762  1.1019 -1.3108 -1.0916
 6976SOL     OW32563   0.731   2.679   4.226 -0.5853 -0.6129  0.3923
 6976SOL    HW132564   0.764   2.769   4.225 -0.0505 -0.8019  0.7276
 6976SOL    HW232565   0.751   2.657   4.135 -4.6946 -0.8036 -0.4585
 6977SOL     OW32566   1.582   1.406   3.553  0.4191  0.1939  0.6089
 6977SOL    HW132567   1.603   1.325   3.601  1.4150 -0.3394 -0.7205
 6977SOL    HW232568   1.526   1.452   3.615 -1.6501 -1.1361 -0.3040
 6978SOL     OW32569   2.473   2.615  10.095  0.0255 -0.3943 -0.5828
 6978SOL    HW132570   2.504   2.683  10.036  1.0871 -1.8760 -1.7222
 6978SOL    HW232571   2.396   2.662  10.129  1.8128  1.8550  0.3540
 6979SOL     OW32572   1.019   3.943  13.845  0.3736  0.2359 -0.2415
 6979SOL    HW132573   0.964   3.866  13.858 -0.9593  1.4557  1.2810
 6979SOL    HW232574   1.070   3.911  13.771 -0.1028  0.6947 -0.7631
 6980SOL     OW32575   4.485   1.123   9.567 -0.4221  0.3358  0.1636
 6980SOL    HW132576   4.548   1.052   9.559 -0.0469  0.4597  1.9706
 6980SOL    HW232577   4.466   1.142   9.475 -1.0490  2.2814  0.6924
 6981SOL     OW32578   0.195   0.305  14.659  0.1201  0.2076  0.3313
 6981SOL    HW132579   0.154   0.391  14.669 -0.2450  0.0940 -0.1660
 6981SOL    HW232580   0.187   0.256  14.740  0.7886  0.4213  0.5291
 6982SOL     OW32581   4.144   1.652  15.766 -0.0259 -0.1823  0.3267
 6982SOL    HW132582   4.161   1.743  15.791  0.3300 -0.1907  0.1164
 6982SOL    HW232583   4.056   1.660  15.730 -0.2447  0.6871  1.0581
 6983SOL     OW32584   0.146   0.479  17.166 -0.8469 -0.0877  0.0176
 6983SOL    HW132585   0.092   0.544  17.121  1.7946  2.1505  0.0857
 6983SOL    HW232586   0.091   0.403  17.147  0.7421 -1.4680  0.9639
 6984SOL     OW32587   0.339   0.273   8.752 -0.2705  0.1743 -0.1356
 6984SOL    HW132588   0.400   0.213   8.796 -0.2981  1.2067  1.3007
 6984SOL    HW232589   0.285   0.304   8.824  0.0634  1.0236 -0.2459
 6985SOL     OW32590   4.161   0.351   6.364 -0.6037 -0.5481 -0.0517
 6985SOL    HW132591   4.218   0.421   6.333 -1.8360  1.0945  1.4011
 6985SOL    HW232592   4.133   0.329   6.276 -0.1091  0.4575 -0.4592
 6986SOL     OW32593   0.371   2.202   7.485  0.3646 -0.0257  0.0999
 6986SOL    HW132594   0.444   2.147   7.514 -0.0507 -0.4213  0.4000
 6986SOL    HW232595   0.413   2.282   7.516 -0.2511  0.7890 -1.1473
 6987SOL     OW32596   0.500   1.922  10.193  0.0923  0.0098 -0.2883
 6987SOL    HW132597   0.497   1.862  10.267  1.1304 -0.8014 -0.9165
 6987SOL    HW232598   0.590   1.953  10.183  0.1975 -0.5361 -1.0142
 6988SOL     OW32599   0.153   2.234   8.532  0.2055 -0.2810  0.2164
 6988SOL    HW132600   0.117   2.191   8.609 -0.1224  0.1833  0.3251
 6988SOL    HW232601   0.092   2.197   8.468 -0.3988 -0.2360  0.7595
 6989SOL     OW32602   2.971   1.628   6.965 -0.5033  0.2516 -0.0005
 6989SOL    HW132603   2.928   1.658   6.885 -2.1411 -0.4894  0.6121
 6989SOL    HW232604   3.055   1.674   6.964 -0.8866  0.9540 -0.1950
 6990SOL     OW32605   3.118   2.174  12.992 -0.5543  0.5925 -0.2548
 6990SOL    HW132606   3.146   2.099  13.045  0.9483  1.9461  0.8615
 6990SOL    HW232607   3.163   2.248  13.032  2.0675 -1.2747  0.2624
 6991SOL     OW32608   0.259   0.459   1.519 -0.4684 -0.7397  0.2298
 6991SOL    HW132609   0.287   0.370   1.539  1.3084 -0.3370 -0.4885
 6991SOL    HW232610   0.341   0.508   1.528 -2.1030  1.9271  0.6249
 6992SOL     OW32611   2.513   2.355   1.006  0.0433  0.5281  0.5862
 6992SOL    HW132612   2.568   2.356   1.084  1.8319 -2.8063 -0.6112
 6992SOL    HW232613   2.551   2.424   0.953 -2.2404 -1.0847 -3.1654
 6993SOL     OW32614   2.098   0.324   2.698  0.3818  0.3755 -0.4348
 6993SOL    HW132615   2.071   0.334   2.789 -0.3428 -2.3059 -0.3472
 6993SOL    HW232616   2.024   0.291   2.647  0.9834  0.0233 -1.0733
 6994SOL     OW32617   2.347   1.564  11.006 -0.0324  0.3551  0.4798
 6994SOL    HW132618   2.302   1.647  10.993 -0.8509  0.0932  1.6422
 6994SOL    HW232619   2.437   1.579  10.977  0.0215  1.5191  1.2727
 6995SOL     OW32620   1.597   0.836   7.844  0.6558 -0.6271  0.1342
 6995SOL    HW132621   1.555   0.773   7.786 -1.9933  0.1191  1.2347
 6995SOL    HW232622   1.673   0.792   7.882  1.5017 -0.8633 -1.8318
 6996SOL     OW32623   2.350   0.766   0.394  0.0603 -0.2157  0.0679
 6996SOL    HW132624   2.271   0.711   0.387  1.1671 -2.0604  2.1847
 6996SOL    HW232625   2.401   0.694   0.430 -0.4723  0.5610  2.3749
 6997SOL     OW32626   3.372   0.827   2.338 -0.1055  0.2600  0.1318
 6997SOL    HW132627   3.421   0.754   2.377  0.1765 -0.7986 -2.2161
 6997SOL    HW232628   3.418   0.900   2.381 -2.3907  2.0490 -0.4767
 6998SOL     OW32629   4.150   4.068   6.722 -0.3898  0.0795 -0.4760
 6998SOL    HW132630   4.187   4.049   6.808  2.1282  3.4405 -0.8312
 6998SOL    HW232631   4.083   4.133   6.740  0.0415  0.6441 -0.9090
 6999SOL     OW32632   4.321   4.026   3.674 -0.0636  0.2152  0.5802
 6999SOL    HW132633   4.387   4.050   3.608  0.5419  0.0491  1.1182
 6999SOL    HW232634   4.242   4.066   3.639 -2.1318  0.2559  5.3730
 7000SOL     OW32635   2.864   0.811   3.912 -0.5357 -0.3650  0.1567
 7000SOL    HW132636   2.935   0.871   3.936 -0.5088  0.1709 -1.2702
 7000SOL    HW232637   2.862   0.827   3.818  1.4750  1.8957  0.4991
 7001SOL     OW32638   1.634   3.286   3.835 -0.1650 -0.4212  0.0751
 7001SOL    HW132639   1.598   3.254   3.753  0.2707 -1.5630  0.3269
 7001SOL    HW232640   1.579   3.235   3.895 -1.4871  0.7591 -0.1411
 7002SOL     OW32641   0.826   2.816   6.320 -0.0780  0.3826 -0.1385
 7002SOL    HW132642   0.882   2.744   6.347 -0.4581 -1.4882 -4.2709
 7002SOL    HW232643   0.749   2.799   6.375  0.8974 -2.3495  0.3886
 7003SOL     OW32644   1.734   1.249   0.190  0.1153 -0.4001 -0.0639
 7003SOL    HW132645   1.800   1.298   0.142 -0.2775 -0.7807 -0.9797
 7003SOL    HW232646   1.656   1.282   0.147 -0.2881 -1.7329 -0.3536
 7004SOL     OW32647   2.590   2.890   1.891  0.8312  0.7372  0.2050
 7004SOL    HW132648   2.503   2.862   1.919  1.8867 -1.3755  1.3340
 7004SOL    HW232649   2.570   2.984   1.887 -0.6449  0.4788  1.5065
 7005SOL     OW32650   1.554   4.358  12.243 -0.4112  0.4229  0.2137
 7005SOL    HW132651   1.485   4.306  12.283  1.1866 -0.3636  1.9729
 7005SOL    HW232652   1.506   4.412  12.181  2.0535  1.2695 -0.9704
 7006SOL     OW32653   2.031   3.821   5.940  0.3452 -0.0360  0.0332
 7006SOL    HW132654   1.952   3.823   5.993  0.8262 -4.1123  0.8721
 7006SOL    HW232655   1.999   3.811   5.850 -1.3380 -0.5763  0.7061
 7007SOL     OW32656   2.243   2.711  12.842 -0.7941 -0.8730 -0.4309
 7007SOL    HW132657   2.232   2.753  12.757 -1.3906 -0.2927 -0.0606
 7007SOL    HW232658   2.282   2.630  12.807  1.3307 -0.0256 -0.0402
 7008SOL     OW32659   0.201   4.675   0.768 -0.2893 -0.2198  0.4467
 7008SOL    HW132660   0.181   4.613   0.838 -2.2004  1.0186  0.9943
 7008SOL    HW232661   0.222   4.626   0.688  2.4301 -0.6802  1.4561
 7009SOL     OW32662   1.437   4.153   2.528  0.0097  0.0939 -0.3079
 7009SOL    HW132663   1.433   4.189   2.616 -3.1362 -1.6789  0.2552
 7009SOL    HW232664   1.523   4.110   2.524  1.3462  2.6998  0.4207
 7010SOL     OW32665   2.858   3.877   7.534 -0.2117  0.0760  0.3017
 7010SOL    HW132666   2.772   3.880   7.576 -1.0223 -2.4847 -1.2151
 7010SOL    HW232667   2.889   3.794   7.569  1.5024  0.0935 -1.1497
 7011SOL     OW32668   2.545   4.157   4.142  0.5339  0.4012 -0.4646
 7011SOL    HW132669   2.628   4.205   4.140 -0.4457  2.1707  0.9005
 7011SOL    HW232670   2.501   4.172   4.226  1.5000  4.1225 -0.6093
 7012SOL     OW32671   1.030   0.836  16.532  0.0965  0.5834 -0.0456
 7012SOL    HW132672   1.122   0.812  16.518  0.3763  1.2840  0.5709
 7012SOL    HW232673   1.019   0.827  16.627 -1.6304 -0.7311 -0.3744
 7013SOL     OW32674   2.537   2.747  14.406  0.0503 -0.7364  0.0976
 7013SOL    HW132675   2.571   2.693  14.335 -1.4757 -2.4926  0.7172
 7013SOL    HW232676   2.506   2.823  14.357 -2.2192 -0.7587  1.5189
 7014SOL     OW32677   1.656   4.726   2.586  0.0102 -0.2506 -0.4498
 7014SOL    HW132678   1.593   4.696   2.652  0.1442 -1.0889 -0.7127
 7014SOL    HW232679   1.673   4.646   2.537  0.9658 -0.1031 -0.3495
 7015SOL     OW32680   0.723   0.483   5.766  0.4047  0.0144 -0.2771
 7015SOL    HW132681   0.658   0.507   5.832  1.2788  1.4033  0.0767
 7015SOL    HW232682   0.719   0.387   5.769 -0.1303  0.0454  0.0258
 7016SOL     OW32683   2.329   0.062   2.276  0.2026  0.4152 -0.2168
 7016SOL    HW132684   2.250   0.115   2.278 -1.1969 -1.6232 -1.0797
 7016SOL    HW232685   2.281   4.720   2.284  0.1486  0.5320  0.6712
 7017SOL     OW32686   3.448   1.308   3.084 -0.0591  0.1231  0.2196
 7017SOL    HW132687   3.355   1.325   3.068 -0.0121  0.2862  0.1252
 7017SOL    HW232688   3.450   1.263   3.169  1.4061 -1.3883 -0.6181
 7018SOL     OW32689   2.821   3.140   7.858 -0.3620 -0.5430  0.6256
 7018SOL    HW132690   2.875   3.073   7.901 -0.3676 -1.7407 -1.2415
 7018SOL    HW232691   2.830   3.115   7.766 -0.6388 -1.4912  0.8543
 7019SOL     OW32692   0.589   3.242   6.757  0.2668 -0.2900 -0.2281
 7019SOL    HW132693   0.611   3.154   6.786  2.0609  0.2054 -0.1167
 7019SOL    HW232694   0.593   3.286   6.842 -0.8136  2.1136 -1.4344
 7020SOL     OW32695   1.025   1.013  12.065 -0.3474 -0.3523 -0.1112
 7020SOL    HW132696   0.936   1.006  12.098 -0.1496  0.7672  0.6514
 7020SOL    HW232697   1.064   1.081  12.119  1.4332 -0.4929 -1.1981
 7021SOL     OW32698   2.371   0.026  12.701  0.1969  0.6244 -0.1841
 7021SOL    HW132699   2.306   0.002  12.767 -0.4159  0.8508 -0.7018
 7021SOL    HW232700   2.455   4.737  12.736  0.5632  0.7229 -0.9824
 7022SOL     OW32701   3.398   0.420   1.637 -0.1481  0.5092  0.5108
 7022SOL    HW132702   3.381   0.341   1.586  1.2225  0.6884 -0.2338
 7022SOL    HW232703   3.307   0.437   1.661 -0.7500 -1.8103 -0.0657
 7023SOL     OW32704   0.447   4.683   3.683  0.0440 -0.2612 -0.6616
 7023SOL    HW132705   0.388   4.609   3.702  0.4467 -1.2024 -3.0187
 7023SOL    HW232706   0.486   4.705   3.767 -0.3569  2.5429 -1.2138
 7024SOL     OW32707   1.676   1.850   6.477  0.3444  0.1066 -0.1609
 7024SOL    HW132708   1.677   1.801   6.559 -1.2799  1.5370  0.7007
 7024SOL    HW232709   1.595   1.900   6.480 -0.4271 -1.1102 -0.4995
 7025SOL     OW32710   2.269   0.832   6.178 -0.6074  0.3805 -0.0200
 7025SOL    HW132711   2.240   0.814   6.089 -1.3604  1.1884  0.0665
 7025SOL    HW232712   2.221   0.910   6.205  0.7678  1.7689 -1.5526
 7026SOL     OW32713   1.482   0.884   3.483 -0.3055  0.4604  0.1930
 7026SOL    HW132714   1.406   0.853   3.532  0.3104 -0.0759  0.8159
 7026SOL    HW232715   1.439   0.946   3.424 -0.9024  1.0025  1.1997
 7027SOL     OW32716   1.799   3.397   6.677  0.5041 -0.0299 -0.0350
 7027SOL    HW132717   1.744   3.475   6.672  1.9091  0.9993  0.5517
 7027SOL    HW232718   1.749   3.332   6.726  3.0710 -0.8873  1.4756
 7028SOL     OW32719   2.037   4.400   7.638 -0.1269  0.2962 -0.4872
 7028SOL    HW132720   2.098   4.367   7.572  1.1116 -0.2755  0.9472
 7028SOL    HW232721   2.100   4.459   7.681 -0.4296 -0.3838  0.8654
 7029SOL     OW32722   3.777   3.096   1.080  0.2846 -0.3052  0.0140
 7029SOL    HW132723   3.804   3.187   1.069 -1.0024 -0.1058 -1.4204
 7029SOL    HW232724   3.837   3.054   1.018 -0.3593  0.1112 -0.8891
 7030SOL     OW32725   4.692   4.073   7.419  0.0950 -0.0777  0.5122
 7030SOL    HW132726   4.635   4.066   7.342  2.1609 -0.7684 -0.9624
 7030SOL    HW232727   4.682   3.992   7.469 -1.6587 -1.0844 -1.4596
 7031SOL     OW32728   1.960   0.981   8.180 -0.3410 -0.5831  0.1798
 7031SOL    HW132729   1.957   0.957   8.087 -0.4056  0.1952 -0.0167
 7031SOL    HW232730   1.905   0.907   8.208  1.3118 -1.5369  0.9463
 7032SOL     OW32731   4.303   0.140   3.383 -0.3349 -0.4410  0.4293
 7032SOL    HW132732   4.378   0.086   3.356 -0.0962  0.3136 -0.4189
 7032SOL    HW232733   4.348   0.213   3.425 -0.1626 -0.3380  0.0677
 7033SOL     OW32734   3.858   0.883   6.720  0.2976 -0.2032 -0.0491
 7033SOL    HW132735   3.903   0.825   6.782  0.1344  0.6704  0.8990
 7033SOL    HW232736   3.781   0.915   6.766 -0.6254  0.0004 -1.7735
 7034SOL     OW32737   1.532   1.021   6.932  0.4064 -0.2033 -0.1421
 7034SOL    HW132738   1.590   1.086   6.972 -2.6566  1.7674  1.0379
 7034SOL    HW232739   1.519   1.068   6.850  0.4235  2.2612  1.2865
 7035SOL     OW32740   3.791   1.255   3.024 -0.3966 -0.1350 -0.3830
 7035SOL    HW132741   3.861   1.201   3.060 -0.7724 -1.3509 -1.4941
 7035SOL    HW232742   3.712   1.202   3.038 -1.0677  0.8205 -0.5457
 7036SOL     OW32743   1.531   1.922  14.515  0.5561 -0.7278 -0.0869
 7036SOL    HW132744   1.616   1.878  14.520  0.5990 -0.5712  0.5906
 7036SOL    HW232745   1.537   1.989  14.446 -0.7869  1.1333  1.5981
 7037SOL     OW32746   1.006   2.054  10.771 -0.4677  0.0797  0.2244
 7037SOL    HW132747   1.075   2.039  10.835 -0.8951 -1.6913  0.2833
 7037SOL    HW232748   1.050   2.039  10.686  2.6810  1.2665  1.6450
 7038SOL     OW32749   4.639   4.481   9.034  0.1645 -0.8222 -0.3280
 7038SOL    HW132750   4.586   4.542   8.984  0.7363  0.8404  1.0709
 7038SOL    HW232751   4.592   4.499   9.116 -0.9925 -0.3150 -1.1036
 7039SOL     OW32752   2.269   1.295  15.315 -0.4998  0.2173  0.1369
 7039SOL    HW132753   2.189   1.287  15.263 -0.9104  3.6124  0.2545
 7039SOL    HW232754   2.238   1.294  15.406  2.5075  2.3574  1.2085
 7040SOL     OW32755   0.756   4.650   7.121 -0.3928 -0.3330 -0.0348
 7040SOL    HW132756   0.833   4.665   7.065 -1.0467 -1.2023 -1.1503
 7040SOL    HW232757   0.692   4.712   7.088 -0.8238 -0.8217 -0.1178
 7041SOL     OW32758   3.499   0.312  14.843 -0.4886  0.6879  0.0743
 7041SOL    HW132759   3.425   0.252  14.842  0.9693 -1.0695 -1.1647
 7041SOL    HW232760   3.527   0.322  14.934 -1.0728  0.4939  0.2719
 7042SOL     OW32761   0.199   0.777   9.400 -0.1296 -0.0651 -0.3990
 7042SOL    HW132762   0.293   0.757   9.398  0.1071  0.6549  2.7034
 7042SOL    HW232763   0.198   0.857   9.349  0.4021 -0.4490 -1.0137
 7043SOL     OW32764   1.694   3.693  16.521 -0.2215  0.4965 -0.0558
 7043SOL    HW132765   1.789   3.692  16.537  0.0906 -2.1267 -1.9826
 7043SOL    HW232766   1.683   3.599  16.504 -1.0316  0.4327  0.8375
 7044SOL     OW32767   4.612   2.214   5.397 -0.5808  0.3470  0.3802
 7044SOL    HW132768   4.632   2.231   5.489  1.2996  0.0148  0.0373
 7044SOL    HW232769   4.517   2.204   5.403 -0.4932  0.1798  1.4418
 7045SOL     OW32770   3.497   4.514   9.970  0.1562  0.1135  0.2223
 7045SOL    HW132771   3.504   4.605   9.941 -0.8550  0.5242  1.2292
 7045SOL    HW232772   3.425   4.478   9.918 -0.8585  1.4471  0.7021
 7046SOL     OW32773   1.839   3.331   4.466  0.2560  0.5524  0.2844
 7046SOL    HW132774   1.904   3.346   4.535  1.8111  0.9960 -1.2898
 7046SOL    HW232775   1.866   3.254   4.416 -2.6301  0.7000 -1.4857
 7047SOL     OW32776   0.880   2.195  17.753 -0.3655 -0.2718 -0.2455
 7047SOL    HW132777   0.839   2.191   0.078  1.1607  1.4311  0.5791
 7047SOL    HW232778   0.836   2.131  17.697 -0.7795  1.4979 -1.9732
 7048SOL     OW32779   3.502   1.946   2.491 -0.6182 -0.1198 -0.2122
 7048SOL    HW132780   3.500   1.856   2.525 -2.1750  0.0083  0.0393
 7048SOL    HW232781   3.481   1.997   2.569  0.4169 -0.0641  0.0220
 7049SOL     OW32782   3.116   2.469   4.410  0.4270  0.4004  0.4496
 7049SOL    HW132783   3.199   2.513   4.429  1.0301 -0.0973 -1.0410
 7049SOL    HW232784   3.120   2.401   4.477  1.5586 -1.3877 -1.4358
 7050SOL     OW32785   3.095   0.248  11.976 -0.3458 -0.4335 -0.0391
 7050SOL    HW132786   3.088   0.153  11.983 -1.2886 -0.3739 -0.1038
 7050SOL    HW232787   3.074   0.275  12.066  1.5032  0.6637  0.0624
 7051SOL     OW32788   0.152   2.645   9.968  0.3190 -0.0041  0.2942
 7051SOL    HW132789   0.077   2.679   9.920 -0.3782 -0.4554  1.0570
 7051SOL    HW232790   0.159   2.556   9.933  1.2155 -0.1898  0.9215
 7052SOL     OW32791   3.617   2.366   8.678 -0.4315 -0.4403 -0.0162
 7052SOL    HW132792   3.701   2.356   8.634 -1.3623 -1.1272 -1.6301
 7052SOL    HW232793   3.566   2.415   8.613  0.2871  0.5090  0.1399
 7053SOL     OW32794   0.472   3.322   9.035  0.1691  0.3746  0.1543
 7053SOL    HW132795   0.557   3.298   8.998 -0.6960 -2.9846  0.3615
 7053SOL    HW232796   0.446   3.354   8.948 -0.2238  1.0783  0.5351
 7054SOL     OW32797   3.864   0.647   3.566 -0.3747  0.0703 -0.3642
 7054SOL    HW132798   3.913   0.573   3.603  2.6650  1.3590 -1.7920
 7054SOL    HW232799   3.771   0.627   3.575 -0.1623 -0.1850  1.3389
 7055SOL     OW32800   3.691   4.125   9.014  0.3218  0.4883  0.0708
 7055SOL    HW132801   3.747   4.196   8.984  1.6369 -0.0919  1.1438
 7055SOL    HW232802   3.743   4.047   8.995  0.0052  0.4770 -0.7485
 7056SOL     OW32803   3.975   1.415   8.465  0.7847 -0.5618  0.1228
 7056SOL    HW132804   4.056   1.440   8.509  0.6812 -2.1370  1.2277
 7056SOL    HW232805   3.919   1.392   8.539  1.5377 -0.6544  0.6661
 7057SOL     OW32806   0.202   3.192   2.546 -0.0338  0.0890 -0.2743
 7057SOL    HW132807   0.274   3.188   2.482 -0.2771  5.3120 -0.8321
 7057SOL    HW232808   0.222   3.262   2.608 -0.8392 -1.2682  1.5412
 7058SOL     OW32809   1.742   4.392   2.723  0.7835  0.4864 -0.2068
 7058SOL    HW132810   1.735   4.425   2.633  0.7728 -2.3869 -1.2640
 7058SOL    HW232811   1.829   4.352   2.720 -0.4921 -2.1638 -1.3077
 7059SOL     OW32812   2.229   1.977  13.400 -0.3919 -0.5220  0.5030
 7059SOL    HW132813   2.171   2.019  13.462 -0.7584  0.3927 -0.4508
 7059SOL    HW232814   2.183   2.012  13.323  2.9993  0.7840 -0.9457
 7060SOL     OW32815   2.635   1.153   7.171 -0.0153  0.0407  0.1616
 7060SOL    HW132816   2.690   1.131   7.246 -0.1530  0.9464  0.5181
 7060SOL    HW232817   2.698   1.146   7.099 -0.1718 -0.8200  0.1013
 7061SOL     OW32818   0.285   4.465   2.475 -0.4400 -0.3241  0.8074
 7061SOL    HW132819   0.237   4.433   2.552  0.3984 -0.8757  1.1090
 7061SOL    HW232820   0.346   4.395   2.453 -2.1064 -1.0519 -1.4321
 7062SOL     OW32821   4.348   2.655   7.687 -0.0862 -0.2426  0.2659
 7062SOL    HW132822   4.312   2.568   7.670  0.6347 -0.6287  0.7465
 7062SOL    HW232823   4.416   2.647   7.621 -1.7785  0.2902 -1.5656
 7063SOL     OW32824   0.293   2.727   3.449 -0.1063 -0.0434 -0.0403
 7063SOL    HW132825   0.207   2.690   3.429 -0.4396  2.0568 -2.6092
 7063SOL    HW232826   0.356   2.673   3.402  3.0698  3.7339 -0.1245
 7064SOL     OW32827   3.705   3.714  12.845 -0.9020  0.1682 -0.1477
 7064SOL    HW132828   3.684   3.748  12.758  1.3648 -0.4907 -0.9495
 7064SOL    HW232829   3.616   3.686  12.865 -0.9603  2.2888  2.5642
 7065SOL     OW32830   0.357   3.440  11.489 -0.4025  0.2983 -0.2098
 7065SOL    HW132831   0.444   3.429  11.527 -0.6822 -1.4727 -0.0515
 7065SOL    HW232832   0.336   3.347  11.476 -1.2122  0.5167 -0.4314
 7066SOL     OW32833   3.442   0.904  12.639  0.0812 -1.0821  0.4143
 7066SOL    HW132834   3.349   0.883  12.639 -0.2962  0.5648  1.4071
 7066SOL    HW232835   3.469   0.844  12.570  2.4357 -0.1648  0.5183
 7067SOL     OW32836   4.715   4.279   8.832 -0.1738 -0.4953  0.1293
 7067SOL    HW132837   0.002   4.295   8.742  0.7032 -2.2664  0.1073
 7067SOL    HW232838   4.707   4.365   8.874  0.8449  0.8726 -2.4902
 7068SOL     OW32839   1.139   2.725  15.844 -0.1157  0.6538 -0.5260
 7068SOL    HW132840   1.144   2.655  15.778  0.4452 -0.3096  0.5260
 7068SOL    HW232841   1.167   2.803  15.797  0.7424  1.7216  1.7595
 7069SOL     OW32842   0.603   0.590   4.343 -0.1415 -0.5172  0.0009
 7069SOL    HW132843   0.523   0.605   4.293 -1.1919 -2.0254  1.2153
 7069SOL    HW232844   0.604   0.494   4.347 -1.4476 -0.4778  1.2886
 7070SOL     OW32845   0.353   0.330   3.188 -0.0965  0.7824  0.0604
 7070SOL    HW132846   0.321   0.406   3.139  1.2498  1.7217  0.6438
 7070SOL    HW232847   0.415   0.293   3.125  1.6106 -1.1589  2.8764
 7071SOL     OW32848   0.336   3.239   8.259  0.8326  0.2045 -0.2041
 7071SOL    HW132849   0.393   3.312   8.285  2.1575 -0.9790  0.2071
 7071SOL    HW232850   0.272   3.287   8.207  0.8107  0.3512 -0.0422
 7072SOL     OW32851   1.250   3.221  12.516 -0.9500 -0.1482 -0.3731
 7072SOL    HW132852   1.260   3.199  12.423  2.7046  1.9970 -0.4730
 7072SOL    HW232853   1.226   3.313  12.511 -0.3614 -0.1832 -3.5554
 7073SOL     OW32854   4.354   3.176   6.285  0.1640  0.3516  0.5840
 7073SOL    HW132855   4.301   3.097   6.278  0.6695  0.0097  0.6683
 7073SOL    HW232856   4.325   3.218   6.367 -0.4873  1.2998 -0.1184
 7074SOL     OW32857   4.393   1.609   9.283 -0.2067 -0.1316  0.0922
 7074SOL    HW132858   4.403   1.582   9.375 -0.9729 -0.5279  0.0586
 7074SOL    HW232859   4.482   1.591   9.254  0.2621  2.8229 -0.2735
 7075SOL     OW32860   3.427   1.491   8.453 -0.1559  0.1294 -0.4532
 7075SOL    HW132861   3.364   1.523   8.388 -0.0628  0.0130 -0.6028
 7075SOL    HW232862   3.489   1.444   8.398 -1.6366  1.1326 -3.0048
 7076SOL     OW32863   4.054   3.267   4.766  0.1573 -0.3475 -0.0530
 7076SOL    HW132864   4.041   3.236   4.856  2.4573  0.8297  0.6903
 7076SOL    HW232865   4.137   3.314   4.777  0.2035 -0.6642  0.9733
 7077SOL     OW32866   2.763   1.653   4.392  0.0402  0.4497  0.5448
 7077SOL    HW132867   2.684   1.678   4.439 -0.3739 -1.5814  0.9091
 7077SOL    HW232868   2.726   1.643   4.305  0.2206  1.9884  0.2873
 7078SOL     OW32869   2.829   3.633  14.286 -0.0419 -0.0733  0.3817
 7078SOL    HW132870   2.860   3.715  14.247  0.0822 -0.1340  0.3541
 7078SOL    HW232871   2.850   3.652  14.377 -1.8287 -1.1869  1.0436
 7079SOL     OW32872   2.427   3.407   3.878 -0.0218  0.3660 -0.0076
 7079SOL    HW132873   2.340   3.397   3.918 -0.4446 -1.3475 -1.3781
 7079SOL    HW232874   2.486   3.423   3.952 -1.2508  0.4572  0.9535
 7080SOL     OW32875   4.181   2.300   8.796  0.1155 -0.2261 -0.5588
 7080SOL    HW132876   4.142   2.236   8.855 -1.1023 -0.3451 -1.5057
 7080SOL    HW232877   4.245   2.247   8.749  0.4122  0.8505 -1.3658
 7081SOL     OW32878   0.345   2.015   7.712 -0.1296 -0.1590  0.0682
 7081SOL    HW132879   0.337   2.110   7.706  0.4499 -0.1650 -0.8934
 7081SOL    HW232880   0.269   1.981   7.664 -0.3542  1.1917 -0.5211
 7082SOL     OW32881   2.136   2.913  11.862 -0.0491  0.4029  0.0761
 7082SOL    HW132882   2.070   2.928  11.930 -1.6359  0.9551 -1.5879
 7082SOL    HW232883   2.154   3.003  11.832  0.3797 -0.2018 -1.5089
 7083SOL     OW32884   2.493   3.698  10.668 -0.9264  0.1198 -0.2148
 7083SOL    HW132885   2.405   3.677  10.702 -0.0887 -1.6381  0.8687
 7083SOL    HW232886   2.530   3.749  10.740  0.1549 -1.3051  0.2431
 7084SOL     OW32887   2.099   4.090   5.983 -0.6487  0.0676 -0.1138
 7084SOL    HW132888   2.073   3.998   5.977 -1.7655  0.2254  2.5161
 7084SOL    HW232889   2.177   4.094   5.928 -0.9380  1.4886 -0.4198
 7085SOL     OW32890   2.020   2.095   8.702  0.1883  0.0330 -0.3606
 7085SOL    HW132891   2.065   2.131   8.779  1.8103  2.4423 -2.4768
 7085SOL    HW232892   1.971   2.175   8.683  0.6183  0.5686  0.7680
 7086SOL     OW32893   3.148   0.892   8.388 -0.2770  0.3870  0.3646
 7086SOL    HW132894   3.121   0.879   8.479  3.8149  1.9942  1.8251
 7086SOL    HW232895   3.244   0.885   8.394 -0.3139  1.4446  2.3133
 7087SOL     OW32896   3.372   0.551   4.311  0.0532 -0.0447  0.4907
 7087SOL    HW132897   3.340   0.564   4.400 -1.5923  0.2316 -0.1464
 7087SOL    HW232898   3.301   0.499   4.273  0.9225 -0.4613 -0.5645
 7088SOL     OW32899   2.906   0.585   4.343  0.2556  0.0124  0.5196
 7088SOL    HW132900   2.894   0.655   4.279 -3.9537  0.7285  2.0708
 7088SOL    HW232901   2.842   0.517   4.324 -0.0024 -0.5021  3.1866
 7089SOL     OW32902   0.001   4.641   8.150  0.0782  0.0720  0.2883
 7089SOL    HW132903   0.093   4.665   8.161 -0.7606  2.8973  1.0692
 7089SOL    HW232904   0.002   4.589   8.069 -1.2093  0.1450  0.2341
 7090SOL     OW32905   4.056   0.562  13.580  0.1157  0.0855 -0.3103
 7090SOL    HW132906   4.147   0.582  13.600 -0.3447  0.2258  1.6702
 7090SOL    HW232907   4.047   0.499  13.652 -0.3480  2.3053  1.5953
 7091SOL     OW32908   1.362   2.819   6.994 -0.2301 -0.0599 -0.1526
 7091SOL    HW132909   1.340   2.903   7.034  1.7394  1.2277 -1.7486
 7091SOL    HW232910   1.452   2.834   6.963  0.0511 -0.2179  0.5728
 7092SOL     OW32911   4.490   2.495  15.048  0.5868 -0.0145  0.0075
 7092SOL    HW132912   4.545   2.533  15.115  1.4502 -0.6795 -0.3221
 7092SOL    HW232913   4.554   2.443  15.000  0.4764  0.4786 -0.6777
 7093SOL     OW32914   2.632   4.288   4.690 -0.7889 -0.2142  0.1256
 7093SOL    HW132915   2.629   4.203   4.645  2.7963 -0.3792  0.1713
 7093SOL    HW232916   2.622   4.247   4.776 -0.8663  2.3298  1.3162
 7094SOL     OW32917   2.472   1.534   5.466 -0.2925  0.7071  0.6261
 7094SOL    HW132918   2.461   1.586   5.386  0.0257  0.7527  0.6114
 7094SOL    HW232919   2.380   1.514   5.481 -0.1633 -0.0488  0.3994
 7095SOL     OW32920   0.470   2.378   8.797 -0.0329 -0.2777  0.0186
 7095SOL    HW132921   0.444   2.427   8.719  1.1056 -1.0398 -0.8381
 7095SOL    HW232922   0.449   2.435   8.872 -1.1467  0.2686 -0.7095
 7096SOL     OW32923   0.873   0.918   4.469 -0.5535  0.7450 -0.2140
 7096SOL    HW132924   0.831   0.845   4.424  0.1951 -1.2450  2.3572
 7096SOL    HW232925   0.964   0.888   4.462 -0.5026  0.7543  0.4605
 7097SOL     OW32926   0.866   0.917   2.857  0.3152  0.2924  0.3168
 7097SOL    HW132927   0.776   0.938   2.830  0.5078  0.7317  0.0205
 7097SOL    HW232928   0.899   0.868   2.782  0.0275 -1.3364  1.2307
 7098SOL     OW32929   2.663   4.043   8.335  0.0317 -0.1063  0.7053
 7098SOL    HW132930   2.689   3.985   8.263 -0.8233  1.0274 -0.5143
 7098SOL    HW232931   2.610   3.984   8.389 -1.0943 -1.1099 -1.5225
 7099SOL     OW32932   0.515   0.825  10.840 -0.6498  0.2130  0.3300
 7099SOL    HW132933   0.583   0.809  10.774  0.0926  1.3192  0.8255
 7099SOL    HW232934   0.561   0.838  10.923 -3.1322 -0.2109  1.7908
 7100SOL     OW32935   2.486   1.109   6.559 -0.4648  0.1670 -0.3962
 7100SOL    HW132936   2.535   1.040   6.515 -1.1075 -0.3352 -0.3267
 7100SOL    HW232937   2.424   1.057   6.611  0.8075 -2.0013 -1.0568
 7101SOL     OW32938   0.702   2.246  10.367 -0.0134 -0.2610 -0.3945
 7101SOL    HW132939   0.615   2.207  10.367 -1.1496  2.2561 -0.0394
 7101SOL    HW232940   0.732   2.228  10.278 -0.1997 -1.0643 -0.2904
 7102SOL     OW32941   1.717   3.747  10.478  0.3011 -0.2287 -0.3022
 7102SOL    HW132942   1.642   3.714  10.527  1.6689 -0.2849  1.7559
 7102SOL    HW232943   1.764   3.664  10.482  1.0322  0.1649 -0.7741
 7103SOL     OW32944   3.877   0.528   7.377 -0.0543  0.1382  0.0010
 7103SOL    HW132945   3.785   0.512   7.398  0.1047 -2.5945 -1.3663
 7103SOL    HW232946   3.915   0.514   7.464 -1.8172  3.6924  1.3340
 7104SOL     OW32947   4.705   1.105   7.376  0.2294  1.1180  0.6531
 7104SOL    HW132948   4.636   1.086   7.440  0.3069 -0.4580  0.2646
 7104SOL    HW232949   0.025   1.148   7.437  1.7554  0.4456 -0.4072
 7105SOL     OW32950   0.483   1.150  10.479 -0.9201 -0.6423 -0.7874
 7105SOL    HW132951   0.516   1.131  10.391  1.6398 -1.0159  0.2554
 7105SOL    HW232952   0.437   1.075  10.516  0.1860 -0.7467  0.3834
 7106SOL     OW32953   0.628   3.392   7.778  0.3182  0.4435 -0.4584
 7106SOL    HW132954   0.557   3.430   7.829  0.4139  1.8886 -1.4078
 7106SOL    HW232955   0.686   3.349   7.840 -1.2375  1.0012  1.3859
 7107SOL     OW32956   1.106   3.288  16.993  0.1465 -0.0927 -0.0915
 7107SOL    HW132957   1.050   3.355  16.953  0.2354  1.3112  2.0981
 7107SOL    HW232958   1.188   3.337  16.990 -1.2024  2.2916  1.8157
 7108SOL     OW32959   3.320   0.452   5.368 -0.0359  0.0836  0.1908
 7108SOL    HW132960   3.286   0.530   5.412 -0.3650 -1.5718  2.8245
 7108SOL    HW232961   3.371   0.412   5.438  1.0993 -0.7208 -1.1051
 7109SOL     OW32962   3.466   4.494   8.408 -0.3121 -0.5423 -0.5376
 7109SOL    HW132963   3.532   4.425   8.394  0.0788 -0.5081  1.2177
 7109SOL    HW232964   3.382   4.449   8.404 -0.5960 -0.1974  1.5625
 7110SOL     OW32965   0.847   1.396   8.774 -0.0538  0.5445  0.5295
 7110SOL    HW132966   0.932   1.402   8.731 -0.4532 -0.2355 -0.3758
 7110SOL    HW232967   0.789   1.372   8.701  0.7554 -2.5051  0.8972
 7111SOL     OW32968   2.410   2.901   2.768  0.6585 -0.4984 -0.2201
 7111SOL    HW132969   2.422   2.863   2.681  1.4486  2.1505 -1.2657
 7111SOL    HW232970   2.433   2.994   2.756 -1.0472  0.4175  3.4226
 7112SOL     OW32971   3.738   4.728   8.938 -0.0869  0.4492  0.2443
 7112SOL    HW132972   3.727   0.019   9.027  0.6030  1.4108 -0.0230
 7112SOL    HW232973   3.654   4.682   8.942  0.5485 -0.9205 -2.1276
 7113SOL     OW32974   3.825   2.695  16.496 -0.3208  0.0177 -0.3140
 7113SOL    HW132975   3.853   2.609  16.467 -1.7634 -0.6575  0.2895
 7113SOL    HW232976   3.807   2.684  16.590 -1.5402 -0.9273 -0.6542
 7114SOL     OW32977   1.317   2.420  10.515 -0.3221  0.1237  0.6096
 7114SOL    HW132978   1.272   2.434  10.431 -3.6937 -2.4035  1.9881
 7114SOL    HW232979   1.410   2.426  10.493 -0.5281 -1.1000 -0.6396
 7115SOL     OW32980   4.078   0.726  14.732  0.1987 -0.1523  0.3574
 7115SOL    HW132981   4.027   0.645  14.739 -0.2430  0.1655  0.7929
 7115SOL    HW232982   4.114   0.732  14.821  0.4846 -1.0511  0.3025
 7116SOL     OW32983   1.962   4.345  11.913  0.0439  0.0733 -0.2763
 7116SOL    HW132984   1.944   4.334  12.006  0.2460  0.8608 -0.1428
 7116SOL    HW232985   1.890   4.398  11.879  0.5509  1.2661  0.5008
 7117SOL     OW32986   1.385   1.738   3.248 -0.6992 -0.0805  0.1181
 7117SOL    HW132987   1.394   1.671   3.180 -0.6688 -2.3465  2.3499
 7117SOL    HW232988   1.298   1.771   3.223 -0.4533 -0.0321 -0.6851
 7118SOL     OW32989   3.845   2.525  12.334 -0.3362  0.2875 -0.1691
 7118SOL    HW132990   3.863   2.571  12.416  1.4948 -4.5308  2.1084
 7118SOL    HW232991   3.750   2.528  12.317 -0.6770  1.0735  1.8092
 7119SOL     OW32992   2.710   2.278   3.871  0.0028 -0.2797  0.1490
 7119SOL    HW132993   2.644   2.303   3.807  0.1089 -0.6716 -0.1105
 7119SOL    HW232994   2.652   2.245   3.940 -0.9079  1.2134  0.0995
 7120SOL     OW32995   2.090   1.895   6.512  0.1527  0.0387  0.6186
 7120SOL    HW132996   2.123   1.973   6.468 -2.1646  1.6542  1.7028
 7120SOL    HW232997   2.050   1.843   6.443  2.1050  0.3790 -0.7530
 7121SOL     OW32998   3.567   3.344   5.439 -0.0955  0.0947 -0.1932
 7121SOL    HW132999   3.588   3.251   5.451  0.4824  0.0586 -1.4832
 7121SOL    HW233000   3.530   3.334   5.351  0.3373 -1.7655 -0.1730
 7122SOL     OW33001   4.013   1.816   3.770  0.1411 -0.3923 -0.0930
 7122SOL    HW133002   4.043   1.895   3.814  0.3133 -1.2491  1.2920
 7122SOL    HW233003   4.062   1.825   3.688  1.5908  0.4905  0.8829
 7123SOL     OW33004   4.202   2.701   4.367  0.7344 -0.2211 -0.4420
 7123SOL    HW133005   4.166   2.782   4.403 -1.9670 -0.7998 -1.9001
 7123SOL    HW233006   4.129   2.653   4.329  0.2443 -0.0492  0.2763
 7124SOL     OW33007   2.409   1.077   3.557  0.5224 -0.1277 -0.7916
 7124SOL    HW133008   2.420   1.121   3.473  0.0124  2.7783  0.6388
 7124SOL    HW233009   2.414   1.151   3.617 -0.4230 -0.3053 -0.4859
 7125SOL     OW33010   4.464   3.525  15.127 -0.1569 -0.1810 -0.6343
 7125SOL    HW133011   4.523   3.451  15.114  0.7958  0.1707  1.7600
 7125SOL    HW233012   4.442   3.526  15.033 -0.6416  0.5418 -0.5151
 7126SOL     OW33013   1.970   1.335   3.827 -0.2649  0.2589  0.5139
 7126SOL    HW133014   2.051   1.359   3.872  1.3289 -1.2878 -1.5382
 7126SOL    HW233015   1.935   1.274   3.892  0.0248  0.8438  1.2225
 7127SOL     OW33016   1.491   3.620   9.462 -0.0472 -0.1765 -0.2573
 7127SOL    HW133017   1.437   3.631   9.539  0.4803 -2.7134  0.4538
 7127SOL    HW233018   1.571   3.666   9.488  0.4063 -0.7282 -0.6701
 7128SOL     OW33019   2.950   3.631   3.370 -0.1727 -0.3223  0.3831
 7128SOL    HW133020   2.857   3.622   3.390 -0.0087 -0.5594  1.0276
 7128SOL    HW233021   2.953   3.726   3.362 -1.4003 -0.3244 -0.0265
 7129SOL     OW33022   3.155   2.719   2.274  0.0352 -0.3222 -0.2968
 7129SOL    HW133023   3.246   2.688   2.280 -0.5093 -1.2755  3.2355
 7129SOL    HW233024   3.166   2.757   2.187  1.7239 -4.1551 -1.8080
 7130SOL     OW33025   4.652   3.806   7.536 -0.7299 -0.4603  0.3258
 7130SOL    HW133026   4.703   3.812   7.617  0.9552  0.3483 -0.7888
 7130SOL    HW233027   4.568   3.844   7.559  0.4275  2.1179  0.3565
 7131SOL     OW33028   2.284   2.050   8.067  0.0621 -1.5032  0.2973
 7131SOL    HW133029   2.238   2.005   7.997  0.0149  0.9501 -1.2667
 7131SOL    HW233030   2.354   2.087   8.013 -0.1583 -1.8696 -0.2314
 7132SOL     OW33031   0.366   2.643   6.143  0.0077 -0.0250 -0.1280
 7132SOL    HW133032   0.298   2.709   6.154  1.1461  1.0543  0.5663
 7132SOL    HW233033   0.427   2.704   6.100  0.0106 -1.2696 -1.8973
 7133SOL     OW33034   4.606   0.939   7.005 -0.5936  0.1876 -0.5343
 7133SOL    HW133035   4.518   0.947   7.041  1.7852 -0.3030  5.2637
 7133SOL    HW233036   4.616   1.023   6.959  2.0782 -1.0054 -2.1885
 7134SOL     OW33037   0.945   1.965  11.314 -0.7694 -0.0117  0.2737
 7134SOL    HW133038   0.987   1.977  11.229 -2.5417  1.0402 -0.4597
 7134SOL    HW233039   0.957   1.871  11.328 -1.4871 -0.1760 -0.1912
 7135SOL     OW33040   1.684   1.495   1.589  0.0117 -0.0018  0.4109
 7135SOL    HW133041   1.627   1.468   1.516 -0.0932  0.5687  0.2841
 7135SOL    HW233042   1.654   1.585   1.600 -1.4128 -0.5562  1.0487
 7136SOL     OW33043   3.618   4.548   3.656 -0.0120 -0.3542  0.1803
 7136SOL    HW133044   3.709   4.525   3.671 -0.0386  1.9284  3.8526
 7136SOL    HW233045   3.589   4.549   3.747  2.0324  0.4385  0.8103
 7137SOL     OW33046   4.090   1.571   5.667  0.1318 -0.4625 -0.4294
 7137SOL    HW133047   4.168   1.533   5.707  0.0539 -1.7140 -1.4778
 7137SOL    HW233048   4.032   1.534   5.734 -1.1669  1.2515 -0.5966
 7138SOL     OW33049   4.534   0.398   6.344 -0.1673 -0.0318  0.5515
 7138SOL    HW133050   4.579   0.480   6.366 -0.3284  0.1967  0.0267
 7138SOL    HW233051   4.463   0.437   6.294 -1.0436 -0.5455  1.4006
 7139SOL     OW33052   3.654   3.269   2.397 -0.0883 -0.1032 -0.4546
 7139SOL    HW133053   3.633   3.176   2.393 -0.1426 -0.0918 -0.4360
 7139SOL    HW233054   3.730   3.278   2.341 -2.2252  1.2761 -3.1376
 7140SOL     OW33055   1.460   3.153   5.629  0.0239 -0.8300 -0.5056
 7140SOL    HW133056   1.537   3.180   5.579 -1.8113  0.8895 -2.3644
 7140SOL    HW233057   1.462   3.211   5.706 -0.4714 -3.0199  1.1450
 7141SOL     OW33058   3.421   4.396   9.415  0.1844  0.6572  0.3166
 7141SOL    HW133059   3.345   4.454   9.412  0.3417  0.7785 -1.1739
 7141SOL    HW233060   3.389   4.327   9.356  0.3941 -0.5920  1.6500
 7142SOL     OW33061   3.369   2.838   7.216  0.3763  1.0901  0.3276
 7142SOL    HW133062   3.428   2.769   7.246 -0.3322  0.2955 -0.1343
 7142SOL    HW233063   3.289   2.820   7.266  0.3473  1.6751  0.4924
 7143SOL     OW33064   3.604   0.522   9.349  0.3966  0.2395 -0.7785
 7143SOL    HW133065   3.547   0.596   9.326  1.5091  1.2540 -0.2752
 7143SOL    HW233066   3.544   0.450   9.332 -1.4792  1.2255  1.4859
 7144SOL     OW33067   2.128   1.405   4.348 -0.2428 -0.2110 -0.5620
 7144SOL    HW133068   2.192   1.464   4.388  1.2533 -2.7083  0.7844
 7144SOL    HW233069   2.192   1.342   4.315  0.5888  0.1881  0.2687
 7145SOL     OW33070   1.713   3.688   2.894 -0.0149  0.6494  0.1481
 7145SOL    HW133071   1.766   3.768   2.894 -1.4568  1.5861 -2.6499
 7145SOL    HW233072   1.623   3.720   2.893 -0.3842 -0.3763  0.4529
 7146SOL     OW33073   1.495   1.973  12.669 -0.3726 -0.4161 -0.0766
 7146SOL    HW133074   1.419   1.924  12.638 -0.0220  0.1306 -1.8410
 7146SOL    HW233075   1.492   1.948  12.761  1.1855  1.3275  0.4523
 7147SOL     OW33076   2.955   2.141   3.939 -0.0195  0.2309 -0.6285
 7147SOL    HW133077   3.002   2.164   3.859  1.5283  0.3814  0.3228
 7147SOL    HW233078   2.897   2.217   3.938  1.9980  1.7837 -1.4554
 7148SOL     OW33079   2.295   2.971   7.684 -0.0927  0.0890  0.4844
 7148SOL    HW133080   2.225   2.938   7.740 -0.8311 -0.8492 -1.0161
 7148SOL    HW233081   2.362   2.903   7.678  0.5037  0.7599 -0.5220
 7149SOL     OW33082   0.701   4.414   4.094 -0.1570 -0.1561  0.7033
 7149SOL    HW133083   0.787   4.374   4.108 -0.3445 -0.3122  1.4063
 7149SOL    HW233084   0.662   4.340   4.048  2.4540 -0.7946 -0.4907
 7150SOL     OW33085   3.018   1.334  10.078 -0.3935 -0.0015  0.3847
 7150SOL    HW133086   3.104   1.292  10.073  0.5807  2.2047 -1.2550
 7150SOL    HW233087   3.003   1.327   9.984  0.2309  0.6300  0.2332
 7151SOL     OW33088   3.011   3.060   1.953 -0.1451 -0.3178 -0.6817
 7151SOL    HW133089   2.947   2.991   1.968  0.7761 -1.3157 -1.3642
 7151SOL    HW233090   3.054   3.030   1.872  0.4866  0.1334 -0.5174
 7152SOL     OW33091   1.182   3.131   9.168  0.2759 -0.5580  0.0217
 7152SOL    HW133092   1.138   3.140   9.083  2.2521  1.5096 -0.7830
 7152SOL    HW233093   1.273   3.115   9.143  0.2822 -0.2134 -0.1694
 7153SOL     OW33094   1.058   4.578   8.710  0.5706 -0.2536  0.0118
 7153SOL    HW133095   1.148   4.572   8.742  0.9944 -0.0157 -1.1221
 7153SOL    HW233096   1.055   4.609   8.620 -0.0669 -1.4716 -0.3925
 7154SOL     OW33097   4.419   3.483   3.029 -0.4007  0.0260  0.0275
 7154SOL    HW133098   4.458   3.522   3.107  1.1777 -1.6433  0.0772
 7154SOL    HW233099   4.365   3.553   2.992 -0.1990  0.3701  0.3961
 7155SOL     OW33100   0.288   0.307  10.289 -0.8170 -0.1913  0.3872
 7155SOL    HW133101   0.255   0.363  10.219  0.6983 -0.7096 -0.7231
 7155SOL    HW233102   0.355   0.363  10.328 -1.3371  0.9749 -0.3833
 7156SOL     OW33103   3.126   3.813   7.402 -0.2902  0.2170  0.6408
 7156SOL    HW133104   3.147   3.735   7.350 -1.0897  1.5825 -1.7204
 7156SOL    HW233105   3.060   3.844   7.340 -0.4455  1.9274  1.6609
 7157SOL     OW33106   4.457   3.756  12.599  0.3858 -0.4630 -0.0612
 7157SOL    HW133107   4.505   3.826  12.644 -2.5179  1.1561  0.5294
 7157SOL    HW233108   4.494   3.677  12.638 -0.6334 -0.3623  1.1385
 7158SOL     OW33109   0.687   0.907   7.897 -0.0135  0.5979  0.2770
 7158SOL    HW133110   0.749   0.979   7.906 -0.3029  1.1300 -1.9905
 7158SOL    HW233111   0.632   0.937   7.825  1.1951 -1.6831 -1.5856
 7159SOL     OW33112   2.164   3.510  16.717  0.0256 -0.8969  0.0957
 7159SOL    HW133113   2.109   3.446  16.671  1.9086 -1.0140 -1.9476
 7159SOL    HW233114   2.246   3.504  16.669 -0.6073 -0.6755 -1.0170
 7160SOL     OW33115   0.669   4.038   6.582 -0.3135 -0.3210  0.4482
 7160SOL    HW133116   0.743   3.985   6.610 -1.6473 -2.2212  0.3211
 7160SOL    HW233117   0.663   4.101   6.654 -0.1611 -1.9150  1.8560
 7161SOL     OW33118   0.103   1.733   5.015 -0.1611 -0.2242  1.2184
 7161SOL    HW133119   0.070   1.688   4.937 -0.8055 -0.6498  1.7389
 7161SOL    HW233120   0.194   1.759   5.001  0.0904 -1.7892 -0.0466
 7162SOL     OW33121   2.948   3.103   4.996  0.0817 -0.2475  0.2113
 7162SOL    HW133122   2.943   3.016   5.036  0.2637 -0.7693 -0.8911
 7162SOL    HW233123   2.968   3.084   4.904  2.3170 -1.9174  1.0302
 7163SOL     OW33124   2.663   4.207   9.339 -0.0236 -0.5776  0.4086
 7163SOL    HW133125   2.685   4.212   9.246  1.5868  1.8637  0.9165
 7163SOL    HW233126   2.592   4.143   9.342 -2.6381  2.3413  1.1920
 7164SOL     OW33127   3.131   2.697   3.595 -0.2418  0.3028 -0.0849
 7164SOL    HW133128   3.101   2.782   3.562  1.5810  0.9021 -0.2257
 7164SOL    HW233129   3.076   2.695   3.673  1.5676 -1.8311  1.1297
 7165SOL     OW33130   0.112   0.866   7.331 -0.3894 -0.4329 -0.5049
 7165SOL    HW133131   0.109   0.825   7.418 -1.1625  1.4426  0.3659
 7165SOL    HW233132   0.072   0.952   7.347  0.1318 -0.0495 -1.2527
 7166SOL     OW33133   2.915   3.606   5.268  0.5085  0.7359 -0.1714
 7166SOL    HW133134   2.884   3.648   5.349 -0.1285  1.5304 -0.8319
 7166SOL    HW233135   2.826   3.579   5.244  1.1288 -1.8305  0.4309
 7167SOL     OW33136   1.370   2.109  10.883  0.2876 -0.0318  0.4728
 7167SOL    HW133137   1.306   2.042  10.906  1.9002 -1.4774  0.8368
 7167SOL    HW233138   1.385   2.151  10.968  1.4143 -2.0227  1.2825
 7168SOL     OW33139   1.391   4.009   3.136 -0.0233  0.2190 -0.1527
 7168SOL    HW133140   1.435   4.032   3.055  0.8053 -1.9820 -0.3182
 7168SOL    HW233141   1.316   4.068   3.126  0.4297  1.3083  2.7946
 7169SOL     OW33142   1.520   3.137   6.623 -0.0161  0.0167  0.2172
 7169SOL    HW133143   1.554   3.199   6.687  0.2289 -1.2324  1.3040
 7169SOL    HW233144   1.544   3.185   6.544 -0.6462  1.0569  0.6574
 7170SOL     OW33145   2.581   4.364   5.471  0.1675  0.4667 -0.3323
 7170SOL    HW133146   2.595   4.334   5.381 -0.2718  0.6858 -0.4743
 7170SOL    HW233147   2.491   4.394   5.454 -0.2743  0.1166  1.3677
 7171SOL     OW33148   3.346   2.533   4.535 -0.3349  0.1050 -0.0890
 7171SOL    HW133149   3.415   2.466   4.541  1.3513  1.6655 -2.0700
 7171SOL    HW233150   3.328   2.524   4.629  0.6316 -0.1498  0.0719
 7172SOL     OW33151   3.014   1.033   8.046  0.2298 -0.0944  1.1207
 7172SOL    HW133152   2.939   1.062   7.994  2.3221 -0.1562 -1.8739
 7172SOL    HW233153   2.987   0.942   8.062 -1.1271  0.1901  0.4806
 7173SOL     OW33154   4.563   4.680   9.630  0.1444  0.1207  0.0746
 7173SOL    HW133155   4.509   4.610   9.665 -1.0789  0.4116 -1.2317
 7173SOL    HW233156   4.582   4.646   9.542 -0.4890 -2.1251  0.8143
 7174SOL     OW33157   3.185   4.509   5.573 -0.1669  0.0747  0.6289
 7174SOL    HW133158   3.245   4.568   5.529  2.4351 -0.9120  2.8496
 7174SOL    HW233159   3.161   4.458   5.496 -2.0051 -0.1004  1.3094
 7175SOL     OW33160   0.578   0.316   4.432  0.6811 -0.2872  0.0129
 7175SOL    HW133161   0.648   0.274   4.483  1.1286  1.5707  0.9076
 7175SOL    HW233162   0.498   0.295   4.480  1.0546 -0.3187  0.6132
 7176SOL     OW33163   2.464   2.071   6.727 -0.0232 -0.1895 -0.4887
 7176SOL    HW133164   2.557   2.076   6.751 -0.5798  0.0386  1.6251
 7176SOL    HW233165   2.455   2.137   6.658 -0.9504  0.4230  0.2209
 7177SOL     OW33166   3.582   2.269  15.428 -0.6648 -0.2588  0.1655
 7177SOL    HW133167   3.572   2.185  15.473  1.3005 -0.4938  0.1586
 7177SOL    HW233168   3.649   2.307  15.484 -3.5662  0.2137  3.3043
 7178SOL     OW33169   1.894   4.690   3.268  0.0684 -0.1620 -0.0515
 7178SOL    HW133170   1.845   0.025   3.298 -1.7431 -1.9265  1.3980
 7178SOL    HW233171   1.972   4.734   3.232  0.7281  0.9158  2.6678
 7179SOL     OW33172   0.103   1.110  15.513 -0.7081  0.6587 -0.3439
 7179SOL    HW133173   0.187   1.153  15.495  0.8581 -2.0405  0.4125
 7179SOL    HW233174   0.041   1.172  15.476 -0.0686  1.7014  0.3337
 7180SOL     OW33175   3.953   3.043   9.695  0.5170  0.5524 -0.3559
 7180SOL    HW133176   3.929   3.104   9.625 -1.4627  1.3444  1.0147
 7180SOL    HW233177   3.969   3.102   9.769  0.8693 -0.2428  0.2074
 7181SOL     OW33178   1.161   3.505   4.515  0.2581 -0.4152 -0.0854
 7181SOL    HW133179   1.231   3.530   4.454 -1.9545  0.4746 -2.2715
 7181SOL    HW233180   1.219   3.467   4.581 -0.1318 -1.4757 -0.3407
 7182SOL     OW33181   4.159   0.619   7.562  0.7643  0.1327 -0.3518
 7182SOL    HW133182   4.204   0.537   7.581  0.9891 -0.1899 -2.2536
 7182SOL    HW233183   4.105   0.639   7.639 -1.5304 -0.0429 -1.9071
 7183SOL     OW33184   0.745   3.288   4.099  0.1155 -0.4624 -0.1686
 7183SOL    HW133185   0.751   3.243   4.015  1.0379 -1.7550  0.5883
 7183SOL    HW233186   0.671   3.242   4.138 -0.6177  0.6925 -0.1894
 7184SOL     OW33187   1.301   0.405  12.523 -0.0086 -0.4272  0.9770
 7184SOL    HW133188   1.219   0.367  12.493  2.3256 -1.5541 -4.1241
 7184SOL    HW233189   1.349   0.332  12.561  0.4295 -1.0271 -0.7145
 7185SOL     OW33190   4.292   2.438   4.495  0.6870  0.2636 -0.1741
 7185SOL    HW133191   4.378   2.398   4.490  1.3368  1.6795 -0.3501
 7185SOL    HW233192   4.301   2.522   4.450  1.3802 -0.2044 -0.8875
 7186SOL     OW33193   3.977   4.104   7.719 -0.0141 -0.3168 -0.0376
 7186SOL    HW133194   3.887   4.099   7.688 -0.0472 -0.8172  0.1491
 7186SOL    HW233195   3.965   4.096   7.813 -1.7227  0.9258 -0.1506
 7187SOL     OW33196   3.442   2.626   5.580 -0.3547 -0.1493  0.2111
 7187SOL    HW133197   3.506   2.650   5.513 -1.5523 -0.1753 -0.9503
 7187SOL    HW233198   3.359   2.658   5.544  0.7015  0.4005 -1.7319
 7188SOL     OW33199   0.430   4.024   9.844  0.3709  0.5580 -0.2631
 7188SOL    HW133200   0.502   3.991   9.790 -1.2629  0.0167 -2.1082
 7188SOL    HW233201   0.465   4.106   9.879  1.9473  1.2869 -3.5603
 7189SOL     OW33202   0.649   2.306  11.532  0.5861  0.3454 -0.1262
 7189SOL    HW133203   0.718   2.241  11.517  1.3354  1.2199 -0.4548
 7189SOL    HW233204   0.698   2.382  11.563  0.4452  0.0583  0.7910
 7190SOL     OW33205   1.544   3.613   1.912 -0.1135  0.1154 -0.2273
 7190SOL    HW133206   1.449   3.610   1.923 -0.1940  2.4193 -0.1462
 7190SOL    HW233207   1.553   3.672   1.836 -1.3355 -2.4936 -2.3835
 7191SOL     OW33208   2.925   3.661  10.796 -0.4250 -0.0695  0.4094
 7191SOL    HW133209   3.000   3.666  10.855 -0.6360  1.4202  0.5419
 7191SOL    HW233210   2.850   3.667  10.855 -0.1609  1.2422  0.5966
 7192SOL     OW33211   1.187   1.983  14.404  0.3294  0.4037 -0.2402
 7192SOL    HW133212   1.204   1.924  14.331 -0.4098  0.5572 -0.5380
 7192SOL    HW233213   1.229   2.067  14.383 -0.4233  1.2327  1.5025
 7193SOL     OW33214   1.399   4.342   3.163  0.6723 -0.5221 -0.5998
 7193SOL    HW133215   1.394   4.290   3.242 -1.9691  0.8732  0.1512
 7193SOL    HW233216   1.337   4.414   3.178  0.0897 -1.3687  1.0255
 7194SOL     OW33217   0.667   4.265   8.064 -0.1506 -0.3893  0.3389
 7194SOL    HW133218   0.644   4.243   7.974 -1.9546  0.3386  0.6249
 7194SOL    HW233219   0.604   4.219   8.119 -1.6468  0.3202 -0.7847
 7195SOL     OW33220   4.309   2.710  11.733  0.3896  0.3689  0.3306
 7195SOL    HW133221   4.265   2.744  11.811  0.5520  0.5920  0.3244
 7195SOL    HW233222   4.399   2.735  11.750 -0.5327  2.9628  1.4510
 7196SOL     OW33223   1.489   1.044   5.855  0.0676  0.0364 -0.6479
 7196SOL    HW133224   1.437   1.121   5.879  0.2664 -0.2015  0.5256
 7196SOL    HW233225   1.505   1.022   5.947 -0.9291  0.7590 -0.3015
 7197SOL     OW33226   2.884   2.722  13.368 -0.1902  0.6782 -0.6515
 7197SOL    HW133227   2.896   2.673  13.450 -2.6938 -0.7236 -1.1349
 7197SOL    HW233228   2.932   2.801  13.394 -0.6905  0.8055 -0.1128
 7198SOL     OW33229   0.094   3.246   9.784  0.2932  0.6577 -0.3014
 7198SOL    HW133230   0.167   3.264   9.843 -1.8110 -0.3673  2.5567
 7198SOL    HW233231   0.024   3.302   9.815 -0.2276 -0.3483  0.3485
 7199SOL     OW33232   0.759   2.594   7.570  0.6041  0.2560  0.1917
 7199SOL    HW133233   0.815   2.578   7.495  0.7201  0.9673  0.1304
 7199SOL    HW233234   0.748   2.689   7.568 -0.5461  0.1343  0.4321
 7200SOL     OW33235   2.447   0.948  15.997  0.5613  0.1070 -0.5124
 7200SOL    HW133236   2.453   1.039  15.966  1.6344  0.8657  1.9499
 7200SOL    HW233237   2.455   0.905  15.911 -0.6658  1.3723 -1.2659
 7201SOL     OW33238   0.492   0.626   5.872 -0.0441 -0.0272  0.1212
 7201SOL    HW133239   0.478   0.592   5.784  2.1748  2.7056 -1.2779
 7201SOL    HW233240   0.425   0.693   5.877 -1.7132 -1.6171 -1.0225
 7202SOL     OW33241   1.837   0.756   1.630  0.0696 -0.0597 -0.1673
 7202SOL    HW133242   1.794   0.684   1.676 -1.6602  1.6543  0.8866
 7202SOL    HW233243   1.808   0.748   1.539  0.4402  2.3279 -0.5038
 7203SOL     OW33244   4.233   4.677   5.684  0.1493  0.0236 -0.6173
 7203SOL    HW133245   4.273   0.018   5.713 -2.2610  0.9573  0.1264
 7203SOL    HW233246   4.142   4.700   5.666 -0.4597  0.6806  3.1450
 7204SOL     OW33247   2.463   1.494  12.374 -0.3365  0.5326  0.1083
 7204SOL    HW133248   2.503   1.412  12.345 -0.1165  1.0145 -0.9711
 7204SOL    HW233249   2.528   1.563  12.356 -0.6165  1.1947  1.6755
 7205SOL     OW33250   2.747   0.239   5.466 -0.3022  0.1639 -0.2200
 7205SOL    HW133251   2.738   0.330   5.494  2.0766  0.7488 -1.3505
 7205SOL    HW233252   2.791   0.194   5.538  0.4546 -0.8106 -1.2839
 7206SOL     OW33253   1.960   0.867   7.738 -0.0167  0.0531  0.3680
 7206SOL    HW133254   2.001   0.883   7.823 -0.4773  0.9027  0.4268
 7206SOL    HW233255   2.009   0.787   7.721  1.0251  0.2148  2.5419
 7207SOL     OW33256   0.586   3.080  14.410  0.2877  0.3055 -0.5917
 7207SOL    HW133257   0.580   3.100  14.504 -0.3201  0.3180 -0.6274
 7207SOL    HW233258   0.613   3.165  14.375  1.4823  0.1401 -0.0589
 7208SOL     OW33259   3.188   0.204   9.505 -0.0338  0.7547  0.6368
 7208SOL    HW133260   3.111   0.246   9.542 -0.0320  1.7227 -0.4454
 7208SOL    HW233261   3.158   0.123   9.463 -0.0365  0.3882  1.3568
 7209SOL     OW33262   1.090   1.599  14.524  0.5342  0.9003 -0.0300
 7209SOL    HW133263   1.158   1.661  14.550  0.3664  0.4949  1.4012
 7209SOL    HW233264   1.132   1.553  14.451  1.6536  2.9571 -0.6802
 7210SOL     OW33265   0.375   4.688   5.772 -0.7536  0.0461 -0.2464
 7210SOL    HW133266   0.339   0.005   5.705 -1.0420 -0.5779 -0.6353
 7210SOL    HW233267   0.377   0.008   5.846 -0.0233 -0.6536  0.3156
 7211SOL     OW33268   0.864   0.150   3.211 -0.0557  0.0866  0.4254
 7211SOL    HW133269   0.772   0.126   3.195 -0.5893  1.3995  1.4494
 7211SOL    HW233270   0.889   0.106   3.292  0.3955  0.5341  0.5283
 7212SOL     OW33271   2.688   1.289  16.647  0.2244 -0.4973  0.0277
 7212SOL    HW133272   2.680   1.211  16.702 -1.7844  0.7866  1.5285
 7212SOL    HW233273   2.609   1.336  16.674  0.4131 -1.0035  1.4772
 7213SOL     OW33274   0.330   0.935  10.519  0.4962  0.0915 -0.0091
 7213SOL    HW133275   0.262   0.975  10.464  0.6910 -0.5695 -0.7387
 7213SOL    HW233276   0.312   0.845  10.490  3.5390 -0.3930 -0.3271
 7214SOL     OW33277   2.338   0.952  13.237 -0.5988  0.1892  0.7207
 7214SOL    HW133278   2.271   1.020  13.248 -1.6510 -0.6607 -0.4548
 7214SOL    HW233279   2.280   0.882  13.210 -0.9584  0.5773  0.4894
 7215SOL     OW33280   2.442   3.645   4.653  0.0339 -0.1791  0.5046
 7215SOL    HW133281   2.443   3.709   4.581  0.0467  0.2706  0.9093
 7215SOL    HW233282   2.529   3.658   4.690  0.3292 -0.8006  0.0334
 7216SOL     OW33283   3.826   1.958   6.622  0.5792  0.0997  0.1953
 7216SOL    HW133284   3.806   2.028   6.560  0.4306  0.0313  0.1670
 7216SOL    HW233285   3.795   1.889   6.563 -1.2568 -1.5040  3.0321
 7217SOL     OW33286   2.574   2.552   4.027  0.3170 -0.4926 -0.5565
 7217SOL    HW133287   2.498   2.510   4.068  1.1134 -2.4624 -1.1003
 7217SOL    HW233288   2.551   2.535   3.935 -0.0183  1.2172 -0.7937
 7218SOL     OW33289   2.341   2.666  17.244  0.3922 -0.1296 -0.3239
 7218SOL    HW133290   2.426   2.640  17.209  1.6573  0.2943  2.4422
 7218SOL    HW233291   2.347   2.623  17.330  1.8062  1.0435  0.1591
 7219SOL     OW33292   3.040   2.464   8.170 -0.0231 -0.9534  0.2294
 7219SOL    HW133293   2.970   2.399   8.175  0.3098 -1.3187  0.1559
 7219SOL    HW233294   3.002   2.548   8.195  2.5035 -0.1888  1.5730
 7220SOL     OW33295   3.870   2.607   3.560  0.7653 -0.5231  0.8217
 7220SOL    HW133296   3.838   2.686   3.604  3.3174  2.4323 -2.6269
 7220SOL    HW233297   3.813   2.550   3.611 -2.0401  1.3258 -0.2457
 7221SOL     OW33298   1.831   1.640   5.137 -0.5200 -0.2950  0.2219
 7221SOL    HW133299   1.803   1.715   5.190 -2.0434 -0.2137 -0.7065
 7221SOL    HW233300   1.854   1.688   5.058 -1.0289 -1.4349 -0.6193
 7222SOL     OW33301   4.670   0.368   8.266 -0.1888 -0.5030 -0.5490
 7222SOL    HW133302   4.641   0.294   8.320  0.1039  0.2886  0.7014
 7222SOL    HW233303   4.724   0.417   8.328  1.5877 -4.3290  0.9408
 7223SOL     OW33304   0.350   3.404   4.187  0.0827 -0.3533  0.2618
 7223SOL    HW133305   0.363   3.332   4.124 -0.6942 -0.2771  0.0108
 7223SOL    HW233306   0.342   3.476   4.124  1.9439  1.3536  1.9640
 7224SOL     OW33307   0.795   4.335   2.226  0.3075  0.1310  0.0951
 7224SOL    HW133308   0.810   4.271   2.156 -1.6711 -0.3680  0.1417
 7224SOL    HW233309   0.718   4.387   2.207 -1.3677 -2.1124  0.6705
 7225SOL     OW33310   1.548   2.815   7.502  0.5282 -0.4825  0.0338
 7225SOL    HW133311   1.528   2.893   7.450  1.7011  0.6304  1.2269
 7225SOL    HW233312   1.493   2.822   7.581  2.1981  0.2172  1.1299
 7226SOL     OW33313   3.999   2.594  17.703  0.1861  0.6489 -0.3927
 7226SOL    HW133314   4.051   2.610   0.021 -1.0890  2.8905  0.0140
 7226SOL    HW233315   3.920   2.557  17.741 -0.8721  3.2803  0.0042
 7227SOL     OW33316   4.427   0.093   1.575  0.3989 -0.5323 -0.1759
 7227SOL    HW133317   4.369   0.164   1.546 -1.6482 -2.0117  0.2808
 7227SOL    HW233318   4.496   0.115   1.512  0.0364 -0.8056 -0.6646
 7228SOL     OW33319   2.581   0.185   9.377 -0.0674  0.1697 -0.3926
 7228SOL    HW133320   2.573   0.150   9.466 -0.1185 -1.9560 -1.2380
 7228SOL    HW233321   2.671   0.174   9.348 -0.4475 -0.3300 -1.3627
 7229SOL     OW33322   3.776   2.628   4.703 -0.4053  0.1567 -0.8714
 7229SOL    HW133323   3.775   2.705   4.759 -1.1763  0.4504 -1.3012
 7229SOL    HW233324   3.869   2.629   4.680 -0.3539 -0.8267 -0.7078
 7230SOL     OW33325   1.852   3.839   2.674  0.0475  0.1752 -0.5839
 7230SOL    HW133326   1.806   3.772   2.623 -0.2163  0.4872 -0.7545
 7230SOL    HW233327   1.937   3.803   2.649  0.5085  1.5275 -0.9487
 7231SOL     OW33328   3.568   1.000   2.425 -0.1406 -0.4258 -0.5127
 7231SOL    HW133329   3.629   1.041   2.364 -1.6752 -0.4605 -2.0840
 7231SOL    HW233330   3.626   0.932   2.458  0.4082 -1.4652 -3.5603
 7232SOL     OW33331   1.396   2.010   2.743  0.8839  0.0257  0.2118
 7232SOL    HW133332   1.464   2.024   2.677  3.1631 -1.5002  2.2399
 7232SOL    HW233333   1.420   1.921   2.770  2.2439  0.6102  0.8982
 7233SOL     OW33334   4.451   1.766   7.482  0.6670 -0.4532  0.0117
 7233SOL    HW133335   4.491   1.850   7.459  2.3968 -1.3339 -0.1801
 7233SOL    HW233336   4.514   1.717   7.430 -0.1898 -1.0553 -0.4515
 7234SOL     OW33337   0.711   3.637   7.148 -0.8315  0.9456 -0.1728
 7234SOL    HW133338   0.794   3.639   7.195 -1.0088  2.1909  0.0744
 7234SOL    HW233339   0.648   3.641   7.220  0.1126 -1.8755  0.8118
 7235SOL     OW33340   0.290   0.430   6.745 -0.1006 -0.3846  0.4902
 7235SOL    HW133341   0.206   0.441   6.789 -0.4132 -1.3669  0.1346
 7235SOL    HW233342   0.344   0.501   6.779  1.7461 -2.1311  1.2125
 7236SOL     OW33343   1.940   2.387   9.909 -0.0415  0.0846 -0.3243
 7236SOL    HW133344   1.875   2.335   9.860  2.2515 -2.1879 -0.9841
 7236SOL    HW233345   1.957   2.456   9.845 -0.8481  0.7685  0.2009
 7237SOL     OW33346   2.936   0.308   8.495 -0.0559  0.0945 -0.1098
 7237SOL    HW133347   2.852   0.280   8.532 -0.5730  1.7633 -0.0406
 7237SOL    HW233348   2.913   0.365   8.422 -0.5439  0.2443  0.1644
 7238SOL     OW33349   1.858   4.413   5.546 -0.1319  0.0491 -0.3705
 7238SOL    HW133350   1.793   4.482   5.549  2.1727  2.2881 -2.1504
 7238SOL    HW233351   1.802   4.335   5.544 -0.0198 -0.0292 -0.5432
 7239SOL     OW33352   0.467   2.378   4.442  0.3375  0.0116 -0.5366
 7239SOL    HW133353   0.415   2.432   4.382 -1.5915 -0.7540  0.4655
 7239SOL    HW233354   0.544   2.435   4.443 -0.1003  0.5881  0.1043
 7240SOL     OW33355   2.061   1.822   3.403 -0.6640 -0.3033  0.1236
 7240SOL    HW133356   2.083   1.801   3.494  0.4385 -2.4400 -0.6282
 7240SOL    HW233357   2.082   1.738   3.363  1.7802 -0.3985  1.6165
 7241SOL     OW33358   2.857   1.935   4.620  0.3258 -0.0245  0.1479
 7241SOL    HW133359   2.850   1.857   4.675  1.1341 -0.5285 -0.4610
 7241SOL    HW233360   2.892   1.995   4.687  1.3153  0.5784 -0.9138
 7242SOL     OW33361   2.557   1.578   6.590  0.1215 -0.3467  0.0854
 7242SOL    HW133362   2.567   1.589   6.496  2.3232 -0.2249  0.3135
 7242SOL    HW233363   2.492   1.647   6.602 -1.4048 -1.9771  1.1151
 7243SOL     OW33364   1.580   0.088   5.487 -0.1385 -0.1307  0.2997
 7243SOL    HW133365   1.638   0.157   5.519 -0.1431  0.0064  0.0143
 7243SOL    HW233366   1.630   0.008   5.503  0.4603  0.1398 -0.2263
 7244SOL     OW33367   3.617   0.112   5.111  0.2931 -0.3526 -0.6753
 7244SOL    HW133368   3.549   0.079   5.052  0.3867  0.9382 -1.5018
 7244SOL    HW233369   3.697   0.101   5.060  1.7786  0.1315  1.5783
 7245SOL     OW33370   1.182   4.397   2.523 -0.8582  0.1563 -0.2397
 7245SOL    HW133371   1.152   4.454   2.453 -1.6896 -0.1473 -0.1317
 7245SOL    HW233372   1.218   4.328   2.467 -3.1028 -0.2253 -1.2201
 7246SOL     OW33373   1.374   2.556   0.242 -0.3223 -0.0262  0.1252
 7246SOL    HW133374   1.391   2.571   0.149 -1.4929 -1.1619 -0.2762
 7246SOL    HW233375   1.354   2.462   0.240  2.7866 -0.6612 -1.2029
 7247SOL     OW33376   0.736   2.959  16.610 -0.0973  0.2299 -0.2491
 7247SOL    HW133377   0.769   3.048  16.620  0.2898  0.3496 -2.6381
 7247SOL    HW233378   0.646   2.980  16.585 -0.2683  0.9273  0.9467
 7248SOL     OW33379   0.051   1.049   2.882  0.6165 -1.4949  0.2384
 7248SOL    HW133380   4.725   1.016   2.942  0.7168  1.0941  1.8007
 7248SOL    HW233381   0.111   0.977   2.861  1.1964 -0.0534 -3.0713
 7249SOL     OW33382   0.236   2.300   7.157  0.5174 -0.1514  0.4279
 7249SOL    HW133383   0.328   2.287   7.180 -0.3651 -1.2836  3.2855
 7249SOL    HW233384   0.232   2.395   7.173 -2.2537 -0.1302 -0.4283
 7250SOL     OW33385   1.770   0.545   2.684  0.4699  0.1054  0.0364
 7250SOL    HW133386   1.743   0.460   2.718 -3.0681  0.9892 -0.4911
 7250SOL    HW233387   1.747   0.602   2.758 -0.9431 -1.7802  1.0555
 7251SOL     OW33388   0.486   1.265   0.968 -0.0055 -0.1577  0.1726
 7251SOL    HW133389   0.450   1.204   1.033 -0.9424 -0.9804 -1.1042
 7251SOL    HW233390   0.473   1.349   1.011  3.2042 -0.6187  2.0265
 7252SOL     OW33391   3.998   3.641   5.109  0.1001 -0.5536  0.0967
 7252SOL    HW133392   3.913   3.597   5.110 -0.5209  0.5989 -1.1456
 7252SOL    HW233393   3.992   3.703   5.182 -1.0182  0.0966 -0.5495
 7253SOL     OW33394   3.021   1.628   9.321 -0.6961  0.2925 -0.2276
 7253SOL    HW133395   2.949   1.691   9.317 -0.1407  0.8775 -1.2088
 7253SOL    HW233396   3.085   1.680   9.272  0.2476 -1.2643 -0.6478
 7254SOL     OW33397   2.773   0.237   2.689  0.1394 -0.0871 -0.1657
 7254SOL    HW133398   2.743   0.159   2.736  0.0888  1.2090  1.9476
 7254SOL    HW233399   2.869   0.235   2.691  0.0724  0.5333  2.5809
 7255SOL     OW33400   3.212   3.828  16.734  0.3952 -0.1976  0.3075
 7255SOL    HW133401   3.229   3.848  16.826 -0.9859  1.0760  0.2942
 7255SOL    HW233402   3.243   3.912  16.700 -0.5835 -0.1987 -0.5799
 7256SOL     OW33403   3.481   2.625   0.947 -0.0594  0.4770 -0.4139
 7256SOL    HW133404   3.398   2.653   0.908 -0.3344 -2.5948 -2.0097
 7256SOL    HW233405   3.539   2.699   0.926 -1.6412  1.5089 -1.0983
 7257SOL     OW33406   3.813   0.961  12.968  0.2291 -0.0692  0.2304
 7257SOL    HW133407   3.859   1.044  12.975  1.2383 -0.5478 -0.8488
 7257SOL    HW233408   3.874   0.907  13.019  0.5897 -0.8700 -1.0490
 7258SOL     OW33409   1.089   1.419   6.077  0.4716 -0.7791 -0.2882
 7258SOL    HW133410   1.047   1.475   6.011  1.8972 -1.3022 -1.6349
 7258SOL    HW233411   1.110   1.338   6.031  1.2226  0.7181 -2.5448
 7259SOL     OW33412   4.450   4.683   7.367  0.1375 -0.0200 -0.4818
 7259SOL    HW133413   4.389   4.632   7.419 -0.7443 -1.5334 -3.0092
 7259SOL    HW233414   4.529   4.644   7.405  0.0698  0.0186 -0.3009
 7260SOL     OW33415   4.665   2.866   1.186 -0.5084 -0.1566 -0.2298
 7260SOL    HW133416   4.671   2.800   1.117  3.7646 -0.3262  0.3066
 7260SOL    HW233417   4.610   2.930   1.139 -0.7564 -1.0339 -1.1283
 7261SOL     OW33418   0.761   0.244  16.207  0.1158 -0.1794  0.2414
 7261SOL    HW133419   0.746   0.300  16.283  0.0483  0.2882 -0.1185
 7261SOL    HW233420   0.684   0.187  16.206 -0.7324  0.9643  0.8457
 7262SOL     OW33421   4.407   2.974   9.203 -0.1289 -0.3226  0.0074
 7262SOL    HW133422   4.344   3.009   9.140 -0.1126  0.4856  0.4365
 7262SOL    HW233423   4.367   2.888   9.214  1.1277 -0.5629  2.9152
 7263SOL     OW33424   0.827   3.975   0.368 -0.7421  0.0663 -0.3616
 7263SOL    HW133425   0.759   3.908   0.359 -0.7676  0.0920 -0.3619
 7263SOL    HW233426   0.883   3.936   0.434 -1.1504  0.1030  0.0072
 7264SOL     OW33427   3.204   3.096  13.872 -0.2761  0.3200 -0.6161
 7264SOL    HW133428   3.290   3.055  13.885 -0.3471  0.2853 -0.2473
 7264SOL    HW233429   3.224   3.185  13.899 -1.8135  0.9269 -1.4617
 7265SOL     OW33430   2.469   4.657  17.230  0.3620  0.2740 -0.3885
 7265SOL    HW133431   2.526   4.693  17.298 -0.5990 -1.8623  1.5164
 7265SOL    HW233432   2.542   4.608  17.191  0.9630  0.5681  0.3528
 7266SOL     OW33433   1.100   2.565  15.627  0.6932 -0.2870 -0.4143
 7266SOL    HW133434   1.124   2.543  15.537  1.6145 -1.7831  0.2045
 7266SOL    HW233435   1.006   2.547  15.620  1.0146 -1.8758 -0.5842
 7267SOL     OW33436   0.646   3.452  15.165 -0.3399 -0.1223 -0.0658
 7267SOL    HW133437   0.736   3.479  15.147 -0.7385  0.3618 -1.3266
 7267SOL    HW233438   0.616   3.426  15.078  1.1504 -0.6615 -0.4087
 7268SOL     OW33439   3.588   2.517   7.991  0.5656  0.1238  0.7606
 7268SOL    HW133440   3.527   2.479   7.928  2.0045 -1.1198  0.1210
 7268SOL    HW233441   3.605   2.607   7.965  1.3439 -0.0894  0.5267
 7269SOL     OW33442   2.414   4.133   2.911  0.5811 -0.2451 -0.6345
 7269SOL    HW133443   2.498   4.176   2.922 -0.7023  1.7194  1.4657
 7269SOL    HW233444   2.432   4.040   2.927  0.8305 -0.0182  0.3965
 7270SOL     OW33445   1.732   3.622   3.176 -0.1578  0.3144 -0.5363
 7270SOL    HW133446   1.638   3.621   3.195 -0.0198  4.9151  0.2551
 7270SOL    HW233447   1.717   3.614   3.082  0.4197 -2.3072 -0.4170
 7271SOL     OW33448   3.648   3.279   9.242  0.2274 -0.2588  0.5433
 7271SOL    HW133449   3.739   3.270   9.215 -0.0908 -0.2256 -0.5459
 7271SOL    HW233450   3.614   3.197   9.204 -0.7284  0.6361 -0.5363
 7272SOL     OW33451   0.568   0.602   4.808  0.4871 -0.3948 -0.0313
 7272SOL    HW133452   0.585   0.509   4.824  3.1945 -0.1272 -1.2709
 7272SOL    HW233453   0.601   0.625   4.721 -2.4814 -1.7935 -1.5298
 7273SOL     OW33454   1.641   4.591   5.576 -0.3249  0.2475 -0.0681
 7273SOL    HW133455   1.571   4.542   5.532 -0.0479 -1.1491  1.0565
 7273SOL    HW233456   1.622   4.580   5.669 -0.4884  2.4617  0.1476
 7274SOL     OW33457   3.083   2.175   8.791 -0.1978  0.1145 -0.0566
 7274SOL    HW133458   3.062   2.098   8.844  0.5327  0.0164  0.0954
 7274SOL    HW233459   3.179   2.181   8.800 -0.0463  0.7169 -2.0875
 7275SOL     OW33460   0.929   2.356   9.255  0.0296 -0.2920  0.2284
 7275SOL    HW133461   0.873   2.423   9.293 -1.5495 -1.0941 -0.6901
 7275SOL    HW233462   0.870   2.286   9.227  0.9467 -0.0882 -2.2643
 7276SOL     OW33463   2.311   0.063   2.971 -0.1010 -0.4545 -0.1391
 7276SOL    HW133464   2.392   0.114   2.973 -1.0684  1.0697 -0.0225
 7276SOL    HW233465   2.282   0.065   2.880 -1.2569 -0.4536  0.2276
 7277SOL     OW33466   1.198   3.683  11.280 -0.2405 -0.3556 -0.0587
 7277SOL    HW133467   1.207   3.712  11.371 -1.8246 -2.1429  0.6694
 7277SOL    HW233468   1.226   3.765  11.240  0.9494 -1.6152 -1.7940
 7278SOL     OW33469   2.034   2.184   7.529  0.1576  0.6518  0.7628
 7278SOL    HW133470   2.080   2.116   7.481  0.0550  1.5681 -0.6422
 7278SOL    HW233471   1.942   2.174   7.504  0.7373 -5.0568  0.8854
 7279SOL     OW33472   1.350   1.261  10.867  0.4543 -0.3512  0.4037
 7279SOL    HW133473   1.333   1.216  10.950 -1.9308  3.0225  1.7289
 7279SOL    HW233474   1.358   1.184  10.810  0.3399 -0.1171  0.0768
 7280SOL     OW33475   0.193   2.976   4.494 -0.3468  0.0527 -0.2210
 7280SOL    HW133476   0.215   2.891   4.532  3.3179  0.4489 -1.4625
 7280SOL    HW233477   0.264   2.988   4.432 -0.9511 -0.8851 -1.0902
 7281SOL     OW33478   1.762   0.648  12.100 -0.2947  0.5173 -0.3570
 7281SOL    HW133479   1.764   0.724  12.158  0.6699  0.5202 -0.3823
 7281SOL    HW233480   1.806   0.688  12.024 -1.3219 -0.2161 -1.3432
 7282SOL     OW33481   0.611   2.714   5.575  0.0367 -0.1502  0.1231
 7282SOL    HW133482   0.653   2.642   5.528 -1.1437 -0.3189 -0.6778
 7282SOL    HW233483   0.654   2.718   5.661  0.5789  0.2050 -0.1655
 7283SOL     OW33484   0.713   0.644   4.571 -0.0003 -0.0142  0.6519
 7283SOL    HW133485   0.780   0.576   4.566  0.0428  0.2442 -2.0371
 7283SOL    HW233486   0.669   0.641   4.486  0.8776 -0.8935  0.2399
 7284SOL     OW33487   4.741   3.042   4.326  0.1012 -0.0497  0.2860
 7284SOL    HW133488   0.067   2.991   4.372  0.3840 -1.1195 -1.3137
 7284SOL    HW233489   4.676   3.050   4.396 -0.5220 -0.8801 -0.1856
 7285SOL     OW33490   1.299   1.805  14.590  0.0588  0.3939 -0.6015
 7285SOL    HW133491   1.266   1.858  14.517  0.8354 -0.1176 -1.3316
 7285SOL    HW233492   1.389   1.834  14.575  0.1577  0.1028 -0.5653
 7286SOL     OW33493   3.870   3.844  16.766 -0.2895  0.0482  0.1528
 7286SOL    HW133494   3.901   3.797  16.844  2.4760  1.8230  0.1085
 7286SOL    HW233495   3.803   3.894  16.813  1.4572  2.7242 -0.2292
 7287SOL     OW33496   4.720   2.322   8.924 -0.0190  0.0079  0.0571
 7287SOL    HW133497   0.069   2.290   8.927  0.1130  0.4121  0.2516
 7287SOL    HW233498   4.699   2.325   8.831  1.3833 -1.9524 -0.3298
 7288SOL     OW33499   2.455   4.026   7.908  0.5085 -0.2212 -0.1427
 7288SOL    HW133500   2.368   4.032   7.869  0.3427  1.6074  0.5386
 7288SOL    HW233501   2.508   3.995   7.835 -1.5131 -0.2243 -1.5940
 7289SOL     OW33502   4.582   0.425   2.327 -0.6069  0.4271  0.1927
 7289SOL    HW133503   4.533   0.358   2.375  0.4129 -0.3983  0.0722
 7289SOL    HW233504   4.502   0.470   2.297 -0.7455  0.3009  0.3724
 7290SOL     OW33505   1.637   2.823  15.259  0.7542  0.0028  0.0808
 7290SOL    HW133506   1.701   2.838  15.329 -0.8708 -0.0677  1.5848
 7290SOL    HW233507   1.577   2.893  15.283  0.4297  0.6705 -2.6879
 7291SOL     OW33508   4.252   3.116   1.946  0.2404 -0.6198 -0.0952
 7291SOL    HW133509   4.201   3.040   1.976  0.6047 -0.5014  0.8456
 7291SOL    HW233510   4.235   3.106   1.853 -1.8929  0.9162  0.1323
 7292SOL     OW33511   1.005   2.131   2.922 -0.1121  0.5373 -0.1200
 7292SOL    HW133512   1.058   2.144   2.843  1.6373  1.5466  1.2214
 7292SOL    HW233513   1.012   2.037   2.939 -0.3330  0.3441 -1.0878
 7293SOL     OW33514   1.176   0.823   9.908 -0.3831 -0.3139  0.5405
 7293SOL    HW133515   1.219   0.907   9.922  1.4435 -0.6058 -3.2439
 7293SOL    HW233516   1.186   0.814   9.813 -1.4666 -0.0206  0.3975
 7294SOL     OW33517   1.010   3.240   3.255 -0.4503 -0.0905  0.5369
 7294SOL    HW133518   1.042   3.264   3.168 -0.5217 -1.2885  0.1798
 7294SOL    HW233519   0.964   3.318   3.286 -0.2340  0.0024  0.6272
 7295SOL     OW33520   2.444   1.478   7.753 -0.1038  0.0963 -0.6574
 7295SOL    HW133521   2.460   1.395   7.708  2.6119 -0.4461  1.3367
 7295SOL    HW233522   2.494   1.461   7.832 -0.1008  0.4446 -0.5838
 7296SOL     OW33523   1.241   2.360  10.876  0.2196  0.2729 -0.3442
 7296SOL    HW133524   1.269   2.405  10.955  3.7910 -1.4075 -0.6422
 7296SOL    HW233525   1.272   2.271  10.892 -2.4501 -0.6573 -0.2951
 7297SOL     OW33526   0.433   4.055   1.892 -0.0516  0.2906 -0.4762
 7297SOL    HW133527   0.483   4.103   1.958 -1.8441  1.9692 -0.3575
 7297SOL    HW233528   0.504   4.058   1.827 -0.1411 -1.2268 -0.6464
 7298SOL     OW33529   3.595   2.845  12.927 -0.9678  0.0056  0.0323
 7298SOL    HW133530   3.676   2.810  12.964 -2.0849 -1.0135  1.4569
 7298SOL    HW233531   3.567   2.769  12.877  2.1825 -0.2296 -1.3949
 7299SOL     OW33532   0.818   3.578   0.540 -0.3439  0.3678 -0.7718
 7299SOL    HW133533   0.787   3.618   0.459  4.3034  0.5623 -2.4578
 7299SOL    HW233534   0.899   3.534   0.514  0.1049  0.3145  0.6888
 7300SOL     OW33535   4.045   1.595   9.482  0.0950  0.6125 -0.6086
 7300SOL    HW133536   4.121   1.636   9.439  0.1715  0.0525 -1.0042
 7300SOL    HW233537   3.973   1.644   9.443 -0.2197 -1.4120 -2.5729
 7301SOL     OW33538   3.152   0.995   4.455  0.0436 -0.0525  0.2271
 7301SOL    HW133539   3.091   1.050   4.504  1.7907  0.0414  2.3067
 7301SOL    HW233540   3.227   0.989   4.515 -0.1983  0.5109  0.5870
 7302SOL     OW33541   2.958   3.541   3.901 -0.0682  0.3444  0.8646
 7302SOL    HW133542   2.914   3.516   3.820  0.0823  1.4132  0.4507
 7302SOL    HW233543   3.024   3.600   3.864 -1.0232  0.4914 -0.5895
 7303SOL     OW33544   1.621   0.838   4.415 -0.0898 -0.3772 -0.0678
 7303SOL    HW133545   1.612   0.933   4.415 -2.6090 -0.5955  0.4979
 7303SOL    HW233546   1.689   0.815   4.478 -1.5977 -1.4574  1.1862
 7304SOL     OW33547   3.561   3.691  11.043 -0.2755  0.3798  0.2285
 7304SOL    HW133548   3.555   3.625  11.111  0.2012 -0.4903 -0.5743
 7304SOL    HW233549   3.612   3.641  10.979 -0.4841 -0.7325  0.9336
 7305SOL     OW33550   4.045   3.831  16.993 -0.5580 -0.0777  0.2972
 7305SOL    HW133551   4.093   3.770  17.050  0.3043 -0.8206 -1.2182
 7305SOL    HW233552   4.120   3.858  16.941 -0.8740  1.4330  0.6296
 7306SOL     OW33553   2.470   1.958   7.001 -0.0445 -0.7134 -0.4722
 7306SOL    HW133554   2.500   1.962   6.910 -3.5864  2.4312 -1.5148
 7306SOL    HW233555   2.482   1.864   7.019 -0.4263 -0.4617  1.0547
 7307SOL     OW33556   0.270   1.907   7.994 -0.4806  0.6143 -0.1712
 7307SOL    HW133557   0.288   1.962   7.918 -0.6820  0.4528 -0.3326
 7307SOL    HW233558   0.198   1.858   7.954  0.1962 -0.3258 -0.2395
 7308SOL     OW33559   3.304   2.559   1.989 -0.4313  0.5707  0.5003
 7308SOL    HW133560   3.397   2.544   1.974 -0.0652  2.8781  0.4718
 7308SOL    HW233561   3.284   2.626   1.923 -0.8395 -0.2824 -0.2467
 7309SOL     OW33562   3.008   3.914   3.365 -0.3470  0.9331 -0.1053
 7309SOL    HW133563   3.023   3.955   3.450 -1.1787  0.2443  0.3612
 7309SOL    HW233564   2.939   3.971   3.330 -0.9220 -0.3686 -1.0636
 7310SOL     OW33565   1.696   4.356   4.020 -0.0033  0.0141  0.6087
 7310SOL    HW133566   1.754   4.305   4.076 -1.5970 -2.1934  0.2540
 7310SOL    HW233567   1.702   4.317   3.933 -0.2851 -0.0817  0.6312
 7311SOL     OW33568   3.654   3.400  10.680 -0.1030  0.2062  0.2538
 7311SOL    HW133569   3.702   3.342  10.621  1.8078  0.2204  1.7992
 7311SOL    HW233570   3.569   3.400  10.637 -1.0900  0.9877  2.2185
 7312SOL     OW33571   1.698   1.129   5.458 -0.0178  0.4604 -0.6933
 7312SOL    HW133572   1.693   1.108   5.364  1.3166 -0.8380 -0.4624
 7312SOL    HW233573   1.724   1.221   5.459 -0.0301  0.4728 -1.1825
 7313SOL     OW33574   3.118   0.289  14.775 -0.7339 -0.1442  0.0102
 7313SOL    HW133575   3.076   0.270  14.690 -1.2921  1.1081  0.0034
 7313SOL    HW233576   3.101   0.210  14.827 -0.3553  0.9402  1.7481
 7314SOL     OW33577   1.410   0.459   8.185 -0.0609  0.0364  0.3025
 7314SOL    HW133578   1.465   0.395   8.231  0.3284  1.0361  1.2238
 7314SOL    HW233579   1.332   0.409   8.162  0.9963 -0.5671 -1.9556
 7315SOL     OW33580   1.133   4.448   6.532 -0.2943  0.4003 -0.8950
 7315SOL    HW133581   1.186   4.471   6.455  0.0488 -1.6615 -1.2519
 7315SOL    HW233582   1.150   4.526   6.586  1.5327 -0.4383 -0.2752
 7316SOL     OW33583   1.013   3.826   6.853  0.6496  0.1399 -0.3103
 7316SOL    HW133584   1.012   3.894   6.920  0.3563  1.5473 -1.7373
 7316SOL    HW233585   1.090   3.775   6.876  0.5080 -1.2250 -2.8007
 7317SOL     OW33586   4.169   3.777  12.595  0.3195  1.0342  0.4654
 7317SOL    HW133587   4.264   3.767  12.601  0.4062 -0.2289 -2.9727
 7317SOL    HW233588   4.159   3.834  12.519 -0.4938  0.9508  0.5143
 7318SOL     OW33589   2.807   1.690   5.825 -0.3584  0.2313 -0.2362
 7318SOL    HW133590   2.868   1.715   5.755 -0.2290  0.9879  0.1529
 7318SOL    HW233591   2.722   1.722   5.794 -0.4739 -1.7720 -2.0554
 7319SOL     OW33592   1.951   0.690  12.783  0.6893  0.1893 -0.1796
 7319SOL    HW133593   1.925   0.778  12.757 -0.3304  0.8682  3.0875
 7319SOL    HW233594   2.047   0.694  12.782  0.6160  1.4615 -1.6276
 7320SOL     OW33595   4.159   3.901   7.699  0.2269 -0.7073  0.0925
 7320SOL    HW133596   4.138   3.841   7.628  0.2085 -1.5343  0.7977
 7320SOL    HW233597   4.092   3.968   7.686 -1.8450 -2.6899  0.6419
 7321SOL     OW33598   3.625   4.579   5.116 -0.1546  0.0860 -0.3003
 7321SOL    HW133599   3.607   4.670   5.142 -3.2861 -0.1094 -1.8248
 7321SOL    HW233600   3.698   4.583   5.054  1.0562 -0.1954  1.0910
 7322SOL     OW33601   0.009   1.345   1.814  0.8630 -0.0635 -0.3168
 7322SOL    HW133602   0.085   1.287   1.805  0.5752 -0.4048 -0.5697
 7322SOL    HW233603   4.708   1.309   1.892  1.5064  0.5966  0.3288
 7323SOL     OW33604   4.434   0.633  12.123 -0.6183 -0.0655  0.4796
 7323SOL    HW133605   4.342   0.651  12.102 -0.3590  0.3939 -0.2259
 7323SOL    HW233606   4.468   0.718  12.098 -3.7989  1.2376  0.6171
 7324SOL     OW33607   2.439   0.112   6.825 -0.1098  0.6182  0.1044
 7324SOL    HW133608   2.520   0.094   6.777 -1.9423  0.6057 -2.9842
 7324SOL    HW233609   2.388   0.038   6.793  2.3586 -2.4175  3.2902
 7325SOL     OW33610   2.614   3.466   5.613 -0.4631  0.2636 -0.2829
 7325SOL    HW133611   2.706   3.444   5.628 -0.8159 -1.6006 -0.9082
 7325SOL    HW233612   2.571   3.402   5.668 -0.3016  2.0339  1.9238
 7326SOL     OW33613   0.437   1.563   9.494 -0.0725 -0.1894 -0.3018
 7326SOL    HW133614   0.500   1.493   9.512  0.4467  1.1270  2.9818
 7326SOL    HW233615   0.480   1.621   9.431 -1.2905  1.5448  0.4737
 7327SOL     OW33616   2.680   4.725  17.411  0.3825  0.0158 -0.0443
 7327SOL    HW133617   2.723   0.045  17.352 -2.3438  2.1128  0.0885
 7327SOL    HW233618   2.704   0.016  17.498  2.3574 -1.6561  0.0128
 7328SOL     OW33619   1.895   0.615   9.485  0.4624 -0.6056 -0.3388
 7328SOL    HW133620   1.950   0.599   9.561  1.6921 -0.3913 -1.1845
 7328SOL    HW233621   1.889   0.711   9.492  0.1773 -0.5268 -1.7047
 7329SOL     OW33622   3.393   2.617  16.861  0.5882  0.3296  0.3051
 7329SOL    HW133623   3.468   2.675  16.872  0.7180  0.3578 -0.7014
 7329SOL    HW233624   3.365   2.630  16.770  1.0533  1.3733  0.3182
 7330SOL     OW33625   1.566   2.889   3.407 -0.2120 -1.1043  0.2518
 7330SOL    HW133626   1.557   2.817   3.469 -0.1933 -1.4449 -0.1399
 7330SOL    HW233627   1.625   2.851   3.342 -0.8609 -0.3319 -0.8091
 7331SOL     OW33628   2.565   0.626  11.796 -0.7090 -0.1308 -0.0285
 7331SOL    HW133629   2.659   0.608  11.796 -0.0939  3.0678  0.0493
 7331SOL    HW233630   2.543   0.550  11.849 -0.8815  0.7732  1.2083
 7332SOL     OW33631   0.685   4.131  16.815 -0.2074  0.2466 -0.3947
 7332SOL    HW133632   0.653   4.157  16.729  0.7432  1.4439 -0.3856
 7332SOL    HW233633   0.765   4.183  16.814 -0.0376 -0.0345 -1.6735
 7333SOL     OW33634   0.989   0.846  14.521  0.3446 -0.1615  0.2416
 7333SOL    HW133635   0.998   0.841  14.426 -0.9037  0.2556  0.0973
 7333SOL    HW233636   0.982   0.941  14.532  0.2761 -0.2629  1.0713
 7334SOL     OW33637   2.647   3.929   6.873  0.0313 -0.4899  0.1540
 7334SOL    HW133638   2.740   3.923   6.847 -0.4250 -2.2658 -1.0965
 7334SOL    HW233639   2.611   3.942   6.785 -3.1652  1.0097  1.7192
 7335SOL     OW33640   4.002   1.074  16.654  0.5736 -0.4850  0.3987
 7335SOL    HW133641   3.936   1.124  16.606 -1.0390 -1.5811  1.4791
 7335SOL    HW233642   4.075   1.096  16.597 -0.1583  0.6099 -0.1286
 7336SOL     OW33643   2.962   0.434  17.187  0.1330 -0.2632  0.4617
 7336SOL    HW133644   3.031   0.459  17.248 -0.0957  1.0692  0.1752
 7336SOL    HW233645   3.007   0.421  17.103 -0.6367 -1.1149  0.1770
 7337SOL     OW33646   3.159   2.543   5.011  0.6593 -0.7962  0.2966
 7337SOL    HW133647   3.217   2.531   4.936 -0.1330 -2.8911  0.0449
 7337SOL    HW233648   3.207   2.613   5.056  0.9474 -2.3813  2.4533
 7338SOL     OW33649   2.911   1.440   8.936  0.3842 -0.4471  0.2040
 7338SOL    HW133650   2.943   1.495   8.865 -0.6539  1.3055  1.1172
 7338SOL    HW233651   2.848   1.500   8.976  1.6534 -0.2924  1.9586
 7339SOL     OW33652   0.399   3.640   7.257 -0.5448  0.6085 -0.5332
 7339SOL    HW133653   0.344   3.716   7.277 -1.5565  0.0047 -1.0549
 7339SOL    HW233654   0.466   3.672   7.318 -0.1293 -1.8919  0.3420
 7340SOL     OW33655   3.815   2.879   3.793  0.2041 -0.2109 -0.1408
 7340SOL    HW133656   3.754   2.898   3.721  1.3433 -2.2595 -1.6418
 7340SOL    HW233657   3.784   2.936   3.863  1.2541  0.5093 -0.2747
 7341SOL     OW33658   2.601   1.577   2.471  0.1021  0.0878  0.1042
 7341SOL    HW133659   2.643   1.540   2.393 -1.2658 -2.7762  0.7463
 7341SOL    HW233660   2.558   1.658   2.443  1.7164  0.5275 -1.0998
 7342SOL     OW33661   4.238   2.372  12.765  0.0754 -0.6810 -0.1886
 7342SOL    HW133662   4.173   2.339  12.703  0.4503 -0.0695 -0.9089
 7342SOL    HW233663   4.213   2.463  12.779  1.2750 -0.8574  3.0559
 7343SOL     OW33664   3.224   3.782   3.253  0.4287  0.1661 -0.4101
 7343SOL    HW133665   3.151   3.837   3.280 -0.3432 -0.3886 -1.3803
 7343SOL    HW233666   3.208   3.791   3.159  0.9469 -3.3235 -0.8104
 7344SOL     OW33667   2.446   1.529  15.270 -0.0229  0.8486 -0.5425
 7344SOL    HW133668   2.375   1.587  15.297 -0.0904  0.2593  0.5246
 7344SOL    HW233669   2.398   1.447  15.282  0.4299  0.2372 -2.9198
 7345SOL     OW33670   2.434   2.758   0.148 -0.3529  0.1844 -0.5869
 7345SOL    HW133671   2.527   2.745   0.164 -0.5038  0.0970  0.1809
 7345SOL    HW233672   2.397   2.688   0.201  1.2264 -0.6693 -0.6319
 7346SOL     OW33673   1.004   2.478  14.257 -0.3155 -0.5798 -0.1453
 7346SOL    HW133674   1.091   2.513  14.240 -2.1298  4.4949  1.1609
 7346SOL    HW233675   1.003   2.419  14.182  0.2302  0.6001 -1.0844
 7347SOL     OW33676   4.273   1.702  14.078 -0.0529  0.6303  0.3437
 7347SOL    HW133677   4.248   1.781  14.127 -1.3598  0.3976  0.0429
 7347SOL    HW233678   4.366   1.711  14.101  0.0503  2.0343 -0.5779
 7348SOL     OW33679   1.114   0.801   4.378 -0.5037 -0.1235 -0.1735
 7348SOL    HW133680   1.132   0.709   4.395  2.2479  0.8984  2.2976
 7348SOL    HW233681   1.053   0.806   4.303 -0.4440  3.9133  0.0765
 7349SOL     OW33682   0.417   4.066   6.022  0.4207  0.5263  0.0189
 7349SOL    HW133683   0.413   4.053   6.117  2.7287 -2.9369 -0.3771
 7349SOL    HW233684   0.452   4.153   6.005 -1.9029  1.3301 -0.7006
 7350SOL     OW33685   1.950   3.351  13.584 -0.0124 -0.7005 -0.4548
 7350SOL    HW133686   1.889   3.284  13.553  2.6636 -3.1737 -0.2665
 7350SOL    HW233687   1.999   3.377  13.506 -1.4941 -0.3321 -1.2757
 7351SOL     OW33688   4.377   4.224   1.045  0.1786  0.8218 -0.5594
 7351SOL    HW133689   4.430   4.146   1.035  0.0784  0.7550 -0.5712
 7351SOL    HW233690   4.380   4.231   1.140 -0.1961  0.0432 -0.4878
 7352SOL     OW33691   2.382   1.274   0.927 -0.2865 -0.2094 -0.6816
 7352SOL    HW133692   2.311   1.327   0.891 -0.0984  2.4530  2.8480
 7352SOL    HW233693   2.403   1.213   0.856  0.9151 -0.3900 -0.1871
 7353SOL     OW33694   0.611   2.726  12.017 -0.1055 -0.1186 -0.5862
 7353SOL    HW133695   0.582   2.714  12.108  0.8156  0.5378 -0.2087
 7353SOL    HW233696   0.528   2.731  11.969  0.0804  0.1788 -0.8721
 7354SOL     OW33697   0.860   0.740   4.275 -0.4610  0.0801 -0.6800
 7354SOL    HW133698   0.833   0.723   4.184 -0.4225  0.3060 -0.7343
 7354SOL    HW233699   0.810   0.669   4.314  0.1519  1.0940  1.9033
 7355SOL     OW33700   2.598   0.548   9.272 -0.0159 -0.5406 -0.1375
 7355SOL    HW133701   2.555   0.464   9.252  0.2184 -0.7574  0.2706
 7355SOL    HW233702   2.616   0.581   9.184  0.8476  2.3271  1.1136
 7356SOL     OW33703   4.263   3.739   9.683 -0.0815  0.4670 -0.3419
 7356SOL    HW133704   4.184   3.755   9.734 -1.7908 -0.4265 -2.6870
 7356SOL    HW233705   4.330   3.786   9.732  0.1103  1.5360 -1.6191
 7357SOL     OW33706   2.283   0.796   6.985  0.0310  0.1120  0.2873
 7357SOL    HW133707   2.209   0.783   7.045 -0.6746  1.5438 -0.2675
 7357SOL    HW233708   2.305   0.887   7.008 -3.9181  1.0774  0.2907
 7358SOL     OW33709   1.990   0.140   1.549 -0.1495 -0.3120  0.2964
 7358SOL    HW133710   2.084   0.143   1.529 -0.3185 -1.0267 -0.6070
 7358SOL    HW233711   1.976   0.052   1.514 -1.2577  0.8336 -2.1638
 7359SOL     OW33712   0.546   2.380  12.632 -0.4628  0.7818 -0.3104
 7359SOL    HW133713   0.598   2.455  12.660  2.9102 -2.1618  1.3409
 7359SOL    HW233714   0.492   2.427  12.568 -2.6671 -0.8136  0.4145
 7360SOL     OW33715   0.992   1.298   9.011 -0.1967 -0.5828  0.4437
 7360SOL    HW133716   0.908   1.340   8.996 -0.0521 -0.2059  0.6930
 7360SOL    HW233717   1.049   1.367   8.976 -2.3866  0.6446 -0.7350
 7361SOL     OW33718   3.922   0.951   2.828  0.3760  0.2429  0.1784
 7361SOL    HW133719   3.943   0.968   2.736 -2.3989  0.3950 -0.4397
 7361SOL    HW233720   3.827   0.965   2.833  0.5473  0.9861  1.3849
 7362SOL     OW33721   1.740   1.879   5.299  0.3729  0.1201 -0.3756
 7362SOL    HW133722   1.798   1.851   5.370 -0.6603 -0.8164  0.0927
 7362SOL    HW233723   1.800   1.921   5.238  0.1984  0.1355 -0.5343
 7363SOL     OW33724   3.237   2.642  13.900  0.1864 -0.2616  0.2097
 7363SOL    HW133725   3.267   2.689  13.823 -0.6722 -0.9690 -0.5632
 7363SOL    HW233726   3.287   2.690  13.966  0.8385 -0.8181  0.1181
 7364SOL     OW33727   0.045   3.342   3.953 -0.4855  0.0308 -0.1029
 7364SOL    HW133728   0.011   3.317   4.039  2.2172 -1.2952  0.5821
 7364SOL    HW233729   0.035   3.257   3.909  0.9766 -0.0876 -0.2181
 7365SOL     OW33730   0.250   4.673   8.239  0.3256 -0.6760 -0.6624
 7365SOL    HW133731   0.318   4.649   8.176 -0.1420 -0.3872 -1.2768
 7365SOL    HW233732   0.287   4.646   8.323 -0.7485 -0.2156 -0.0438
 7366SOL     OW33733   0.522   1.599   0.368  0.4251  0.0022  0.7802
 7366SOL    HW133734   0.613   1.619   0.388  0.0178  2.5162  0.1611
 7366SOL    HW233735   0.538   1.554   0.285  1.3090  2.1440 -0.2011
 7367SOL     OW33736   1.006   1.944  10.040  0.0216  0.2698  0.4251
 7367SOL    HW133737   1.026   1.855  10.070 -0.3705 -0.3041 -1.0468
 7367SOL    HW233738   1.063   1.954   9.965  0.5978  0.0694  0.8381
 7368SOL     OW33739   3.178   2.932  13.077 -0.1796 -0.2979  0.2351
 7368SOL    HW133740   3.128   3.013  13.067 -1.4078 -1.2736 -1.3897
 7368SOL    HW233741   3.174   2.897  12.988  1.4848  1.1542 -0.4118
 7369SOL     OW33742   4.133   0.376  12.119 -0.0897 -0.3188  0.2445
 7369SOL    HW133743   4.163   0.465  12.139 -2.6300  0.6857 -0.5186
 7369SOL    HW233744   4.136   0.346  12.210 -0.0602  1.0461  0.7034
 7370SOL     OW33745   1.595   1.228   7.693 -0.0332  0.0187  0.0512
 7370SOL    HW133746   1.550   1.171   7.630 -1.7986  0.5845  0.7836
 7370SOL    HW233747   1.594   1.180   7.776 -0.4282 -0.7495 -0.3941
 7371SOL     OW33748   0.006   0.011  11.725 -0.3843  0.1573  0.7038
 7371SOL    HW133749   0.008   0.034  11.817 -1.9992  1.6121  0.3704
 7371SOL    HW233750   0.059   4.672  11.715  1.5493  1.6355 -0.9824
 7372SOL     OW33751   3.965   0.012   7.507  0.1310 -0.1042  0.2199
 7372SOL    HW133752   3.971   4.715   7.419 -0.1820 -0.2923  0.2819
 7372SOL    HW233753   4.005   4.682   7.557  0.0509 -0.2464  0.0805
 7373SOL     OW33754   2.980   1.404   4.435 -0.3457  0.2554  0.0319
 7373SOL    HW133755   2.912   1.469   4.450  0.3803  1.3336 -1.3126
 7373SOL    HW233756   2.936   1.327   4.399 -1.4552 -0.4139  2.8244
 7374SOL     OW33757   1.580   2.320   5.471  0.1876  0.4151  0.6690
 7374SOL    HW133758   1.539   2.385   5.414 -1.6167 -0.5460  0.8768
 7374SOL    HW233759   1.513   2.321   5.539 -1.2489 -0.3467 -0.7325
 7375SOL     OW33760   3.023   0.099   7.619  0.1855 -0.6430 -0.2533
 7375SOL    HW133761   3.078   0.085   7.696 -2.5386  2.5250  2.2295
 7375SOL    HW233762   3.087   0.143   7.563 -0.0020  1.2076  1.0024
 7376SOL     OW33763   3.834   0.787   7.008  1.0563 -0.0021 -0.1974
 7376SOL    HW133764   3.755   0.734   7.010 -0.5849  2.5269  1.7229
 7376SOL    HW233765   3.885   0.755   7.083  2.4723 -0.3095 -1.2796
 7377SOL     OW33766   1.530   0.256   3.558  0.0086  0.1036  0.0467
 7377SOL    HW133767   1.593   0.295   3.497  2.0669 -4.5024 -0.7636
 7377SOL    HW233768   1.558   0.165   3.572  2.2766  0.5049 -1.8306
 7378SOL     OW33769   4.359   3.957   5.984 -0.5489  0.8888  0.0385
 7378SOL    HW133770   4.315   3.904   5.917  0.2273  1.8213 -1.2093
 7378SOL    HW233771   4.295   4.007   6.034 -0.4718 -0.2387  1.2580
 7379SOL     OW33772   1.969   0.479   6.198 -0.0479 -0.8815 -0.4727
 7379SOL    HW133773   2.049   0.491   6.249 -0.8463  0.6222  0.4266
 7379SOL    HW233774   1.908   0.484   6.272  0.4121  0.1710 -0.1533
 7380SOL     OW33775   3.514   3.188   6.262  0.2029  0.0130 -0.1680
 7380SOL    HW133776   3.532   3.199   6.356 -1.6132 -1.9328  0.4109
 7380SOL    HW233777   3.426   3.153   6.251  0.1089  0.4488 -0.7740
 7381SOL     OW33778   1.237   2.345   6.930  0.3774  0.6831 -0.5238
 7381SOL    HW133779   1.236   2.427   6.979  0.2072 -0.2061  0.9647
 7381SOL    HW233780   1.215   2.281   6.998 -0.7274  2.1317  0.4825
 7382SOL     OW33781   0.179   0.567   2.098  0.3642 -0.0896  0.7585
 7382SOL    HW133782   0.140   0.516   2.026  1.7074 -0.6042  0.4014
 7382SOL    HW233783   0.171   0.502   2.167 -2.3819 -0.5379  0.0314
 7383SOL     OW33784   3.122   1.933   3.099  0.2111  0.1372 -0.2421
 7383SOL    HW133785   3.099   1.849   3.139 -2.1423  0.6500 -0.5215
 7383SOL    HW233786   3.205   1.900   3.063  1.2889  1.4323  1.0945
 7384SOL     OW33787   0.862   3.368  14.863 -0.3818 -0.6576  0.2081
 7384SOL    HW133788   0.789   3.399  14.810 -0.7642 -0.0773  1.0769
 7384SOL    HW233789   0.841   3.276  14.847  0.9219 -0.5795 -1.9101
 7385SOL     OW33790   2.418   3.965   6.648 -0.1398  0.1763 -0.3438
 7385SOL    HW133791   2.408   3.871   6.630  2.3771  0.0648 -1.0725
 7385SOL    HW233792   2.355   3.974   6.720 -1.8990 -0.6615 -1.7602
 7386SOL     OW33793   2.852   0.425   8.264 -0.1552 -0.0826  0.3080
 7386SOL    HW133794   2.794   0.498   8.245  0.4897  0.4206  0.2712
 7386SOL    HW233795   2.852   0.376   8.182  0.5390 -1.9695  1.4181
 7387SOL     OW33796   2.864   1.021  16.096 -0.1463  0.2495 -0.1206
 7387SOL    HW133797   2.952   1.035  16.130 -1.0416 -0.3430  2.4196
 7387SOL    HW233798   2.884   0.993  16.006  0.5634 -0.3235  0.2170
 7388SOL     OW33799   1.526   2.526   0.462 -0.2863 -0.2460  0.6238
 7388SOL    HW133800   1.459   2.545   0.397 -1.1515  2.2871  2.2618
 7388SOL    HW233801   1.468   2.474   0.518 -1.0483 -1.1114 -0.9779
 7389SOL     OW33802   1.534   1.952   3.324  0.0600 -0.0155  0.1991
 7389SOL    HW133803   1.615   1.927   3.279  0.7137  2.6955 -0.0947
 7389SOL    HW233804   1.473   1.881   3.300  0.2198  0.4379 -1.4818
 7390SOL     OW33805   2.623   1.599  11.021 -0.2079  0.2466 -0.1148
 7390SOL    HW133806   2.671   1.619  11.101 -0.1518 -1.9559  0.3842
 7390SOL    HW233807   2.677   1.528  10.988 -0.9895 -0.0730 -0.7249
 7391SOL     OW33808   1.458   0.621   6.536  0.3102 -0.2686 -0.3419
 7391SOL    HW133809   1.384   0.597   6.591 -0.2159 -1.2403 -1.4876
 7391SOL    HW233810   1.493   0.537   6.507 -0.1818 -0.8677  0.7759
 7392SOL     OW33811   4.681   2.976  11.517 -0.6293  0.0088 -0.1151
 7392SOL    HW133812   4.729   2.986  11.435 -1.8179  2.0419 -0.5502
 7392SOL    HW233813   0.010   2.951  11.578 -0.1900  0.3898 -0.4610
 7393SOL     OW33814   1.470   3.772  11.130 -0.1671  0.1539  0.7718
 7393SOL    HW133815   1.457   3.679  11.150  1.1718 -0.5017 -1.4032
 7393SOL    HW233816   1.379   3.798  11.112 -1.0692 -3.3498  0.2352
 7394SOL     OW33817   1.439   2.521   7.503  0.3847 -0.9110 -0.4926
 7394SOL    HW133818   1.460   2.614   7.505  0.3457 -0.9392  0.9762
 7394SOL    HW233819   1.438   2.511   7.407 -0.4164 -0.5500 -0.5206
 7395SOL     OW33820   0.264   2.400  14.051  0.0244  0.0509 -0.3720
 7395SOL    HW133821   0.344   2.386  14.101  0.8934 -0.3859 -1.8929
 7395SOL    HW233822   0.294   2.398  13.960 -1.0617  3.6319 -0.8443
 7396SOL     OW33823   0.996   1.213  11.878 -0.3585 -0.3186  0.5704
 7396SOL    HW133824   1.068   1.198  11.817  0.2951 -3.3851  2.0934
 7396SOL    HW233825   1.012   1.139  11.936  0.3273  0.1115  0.9301
 7397SOL     OW33826   0.747   1.023  17.726 -0.1467 -0.0659 -0.4205
 7397SOL    HW133827   0.834   1.057  17.745 -0.2175 -0.8586  1.3194
 7397SOL    HW233828   0.769   0.971  17.648 -1.4636  2.2869 -2.3594
 7398SOL     OW33829   4.417   3.671  16.307  0.3082  0.7195  0.3310
 7398SOL    HW133830   4.402   3.579  16.330  0.5936  0.6840  0.3818
 7398SOL    HW233831   4.495   3.657  16.252 -0.7071 -4.2142  0.1615
 7399SOL     OW33832   1.823   0.791   3.253  0.3766 -0.2068  0.1156
 7399SOL    HW133833   1.814   0.859   3.320 -0.2785 -1.4127  1.2372
 7399SOL    HW233834   1.770   0.828   3.182 -0.3431 -0.0638  0.7204
 7400SOL     OW33835   1.399   2.318   3.186  0.3269  0.2545  0.6004
 7400SOL    HW133836   1.413   2.405   3.147 -0.7776  0.0317 -0.2776
 7400SOL    HW233837   1.481   2.278   3.156  0.8223  1.3585  0.4493
 7401SOL     OW33838   3.255   4.074   7.444  0.2914  0.0108 -0.0078
 7401SOL    HW133839   3.196   4.097   7.516  0.4102 -1.3961  0.5420
 7401SOL    HW233840   3.215   3.993   7.413 -0.9793  0.9795 -0.8894
 7402SOL     OW33841   3.984   3.288   4.125 -0.1881 -0.7225 -0.3930
 7402SOL    HW133842   3.970   3.382   4.119  1.4513 -0.4868 -0.2735
 7402SOL    HW233843   4.049   3.267   4.058 -0.6939  1.5410 -1.5683
 7403SOL     OW33844   4.192   2.415   6.766  0.3327 -0.3485 -0.4464
 7403SOL    HW133845   4.238   2.400   6.684  0.2807  2.6289 -1.0339
 7403SOL    HW233846   4.210   2.334   6.813  3.8494  0.7170  0.0056
 7404SOL     OW33847   4.268   3.990   3.182 -0.0845 -0.1625 -0.3240
 7404SOL    HW133848   4.304   4.076   3.202  2.7549 -0.9664 -2.0516
 7404SOL    HW233849   4.316   3.960   3.105 -0.4860 -0.9181 -0.2858
 7405SOL     OW33850   1.770   0.999   4.165  0.2112  0.0546  0.3579
 7405SOL    HW133851   1.680   0.996   4.133  0.6367 -2.4473 -0.6310
 7405SOL    HW233852   1.773   0.937   4.239  2.0660 -0.8352 -0.4864
 7406SOL     OW33853   2.680   4.397   4.973 -0.0352 -0.6942 -0.6742
 7406SOL    HW133854   2.633   4.480   4.960 -0.5858 -0.9877 -0.5495
 7406SOL    HW233855   2.762   4.426   4.933 -1.4500  2.3695 -1.3895
 7407SOL     OW33856   2.674   3.840   8.130  0.5272 -0.6644  0.4621
 7407SOL    HW133857   2.601   3.807   8.078  1.5642 -0.1723 -1.3261
 7407SOL    HW233858   2.671   3.773   8.198 -1.8174 -1.4883 -0.4472
 7408SOL     OW33859   3.841   0.594  12.181  0.2470  0.5498  0.2707
 7408SOL    HW133860   3.881   0.681  12.174  0.1418  0.5032 -0.7785
 7408SOL    HW233861   3.907   0.547  12.232 -0.7641 -0.2742  0.8153
 7409SOL     OW33862   2.883   1.372   5.819 -0.4146 -0.2094 -0.0658
 7409SOL    HW133863   2.852   1.323   5.743 -0.0560  1.1212 -1.0523
 7409SOL    HW233864   2.849   1.460   5.807  0.1315 -0.4134 -3.1139
 7410SOL     OW33865   0.969   1.979   1.361  0.2956  0.3778  0.3728
 7410SOL    HW133866   1.061   2.001   1.374 -0.0005  1.3980  0.7548
 7410SOL    HW233867   0.929   2.029   1.433  1.8839  0.2539  1.3400
 7411SOL     OW33868   2.972   2.386   5.526 -0.1553 -0.1717  0.4807
 7411SOL    HW133869   2.882   2.411   5.506  0.0168  0.9097  1.0532
 7411SOL    HW233870   3.006   2.441   5.597  1.7073 -0.5195 -0.1459
 7412SOL     OW33871   2.893   4.521   8.136  0.3161  0.0927 -0.1183
 7412SOL    HW133872   2.825   4.571   8.182 -1.0530 -1.9616  0.1068
 7412SOL    HW233873   2.840   4.443   8.118 -0.1468  0.6212 -1.0611
 7413SOL     OW33874   1.066   4.097   6.408 -1.0745  0.6840  0.2151
 7413SOL    HW133875   1.030   4.042   6.478  2.2730  0.2745  1.6514
 7413SOL    HW233876   1.134   4.148   6.451  1.8387 -1.6413 -1.6419
 7414SOL     OW33877   1.587   0.876   3.777  0.4662  0.6837 -0.5215
 7414SOL    HW133878   1.495   0.853   3.792  0.0199  2.6750 -0.1524
 7414SOL    HW233879   1.598   0.827   3.696  0.5450  0.1159 -0.1689
 7415SOL     OW33880   2.501   1.138  15.279 -0.3944 -0.3651 -0.3387
 7415SOL    HW133881   2.434   1.085  15.236 -0.0645 -1.0853  0.0343
 7415SOL    HW233882   2.444   1.212  15.300  1.6818  1.4497 -1.1073
 7416SOL     OW33883   1.731   2.325  11.215  0.1560  0.1881  0.5441
 7416SOL    HW133884   1.693   2.402  11.173  0.2507 -0.3327 -0.4953
 7416SOL    HW233885   1.757   2.265  11.146  0.5326  0.2179  0.6611
 7417SOL     OW33886   3.335   3.787  15.720  0.1492  0.2314  0.4464
 7417SOL    HW133887   3.345   3.706  15.671 -0.1939  1.0811 -1.0352
 7417SOL    HW233888   3.375   3.758  15.802 -2.4359  0.8767  1.9411
 7418SOL     OW33889   2.111   2.788   7.306 -0.0565 -0.0245 -0.3044
 7418SOL    HW133890   2.203   2.767   7.320  0.1866  1.7182  0.6897
 7418SOL    HW233891   2.075   2.702   7.285  1.2182 -0.0056 -2.5259
 7419SOL     OW33892   2.065   0.842   8.951  0.1557  0.2759 -0.0801
 7419SOL    HW133893   2.098   0.865   9.038  0.4985  0.7052 -0.3310
 7419SOL    HW233894   2.092   0.918   8.900  3.2250 -0.9691 -0.2756
 7420SOL     OW33895   0.541   2.500   3.068 -0.1239 -0.3201  0.0304
 7420SOL    HW133896   0.547   2.439   3.142 -3.2461 -0.2416  0.3161
 7420SOL    HW233897   0.574   2.575   3.117 -1.7596 -0.1708  0.8752
 7421SOL     OW33898   0.487   0.560   2.359  0.3431  0.3320  0.0164
 7421SOL    HW133899   0.425   0.511   2.414  1.9137 -1.3746  0.2621
 7421SOL    HW233900   0.550   0.578   2.429 -0.9317  1.6267  0.8288
 7422SOL     OW33901   4.056   0.191  10.767 -0.5887  0.2554 -0.0092
 7422SOL    HW133902   3.985   0.225  10.713 -1.6725 -3.3955 -0.9024
 7422SOL    HW233903   4.009   0.150  10.840 -0.2294 -0.2325 -0.0485
 7423SOL     OW33904   4.662   3.780  10.595  0.2602  0.5180  0.1406
 7423SOL    HW133905   0.000   3.801  10.646  1.8840 -0.9829 -1.7731
 7423SOL    HW233906   4.696   3.719  10.529 -1.9024  0.2976 -0.7498
 7424SOL     OW33907   3.616   0.890   8.482 -0.2789  0.1649 -0.1243
 7424SOL    HW133908   3.626   0.803   8.443  0.4491  0.5436 -0.7773
 7424SOL    HW233909   3.702   0.932   8.487  0.0882 -0.6156  0.1719
 7425SOL     OW33910   0.174   3.650   4.413  0.3998 -0.2196  0.3888
 7425SOL    HW133911   0.203   3.569   4.454  0.6484  0.0829  0.8203
 7425SOL    HW233912   0.163   3.619   4.324 -2.0214  0.4933  0.4422
 7426SOL     OW33913   1.006   3.948   0.612 -0.0127 -0.1414 -0.3315
 7426SOL    HW133914   1.055   3.877   0.652 -2.7224 -1.6077  0.3771
 7426SOL    HW233915   1.045   4.023   0.657  0.7222 -1.0736  0.5585
 7427SOL     OW33916   3.045   1.401   7.861  0.0759  0.4371  0.3211
 7427SOL    HW133917   3.044   1.455   7.941  0.1012  1.5173 -0.4152
 7427SOL    HW233918   2.961   1.425   7.823  1.2841  0.7366 -2.1592
 7428SOL     OW33919   0.827   1.041  12.259 -0.3866  0.3905 -0.6809
 7428SOL    HW133920   0.822   0.954  12.298 -3.8784  0.1233 -1.7448
 7428SOL    HW233921   0.880   1.084  12.326 -0.7799 -1.1836  0.6303
 7429SOL     OW33922   3.571   1.887   9.005 -0.7596  0.5992  0.0640
 7429SOL    HW133923   3.499   1.920   9.059  0.1834 -0.6006  2.0490
 7429SOL    HW233924   3.647   1.926   9.048 -1.6202  1.4070  0.8815
 7430SOL     OW33925   2.923   4.470   4.854 -0.1746  0.1176 -0.3740
 7430SOL    HW133926   2.947   4.555   4.816 -2.8971  1.0574 -0.0748
 7430SOL    HW233927   2.975   4.408   4.804 -0.2375 -1.5256  1.5734
 7431SOL     OW33928   1.626   1.265   7.099 -0.3099  0.2432  0.2677
 7431SOL    HW133929   1.700   1.274   7.158  1.9534  0.9932 -2.7205
 7431SOL    HW233930   1.578   1.343   7.125  0.4910  0.5233  0.8943
 7432SOL     OW33931   1.595   2.709  15.779  0.2067  0.0441  0.8270
 7432SOL    HW133932   1.525   2.732  15.718  1.3693  0.4627 -0.3538
 7432SOL    HW233933   1.554   2.631  15.815 -0.8589  1.0283  1.7049
 7433SOL     OW33934   4.290   4.723   8.386  0.2325 -0.5199  0.3381
 7433SOL    HW133935   4.368   4.669   8.373  0.0059 -0.7888  0.0985
 7433SOL    HW233936   4.251   4.712   8.299  0.9432  0.5778 -0.1133
 7434SOL     OW33937   2.566   1.725   9.483 -0.0417  0.0294  0.2421
 7434SOL    HW133938   2.478   1.758   9.462 -0.9193 -1.6258  1.3002
 7434SOL    HW233939   2.577   1.716   9.577  0.3671 -0.0602  0.1847
 7435SOL     OW33940   3.240   4.065   3.001 -0.2233  0.2721 -0.4059
 7435SOL    HW133941   3.312   4.077   3.062 -2.1058 -1.2088  2.0862
 7435SOL    HW233942   3.284   4.039   2.920  0.5010 -0.4938  0.2461
 7436SOL     OW33943   1.881   2.892  15.972  0.4551 -0.1622 -0.4908
 7436SOL    HW133944   1.903   2.985  15.973  1.6974 -0.4663  0.3657
 7436SOL    HW233945   1.959   2.854  16.012 -0.6878 -1.1037  0.8751
 7437SOL     OW33946   0.456   2.042   4.723  0.1867 -0.1102  0.2695
 7437SOL    HW133947   0.387   1.978   4.740  2.0415 -1.6404  2.0624
 7437SOL    HW233948   0.510   2.036   4.802  0.2397  0.1241  0.2497
 7438SOL     OW33949   3.773   3.664   4.254 -0.0722  0.2368 -0.0277
 7438SOL    HW133950   3.791   3.660   4.348  0.0914 -1.4302 -0.1328
 7438SOL    HW233951   3.678   3.671   4.263 -0.3707 -0.7040 -2.3581
 7439SOL     OW33952   1.079   0.374   3.217 -0.1683 -0.6694 -0.2254
 7439SOL    HW133953   1.022   0.301   3.241 -0.5688  0.1429  1.3688
 7439SOL    HW233954   1.032   0.447   3.259  0.3637 -1.2913  1.4522
 7440SOL     OW33955   2.551   2.566   0.361 -0.4184 -0.6195 -0.1613
 7440SOL    HW133956   2.573   2.524   0.444 -0.1951 -0.8854 -0.3561
 7440SOL    HW233957   2.563   2.657   0.388  1.4785 -0.6503 -0.8706
 7441SOL     OW33958   0.037   2.927   2.156  0.8523 -0.1223 -0.1277
 7441SOL    HW133959   0.078   2.906   2.240  0.1143  0.8344  0.4773
 7441SOL    HW233960   0.026   2.839   2.120 -1.7312  0.2329 -0.2715
 7442SOL     OW33961   1.080   2.808  13.933  0.1597 -0.2370 -0.1459
 7442SOL    HW133962   0.993   2.827  13.896 -0.5494 -1.2997  0.9744
 7442SOL    HW233963   1.128   2.874  13.884 -3.6347  0.8200 -2.4936
 7443SOL     OW33964   2.007   0.549  11.827  0.0398 -0.0473 -0.0280
 7443SOL    HW133965   1.981   0.615  11.764 -1.8717 -1.3779 -0.6272
 7443SOL    HW233966   1.935   0.486  11.828 -0.2380  0.2790  0.9990
 7444SOL     OW33967   3.290   1.309   4.450  0.3588 -0.1079  0.1106
 7444SOL    HW133968   3.314   1.241   4.388  0.5178  0.6398 -0.6426
 7444SOL    HW233969   3.198   1.289   4.470 -0.2613  0.5429 -2.1079
 7445SOL     OW33970   4.367   1.746  12.955  0.1373 -0.5327  0.4666
 7445SOL    HW133971   4.413   1.816  12.909  1.5055 -1.0169  1.0950
 7445SOL    HW233972   4.421   1.670  12.932 -1.0196 -0.6137 -2.0155
 7446SOL     OW33973   2.299   2.869   8.535  0.1991 -0.2772  0.0003
 7446SOL    HW133974   2.210   2.903   8.523  0.0982 -0.5385  0.0092
 7446SOL    HW233975   2.347   2.952   8.538  0.1175 -0.2226 -0.1679
 7447SOL     OW33976   3.692   2.387   2.603 -0.3633  0.2161  0.0696
 7447SOL    HW133977   3.770   2.417   2.555 -0.8532 -1.4497 -1.7543
 7447SOL    HW233978   3.682   2.298   2.569 -0.0622 -0.9087  2.9006
 7448SOL     OW33979   1.328   4.299   6.830 -0.2934 -0.2461  0.3857
 7448SOL    HW133980   1.362   4.347   6.906  1.3955  0.1739 -0.6480
 7448SOL    HW233981   1.357   4.362   6.765  0.9202 -1.5368 -0.3187
 7449SOL     OW33982   1.695   2.556  16.840 -0.2590 -0.0360 -0.0375
 7449SOL    HW133983   1.650   2.524  16.762 -1.8711 -2.1851  1.7586
 7449SOL    HW233984   1.775   2.503  16.840  0.7288  1.4664 -1.2289
 7450SOL     OW33985   0.817   4.172   7.260 -0.1894 -0.5600 -0.1259
 7450SOL    HW133986   0.911   4.191   7.265 -0.1154 -1.2397  0.9806
 7450SOL    HW233987   0.798   4.241   7.196  0.4306  0.2237  0.5372
 7451SOL     OW33988   1.449   4.202  10.121 -0.3940  0.5275 -0.2250
 7451SOL    HW133989   1.379   4.194  10.186  0.1904 -1.7413  0.1210
 7451SOL    HW233990   1.521   4.212  10.184 -0.1325  0.9132 -0.5908
 7452SOL     OW33991   0.341   3.435   7.523 -0.6965  0.1398 -0.5781
 7452SOL    HW133992   0.290   3.399   7.450 -3.6585 -0.4736  1.7861
 7452SOL    HW233993   0.426   3.422   7.483  0.0775 -0.3557  1.2467
 7453SOL     OW33994   0.012   2.070   3.033  0.2919  0.1026  0.2338
 7453SOL    HW133995   4.659   2.064   3.046  0.1628  5.3956  1.6673
 7453SOL    HW233996   0.042   1.984   3.002  1.0831  0.7446 -0.7447
 7454SOL     OW33997   4.492   3.823   3.353 -0.2031 -0.6385 -0.3490
 7454SOL    HW133998   4.568   3.835   3.297 -0.6761  0.0346 -0.8438
 7454SOL    HW233999   4.490   3.908   3.397 -1.1003 -0.6201 -0.4215
 7455SOL     OW34000   2.125   0.276   0.060  0.4305 -0.2205  0.0317
 7455SOL    HW134001   2.213   0.252   0.033  1.1136  3.3717 -0.9015
 7455SOL    HW234002   2.081   0.190   0.063 -1.4720  0.7272 -0.9693
 7456SOL     OW34003   3.203   0.494  12.477 -0.2812 -0.1631  0.4721
 7456SOL    HW134004   3.258   0.486  12.555  1.2630 -2.4662 -0.8145
 7456SOL    HW234005   3.240   0.571  12.434  0.5893 -1.9683 -2.0072
 7457SOL     OW34006   4.451   3.359   4.605  0.3166  0.0650 -0.4538
 7457SOL    HW134007   4.447   3.401   4.691  1.2689  0.9208 -0.8346
 7457SOL    HW234008   4.535   3.392   4.574 -0.3456  0.0990 -2.2525
 7458SOL     OW34009   4.014   2.720   2.559 -0.1448  0.7992  0.8489
 7458SOL    HW134010   3.953   2.763   2.500 -1.0650  0.1332  1.3234
 7458SOL    HW234011   4.091   2.777   2.566 -0.5058  1.6492 -2.2857
 7459SOL     OW34012   1.146   1.204  16.526 -0.7616  0.1928  0.5941
 7459SOL    HW134013   1.057   1.234  16.545 -1.1510 -0.9585  0.5586
 7459SOL    HW234014   1.137   1.132  16.464 -1.3771 -0.3829  1.3553
 7460SOL     OW34015   2.182   4.404   3.151 -0.6940  0.1598  0.9753
 7460SOL    HW134016   2.107   4.371   3.201  0.9803 -0.0063  3.3920
 7460SOL    HW234017   2.182   4.496   3.177  0.5803 -0.0166  1.6516
 7461SOL     OW34018   3.437   2.301   5.116  0.1379 -0.3522  0.0465
 7461SOL    HW134019   3.484   2.235   5.167 -0.2755 -0.3503  0.4230
 7461SOL    HW234020   3.407   2.356   5.189  1.3617  0.0310  0.2587
 7462SOL     OW34021   0.090   2.798   8.072 -0.1521  0.8174  0.6910
 7462SOL    HW134022   0.056   2.759   8.153  1.0396 -2.3338 -0.3630
 7462SOL    HW234023   0.122   2.884   8.100  1.0787  0.2079  1.1482
 7463SOL     OW34024   4.622   4.005   2.218  0.2403 -0.2632 -0.5091
 7463SOL    HW134025   4.673   4.065   2.164  0.1145 -0.1196 -0.4660
 7463SOL    HW234026   4.683   3.932   2.234  1.3009  0.4621 -1.3027
 7464SOL     OW34027   1.511   2.117  13.181 -0.4617  0.2537 -0.2960
 7464SOL    HW134028   1.485   2.095  13.271 -0.4946  0.3736 -0.2769
 7464SOL    HW234029   1.602   2.089  13.188 -0.5377  1.2288  4.4183
 7465SOL     OW34030   3.849   1.146   5.861 -0.5494  0.3485  0.1084
 7465SOL    HW134031   3.925   1.122   5.914  0.5212  1.5400 -0.8528
 7465SOL    HW234032   3.789   1.178   5.927  1.3393 -0.1328  2.0469
 7466SOL     OW34033   1.751   2.549   8.479 -0.5273 -0.1632 -0.4973
 7466SOL    HW134034   1.693   2.532   8.554 -0.5320  1.0389 -0.2367
 7466SOL    HW234035   1.815   2.478   8.488  0.3174  0.8603  1.5298
 7467SOL     OW34036   1.871   4.310  10.209 -0.4925 -0.4255  0.6106
 7467SOL    HW134037   1.956   4.342  10.238  0.2666  1.0305 -3.1777
 7467SOL    HW234038   1.899   4.253  10.137  1.6795  0.6419  0.6093
 7468SOL     OW34039   2.851   4.083   7.390  0.0997 -1.0618  0.5654
 7468SOL    HW134040   2.756   4.070   7.397 -0.1693  0.4857 -0.1950
 7468SOL    HW234041   2.878   4.000   7.429 -0.4058 -0.8184  1.4189
 7469SOL     OW34042   3.894   2.227   9.123 -0.0668 -0.3327  0.2616
 7469SOL    HW134043   3.862   2.307   9.164  1.6124  1.2706 -1.5704
 7469SOL    HW234044   3.989   2.236   9.131 -0.1950  0.2817  1.1658
 7470SOL     OW34045   1.522   3.227  12.397  0.2496 -0.7918 -0.1369
 7470SOL    HW134046   1.432   3.217  12.364  1.7192 -4.1202 -3.1572
 7470SOL    HW234047   1.504   3.296  12.461 -0.1372  0.3301 -1.4668
 7471SOL     OW34048   3.061   0.965   4.032 -0.0872 -0.0424 -0.2457
 7471SOL    HW134049   3.094   1.054   4.024  1.3100 -0.5531 -0.3161
 7471SOL    HW234050   3.135   0.920   4.075  1.7465  0.3046 -3.0527
 7472SOL     OW34051   4.131   1.666  16.915  0.0886 -0.7809  0.2914
 7472SOL    HW134052   4.207   1.609  16.898  1.2555  1.4097 -1.8034
 7472SOL    HW234053   4.103   1.671  16.824 -0.1186 -2.6763  0.2537
 7473SOL     OW34054   2.955   0.486  10.900  0.0959 -0.6525  0.1926
 7473SOL    HW134055   2.932   0.577  10.922 -1.0238 -1.7622  3.5020
 7473SOL    HW234056   2.990   0.504  10.812  0.2683 -0.6065  0.2691
 7474SOL     OW34057   1.226   0.910   6.167  0.0963 -0.5983  0.6761
 7474SOL    HW134058   1.317   0.883   6.151  0.8101  0.7302  2.4751
 7474SOL    HW234059   1.233   0.922   6.262  1.2913 -0.0583  0.5206
 7475SOL     OW34060   0.528   3.482   4.417 -0.0489  0.9440  0.3502
 7475SOL    HW134061   0.466   3.459   4.486  1.2446 -0.7412  0.9436
 7475SOL    HW234062   0.483   3.454   4.338 -0.8163 -0.5668  1.3136
 7476SOL     OW34063   4.140   3.039   4.057 -0.4250  0.0326  0.2140
 7476SOL    HW134064   4.077   2.982   4.101 -0.6062  0.6353  0.7407
 7476SOL    HW234065   4.216   3.032   4.115 -0.4540 -2.1841 -0.0061
 7477SOL     OW34066   1.572   0.391   5.204 -0.0918  0.1096 -0.4285
 7477SOL    HW134067   1.653   0.348   5.175 -0.4233 -0.1066 -1.0319
 7477SOL    HW234068   1.592   0.481   5.178 -1.9011 -0.0971 -2.5509
 7478SOL     OW34069   2.886   3.726  14.564 -0.2117 -0.0699 -0.1318
 7478SOL    HW134070   2.976   3.753  14.577 -0.5831  0.1920  1.8358
 7478SOL    HW234071   2.903   3.632  14.569  1.4004  0.2170 -0.2809
 7479SOL     OW34072   1.789   1.052   3.329  0.0638 -0.2955  0.2939
 7479SOL    HW134073   1.806   1.146   3.332 -1.2329 -0.0253 -1.1523
 7479SOL    HW234074   1.694   1.048   3.334 -0.1092  1.7235 -1.3612
 7480SOL     OW34075   3.782   1.114   1.557  0.3933  0.1624 -0.3345
 7480SOL    HW134076   3.868   1.155   1.568  0.6137 -0.7862  1.5805
 7480SOL    HW234077   3.729   1.186   1.524  1.3305  0.1950 -1.7493
 7481SOL     OW34078   1.378   3.534   2.658  0.0115  0.4898 -0.0400
 7481SOL    HW134079   1.412   3.461   2.710 -0.7770 -0.3571 -0.7068
 7481SOL    HW234080   1.461   3.578   2.638  1.2128 -1.8658 -0.2473
 7482SOL     OW34081   0.203   3.008   8.233  0.2195  0.6743  0.0778
 7482SOL    HW134082   0.166   3.013   8.321  0.6946 -1.1904  0.3958
 7482SOL    HW234083   0.248   3.092   8.231 -0.8781  1.2777  0.9122
 7483SOL     OW34084   0.584   2.892  16.879  0.3971 -0.5245  0.0869
 7483SOL    HW134085   0.604   2.905  16.786  0.5040  0.6673  0.2840
 7483SOL    HW234086   0.668   2.912  16.920  0.1871  3.9946 -1.7748
 7484SOL     OW34087   3.160   2.731   1.372 -0.6434  0.0762  0.2175
 7484SOL    HW134088   3.205   2.809   1.339  1.4483 -0.2134  2.3949
 7484SOL    HW234089   3.166   2.744   1.467  2.9819  4.8545 -0.6907
 7485SOL     OW34090   2.596   2.278   0.089  0.5144  0.1467 -0.3213
 7485SOL    HW134091   2.576   2.229   0.010 -1.0116  0.4997 -0.1601
 7485SOL    HW234092   2.669   2.223   0.119  0.6840  1.1390  1.1111
 7486SOL     OW34093   3.512   4.172   9.624  0.2776 -0.1133  0.0806
 7486SOL    HW134094   3.470   4.258   9.634 -0.1305 -0.3415  0.2862
 7486SOL    HW234095   3.451   4.111   9.585  0.7551 -1.1020  0.8784
 7487SOL     OW34096   0.921   0.581   8.279  0.0764  0.3399 -0.2791
 7487SOL    HW134097   0.870   0.645   8.328  1.2167  1.6566 -0.8159
 7487SOL    HW234098   0.938   0.515   8.346  0.7238  0.0006 -0.7688
 7488SOL     OW34099   3.456   0.245   8.958 -0.5236 -0.4825 -0.6496
 7488SOL    HW134100   3.446   0.335   8.990 -0.2844 -1.2014  1.4789
 7488SOL    HW234101   3.409   0.196   9.026  1.6466 -1.2650  0.2777
 7489SOL     OW34102   1.757   0.971   6.693 -0.3409 -0.3831  0.1941
 7489SOL    HW134103   1.821   0.918   6.645 -0.0711  0.8928 -0.8743
 7489SOL    HW234104   1.684   0.959   6.632  2.5806  0.1791 -3.5009
 7490SOL     OW34105   2.899   1.183  10.958  0.4224 -0.0117  0.5937
 7490SOL    HW134106   2.922   1.145  10.873 -1.1167 -0.9541  0.5964
 7490SOL    HW234107   2.887   1.099  11.002 -0.1074 -1.3703 -2.1341
 7491SOL     OW34108   2.463   4.513  13.865  0.1819  0.3326 -0.5302
 7491SOL    HW134109   2.462   4.453  13.790 -1.5088  2.0761 -1.8944
 7491SOL    HW234110   2.464   4.596  13.817  0.2195 -0.9618 -2.7712
 7492SOL     OW34111   2.664   0.513   3.513  0.7084 -0.0150  0.1666
 7492SOL    HW134112   2.756   0.539   3.516  1.4433 -2.4639 -0.5251
 7492SOL    HW234113   2.643   0.569   3.439  0.4212 -1.3048 -0.7448
 7493SOL     OW34114   3.352   2.605   0.433 -0.0768 -0.5605 -0.2613
 7493SOL    HW134115   3.310   2.690   0.435 -0.6036 -0.8259 -0.1839
 7493SOL    HW234116   3.330   2.558   0.513 -0.7577 -0.8615 -0.6221
 7494SOL     OW34117   0.099   1.601   1.723 -0.4079  0.4146  0.1472
 7494SOL    HW134118   0.190   1.606   1.752 -0.2324  1.1950 -0.5291
 7494SOL    HW234119   0.073   1.534   1.786  0.8576  0.2008  0.4298
 7495SOL     OW34120   2.804   2.698   5.250 -0.3001  0.3591  0.4784
 7495SOL    HW134121   2.876   2.758   5.273 -0.4433  0.4422  0.7150
 7495SOL    HW234122   2.779   2.744   5.170  0.1580 -0.5643 -0.1954
 7496SOL     OW34123   1.624   2.422   8.199 -0.0556 -0.3260  0.2483
 7496SOL    HW134124   1.593   2.331   8.197 -1.3650  0.1253 -0.0680
 7496SOL    HW234125   1.709   2.397   8.235 -0.6668  0.7774  2.4555
 7497SOL     OW34126   3.544   2.564  12.824  0.5660  0.0749 -0.1077
 7497SOL    HW134127   3.549   2.486  12.768  0.4109 -0.6306  0.8787
 7497SOL    HW234128   3.591   2.547  12.906  0.2511 -0.1519  0.0263
 7498SOL     OW34129   0.779   2.027  10.151  0.2085 -0.2071  0.4164
 7498SOL    HW134130   0.782   2.110  10.102  0.4484 -0.6310 -0.2835
 7498SOL    HW234131   0.859   1.988  10.115  0.3509  0.3429  0.1277
 7499SOL     OW34132   0.235   2.309  12.914 -0.3467 -0.0653  0.5170
 7499SOL    HW134133   0.227   2.344  13.003 -0.4097  0.6659  0.2226
 7499SOL    HW234134   0.318   2.261  12.916 -0.0074  0.4763 -0.9666
 7500SOL     OW34135   0.116   2.632   6.529  0.5148 -0.6574 -0.2048
 7500SOL    HW134136   0.061   2.624   6.451  0.8626  0.8910 -0.6224
 7500SOL    HW234137   0.099   2.720   6.562  0.3725 -0.4843 -0.7392
 7501SOL     OW34138   4.190   0.205   4.892  0.6743 -0.6648  0.2820
 7501SOL    HW134139   4.153   0.226   4.977 -1.9926 -1.0052 -0.7968
 7501SOL    HW234140   4.152   0.117   4.889  0.2092 -0.4598  0.2041
 7502SOL     OW34141   0.463   3.890   5.742 -0.0817 -0.0308 -0.4015
 7502SOL    HW134142   0.554   3.899   5.771 -0.1155  0.4046 -0.4205
 7502SOL    HW234143   0.420   3.922   5.821  0.8048 -1.9373  0.8454
 7503SOL     OW34144   2.887   2.858  11.609  0.2535  0.3451 -0.3422
 7503SOL    HW134145   2.884   2.765  11.631  4.1814  0.6798  1.5842
 7503SOL    HW234146   2.920   2.894  11.692  0.3207 -2.1414  0.6993
 7504SOL     OW34147   4.436   0.860   3.842  0.2264  0.1381 -0.0852
 7504SOL    HW134148   4.382   0.865   3.763  1.9874  2.1010 -1.1635
 7504SOL    HW234149   4.429   0.766   3.858  1.8209 -0.3996 -2.4069
 7505SOL     OW34150   4.226   4.599  16.908  0.5665  0.3661 -0.3468
 7505SOL    HW134151   4.217   4.504  16.914  1.8160  0.3205  0.5955
 7505SOL    HW234152   4.138   4.624  16.878  0.2977 -1.2327 -0.8909
 7506SOL     OW34153   4.304   1.887  10.196  0.2799 -0.0172 -0.1136
 7506SOL    HW134154   4.394   1.911  10.219 -0.3967  0.5813  1.9644
 7506SOL    HW234155   4.260   1.969  10.220 -0.8201 -1.1547  1.8189
 7507SOL     OW34156   3.998   0.820  13.107  0.2335  0.0679 -0.4645
 7507SOL    HW134157   3.988   0.766  13.186 -0.9362  1.2629  0.1862
 7507SOL    HW234158   4.006   0.746  13.046  0.7028 -0.8371  0.6894
 7508SOL     OW34159   1.581   4.127   8.816  0.2858  0.5728  0.5762
 7508SOL    HW134160   1.630   4.054   8.853 -0.3247 -0.6062 -0.9556
 7508SOL    HW234161   1.590   4.184   8.892  0.0049  0.8201  0.4254
 7509SOL     OW34162   1.320   4.628  11.565  0.0572 -0.2702  0.6373
 7509SOL    HW134163   1.348   4.699  11.508 -0.0802 -0.8310 -0.1308
 7509SOL    HW234164   1.231   4.656  11.583  0.7470  1.4053  1.4201
 7510SOL     OW34165   2.703   1.707  10.342  0.0265  0.3024  0.4692
 7510SOL    HW134166   2.776   1.680  10.287 -0.9873 -0.3875 -0.5412
 7510SOL    HW234167   2.716   1.645  10.415  3.4561 -0.3612 -0.7347
 7511SOL     OW34168   2.692   1.367  10.130  0.0500 -0.4114 -0.3042
 7511SOL    HW134169   2.717   1.284  10.091  0.1799 -0.4831 -0.0711
 7511SOL    HW234170   2.620   1.335  10.184 -0.8271  0.2304 -1.1070
 7512SOL     OW34171   2.664   0.727   5.219 -0.9153  0.2564  0.3909
 7512SOL    HW134172   2.703   0.798   5.270 -0.6738 -0.6067  1.4239
 7512SOL    HW234173   2.670   0.763   5.131 -1.1538 -0.8972 -0.1016
 7513SOL     OW34174   4.128   2.663  13.935 -0.4194  0.5116 -1.2039
 7513SOL    HW134175   4.199   2.723  13.912 -0.9849  0.7459 -2.3440
 7513SOL    HW234176   4.164   2.587  13.890 -1.2790  0.8993 -2.5447
 7514SOL     OW34177   1.249   2.504   7.709  0.2821  0.3387  0.6784
 7514SOL    HW134178   1.322   2.495   7.769 -0.1745 -2.2729  0.8685
 7514SOL    HW234179   1.301   2.495   7.629 -2.6418 -0.2297 -1.1662
 7515SOL     OW34180   1.815   0.575  16.965  0.4327  0.1480  0.3568
 7515SOL    HW134181   1.877   0.613  16.902  1.0931  0.5564  1.2499
 7515SOL    HW234182   1.797   0.496  16.913  2.2194  0.2923 -0.4851
 7516SOL     OW34183   4.058   0.552   5.954 -0.0816 -0.1895 -0.2460
 7516SOL    HW134184   4.149   0.570   5.978 -0.3387  0.4857  0.2344
 7516SOL    HW234185   4.033   0.498   6.028  1.3459 -0.2621  0.1832
 7517SOL     OW34186   1.941   0.644   5.453  0.2739  0.3599 -0.3034
 7517SOL    HW134187   1.976   0.601   5.532 -1.3729  0.6594  0.5756
 7517SOL    HW234188   2.017   0.653   5.396  2.2623 -1.6197  2.0176
 7518SOL     OW34189   2.587   1.481   1.202  0.7004  0.4772 -0.4085
 7518SOL    HW134190   2.651   1.514   1.138  0.4006 -0.3488 -1.1388
 7518SOL    HW234191   2.596   1.387   1.185  0.5557  0.5026 -0.6304
 7519SOL     OW34192   2.878   2.098   7.341  0.0808  0.8194  0.3862
 7519SOL    HW134193   2.824   2.134   7.412 -0.1500 -2.0650  1.6598
 7519SOL    HW234194   2.824   2.131   7.269 -0.5990 -0.5977  0.2470
 7520SOL     OW34195   4.008   1.159   4.761  0.3567 -0.7030  0.3709
 7520SOL    HW134196   3.930   1.204   4.792  0.7220  0.0708  0.1617
 7520SOL    HW234197   3.975   1.073   4.736 -1.0741 -0.3780  1.1235
 7521SOL     OW34198   4.597   1.541   8.139  0.0513  0.1645  0.1327
 7521SOL    HW134199   4.642   1.460   8.115 -1.8637 -0.3781 -1.6637
 7521SOL    HW234200   4.526   1.540   8.074  0.6225  0.2265 -0.4962
 7522SOL     OW34201   0.688   1.749   4.109 -0.0694  1.0376  0.1591
 7522SOL    HW134202   0.769   1.793   4.083  1.4838 -0.8631  1.7462
 7522SOL    HW234203   0.681   1.768   4.203  1.2005  1.8175  0.0881
 7523SOL     OW34204   4.570   0.224   9.557 -0.4858  0.4736 -0.3180
 7523SOL    HW134205   4.584   0.134   9.587 -0.6514  0.1207 -1.2955
 7523SOL    HW234206   4.476   0.234   9.571 -0.2446  1.0872  0.9148
 7524SOL     OW34207   4.376   2.099  14.461 -0.3434  0.0318 -0.0203
 7524SOL    HW134208   4.294   2.147  14.453 -1.3999 -1.4919  1.6157
 7524SOL    HW234209   4.442   2.167  14.458  0.4039 -0.7977 -3.0679
 7525SOL     OW34210   2.197   1.107   6.265  0.2284  0.2095 -0.1158
 7525SOL    HW134211   2.211   1.177   6.330 -1.2507  0.4434 -0.0359
 7525SOL    HW234212   2.268   1.132   6.206  0.9381 -2.8460 -0.5312
 7526SOL     OW34213   4.127   0.446  10.852 -0.3401  0.2112  0.3740
 7526SOL    HW134214   4.129   0.374  10.790  1.0528  0.4843  0.1085
 7526SOL    HW234215   4.175   0.504  10.793  0.3574  0.1265  0.8603
 7527SOL     OW34216   1.125   0.983  16.048 -0.4141 -0.4401 -0.1668
 7527SOL    HW134217   1.141   0.972  16.142 -0.3868  0.9351 -0.0106
 7527SOL    HW234218   1.029   0.992  16.049 -0.3110  0.6122  0.7096
 7528SOL     OW34219   1.510   1.018   6.132 -0.0690 -0.1698 -0.0810
 7528SOL    HW134220   1.560   0.940   6.154 -2.3941 -1.7065 -0.2618
 7528SOL    HW234221   1.536   1.083   6.198  1.0185 -2.9941  2.2623
 7529SOL     OW34222   2.890   1.371   2.248  0.4600  0.3518  0.2069
 7529SOL    HW134223   2.894   1.308   2.320 -1.3068 -0.3269 -0.2917
 7529SOL    HW234224   2.928   1.445   2.295  1.4788  0.6921 -1.1351
 7530SOL     OW34225   2.916   4.106  11.058 -0.4257  0.6724  0.0659
 7530SOL    HW134226   2.857   4.049  11.107 -0.0186 -0.5999 -0.8963
 7530SOL    HW234227   2.987   4.042  11.058  0.4867  1.6450 -3.1508
 7531SOL     OW34228   0.827   3.693   0.288  0.4480  0.0628  0.0085
 7531SOL    HW134229   0.807   3.683   0.195 -0.0758 -0.3161  0.1655
 7531SOL    HW234230   0.917   3.727   0.290  1.3670 -2.2740 -1.1854
 7532SOL     OW34231   1.551   3.762  16.028  0.0307 -0.0707 -0.6939
 7532SOL    HW134232   1.502   3.815  16.091 -0.9433  0.7159 -2.1018
 7532SOL    HW234233   1.596   3.830  15.979 -0.9859 -1.2336 -3.2319
 7533SOL     OW34234   3.785   3.182   5.345  0.2816 -0.1951  0.2808
 7533SOL    HW134235   3.737   3.210   5.267  1.0232  1.2059  0.3411
 7533SOL    HW234236   3.792   3.088   5.326  2.0036 -0.1879  0.8963
 7534SOL     OW34237   0.675   2.773  12.707  0.4495 -0.3092  0.4830
 7534SOL    HW134238   0.710   2.686  12.724 -0.5554 -0.5800  1.1401
 7534SOL    HW234239   0.587   2.776  12.744  0.0796  0.4617 -0.4692
 7535SOL     OW34240   1.613   0.082   8.577  0.1744  0.4832  0.3708
 7535SOL    HW134241   1.647   0.133   8.650 -0.1573 -0.0061  0.8704
 7535SOL    HW234242   1.656   0.000   8.602  0.7795  0.5758 -0.3926
 7536SOL     OW34243   0.992   3.994   2.905  0.0988 -0.3889  0.1078
 7536SOL    HW134244   0.937   4.071   2.918  0.9697 -0.1555  2.2905
 7536SOL    HW234245   1.079   4.032   2.914  0.2329 -1.1168  1.9597
 7537SOL     OW34246   2.605   2.824   8.475  0.2988  0.0958  0.1216
 7537SOL    HW134247   2.645   2.738   8.492  0.3871  0.3504  1.1704
 7537SOL    HW234248   2.516   2.799   8.499 -0.2881  0.3036 -1.8239
 7538SOL     OW34249   2.427   3.133   8.444 -0.3140  0.1500  0.6232
 7538SOL    HW134250   2.468   3.202   8.392  0.2448 -0.8447 -0.2558
 7538SOL    HW234251   2.345   3.121   8.396  0.0154 -0.8241  0.3035
 7539SOL     OW34252   4.684   1.169   0.499 -0.7364  0.2367  0.7393
 7539SOL    HW134253   4.630   1.116   0.439  1.8025  0.9819 -2.2074
 7539SOL    HW234254   0.003   1.208   0.436 -1.5120 -0.1295 -0.2381
 7540SOL     OW34255   4.012   0.126  13.801 -0.6162  0.2962 -0.2610
 7540SOL    HW134256   3.963   0.058  13.756 -0.2134 -1.3671  1.8657
 7540SOL    HW234257   4.013   0.083  13.886 -2.0783 -1.2766 -1.0498
 7541SOL     OW34258   1.118   1.593  17.507 -0.0554  0.3607 -0.1367
 7541SOL    HW134259   1.161   1.671  17.542  3.1123 -1.2320 -0.5323
 7541SOL    HW234260   1.028   1.622  17.496  0.3580  1.3624 -0.8177
 7542SOL     OW34261   1.633   1.041  15.426 -0.1986  0.0955 -0.1282
 7542SOL    HW134262   1.550   1.010  15.462 -0.2475 -0.2358 -0.5342
 7542SOL    HW234263   1.598   1.115  15.376 -2.3988 -1.8661 -1.4708
 7543SOL     OW34264   2.989   0.214   6.504  0.2018 -0.0114 -0.3959
 7543SOL    HW134265   2.934   0.231   6.581 -0.0249 -0.1542 -0.5267
 7543SOL    HW234266   2.925   0.228   6.435  1.7344  0.3694 -1.7426
 7544SOL     OW34267   3.550   3.687  10.380  0.6510 -0.5695  0.0752
 7544SOL    HW134268   3.460   3.656  10.372  0.2012  1.1001 -1.2137
 7544SOL    HW234269   3.532   3.775  10.346 -3.0588 -0.2766  2.7927
 7545SOL     OW34270   2.446   3.544   6.722  0.1269 -0.2753 -0.4728
 7545SOL    HW134271   2.384   3.472   6.723  0.3738 -0.4699  0.6200
 7545SOL    HW234272   2.501   3.514   6.794 -1.1228 -1.3033  0.0329
 7546SOL     OW34273   2.823   4.046  13.229 -0.5677  0.2121 -0.5048
 7546SOL    HW134274   2.761   4.113  13.260  0.8617  1.1788  0.2620
 7546SOL    HW234275   2.766   3.994  13.173  3.4886 -3.2264 -1.4088
 7547SOL     OW34276   0.504   1.913   8.139  0.7453 -0.4831 -0.1445
 7547SOL    HW134277   0.469   1.989   8.185  0.7582 -0.8690  0.4942
 7547SOL    HW234278   0.433   1.901   8.076  0.5205 -0.4804  0.1087
 7548SOL     OW34279   1.077   2.918   3.726  0.4466  0.1236  0.8272
 7548SOL    HW134280   1.005   2.949   3.671 -0.4036 -1.6804  0.9199
 7548SOL    HW234281   1.046   2.828   3.731  0.0579  0.2593  0.8054
 7549SOL     OW34282   2.149   1.181   8.161  0.2249 -0.0034 -0.1403
 7549SOL    HW134283   2.092   1.111   8.194 -1.2515  0.8357 -0.8898
 7549SOL    HW234284   2.114   1.198   8.074 -0.1891  0.8695  0.1950
 7550SOL     OW34285   3.198   1.520   4.652 -0.6542 -0.1410 -0.5009
 7550SOL    HW134286   3.116   1.482   4.619 -1.7387  2.0442 -0.2653
 7550SOL    HW234287   3.259   1.456   4.615 -2.8160 -1.4249 -1.9040
 7551SOL     OW34288   2.703   3.412   4.072 -0.1396  0.6124 -0.2891
 7551SOL    HW134289   2.793   3.383   4.057 -0.0372  0.3787  0.7776
 7551SOL    HW234290   2.709   3.475   4.143 -1.7144 -0.8991  1.2021
 7552SOL     OW34291   2.112   2.103   4.836 -0.0231  0.4084 -0.2917
 7552SOL    HW134292   2.207   2.105   4.826  0.1315 -1.2765  0.7473
 7552SOL    HW234293   2.098   2.009   4.823 -2.0924  0.7931 -0.8278
 7553SOL     OW34294   3.239   2.608   6.859 -0.3704  0.5991 -0.5283
 7553SOL    HW134295   3.255   2.515   6.844 -0.5867  0.5231 -0.2964
 7553SOL    HW234296   3.243   2.644   6.771  1.1043  0.9279 -0.3379
 7554SOL     OW34297   3.728   3.683   4.519  0.3002 -0.5000 -0.3575
 7554SOL    HW134298   3.657   3.635   4.562 -0.2005  0.1981 -0.4038
 7554SOL    HW234299   3.701   3.774   4.534  0.1047 -0.6099 -0.0395
 7555SOL     OW34300   2.261   3.789   8.047 -0.2830  0.0245  0.5894
 7555SOL    HW134301   2.184   3.836   8.080  0.5268  1.6467  0.1732
 7555SOL    HW234302   2.304   3.862   8.002 -0.9549  1.6631  2.5919
 7556SOL     OW34303   0.866   4.572   3.420  0.1758  0.1527  0.2572
 7556SOL    HW134304   0.791   4.561   3.479  2.2510  0.1777  2.9144
 7556SOL    HW234305   0.889   4.661   3.444 -1.0504  0.7985 -0.9835
 7557SOL     OW34306   3.957   4.092   5.421 -0.0477 -0.2811  0.6793
 7557SOL    HW134307   3.897   4.021   5.445  0.1768 -0.1074  1.7536
 7557SOL    HW234308   4.031   4.035   5.402 -1.2540 -2.2405  1.8069
 7558SOL     OW34309   4.536   1.428   3.482  0.4030 -0.5164 -0.1300
 7558SOL    HW134310   4.600   1.362   3.509  2.7408  1.4448 -0.9522
 7558SOL    HW234311   4.463   1.402   3.539 -1.2312 -0.1013 -2.0307
 7559SOL     OW34312   1.953   0.366   2.419 -0.2122 -0.0298  0.8111
 7559SOL    HW134313   1.922   0.441   2.469 -1.1630 -0.2967  0.6256
 7559SOL    HW234314   1.877   0.312   2.400 -0.1103  0.1729 -0.1580
 7560SOL     OW34315   4.434   2.154   3.381  0.5823 -0.5539 -0.5144
 7560SOL    HW134316   4.499   2.223   3.393  0.9028 -0.9015 -0.2457
 7560SOL    HW234317   4.434   2.133   3.474  0.3649  0.4651 -0.2870
 7561SOL     OW34318   1.495   3.058   7.972  0.2092  0.6884  0.3014
 7561SOL    HW134319   1.534   3.121   8.032  0.3174  0.7190  0.1990
 7561SOL    HW234320   1.577   3.012   7.955 -1.3679 -2.0788  0.1180
 7562SOL     OW34321   4.739   0.064   4.112 -0.2431 -0.5360 -0.0156
 7562SOL    HW134322   4.667   0.095   4.168 -0.2939  0.4318 -0.6168
 7562SOL    HW234323   4.721   4.711   4.123 -1.1173 -0.1755  1.6683
 7563SOL     OW34324   2.849   3.843  10.618 -0.2696  0.3743  0.4519
 7563SOL    HW134325   2.786   3.892  10.671 -0.3233 -0.5512  1.2422
 7563SOL    HW234326   2.885   3.778  10.678 -1.1208  1.6205  2.3407
 7564SOL     OW34327   1.007   2.421  17.217 -0.0699  0.0314  0.4068
 7564SOL    HW134328   0.951   2.446  17.143  1.4873  0.0756 -0.7749
 7564SOL    HW234329   1.059   2.351  17.178 -0.7228  0.4801 -1.2886
 7565SOL     OW34330   0.751   0.948   5.599  0.0375 -0.3786  0.1989
 7565SOL    HW134331   0.723   0.953   5.507  0.1754 -0.4595  0.1514
 7565SOL    HW234332   0.839   0.912   5.584  0.6432  0.3100  2.1097
 7566SOL     OW34333   3.850   2.466  15.335  0.2064  0.4823 -0.4874
 7566SOL    HW134334   3.780   2.421  15.383  0.3597  2.3766  1.4556
 7566SOL    HW234335   3.919   2.478  15.400 -1.3415  3.1754  0.6275
 7567SOL     OW34336   1.506   4.083   2.921  0.3438 -0.2960 -0.2480
 7567SOL    HW134337   1.549   4.025   2.858 -3.1155 -0.2502 -2.6617
 7567SOL    HW234338   1.505   4.174   2.890 -1.0822 -0.7844 -1.6441
 7568SOL     OW34339   2.907   4.256  16.693  0.8267  0.1702  0.0387
 7568SOL    HW134340   2.830   4.246  16.749  0.7770  0.4424  0.0210
 7568SOL    HW234341   2.975   4.250  16.760 -0.9359  0.7367  1.8996
 7569SOL     OW34342   4.529   2.005  12.521  0.3286 -0.0619 -0.4407
 7569SOL    HW134343   4.444   2.016  12.565  0.8523  1.4753  0.1839
 7569SOL    HW234344   4.512   1.919  12.485 -1.6656 -0.1885  0.7673
 7570SOL     OW34345   1.249   1.417  16.055 -0.5611  0.6062 -0.2657
 7570SOL    HW134346   1.182   1.482  16.036 -1.3574  0.0948  0.7856
 7570SOL    HW234347   1.327   1.464  16.026 -0.0355 -0.1289 -0.0533
 7571SOL     OW34348   1.676   2.167   7.397 -0.1208 -0.1471 -0.2284
 7571SOL    HW134349   1.705   2.250   7.436 -1.8369 -0.8366  2.4643
 7571SOL    HW234350   1.720   2.173   7.312  2.4806 -0.9262  1.0616
 7572SOL     OW34351   2.150   3.153   0.162  0.6460 -0.3668  0.6791
 7572SOL    HW134352   2.211   3.089   0.125 -2.3938 -1.7811 -1.9087
 7572SOL    HW234353   2.198   3.205   0.226  1.2093  1.7055 -1.4403
 7573SOL     OW34354   0.514   1.908   2.493  0.3415  0.0660 -0.0100
 7573SOL    HW134355   0.605   1.934   2.480  0.4157  0.4804  1.3957
 7573SOL    HW234356   0.514   1.848   2.567 -1.1970 -1.0409 -0.8962
 7574SOL     OW34357   1.340   0.497   9.871  0.5164  0.3935  0.1058
 7574SOL    HW134358   1.422   0.542   9.894  0.1782  1.3474 -0.5683
 7574SOL    HW234359   1.359   0.446   9.792  2.0035  0.9559  0.0879
 7575SOL     OW34360   1.461   3.149   2.982  0.1461 -0.4638 -0.0117
 7575SOL    HW134361   1.383   3.105   2.948 -0.5918  0.3904  0.5739
 7575SOL    HW234362   1.526   3.082   3.001 -0.6813 -1.9640 -2.4897
 7576SOL     OW34363   0.788   4.379  15.168 -0.2009 -0.0859  0.5384
 7576SOL    HW134364   0.699   4.393  15.201  0.2374  0.1169  1.6400
 7576SOL    HW234365   0.837   4.308  15.209  0.1038 -1.0502 -1.5416
 7577SOL     OW34366   1.104   4.569   3.658 -0.0648 -0.0762  0.7657
 7577SOL    HW134367   1.054   4.647   3.635 -0.1342 -0.4082 -0.1846
 7577SOL    HW234368   1.150   4.546   3.578 -0.1025 -0.7237  0.9246
 7578SOL     OW34369   0.207   2.360   3.288 -0.7273 -0.2448 -0.8261
 7578SOL    HW134370   0.133   2.308   3.318 -1.0034  0.1577 -0.8126
 7578SOL    HW234371   0.249   2.300   3.226  0.2418  0.1706 -0.5757
 7579SOL     OW34372   2.151   1.516   7.759  0.2814  0.5488 -0.3604
 7579SOL    HW134373   2.150   1.510   7.854  3.0342  2.1641 -0.2362
 7579SOL    HW234374   2.245   1.504   7.744  0.2376  0.8131 -0.8421
 7580SOL     OW34375   4.552   0.917   1.843  1.6325  0.2211 -0.2856
 7580SOL    HW134376   4.603   0.880   1.915  0.4905 -0.5868  0.1048
 7580SOL    HW234377   4.591   1.004   1.840 -0.8969  1.2877 -2.4585
 7581SOL     OW34378   3.549   3.822   7.759 -0.0263 -0.0959 -0.5816
 7581SOL    HW134379   3.472   3.879   7.753 -0.9108 -1.3838 -1.2047
 7581SOL    HW234380   3.531   3.749   7.701 -0.9392 -1.2754  1.1673
 7582SOL     OW34381   2.305   4.627   7.405 -0.0373  1.1027 -0.0382
 7582SOL    HW134382   2.315   4.619   7.310  0.9302 -3.4445  0.4217
 7582SOL    HW234383   2.397   4.633   7.431  0.4746 -0.6818 -1.4364
 7583SOL     OW34384   0.193   4.511   9.417 -0.4079  0.4790 -0.6572
 7583SOL    HW134385   0.266   4.475   9.469 -1.7459 -0.6467  0.4530
 7583SOL    HW234386   0.213   4.604   9.429  0.9931 -0.0220  0.9987
 7584SOL     OW34387   1.979   4.009   4.065  0.0748  0.2179  0.0362
 7584SOL    HW134388   1.927   3.929   4.072  0.0209  0.2914  0.4823
 7584SOL    HW234389   1.957   4.033   3.975 -0.8486  2.5940  0.8805
 7585SOL     OW34390   4.528   1.223   5.590 -0.7366  0.5578  0.0612
 7585SOL    HW134391   4.535   1.265   5.504  0.3424 -0.2661 -0.2596
 7585SOL    HW234392   4.559   1.135   5.567  0.3248  1.1069 -0.6494
 7586SOL     OW34393   3.181   2.778   1.662  0.2110 -0.4759  0.5734
 7586SOL    HW134394   3.218   2.821   1.739  4.4669  0.7661 -2.2150
 7586SOL    HW234395   3.140   2.701   1.703  1.7853 -1.5240  0.2017
 7587SOL     OW34396   0.332   0.065   5.494  0.2082 -0.3666 -0.1255
 7587SOL    HW134397   0.397   0.059   5.423 -0.9419  0.2420 -1.2357
 7587SOL    HW234398   0.247   0.046   5.454 -1.0119  1.0158  1.8245
 7588SOL     OW34399   0.034   3.619   0.309 -0.2369 -0.0278 -0.2149
 7588SOL    HW134400   0.061   3.535   0.272 -0.6526 -0.4968  0.5544
 7588SOL    HW234401   0.054   3.626   0.403 -0.5431 -0.7172 -0.1034
 7589SOL     OW34402   0.981   0.231  17.203  0.1344  0.5491 -0.0415
 7589SOL    HW134403   1.064   0.246  17.248 -0.1671  1.0036  0.3648
 7589SOL    HW234404   0.918   0.212  17.273 -0.7293  1.4629 -0.5812
 7590SOL     OW34405   1.255   3.092   8.880  0.5095  0.1764 -0.1640
 7590SOL    HW134406   1.330   3.046   8.917  1.4437  3.2562  1.7565
 7590SOL    HW234407   1.184   3.029   8.873  0.6634 -0.1090  0.9910
 7591SOL     OW34408   0.558   2.976   2.611 -0.5770  0.0556 -0.0863
 7591SOL    HW134409   0.614   2.900   2.592 -0.5134  0.5223 -1.7996
 7591SOL    HW234410   0.611   3.018   2.678  0.6033  1.8332 -2.1299
 7592SOL     OW34411   0.627   3.695   0.943 -0.0573 -0.5759  0.2298
 7592SOL    HW134412   0.631   3.610   0.900  0.9940 -0.0104 -0.8035
 7592SOL    HW234413   0.698   3.733   0.891  0.0144 -1.4699 -0.3264
 7593SOL     OW34414   0.193   1.623   6.485 -0.0518  0.3429  1.2524
 7593SOL    HW134415   0.155   1.593   6.567 -0.3641  0.5803  1.1937
 7593SOL    HW234416   0.191   1.717   6.506  2.2182  0.1921  2.1791
 7594SOL     OW34417   3.695   1.835   6.419 -0.2343  0.3033 -0.2612
 7594SOL    HW134418   3.646   1.897   6.365  0.8656  1.0129 -0.4565
 7594SOL    HW234419   3.652   1.756   6.388  1.2477 -0.5067 -0.2317
 7595SOL     OW34420   3.318   2.859   1.889 -0.2157 -0.4662 -0.0313
 7595SOL    HW134421   3.333   2.925   1.956 -1.2824  0.2670 -0.5052
 7595SOL    HW234422   3.404   2.840   1.852 -0.7362 -0.3825 -1.2969
 7596SOL     OW34423   2.837   1.335   6.507 -0.6807 -0.6645 -0.4472
 7596SOL    HW134424   2.760   1.389   6.487 -0.5723 -0.1443  0.5645
 7596SOL    HW234425   2.857   1.343   6.600  0.7092 -0.3428 -0.7674
 7597SOL     OW34426   0.287   0.968   6.927  0.3518 -0.1652  0.1112
 7597SOL    HW134427   0.344   0.914   6.981 -0.0154 -0.3954  0.2689
 7597SOL    HW234428   0.209   0.912   6.924 -0.2737  0.7077 -0.1205
 7598SOL     OW34429   4.245   3.468   0.847  0.2111  0.3217 -0.6842
 7598SOL    HW134430   4.304   3.399   0.878 -2.1265 -1.2422  0.2642
 7598SOL    HW234431   4.288   3.539   0.895 -0.6165  3.1037 -4.0357
 7599SOL     OW34432   3.232   2.964   5.376  0.2690  0.0193  0.5325
 7599SOL    HW134433   3.258   3.021   5.303  1.7185 -0.1682  0.9063
 7599SOL    HW234434   3.322   2.943   5.397  0.1017 -0.5554  0.6602
 7600SOL     OW34435   1.907   0.330   1.814  0.4557 -0.1992  0.3898
 7600SOL    HW134436   1.863   0.413   1.791 -1.5887 -1.7836 -1.4878
 7600SOL    HW234437   1.851   0.288   1.878 -1.2460 -0.4460 -1.2511
 7601SOL     OW34438   0.926   2.895   6.973 -0.0005 -0.8345  0.5114
 7601SOL    HW134439   0.970   2.976   6.999  0.2768 -1.2164  1.2184
 7601SOL    HW234440   0.967   2.826   7.025  0.1859 -0.4424  0.8861
 7602SOL     OW34441   4.006   0.444   0.215 -0.4010  0.3343  0.2662
 7602SOL    HW134442   4.057   0.477   0.141 -0.8716  0.6443  0.0767
 7602SOL    HW234443   4.039   0.505   0.280  0.6977  0.7155 -0.6520
 7603SOL     OW34444   1.784   3.531   3.423  0.1590 -0.2085  0.0401
 7603SOL    HW134445   1.755   3.549   3.334  0.1282  2.4140  0.6037
 7603SOL    HW234446   1.821   3.445   3.402 -0.8672 -0.3778 -1.0507
 7604SOL     OW34447   0.750   2.381  17.459  0.1846  0.3087 -0.5608
 7604SOL    HW134448   0.825   2.401  17.514 -0.5375 -0.0778  0.5515
 7604SOL    HW234449   0.740   2.458  17.402 -1.2498  0.3312 -0.2809
 7605SOL     OW34450   2.133   2.201  14.351 -0.4115 -0.0868  0.0642
 7605SOL    HW134451   2.089   2.135  14.404 -1.0932  0.7769  0.5755
 7605SOL    HW234452   2.078   2.279  14.362 -0.8203  0.1482 -3.6855
 7606SOL     OW34453   4.249   4.598   4.487 -0.1244  0.2686  0.3030
 7606SOL    HW134454   4.203   4.604   4.570 -0.2597  0.7494  0.1960
 7606SOL    HW234455   4.311   4.527   4.505 -0.5524  0.5509  2.8985
 7607SOL     OW34456   0.377   4.093  14.142  0.5711 -0.4147  0.1736
 7607SOL    HW134457   0.408   4.138  14.064  1.1162 -0.7089  0.2228
 7607SOL    HW234458   0.364   4.010  14.096  0.0596 -0.4199  0.3260
 7608SOL     OW34459   2.504   0.357   9.824 -0.0532 -0.6678  0.2180
 7608SOL    HW134460   2.427   0.307   9.798 -2.1734  2.5076  0.3669
 7608SOL    HW234461   2.556   0.361   9.743 -0.9217  1.1495 -0.2606
 7609SOL     OW34462   1.468   1.551   2.227  0.8253  0.0569  0.1640
 7609SOL    HW134463   1.381   1.548   2.187  1.3229  0.6622 -0.9421
 7609SOL    HW234464   1.443   1.592   2.311 -0.4673  0.8286 -0.5878
 7610SOL     OW34465   4.126   2.242   4.870  0.2443  0.0894  0.2310
 7610SOL    HW134466   4.139   2.252   4.964 -0.6221  0.6943  0.2831
 7610SOL    HW234467   4.140   2.331   4.837 -4.3163  0.8898  0.4806
 7611SOL     OW34468   3.271   1.616   5.110 -0.2609  0.2450 -0.0650
 7611SOL    HW134469   3.234   1.703   5.128  1.4568  0.9813 -0.1635
 7611SOL    HW234470   3.295   1.626   5.018  1.5956  2.2713  0.6280
 7612SOL     OW34471   2.807   3.506   3.676 -0.0478  0.1334 -0.4204
 7612SOL    HW134472   2.831   3.598   3.663 -0.4854  0.4106  0.6850
 7612SOL    HW234473   2.716   3.509   3.706  0.4128 -2.7138  1.3003
 7613SOL     OW34474   2.277   1.688   0.778 -0.1471  0.2261  0.1689
 7613SOL    HW134475   2.318   1.696   0.692 -2.2554  0.4038 -0.8416
 7613SOL    HW234476   2.187   1.709   0.754  0.3490  0.1916 -1.7098
 7614SOL     OW34477   1.520   0.254  11.797 -0.5621  0.7411  0.1283
 7614SOL    HW134478   1.425   0.261  11.804 -0.4369 -0.9216  3.7992
 7614SOL    HW234479   1.528   0.196  11.721  1.4486 -0.9845  1.6365
 7615SOL     OW34480   1.202   1.667   8.689  0.3577 -0.1741 -0.6451
 7615SOL    HW134481   1.127   1.624   8.648 -1.6315  2.7477 -0.0730
 7615SOL    HW234482   1.173   1.758   8.683  3.0715  0.7415  0.0393
 7616SOL     OW34483   4.727   4.209   5.431 -0.5357  0.7693 -0.5728
 7616SOL    HW134484   0.075   4.210   5.464 -0.1025  1.2584 -1.7258
 7616SOL    HW234485   4.708   4.299   5.403 -3.9672  0.3184  0.2333
 7617SOL     OW34486   0.677   1.322   5.952 -0.1414 -0.1867 -0.0227
 7617SOL    HW134487   0.700   1.309   6.044 -1.5901 -0.2787  0.3348
 7617SOL    HW234488   0.637   1.243   5.915 -0.2736  0.9610 -2.3514
 7618SOL     OW34489   1.476   1.873  12.924  0.3735  0.3046 -0.2328
 7618SOL    HW134490   1.564   1.898  12.952  0.9186  1.5603 -3.1618
 7618SOL    HW234491   1.483   1.778  12.936  0.8328  0.3342 -0.2909
 7619SOL     OW34492   1.810   3.054   4.126  0.1959  0.3539 -0.2185
 7619SOL    HW134493   1.851   3.133   4.164  0.8870 -0.7585  1.3664
 7619SOL    HW234494   1.846   3.045   4.038 -0.5245 -0.3244 -0.4377
 7620SOL     OW34495   4.594   4.615   2.941  0.6099  0.2213 -0.2119
 7620SOL    HW134496   4.646   4.609   3.021 -0.2008  0.2982  0.3230
 7620SOL    HW234497   4.644   4.678   2.889  0.6543  0.3712  0.0136
 7621SOL     OW34498   3.506   2.212   4.804  0.4723 -0.6539 -0.3260
 7621SOL    HW134499   3.485   2.135   4.752  1.3411 -1.6220  0.7548
 7621SOL    HW234500   3.594   2.195   4.838  0.9739  1.5655 -0.5123
 7622SOL     OW34501   0.214   4.169   6.884  0.0028 -0.2100  0.3228
 7622SOL    HW134502   0.189   4.128   6.966  2.5056 -2.5878 -0.0872
 7622SOL    HW234503   0.276   4.234   6.919  0.2753  0.1735 -0.8550
 7623SOL     OW34504   3.572   1.440   9.005  0.8619 -0.0321  0.3336
 7623SOL    HW134505   3.584   1.345   9.005  1.2902  0.0187 -0.1831
 7623SOL    HW234506   3.546   1.466   8.917  1.6316 -0.4647 -0.0222
 7624SOL     OW34507   4.091   0.743  16.082  0.4418 -0.1395 -0.3326
 7624SOL    HW134508   4.022   0.789  16.035 -0.4534  0.0016  1.1310
 7624SOL    HW234509   4.060   0.654  16.068  1.3807 -0.6986  1.2085
 7625SOL     OW34510   4.657   4.084   5.982  0.4136  0.2707 -0.8038
 7625SOL    HW134511   4.739   4.098   6.030  0.7234  0.7986 -1.4923
 7625SOL    HW234512   4.617   4.020   6.041 -2.8879  2.4014 -0.7454
 7626SOL     OW34513   1.961   3.224   7.031  0.1270 -0.8423 -0.4427
 7626SOL    HW134514   1.993   3.172   7.105 -0.6230 -1.5548 -0.6170
 7626SOL    HW234515   2.033   3.287   7.023  0.5661 -1.3459 -0.4510
 7627SOL     OW34516   2.458   3.484   7.405 -0.0198 -0.2888  0.1951
 7627SOL    HW134517   2.418   3.571   7.407 -0.0458 -0.2904 -0.2770
 7627SOL    HW234518   2.454   3.461   7.313  1.3644  2.3114 -0.5224
 7628SOL     OW34519   3.206   4.560   8.677 -0.3499 -0.5885  0.8941
 7628SOL    HW134520   3.218   4.655   8.676 -1.1001 -0.4793  1.8522
 7628SOL    HW234521   3.200   4.555   8.773  2.2809  0.5770  1.1149
 7629SOL     OW34522   1.215   4.172   2.904 -0.4632 -0.2572 -0.8249
 7629SOL    HW134523   1.206   4.250   2.849  0.9166  0.9057  0.6104
 7629SOL    HW234524   1.305   4.143   2.893  0.2783  0.6559  3.1504
 7630SOL     OW34525   0.866   0.562   5.534  0.4154 -0.2172 -0.2962
 7630SOL    HW134526   0.808   0.563   5.610 -0.4356 -0.5815 -0.9363
 7630SOL    HW234527   0.816   0.524   5.461 -0.6721  1.5396 -0.4778
 7631SOL     OW34528   0.241   1.252   2.854 -0.5645 -0.5356 -0.4333
 7631SOL    HW134529   0.162   1.199   2.864 -0.3983 -0.3393  2.1548
 7631SOL    HW234530   0.308   1.189   2.825  2.1071  0.4979  3.4160
 7632SOL     OW34531   2.180   3.047  17.552  0.7202 -0.1610 -0.1962
 7632SOL    HW134532   2.112   2.981  17.541 -0.9988  1.7037 -0.8022
 7632SOL    HW234533   2.238   3.013  17.484 -0.0401 -0.9476 -0.4550
 7633SOL     OW34534   3.799   3.834   5.412  0.0598  0.0429 -0.4579
 7633SOL    HW134535   3.765   3.750   5.382 -0.7713 -0.2005  1.2038
 7633SOL    HW234536   3.742   3.882   5.352 -1.4468  2.6724  3.1069
 7634SOL     OW34537   4.136   4.118   4.685  0.0753 -0.7546 -0.0680
 7634SOL    HW134538   4.195   4.107   4.760  1.3999  0.4160 -0.9480
 7634SOL    HW234539   4.070   4.048   4.690 -0.0509 -0.7088 -1.1550
 7635SOL     OW34540   2.095   4.335   5.416  0.0112 -0.3561  0.0145
 7635SOL    HW134541   2.036   4.349   5.490  1.4495  0.1860  1.0676
 7635SOL    HW234542   2.063   4.398   5.352  0.8843 -1.1754 -1.2374
 7636SOL     OW34543   4.661   2.019   8.673  0.0251 -0.1667 -0.4088
 7636SOL    HW134544   0.015   2.009   8.668 -0.0367 -1.4546  0.9898
 7636SOL    HW234545   4.649   2.061   8.758  1.3791 -0.1752 -0.2072
 7637SOL     OW34546   4.337   2.637  16.762  0.4388 -0.4337  0.0192
 7637SOL    HW134547   4.394   2.713  16.773  0.7699 -0.8033  0.8493
 7637SOL    HW234548   4.300   2.637  16.851  5.1742  1.6611  1.9618
 7638SOL     OW34549   1.366   3.379  13.072 -0.5083 -0.7276 -0.0440
 7638SOL    HW134550   1.414   3.427  13.139 -0.7495 -0.6076  0.0433
 7638SOL    HW234551   1.424   3.307  13.051  2.9578  2.1635 -0.2976
 7639SOL     OW34552   3.245   2.674   3.143  0.1327  0.2703  0.5107
 7639SOL    HW134553   3.175   2.663   3.078 -0.7557  0.2776  1.4784
 7639SOL    HW234554   3.294   2.596   3.116 -0.7506  0.2635 -1.0830
 7640SOL     OW34555   1.570   0.755  14.015  0.7035 -0.5591 -0.0235
 7640SOL    HW134556   1.536   0.732  13.928  1.8297 -0.2932 -0.5392
 7640SOL    HW234557   1.492   0.737  14.067  0.1708 -1.3772 -1.1049
 7641SOL     OW34558   3.936   2.667  12.542 -0.6407  0.2002  0.3103
 7641SOL    HW134559   3.955   2.665  12.636  0.3013 -1.6159  0.0918
 7641SOL    HW234560   3.940   2.761  12.526  0.4024  0.2294  0.6837
 7642SOL     OW34561   0.654   4.591   7.609 -0.2661  0.1618 -0.9558
 7642SOL    HW134562   0.674   4.683   7.625 -0.0920  0.1083 -0.8714
 7642SOL    HW234563   0.635   4.593   7.515  1.1806  0.2553 -1.2468
 7643SOL     OW34564   3.695   3.492   2.873  0.5659 -0.3092 -0.4230
 7643SOL    HW134565   3.734   3.549   2.939 -1.4848  0.9173 -0.2769
 7643SOL    HW234566   3.623   3.541   2.834  2.1669  1.9158 -0.5727
 7644SOL     OW34567   4.041   3.341   7.671 -0.3701 -0.0366  0.0150
 7644SOL    HW134568   4.113   3.404   7.678  1.2065 -1.7452 -0.8901
 7644SOL    HW234569   4.097   3.271   7.638  0.8816  0.4755  1.0513
 7645SOL     OW34570   3.449   2.913   5.778  0.5505  0.1211 -0.2511
 7645SOL    HW134571   3.408   2.852   5.717 -0.4595  1.5763 -1.0166
 7645SOL    HW234572   3.516   2.862   5.823  2.1475  1.6898 -0.8449
 7646SOL     OW34573   2.325   0.652   2.939  0.2310 -0.0699 -0.4414
 7646SOL    HW134574   2.261   0.595   2.982 -0.1698  2.2365  2.0398
 7646SOL    HW234575   2.384   0.579   2.923  1.0434  0.4598  0.1752
 7647SOL     OW34576   4.488   3.875   9.469 -0.4869  0.4018 -0.2371
 7647SOL    HW134577   4.555   3.874   9.537  1.1824  1.2433 -1.8444
 7647SOL    HW234578   4.534   3.819   9.406  0.3943  0.1789  0.6050
 7648SOL     OW34579   2.207   2.622  15.732  0.3674  0.2252 -0.3805
 7648SOL    HW134580   2.212   2.554  15.799 -0.9494  0.9878  0.5046
 7648SOL    HW234581   2.113   2.632  15.715  0.5994  0.0980 -1.7224
 7649SOL     OW34582   1.412   0.678   3.161  0.0580  0.4521 -0.0184
 7649SOL    HW134583   1.475   0.685   3.232  1.2919 -1.3351 -0.9489
 7649SOL    HW234584   1.329   0.707   3.199 -0.9920 -1.2643 -0.9649
 7650SOL     OW34585   0.577   2.866   4.373 -0.2517  0.1664 -0.4410
 7650SOL    HW134586   0.630   2.929   4.323  0.1796 -0.3465 -0.6378
 7650SOL    HW234587   0.497   2.892   4.326  1.2008 -1.2806 -3.7438
 7651SOL     OW34588   4.169   3.725  13.775  0.5746 -0.0102 -0.0006
 7651SOL    HW134589   4.253   3.714  13.730 -0.0036 -0.4022 -0.9951
 7651SOL    HW234590   4.109   3.681  13.715 -0.4383  0.9096  0.3322
 7652SOL     OW34591   2.120   1.768  11.212  0.1783  0.5451  0.0845
 7652SOL    HW134592   2.160   1.771  11.125 -1.0619  1.3790 -0.4572
 7652SOL    HW234593   2.191   1.801  11.266 -0.1719  1.0754  0.2187
 7653SOL     OW34594   3.089   3.949  13.667  0.4541  0.6080 -0.3524
 7653SOL    HW134595   3.048   3.979  13.586 -2.8737 -1.8679  0.4120
 7653SOL    HW234596   3.083   3.855  13.650 -0.0452  0.7199 -0.8088
 7654SOL     OW34597   2.485   1.951   3.813 -0.4404 -0.2797 -0.1089
 7654SOL    HW134598   2.578   1.933   3.827 -0.5504 -0.6422  0.1595
 7654SOL    HW234599   2.461   1.903   3.734  1.8889 -2.1917  0.3542
 7655SOL     OW34600   3.184   0.061  13.505  0.2787 -0.5529 -0.0174
 7655SOL    HW134601   3.195   4.708  13.487  0.5676 -0.3916 -0.7063
 7655SOL    HW234602   3.122   0.080  13.434 -0.2673  0.4946  0.7469
 7656SOL     OW34603   3.739   0.016   3.462  0.3247  0.2290  0.2417
 7656SOL    HW134604   3.769   0.074   3.531 -0.9187  0.2513  0.7646
 7656SOL    HW234605   3.754   4.687   3.525  0.6017 -1.6513 -1.8791
 7657SOL     OW34606   1.868   0.609   4.731 -0.8353  0.6000  0.2298
 7657SOL    HW134607   1.847   0.688   4.782 -0.4939  1.4067 -0.8977
 7657SOL    HW234608   1.850   0.542   4.798  0.8299 -0.2503 -0.1889
 7658SOL     OW34609   1.016   1.816  11.051  0.1783 -0.3673 -0.1191
 7658SOL    HW134610   0.962   1.784  10.978 -1.0895  1.2429  0.1277
 7658SOL    HW234611   1.099   1.830  11.005 -0.0963  0.0308 -0.4915
 7659SOL     OW34612   1.326   3.085   7.063  0.0253 -0.2910 -0.2456
 7659SOL    HW134613   1.350   3.174   7.089  1.8257 -1.1104  0.8847
 7659SOL    HW234614   1.294   3.105   6.974  0.9411  4.6460  0.5445
 7660SOL     OW34615   3.629   1.403   5.392  0.4202 -0.3265 -0.5083
 7660SOL    HW134616   3.584   1.483   5.365  1.0070 -0.6758 -2.5686
 7660SOL    HW234617   3.554   1.344   5.398 -0.0863  0.4390  0.4816
 7661SOL     OW34618   1.334   3.704   8.353 -0.5169 -0.2910 -0.3060
 7661SOL    HW134619   1.284   3.692   8.434  0.0530  0.4107  0.1459
 7661SOL    HW234620   1.296   3.638   8.295 -1.7399  0.9056 -0.8862
 7662SOL     OW34621   4.525   2.066   6.702  0.0318 -0.2006  0.3206
 7662SOL    HW134622   4.461   2.051   6.771 -1.8063 -1.2939 -1.6171
 7662SOL    HW234623   4.600   2.104   6.748 -0.1715  2.9310 -1.9330
 7663SOL     OW34624   4.252   2.904  14.639 -0.1301 -0.4976  0.5915
 7663SOL    HW134625   4.302   2.886  14.719 -1.4185 -0.5755  1.3888
 7663SOL    HW234626   4.162   2.933  14.655  0.1634  0.6082  0.2300
 7664SOL     OW34627   2.364   4.074   2.346  0.7566  0.1864  0.4409
 7664SOL    HW134628   2.321   4.158   2.362  0.7329  0.5269 -1.3747
 7664SOL    HW234629   2.423   4.071   2.422 -0.7112  0.6718  1.5946
 7665SOL     OW34630   0.208   0.147   7.831  0.5719  0.3862  0.3974
 7665SOL    HW134631   0.165   0.166   7.915 -0.6548 -0.2777 -0.0820
 7665SOL    HW234632   0.181   0.056   7.820 -1.9450  1.1264  0.5503
 7666SOL     OW34633   1.607   3.574  15.835 -0.0857 -0.2785 -0.1784
 7666SOL    HW134634   1.524   3.531  15.815 -0.7852  0.7459  0.4891
 7666SOL    HW234635   1.577   3.638  15.900 -1.3615 -0.3941 -0.6561
 7667SOL     OW34636   1.546   3.120   3.579  0.3273  0.2627 -0.5794
 7667SOL    HW134637   1.609   3.063   3.533  1.8162  1.0248  0.5124
 7667SOL    HW234638   1.494   3.054   3.623  0.9881 -0.9643 -1.6143
 7668SOL     OW34639   0.522   1.257  12.548  0.1890  0.9678  0.2086
 7668SOL    HW134640   0.565   1.179  12.513 -0.5494  0.3169  0.7670
 7668SOL    HW234641   0.492   1.239  12.637 -0.1867  0.1380 -0.0886
 7669SOL     OW34642   2.994   1.343   9.792 -0.1506 -0.2702  0.4509
 7669SOL    HW134643   3.026   1.433   9.794 -0.8729 -0.0348  1.3964
 7669SOL    HW234644   3.042   1.307   9.717 -0.5661  1.0880 -0.4590
 7670SOL     OW34645   1.733   3.191   6.868 -0.4867 -0.1427  0.2983
 7670SOL    HW134646   1.675   3.259   6.903 -2.2337 -1.0394 -0.8700
 7670SOL    HW234647   1.800   3.185   6.937 -0.3027  1.8467  0.2843
 7671SOL     OW34648   2.393   4.616   0.020 -0.2444  0.1313 -0.0848
 7671SOL    HW134649   2.487   4.629   0.005 -0.4096  0.2242 -1.0427
 7671SOL    HW234650   2.358   4.668  17.709 -1.1790  2.5337  2.1015
 7672SOL     OW34651   1.079   0.396  14.723  0.3813 -0.0821 -0.1087
 7672SOL    HW134652   1.171   0.411  14.745  0.5065  0.0447 -0.7113
 7672SOL    HW234653   1.062   0.482  14.684 -0.7070  0.0601  0.6622
 7673SOL     OW34654   0.508   0.600  16.228 -0.2142  0.3187  0.1050
 7673SOL    HW134655   0.576   0.560  16.282  1.2821  1.5941 -0.8442
 7673SOL    HW234656   0.528   0.550  16.149  0.9917  1.3554 -0.2485
 7674SOL     OW34657   4.581   1.815   0.582  0.7075  0.0071  0.1156
 7674SOL    HW134658   4.620   1.807   0.669  2.8086  0.9647 -0.7433
 7674SOL    HW234659   4.567   1.909   0.573  3.7296  0.2813 -1.4442
 7675SOL     OW34660   4.285   4.043   0.152  0.0759 -0.3884  0.2699
 7675SOL    HW134661   4.338   4.072   0.226  0.9631  0.7787 -0.8277
 7675SOL    HW234662   4.284   4.115   0.088 -0.1208 -1.5158 -1.0052
 7676SOL     OW34663   3.775   2.788   6.506  0.0478 -0.1127 -0.0949
 7676SOL    HW134664   3.750   2.769   6.597  1.7400 -0.5231  0.2866
 7676SOL    HW234665   3.689   2.792   6.464 -0.1130  0.2930  0.2753
 7677SOL     OW34666   1.199   2.254  14.668  0.3827  0.4683 -0.2149
 7677SOL    HW134667   1.251   2.187  14.712  3.1793  3.4016  0.9303
 7677SOL    HW234668   1.262   2.297  14.610 -1.6699  2.0168 -1.3029
 7678SOL     OW34669   2.139   2.403  17.312  0.3529 -0.2308 -0.0790
 7678SOL    HW134670   2.130   2.493  17.283 -2.5520 -0.4554  0.1692
 7678SOL    HW234671   2.070   2.395  17.378  0.4575  0.0328  0.0616
 7679SOL     OW34672   4.264   3.511   7.663  0.2062 -0.0949  0.2011
 7679SOL    HW134673   4.315   3.521   7.583 -2.0556 -0.9946 -1.3317
 7679SOL    HW234674   4.333   3.474   7.719  1.3646  1.1022 -0.4239
 7680SOL     OW34675   0.455   4.300   9.891  0.0831  0.2813 -0.1746
 7680SOL    HW134676   0.440   4.313   9.798 -1.0435 -1.5686 -0.2318
 7680SOL    HW234677   0.501   4.382   9.908  1.4706 -0.2102 -1.5536
 7681SOL     OW34678   3.416   3.757  15.964  0.4760 -0.0863 -0.0805
 7681SOL    HW134679   3.386   3.741  16.054 -1.8148 -1.0906 -1.0185
 7681SOL    HW234680   3.507   3.786  15.971  0.1485  0.6192  1.1306
 7682SOL     OW34681   2.055   2.892   6.985  0.1782 -0.3431  0.4216
 7682SOL    HW134682   2.013   2.826   6.930 -0.9907  0.7374  0.0094
 7682SOL    HW234683   2.084   2.949   6.914 -0.8973 -0.1744  0.1153
 7683SOL     OW34684   0.121   4.367   3.059  0.4185  0.0457  0.3340
 7683SOL    HW134685   0.058   4.322   3.003  3.4996 -1.0117 -2.2873
 7683SOL    HW234686   0.148   4.291   3.112 -1.7072 -0.3604  0.8447
 7684SOL     OW34687   3.586   1.521   7.510 -0.2617 -0.0688  0.5213
 7684SOL    HW134688   3.663   1.553   7.557  1.7406 -2.1621 -1.3039
 7684SOL    HW234689   3.545   1.600   7.476 -1.3545 -0.0999  1.7559
 7685SOL     OW34690   1.461   4.539   8.157 -0.1580 -0.2510 -0.1992
 7685SOL    HW134691   1.521   4.561   8.086  2.1690  0.7203  2.1197
 7685SOL    HW234692   1.519   4.508   8.226  2.5824  0.4698 -2.1995
 7686SOL     OW34693   4.535   1.589  15.206  0.0419  0.1252 -0.1687
 7686SOL    HW134694   4.497   1.635  15.280  3.4108  1.7291  0.5889
 7686SOL    HW234695   4.628   1.595  15.231 -0.3618 -0.7784  1.5456
 7687SOL     OW34696   2.257   0.725  16.333 -0.1025 -0.1558  0.0770
 7687SOL    HW134697   2.197   0.709  16.260 -0.1648  1.5764 -0.2636
 7687SOL    HW234698   2.299   0.805  16.301 -0.5605 -0.9700 -2.5185
 7688SOL     OW34699   1.890   0.093   1.280  0.0652 -0.2213 -0.3396
 7688SOL    HW134700   1.881   0.179   1.321  0.4822  0.1037 -0.9217
 7688SOL    HW234701   1.800   0.083   1.247 -0.2929 -0.8527  0.8468
 7689SOL     OW34702   4.033   3.437   6.502 -0.1247 -0.4617 -0.4470
 7689SOL    HW134703   4.004   3.347   6.490 -1.7943  0.0490 -0.2893
 7689SOL    HW234704   4.031   3.464   6.410 -0.0987 -1.0937 -0.6297
 7690SOL     OW34705   3.381   0.667   7.367  0.0952  0.4176 -0.0349
 7690SOL    HW134706   3.445   0.673   7.438 -0.4560 -2.3055  0.6509
 7690SOL    HW234707   3.432   0.641   7.290 -0.4839 -0.1977 -0.2041
 7691SOL     OW34708   3.022   2.335   2.837  0.3251 -0.2316 -0.0531
 7691SOL    HW134709   2.952   2.285   2.797 -0.8794 -0.5906  2.4803
 7691SOL    HW234710   3.034   2.284   2.918 -0.3124 -0.1754  0.0722
 7692SOL     OW34711   4.560   1.333   5.343  0.1234  0.1820 -0.2467
 7692SOL    HW134712   4.562   1.425   5.317  1.5068  0.4435  0.8083
 7692SOL    HW234713   4.508   1.296   5.272  0.5430 -0.1495 -0.3799
 7693SOL     OW34714   3.572   2.789   1.806  0.3434 -0.3926 -0.0630
 7693SOL    HW134715   3.573   2.749   1.719  0.5859  0.6230 -0.5276
 7693SOL    HW234716   3.586   2.882   1.790  1.7045 -0.8259 -1.4410
 7694SOL     OW34717   3.275   2.415   7.228 -0.0181  0.2486  0.2114
 7694SOL    HW134718   3.311   2.381   7.146 -1.1153  0.6935 -0.4586
 7694SOL    HW234719   3.347   2.380   7.281  0.6316  0.4636 -0.5273
 7695SOL     OW34720   3.467   2.115   2.725  0.2757 -0.0297  0.4739
 7695SOL    HW134721   3.560   2.110   2.747  0.3668 -0.9212 -0.0942
 7695SOL    HW234722   3.427   2.116   2.812 -0.3411 -1.0219  0.2002
 7696SOL     OW34723   4.026   1.331   0.984  0.2941  0.0695  0.0915
 7696SOL    HW134724   4.094   1.278   1.026  0.0350  0.4852  1.0247
 7696SOL    HW234725   3.985   1.376   1.057  1.8065 -1.5273  1.9138
 7697SOL     OW34726   1.058   2.069   0.619 -0.6087 -0.5409 -0.6902
 7697SOL    HW134727   1.139   2.050   0.667 -0.7053  1.0463  0.1187
 7697SOL    HW234728   1.093   2.104   0.537  0.9384  0.7516  0.5022
 7698SOL     OW34729   4.002   1.662  13.984 -0.0728 -0.1077 -0.4159
 7698SOL    HW134730   3.974   1.654  14.076 -2.7234 -1.9896 -1.4034
 7698SOL    HW234731   4.090   1.624  13.993 -0.4674 -0.8787  0.2008
 7699SOL     OW34732   3.974   4.297   4.012 -0.0998  0.0202  0.1376
 7699SOL    HW134733   4.026   4.229   4.054 -1.2041 -0.4911  0.6913
 7699SOL    HW234734   4.044   4.350   3.975 -0.9233  0.9114 -0.1404
 7700SOL     OW34735   0.383   3.401   7.082  0.3162  0.0728  0.1597
 7700SOL    HW134736   0.387   3.479   7.136  0.1825  0.7136 -0.7559
 7700SOL    HW234737   0.454   3.349   7.118  0.0976 -0.1077  0.3356
 7701SOL     OW34738   3.521   1.484   3.758 -0.7889  0.0768 -0.2119
 7701SOL    HW134739   3.558   1.500   3.845 -0.2350 -2.7174  0.0426
 7701SOL    HW234740   3.483   1.572   3.751  0.1723  0.5890  0.9631
 7702SOL     OW34741   3.837   0.408   5.389  0.1007  0.4805  0.1819
 7702SOL    HW134742   3.865   0.409   5.480  0.5753  0.8792  0.0322
 7702SOL    HW234743   3.789   0.491   5.382  0.5660  0.8055  0.8621
 7703SOL     OW34744   2.925   2.207   0.880 -0.2652  0.4788 -0.1083
 7703SOL    HW134745   2.991   2.222   0.947 -1.8985  2.0011  1.1843
 7703SOL    HW234746   2.865   2.146   0.922 -1.1802  0.6894 -1.0934
 7704SOL     OW34747   1.232   0.869   2.736  0.1090 -0.4570  0.5742
 7704SOL    HW134748   1.276   0.804   2.790  1.4466 -0.7929 -0.9537
 7704SOL    HW234749   1.208   0.822   2.657 -1.4687  0.1669  0.6772
 7705SOL     OW34750   0.354   3.915  16.619  0.3977 -0.2595 -0.1271
 7705SOL    HW134751   0.262   3.904  16.594  0.2152  0.3914  0.2614
 7705SOL    HW234752   0.402   3.895  16.539 -0.6256 -0.1206 -0.7785
 7706SOL     OW34753   0.184   4.135   4.208 -0.3468  0.1429 -0.0354
 7706SOL    HW134754   0.098   4.154   4.245 -0.4247 -2.6704  1.2676
 7706SOL    HW234755   0.172   4.040   4.209 -0.2169  0.1166 -0.9171
 7707SOL     OW34756   3.598   2.143   2.323 -0.4214  0.0094 -0.3839
 7707SOL    HW134757   3.576   2.059   2.364  1.0437  0.4662  1.3091
 7707SOL    HW234758   3.507   2.168   2.308 -1.5424 -2.1732  2.7706
 7708SOL     OW34759   1.887   1.356  14.935  0.6936  0.1094  0.2747
 7708SOL    HW134760   1.919   1.439  14.900 -0.6800  0.8690  0.8070
 7708SOL    HW234761   1.883   1.302  14.856  1.2988  0.9673 -0.3373
 7709SOL     OW34762   3.210   2.899   8.579  0.3682 -0.2723 -0.0500
 7709SOL    HW134763   3.122   2.861   8.584  0.7159 -0.9869  0.7544
 7709SOL    HW234764   3.232   2.906   8.486  0.5895  3.5650  0.3109
 7710SOL     OW34765   0.765   0.092  17.073  0.1975 -0.1634 -0.2037
 7710SOL    HW134766   0.824   0.162  17.101  0.7467  0.3959 -2.7860
 7710SOL    HW234767   0.814   0.069  16.994 -1.3418  1.7831 -1.7193
 7711SOL     OW34768   3.073   1.446  17.707 -0.5370 -0.3070  0.3591
 7711SOL    HW134769   3.071   1.522   0.005  0.4485  0.3892 -0.5188
 7711SOL    HW234770   3.144   1.473  17.649 -0.6820  1.5297  1.0394
 7712SOL     OW34771   0.182   3.488   8.207  0.1942  0.8368 -0.5885
 7712SOL    HW134772   0.203   3.544   8.282 -0.4463  0.5596 -0.1958
 7712SOL    HW234773   0.087   3.505   8.209  0.4076  1.8565  1.0920
 7713SOL     OW34774   3.855   3.655   8.081  0.5148  0.0779 -0.0686
 7713SOL    HW134775   3.834   3.565   8.106 -1.2252  0.1046 -1.4170
 7713SOL    HW234776   3.926   3.656   8.145 -0.7449  0.2629  1.3404
 7714SOL     OW34777   3.361   1.853  16.170 -0.0123 -1.0333  0.1324
 7714SOL    HW134778   3.377   1.905  16.249  0.4370  0.3278 -0.8436
 7714SOL    HW234779   3.428   1.896  16.117 -1.7405  0.7985 -0.5900
 7715SOL     OW34780   3.575   4.388  10.210 -0.4306 -0.0455 -0.6093
 7715SOL    HW134781   3.532   4.433  10.137  1.4763 -0.1463 -1.7991
 7715SOL    HW234782   3.602   4.470  10.250  1.0552 -0.5115 -0.6519
 7716SOL     OW34783   2.810   3.389   9.665  0.3743  0.4465 -0.3514
 7716SOL    HW134784   2.755   3.422   9.594 -0.3516  0.1518  0.0803
 7716SOL    HW234785   2.758   3.314   9.694  0.3803  0.0179 -1.4421
 7717SOL     OW34786   2.909   3.849   7.229  0.4576 -0.1991  0.2176
 7717SOL    HW134787   2.870   3.930   7.262 -1.7562 -0.3232 -2.1416
 7717SOL    HW234788   2.866   3.834   7.145  0.5005 -0.0392  0.1672
 7718SOL     OW34789   3.112   1.093  16.178  0.3263 -0.2970 -0.3919
 7718SOL    HW134790   3.136   1.014  16.225 -2.0006 -1.7729 -1.6987
 7718SOL    HW234791   3.190   1.134  16.143  1.5063 -1.9077  0.3693
 7719SOL     OW34792   4.126   3.899   3.905  0.0407  0.3591 -0.9146
 7719SOL    HW134793   4.087   3.882   3.819 -0.7072 -0.3307 -0.4382
 7719SOL    HW234794   4.047   3.917   3.956  0.1557 -1.1321 -0.2188
 7720SOL     OW34795   4.049   3.604   7.206  0.2167  0.4343 -0.4529
 7720SOL    HW134796   3.960   3.615   7.172  0.7430  1.3112 -1.5391
 7720SOL    HW234797   4.040   3.654   7.286 -0.1085  0.1326 -0.3015
 7721SOL     OW34798   2.451   3.019   2.440  0.8374 -0.6784  0.4779
 7721SOL    HW134799   2.366   2.987   2.471  0.3909 -0.4182 -0.4922
 7721SOL    HW234800   2.502   2.950   2.481  2.3293 -1.1163 -2.1182
 7722SOL     OW34801   0.659   1.008   8.615 -0.1784  0.0550 -0.2980
 7722SOL    HW134802   0.732   0.956   8.648 -1.0496 -0.5762  0.6284
 7722SOL    HW234803   0.595   1.010   8.687  0.4254 -1.5995  0.2775
 7723SOL     OW34804   1.417   0.352   9.633 -0.0114  0.3931  0.3512
 7723SOL    HW134805   1.430   0.263   9.667 -4.1893 -0.0023  0.9354
 7723SOL    HW234806   1.507   0.384   9.637  0.2840 -0.2192 -1.3130
 7724SOL     OW34807   0.039   0.405   1.930 -0.5260  0.6414  0.1012
 7724SOL    HW134808   0.013   0.340   1.996  0.3204  1.0507  0.8414
 7724SOL    HW234809   4.702   0.420   1.877 -1.3412  1.4009  1.5022
 7725SOL     OW34810   4.409   3.052   3.571  0.3850 -0.0110 -0.5592
 7725SOL    HW134811   4.439   3.142   3.581 -1.0940  0.2918  1.1490
 7725SOL    HW234812   4.408   3.033   3.477 -1.6871  0.4437 -0.6220
 7726SOL     OW34813   1.041   0.397   8.441 -0.1706  0.0484 -0.5072
 7726SOL    HW134814   1.072   0.473   8.491  0.2414 -1.0597  0.9064
 7726SOL    HW234815   1.032   0.322   8.500  2.2194  0.2590  0.1290
 7727SOL     OW34816   0.777   1.534   2.801  0.2103  0.2961  0.0175
 7727SOL    HW134817   0.865   1.531   2.840  0.2823  0.5451 -0.1269
 7727SOL    HW234818   0.722   1.535   2.879  0.1407 -0.1329 -0.0293
 7728SOL     OW34819   0.036   1.606  12.942  0.1254  0.0546 -0.8057
 7728SOL    HW134820   0.043   1.678  12.879 -1.3067  0.7854 -0.1268
 7728SOL    HW234821   0.125   1.573  12.957  0.3408 -0.0272 -2.2616
 7729SOL     OW34822   4.063   3.041   3.246 -0.0547  0.1756 -0.4155
 7729SOL    HW134823   4.086   3.130   3.219  1.9600  0.1272  1.1519
 7729SOL    HW234824   4.049   3.057   3.340  3.3761  0.4265  0.0370
 7730SOL     OW34825   2.131   4.127   9.060 -0.1711  0.2088  0.0253
 7730SOL    HW134826   2.152   4.113   9.152 -0.7758 -1.3298 -0.0743
 7730SOL    HW234827   2.036   4.133   9.074 -0.5016 -0.4992 -1.8852
 7731SOL     OW34828   3.933   4.614   0.376  0.0816  0.0821 -0.2947
 7731SOL    HW134829   3.894   4.607   0.289 -0.5419  0.4370 -0.0392
 7731SOL    HW234830   3.957   4.707   0.379 -0.7666  0.3065 -0.5114
 7732SOL     OW34831   4.373   2.153   0.615 -0.0354 -0.0383  0.0277
 7732SOL    HW134832   4.371   2.084   0.682  0.4188 -1.1939 -1.1332
 7732SOL    HW234833   4.448   2.118   0.566 -0.3318  0.8979 -1.1020
 7733SOL     OW34834   2.126   0.774   1.978 -0.4693 -0.0790  0.0654
 7733SOL    HW134835   2.169   0.689   1.976 -1.4996 -0.5883 -0.3733
 7733SOL    HW234836   2.102   0.768   2.070  1.8328  1.0414  0.7405
 7734SOL     OW34837   1.107   3.867  17.010 -0.5339  0.4260 -0.0178
 7734SOL    HW134838   1.073   3.845  17.097 -1.3472  0.9353 -0.2120
 7734SOL    HW234839   1.200   3.876  17.031  0.0742 -2.1551 -1.5799
 7735SOL     OW34840   4.393   2.663   5.791 -0.1662  0.4147 -0.0569
 7735SOL    HW134841   4.334   2.626   5.856  2.3534 -2.4281  0.6380
 7735SOL    HW234842   4.474   2.670   5.842 -0.5148 -0.7499  0.6608
 7736SOL     OW34843   3.084   2.851   5.832 -0.5175 -0.1971  0.3478
 7736SOL    HW134844   3.156   2.861   5.894  1.3270  0.2819 -1.9022
 7736SOL    HW234845   3.110   2.909   5.761  1.0431 -0.3716  0.7768
 7737SOL     OW34846   2.352   2.948   6.546 -0.3523  0.3603 -0.4456
 7737SOL    HW134847   2.391   3.018   6.597 -0.0086 -0.8023  0.8825
 7737SOL    HW234848   2.406   2.952   6.467 -1.3083 -1.3644 -1.1692
 7738SOL     OW34849   1.114   1.264   2.655  0.0766  0.1047 -0.3405
 7738SOL    HW134850   1.095   1.247   2.563 -0.1980  2.6301 -0.7416
 7738SOL    HW234851   1.144   1.355   2.653  0.3412  0.0360  0.4508
 7739SOL     OW34852   3.018   4.241  16.959  0.3800  0.0275  0.3359
 7739SOL    HW134853   3.004   4.326  17.000 -1.3511  0.6828 -1.6514
 7739SOL    HW234854   3.110   4.249  16.932 -0.1110  1.8520 -0.7715
 7740SOL     OW34855   4.020   0.370  17.030 -0.6944  0.5934  0.4646
 7740SOL    HW134856   4.112   0.382  17.006 -0.3510  2.7633  2.8482
 7740SOL    HW234857   4.003   0.278  17.011 -0.2731  0.5407  0.3375
 7741SOL     OW34858   0.720   3.395   2.368 -0.0692  0.0097  0.0814
 7741SOL    HW134859   0.791   3.457   2.350 -1.3282  1.8381  1.3669
 7741SOL    HW234860   0.740   3.364   2.456 -0.0383  0.0131  0.0757
 7742SOL     OW34861   4.179   1.255   9.343  0.0141  0.0312 -0.1325
 7742SOL    HW134862   4.236   1.230   9.270 -0.9013 -1.3478 -0.3714
 7742SOL    HW234863   4.175   1.172   9.389  1.9683 -1.0318 -1.8859
 7743SOL     OW34864   1.297   1.244   3.971 -0.7426  0.5529 -0.4336
 7743SOL    HW134865   1.276   1.221   4.062 -0.5621  1.2712 -0.2021
 7743SOL    HW234866   1.216   1.232   3.922 -1.7671 -0.2309  1.4580
 7744SOL     OW34867   2.225   0.022   1.449  0.0259 -0.1715 -0.1529
 7744SOL    HW134868   2.227   0.009   1.354 -2.9349 -0.2524 -0.2097
 7744SOL    HW234869   2.305   0.073   1.456  0.1885 -0.6749  1.5861
 7745SOL     OW34870   1.430   3.328  11.403 -0.0950 -0.0563  0.3429
 7745SOL    HW134871   1.405   3.237  11.420 -2.4416  0.9460  2.1826
 7745SOL    HW234872   1.522   3.309  11.387 -0.1957  0.0533 -0.3862
 7746SOL     OW34873   1.685   0.461   7.583  0.3405 -0.4802 -0.5210
 7746SOL    HW134874   1.729   0.431   7.662 -0.3155  0.4553  0.1952
 7746SOL    HW234875   1.623   0.528   7.612 -0.9887 -0.4219 -3.4705
 7747SOL     OW34876   1.792   2.730  17.473  0.5697  0.0093 -0.2373
 7747SOL    HW134877   1.819   2.640  17.457  0.9977  0.1195 -0.1193
 7747SOL    HW234878   1.726   2.724  17.543 -0.1894 -1.7297 -1.0971
 7748SOL     OW34879   2.378   0.209   9.640 -0.4718 -0.4094  0.3472
 7748SOL    HW134880   2.335   0.178   9.560  1.6626  0.0554 -0.9568
 7748SOL    HW234881   2.451   0.152   9.662  1.2278  0.4887 -3.0722
 7749SOL     OW34882   3.004   3.379   2.925 -0.2534  0.4271  0.6934
 7749SOL    HW134883   3.016   3.394   3.018 -0.9595  1.3586  0.6316
 7749SOL    HW234884   2.932   3.441   2.915 -0.1885  0.9077  3.2754
 7750SOL     OW34885   2.306   4.215   9.668  0.4254  0.1976 -0.9172
 7750SOL    HW134886   2.260   4.209   9.752  1.1414 -1.1661 -0.6227
 7750SOL    HW234887   2.332   4.307   9.663  1.4749 -0.1017 -0.9646
 7751SOL     OW34888   0.511   3.186   4.528  0.2854  0.1572 -0.4673
 7751SOL    HW134889   0.448   3.258   4.538  2.1343  1.8210 -0.8356
 7751SOL    HW234890   0.526   3.155   4.617  1.8065 -0.4788 -0.9517
 7752SOL     OW34891   1.138   1.841  12.917  0.3419 -0.5881 -0.2788
 7752SOL    HW134892   1.135   1.891  12.999 -2.1311 -0.6388 -0.3260
 7752SOL    HW234893   1.050   1.804  12.910  0.0453 -0.4628  2.8365
 7753SOL     OW34894   1.979   3.197   5.587 -0.0677  0.8853  0.0509
 7753SOL    HW134895   2.063   3.158   5.559  0.0230  0.7301  0.5452
 7753SOL    HW234896   1.920   3.125   5.608  1.2193 -0.3618 -0.5695
 7754SOL     OW34897   1.549   3.597  10.622  0.1119 -0.4731  0.3520
 7754SOL    HW134898   1.511   3.574  10.707  2.2001 -0.7853  1.1952
 7754SOL    HW234899   1.616   3.530  10.612 -0.6285 -1.1372 -0.1283
 7755SOL     OW34900   3.808   1.726   9.390 -0.5036 -0.3332 -0.2067
 7755SOL    HW134901   3.777   1.797   9.446  1.0576 -1.0565  1.5621
 7755SOL    HW234902   3.728   1.713   9.338  0.1737 -0.2089 -1.2843
 7756SOL     OW34903   1.991   4.098  16.399  0.3809 -0.4209  0.7207
 7756SOL    HW134904   1.913   4.060  16.359  1.5402 -2.9004  0.8357
 7756SOL    HW234905   1.967   4.186  16.428 -0.4093 -0.7943  1.2299
 7757SOL     OW34906   2.615   0.886   7.421 -0.3990  0.2302  0.0708
 7757SOL    HW134907   2.609   0.862   7.328 -1.4259 -2.2384  0.7887
 7757SOL    HW234908   2.658   0.971   7.416 -2.8627  1.3616 -2.1701
 7758SOL     OW34909   3.618   1.335  16.000 -0.0606  0.0997  0.1306
 7758SOL    HW134910   3.606   1.374  16.086 -4.0489 -0.2208 -0.3103
 7758SOL    HW234911   3.539   1.368  15.959  0.4760  2.6435  1.1311
 7759SOL     OW34912   4.067   0.484  13.834 -0.6179  0.3801  0.0076
 7759SOL    HW134913   4.020   0.421  13.889 -3.8581  0.2883 -2.9088
 7759SOL    HW234914   4.132   0.515  13.898  0.1279  0.0641 -0.6065
 7760SOL     OW34915   3.281   3.522  11.883  0.4472  0.1084  0.1910
 7760SOL    HW134916   3.347   3.514  11.952 -1.0161 -0.7649  1.4856
 7760SOL    HW234917   3.311   3.479  11.803  0.1365 -0.5760  0.4466
 7761SOL     OW34918   4.603   0.484  15.068 -0.7995 -0.5148  0.5602
 7761SOL    HW134919   4.525   0.540  15.068  0.6793  1.5495  1.6430
 7761SOL    HW234920   4.606   0.457  15.159 -0.0698  0.8637  0.9543
 7762SOL     OW34921   3.917   2.917   7.193  0.4040  0.1195 -0.3988
 7762SOL    HW134922   4.000   2.908   7.240 -0.3367  0.0569  0.9030
 7762SOL    HW234923   3.854   2.859   7.236  1.3831 -1.2235 -0.7847
 7763SOL     OW34924   2.013   2.808   7.922  0.1738 -0.1894  0.3074
 7763SOL    HW134925   2.072   2.833   7.993 -1.2383  1.4867  0.8981
 7763SOL    HW234926   2.067   2.739   7.883  1.8630  1.4323 -0.2211
 7764SOL     OW34927   1.659   3.219   8.173 -0.2268  0.1563  0.1049
 7764SOL    HW134928   1.622   3.297   8.214 -0.8160  0.3219 -0.7505
 7764SOL    HW234929   1.664   3.234   8.079  1.0980  1.8693  0.4402
 7765SOL     OW34930   1.314   2.099  12.992  0.0088 -0.4471 -0.0637
 7765SOL    HW134931   1.358   2.023  12.954  2.8821  1.9546 -1.4746
 7765SOL    HW234932   1.360   2.101  13.076  3.4364 -1.7178 -1.9369
 7766SOL     OW34933   2.400   0.227   1.078  0.2645 -0.2215  0.2947
 7766SOL    HW134934   2.414   0.205   1.171  0.5376  1.5151  0.6494
 7766SOL    HW234935   2.359   0.313   1.080 -1.0185 -0.8045 -0.6085
 7767SOL     OW34936   4.118   1.624   7.244  0.1412  0.2129 -0.3842
 7767SOL    HW134937   4.184   1.555   7.258 -1.0731 -0.9319 -0.3085
 7767SOL    HW234938   4.144   1.663   7.161  1.9389 -2.8645 -1.2678
 7768SOL     OW34939   2.484   0.531  10.163 -0.0334  0.1984 -0.2771
 7768SOL    HW134940   2.536   0.486  10.096  1.0136  0.2365  0.5149
 7768SOL    HW234941   2.533   0.613  10.172  1.2677 -0.5974 -0.0866
 7769SOL     OW34942   1.696   2.208   1.961 -0.0421  0.2931  0.2628
 7769SOL    HW134943   1.607   2.195   1.992 -0.4138 -0.3855 -1.1187
 7769SOL    HW234944   1.743   2.175   2.038  0.4771 -0.8444 -0.5582
 7770SOL     OW34945   0.315   2.156  14.187 -0.2659  0.7150 -0.3710
 7770SOL    HW134946   0.399   2.132  14.148  0.5271  0.7241  1.3392
 7770SOL    HW234947   0.266   2.204  14.120  0.2377  0.3451 -0.9988
 7771SOL     OW34948   4.079   1.805   4.105 -0.3969 -0.2151 -0.3602
 7771SOL    HW134949   4.036   1.720   4.096  0.0420 -0.5264  0.3768
 7771SOL    HW234950   4.012   1.869   4.082 -0.3348 -0.6202 -1.6174
 7772SOL     OW34951   4.134   0.576   0.430 -0.3126  0.4892 -0.6670
 7772SOL    HW134952   4.119   0.663   0.394 -1.4423  0.7474  0.4093
 7772SOL    HW234953   4.087   0.582   0.514 -0.0594 -0.7264 -0.4308
 7773SOL     OW34954   3.103   0.401   4.402 -0.2423 -0.0263 -0.5147
 7773SOL    HW134955   3.132   0.426   4.490 -1.1266 -2.7395  0.5607
 7773SOL    HW234956   3.026   0.455   4.387  0.2080  0.5233 -0.8330
 7774SOL     OW34957   3.064   0.540   6.053  0.1379 -0.3789 -0.1659
 7774SOL    HW134958   3.066   0.504   5.965  2.1938 -2.6955  0.8177
 7774SOL    HW234959   3.039   0.465   6.108  0.9048 -0.5445 -0.0441
 7775SOL     OW34960   1.999   2.732   5.197 -0.0007  0.1370 -0.3953
 7775SOL    HW134961   1.964   2.669   5.134 -0.4093  0.4104 -0.4388
 7775SOL    HW234962   1.938   2.804   5.182 -0.3253 -0.0303  0.0993
 7776SOL     OW34963   1.459   2.352   1.524 -0.4392 -0.1649  0.1821
 7776SOL    HW134964   1.418   2.267   1.535 -0.7909 -0.0135  0.0166
 7776SOL    HW234965   1.457   2.382   1.615  1.3149 -0.3506  0.2895
 7777SOL     OW34966   0.259   3.059  10.987  0.0620 -0.1977 -0.3907
 7777SOL    HW134967   0.305   3.133  10.946 -1.0933  1.0047  0.4593
 7777SOL    HW234968   0.326   3.017  11.041  0.9006  0.0820 -1.2159
 7778SOL     OW34969   2.728   4.424  17.302 -0.5313 -0.2248  0.5953
 7778SOL    HW134970   2.695   4.458  17.219  1.6616 -1.1988 -0.6630
 7778SOL    HW234971   2.811   4.471  17.311 -1.1804  0.9853  0.2232
 7779SOL     OW34972   2.356   0.583   7.685 -0.3438 -0.0577  0.1349
 7779SOL    HW134973   2.364   0.665   7.635  0.7966 -1.3075 -1.7049
 7779SOL    HW234974   2.395   0.527   7.619 -1.8922 -1.4250  0.3836
 7780SOL     OW34975   1.498   4.458   4.197  0.3552 -0.0532  0.2048
 7780SOL    HW134976   1.551   4.438   4.274  1.7409 -1.4199 -1.1096
 7780SOL    HW234977   1.564   4.441   4.130  0.9167  0.3119  0.6673
 7781SOL     OW34978   3.456   1.722   7.397  0.6370 -0.1327 -0.6656
 7781SOL    HW134979   3.519   1.698   7.330  0.8984  1.4511 -0.9972
 7781SOL    HW234980   3.383   1.737   7.337 -0.8616 -1.2395  0.8757
 7782SOL     OW34981   2.633   1.130   1.800 -0.0814 -0.1683  0.0051
 7782SOL    HW134982   2.589   1.127   1.885  0.0458  1.0451  0.1137
 7782SOL    HW234983   2.710   1.183   1.821 -1.2062  1.4025  0.1887
 7783SOL     OW34984   4.199   1.497   9.135 -0.3082  0.0782 -0.0528
 7783SOL    HW134985   4.271   1.533   9.187 -1.5428 -0.9763  2.3704
 7783SOL    HW234986   4.175   1.425   9.193  0.0198  0.0750  0.0770
 7784SOL     OW34987   0.818   1.923   0.614 -0.5873  0.2518 -0.5849
 7784SOL    HW134988   0.893   1.980   0.629 -1.4706  1.2133  0.1128
 7784SOL    HW234989   0.748   1.987   0.620  0.3481  1.3172 -1.0495
 7785SOL     OW34990   4.185   2.374   1.213  0.1007  0.1382  0.0190
 7785SOL    HW134991   4.238   2.322   1.275 -3.7833 -0.2792  3.0041
 7785SOL    HW234992   4.159   2.445   1.272 -1.2757 -0.5785  0.2887
 7786SOL     OW34993   1.376   2.420  14.567 -0.4317 -0.2212 -0.2663
 7786SOL    HW134994   1.385   2.508  14.603  1.0733 -0.5041  0.0517
 7786SOL    HW234995   1.466   2.412  14.535 -0.1443 -0.9180  0.7290
 7787SOL     OW34996   2.754   0.997   4.745 -0.4226  0.0423 -0.2781
 7787SOL    HW134997   2.682   0.936   4.762 -0.7067  0.4321 -0.0863
 7787SOL    HW234998   2.805   0.958   4.674  1.0545 -0.3973  1.0222
 7788SOL     OW34999   1.449   0.032   9.486  0.3604 -0.4338 -0.1726
 7788SOL    HW135000   1.368   0.082   9.488  0.7763  0.1682  1.4140
 7788SOL    HW235001   1.474   0.046   9.577 -2.8800 -0.3600  0.6832
 7789SOL     OW35002   4.686   3.794   6.424 -0.6401 -0.1956 -0.4401
 7789SOL    HW135003   4.680   3.745   6.506 -1.7785  0.9152  0.1384
 7789SOL    HW235004   4.713   3.877   6.463 -1.0892  0.1062 -0.7693
 7790SOL     OW35005   3.194   0.945   2.140 -0.0693 -0.7149 -0.0736
 7790SOL    HW135006   3.261   0.971   2.076  1.4759 -0.8143  1.5224
 7790SOL    HW235007   3.241   0.876   2.187 -1.0791 -1.3159  0.0366
 7791SOL     OW35008   0.310   4.422   2.874  0.2936 -0.2168  0.1270
 7791SOL    HW135009   0.235   4.435   2.932 -1.2544 -0.0055 -1.9505
 7791SOL    HW235010   0.283   4.347   2.822  0.3504  0.0286 -0.2523
 7792SOL     OW35011   1.254   1.336   6.978 -0.4795  0.2479  0.2023
 7792SOL    HW135012   1.206   1.255   6.987  2.0722 -1.2841  0.0259
 7792SOL    HW235013   1.271   1.350   7.071 -1.4718 -1.4688  0.6287
 7793SOL     OW35014   2.171   0.849  15.830 -0.2904 -0.6481 -0.0028
 7793SOL    HW135015   2.098   0.835  15.890 -0.9327 -0.4271 -0.7262
 7793SOL    HW235016   2.216   0.923  15.872 -0.6097  0.8830 -2.3453
 7794SOL     OW35017   2.292   2.703   5.188  0.1105 -0.0096 -0.1436
 7794SOL    HW135018   2.283   2.665   5.101  0.6155 -1.8940  0.6225
 7794SOL    HW235019   2.200   2.715   5.209 -0.1132 -0.7884 -0.6674
 7795SOL     OW35020   0.401   0.441   6.115 -0.6623  0.2321 -0.0973
 7795SOL    HW135021   0.399   0.536   6.122 -1.2115  0.0694  2.0802
 7795SOL    HW235022   0.495   0.428   6.111 -0.6729  0.6217 -1.6221
 7796SOL     OW35023   0.966   0.544   5.916 -0.3771  0.1474 -0.1924
 7796SOL    HW135024   0.981   0.628   5.960  2.9330 -1.4645  1.6795
 7796SOL    HW235025   0.889   0.558   5.861 -0.5664  0.7818  0.2254
 7797SOL     OW35026   1.612   1.039   5.212 -0.4265  0.7426  0.3681
 7797SOL    HW135027   1.584   1.018   5.122  0.3956 -1.1622  0.5608
 7797SOL    HW235028   1.530   1.032   5.262  1.0237 -0.3040  2.5729
 7798SOL     OW35029   3.203   1.222   3.965  0.2365  0.9184 -0.6447
 7798SOL    HW135030   3.282   1.182   4.001 -0.7496  1.0133  1.6247
 7798SOL    HW235031   3.234   1.267   3.887  2.4578  0.7908  0.1645
 7799SOL     OW35032   4.641   0.823   4.487  0.1733 -0.2665  0.1758
 7799SOL    HW135033   4.630   0.787   4.575 -0.1793  2.0428  1.0665
 7799SOL    HW235034   4.728   0.862   4.489 -0.5902  1.4424 -1.0199
 7800SOL     OW35035   0.072   2.518   1.326 -0.3075  0.2913 -0.0657
 7800SOL    HW135036   0.094   2.516   1.232 -1.4252 -0.0283 -0.3206
 7800SOL    HW235037   0.158   2.500   1.362 -0.6496  1.2117  1.1964
 7801SOL     OW35038   2.259   1.128   5.058 -0.2148  0.3547  0.8206
 7801SOL    HW135039   2.188   1.073   5.025  0.0987  0.3039  0.2166
 7801SOL    HW235040   2.322   1.057   5.072  0.5248  0.3835 -2.3447
 7802SOL     OW35041   1.577   4.499   3.702 -0.2946 -0.0578 -0.5727
 7802SOL    HW135042   1.605   4.408   3.694 -1.1827 -0.6136  2.6537
 7802SOL    HW235043   1.508   4.484   3.766 -0.2896  1.9362 -0.1038
 7803SOL     OW35044   2.100   3.147   4.023 -0.2593  0.3002  0.9738
 7803SOL    HW135045   2.037   3.107   3.962 -0.4832  1.7322  0.2587
 7803SOL    HW235046   2.041   3.210   4.064 -2.6781 -1.0269 -0.4378
 7804SOL     OW35047   1.292   1.968   3.952 -0.2205  0.2966  0.1603
 7804SOL    HW135048   1.278   1.874   3.962  0.1727  0.2211 -0.0046
 7804SOL    HW235049   1.387   1.974   3.952 -0.2622  0.9786  0.0226
 7805SOL     OW35050   1.682   4.031   2.362  0.5177  0.1288 -0.4557
 7805SOL    HW135051   1.689   4.098   2.295 -0.6194  0.3025 -0.4042
 7805SOL    HW235052   1.734   3.961   2.321  1.0530  0.8872 -1.0597
 7806SOL     OW35053   1.310   4.453   6.306 -0.2541 -0.5377 -0.7715
 7806SOL    HW135054   1.277   4.382   6.252  1.6920 -0.3985 -2.1538
 7806SOL    HW235055   1.255   4.530   6.289  0.4901 -0.0813 -1.1178
 7807SOL     OW35056   1.759   2.717   4.437 -0.1644  0.0635 -0.3197
 7807SOL    HW135057   1.756   2.752   4.527  2.1855  0.8521 -0.5268
 7807SOL    HW235058   1.751   2.624   4.455 -1.4356 -0.2715 -2.7384
 7808SOL     OW35059   0.658   1.265   8.991 -0.2044  0.2760 -0.4651
 7808SOL    HW135060   0.725   1.264   8.923 -1.4107  0.6267 -1.6524
 7808SOL    HW235061   0.605   1.193   8.957 -0.1293 -0.6141  1.2827
 7809SOL     OW35062   2.385   1.191   6.048  0.0596 -0.0867  0.4329
 7809SOL    HW135063   2.457   1.158   5.995 -1.3227 -2.2649 -0.1266
 7809SOL    HW235064   2.359   1.264   5.992  0.0016 -0.0231  0.5431
 7810SOL     OW35065   2.458   2.753   4.285 -0.4379 -0.0747 -0.7139
 7810SOL    HW135066   2.378   2.796   4.253 -1.3430 -0.4820  0.9599
 7810SOL    HW235067   2.528   2.773   4.224  0.8270 -0.5237  0.5943
 7811SOL     OW35068   1.331   2.353   5.636 -0.0929 -0.3356 -0.1093
 7811SOL    HW135069   1.302   2.293   5.567  1.2253  2.1366 -2.8074
 7811SOL    HW235070   1.248   2.393   5.660  0.0633 -0.5158  0.7331
 7812SOL     OW35071   4.366   2.085   3.632  0.0407  0.2788  0.3283
 7812SOL    HW135072   4.272   2.102   3.621 -0.0188 -0.2523  0.0203
 7812SOL    HW235073   4.373   2.133   3.714  1.0455 -0.3365  0.6017
 7813SOL     OW35074   3.030   0.834   6.587 -0.3422  0.2251  0.0950
 7813SOL    HW135075   3.057   0.794   6.504  0.4757  1.4869 -0.2613
 7813SOL    HW235076   2.957   0.891   6.563 -1.9934 -1.4668  1.1701
 7814SOL     OW35077   0.281   1.173   3.430 -0.0769  0.3572  0.1497
 7814SOL    HW135078   0.306   1.241   3.367 -1.3244  0.9991  0.3631
 7814SOL    HW235079   0.353   1.110   3.418 -0.2697  0.0940  0.3660
 7815SOL     OW35080   4.313   0.710  13.330 -0.2088 -0.2690  0.6078
 7815SOL    HW135081   4.232   0.696  13.283 -1.0831  0.4526  1.8896
 7815SOL    HW235082   4.301   0.679  13.420 -1.9027 -1.6532 -0.1131
 7816SOL     OW35083   0.957   4.708   7.356  0.3084 -0.2263  0.5001
 7816SOL    HW135084   0.995   4.620   7.362  0.8242 -0.0427 -0.1091
 7816SOL    HW235085   0.878   4.686   7.405  0.2071 -0.3408  0.2848
 7817SOL     OW35086   2.672   3.859   1.255  0.0332  0.4291 -0.3790
 7817SOL    HW135087   2.740   3.923   1.235  0.7733 -0.3013 -0.2292
 7817SOL    HW235088   2.707   3.787   1.202  0.7372  0.1329  0.4886
 7818SOL     OW35089   0.867   1.088   3.325 -0.4573 -0.3488  0.3603
 7818SOL    HW135090   0.841   1.080   3.233  1.4213  1.9594 -0.3616
 7818SOL    HW235091   0.832   1.175   3.341  1.7129  0.6346 -0.2682
 7819SOL     OW35092   2.040   2.574   3.452 -0.6366 -0.4576 -0.7823
 7819SOL    HW135093   1.981   2.630   3.402 -1.3810  0.4187  1.0799
 7819SOL    HW235094   2.038   2.493   3.401 -1.5968 -1.4074  0.7316
 7820SOL     OW35095   3.670   1.419   2.491  0.3241 -0.3901  0.5626
 7820SOL    HW135096   3.601   1.356   2.468  1.3498 -0.7224 -1.6251
 7820SOL    HW235097   3.665   1.488   2.425  3.0391 -0.1747  0.5762
 7821SOL     OW35098   1.289   3.247   7.997  0.4638 -0.2735  0.4998
 7821SOL    HW135099   1.305   3.272   8.087 -2.3829  2.8493  0.1447
 7821SOL    HW235100   1.341   3.166   7.992  0.8480 -0.1617  3.0387
 7822SOL     OW35101   1.490   1.680   7.344  0.4246  0.3276 -0.0879
 7822SOL    HW135102   1.455   1.706   7.430  2.2234 -0.1905  0.7936
 7822SOL    HW235103   1.526   1.768   7.330 -0.6376  1.2418  2.7679
 7823SOL     OW35104   0.416   3.740   3.383  0.3600  0.5494  0.0339
 7823SOL    HW135105   0.458   3.826   3.386 -1.1591  1.3282 -1.3672
 7823SOL    HW235106   0.476   3.683   3.432 -1.5745  1.5600  3.6207
 7824SOL     OW35107   4.005   4.170   0.307 -0.0185  0.2107 -0.1512
 7824SOL    HW135108   3.929   4.227   0.302 -1.2572 -1.4668 -0.6425
 7824SOL    HW235109   4.010   4.158   0.213 -0.1172  0.0158 -0.1314
 7825SOL     OW35110   0.270   0.204  11.917  0.1260 -0.8557 -0.0597
 7825SOL    HW135111   0.237   0.115  11.930 -0.8961 -0.6981 -1.6274
 7825SOL    HW235112   0.190   0.245  11.948  1.0917 -0.1352  1.4669
 7826SOL     OW35113   0.242   2.204   3.046 -0.1710 -0.0731 -0.4313
 7826SOL    HW135114   0.157   2.158   3.046 -0.7217  0.9469 -1.5698
 7826SOL    HW235115   0.215   2.260   2.973 -0.0323  1.5073  0.7375
 7827SOL     OW35116   1.636   0.319   4.216 -1.0108  0.6247 -0.4303
 7827SOL    HW135117   1.712   0.273   4.252 -2.0882 -1.2505 -0.5394
 7827SOL    HW235118   1.653   0.304   4.124  0.3882 -1.5116  0.1803
 7828SOL     OW35119   4.649   1.533  17.050 -0.4975  0.1755  0.5777
 7828SOL    HW135120   4.616   1.449  17.083 -2.0205  0.4693 -0.1864
 7828SOL    HW235121   4.608   1.531  16.963  0.0367  0.3318  0.3191
 7829SOL     OW35122   1.834   1.702  10.289  0.2530  0.2508  0.1973
 7829SOL    HW135123   1.901   1.728  10.352 -1.4926  1.5750  1.4926
 7829SOL    HW235124   1.771   1.656  10.344  0.2154 -1.6213 -1.4031
 7830SOL     OW35125   2.960   2.668   0.982 -0.0806 -0.0951  0.0677
 7830SOL    HW135126   2.977   2.762   0.990  3.6236 -0.7353 -0.3784
 7830SOL    HW235127   2.931   2.650   1.071  1.1539  0.1562  0.5128
 7831SOL     OW35128   3.026   0.177   2.679  0.0632 -0.0401 -0.0358
 7831SOL    HW135129   3.026   0.176   2.584  1.6493 -0.1480 -0.0395
 7831SOL    HW235130   3.114   0.206   2.705  0.9302 -2.9133  0.2702
 7832SOL     OW35131   2.562   3.824  11.357 -0.4364  0.2144 -0.2014
 7832SOL    HW135132   2.607   3.809  11.440 -2.0966  2.5817  1.1519
 7832SOL    HW235133   2.472   3.804  11.383 -0.5018 -0.6457 -1.1150
 7833SOL     OW35134   2.367   2.612  12.551 -0.2424 -0.5766  0.0227
 7833SOL    HW135135   2.295   2.550  12.544 -0.6291 -0.2224  0.9323
 7833SOL    HW235136   2.316   2.692  12.563 -1.3225 -1.2648  0.0366
 7834SOL     OW35137   0.959   3.297   8.651 -0.0104  0.3553 -0.3623
 7834SOL    HW135138   0.957   3.349   8.731 -0.7013  1.3605 -1.0289
 7834SOL    HW235139   0.867   3.308   8.626  0.3138 -0.9526 -2.1816
 7835SOL     OW35140   2.074   3.350   4.899  0.0444 -0.6902 -0.4164
 7835SOL    HW135141   2.006   3.331   4.834 -0.4546  1.1308 -0.4452
 7835SOL    HW235142   2.042   3.289   4.965  1.5880 -0.3648  0.6339
 7836SOL     OW35143   2.826   1.885  11.931 -0.3523 -0.1203  0.3726
 7836SOL    HW135144   2.855   1.975  11.918  0.7245 -0.6651 -0.9860
 7836SOL    HW235145   2.736   1.890  11.963 -0.1610  0.0275  0.8859
 7837SOL     OW35146   1.682   4.579   7.983  0.2619  0.0161  0.7155
 7837SOL    HW135147   1.742   4.567   8.056  0.2257 -3.3314  0.1995
 7837SOL    HW235148   1.729   4.642   7.929  3.0200 -2.2579  0.4764
 7838SOL     OW35149   1.023   2.032   3.658 -0.0752  0.0791 -1.1234
 7838SOL    HW135150   1.060   1.979   3.587 -0.4954 -4.5083  2.0718
 7838SOL    HW235151   1.089   2.082   3.707 -1.7167 -1.6138  2.8203
 7839SOL     OW35152   4.254   0.347   0.376  0.0089 -0.0548 -0.8705
 7839SOL    HW135153   4.204   0.426   0.395  1.3415  0.2582  1.3843
 7839SOL    HW235154   4.344   0.377   0.363 -1.2520  3.5955 -1.0725
 7840SOL     OW35155   4.502   1.612   3.030 -0.0748 -0.2627  0.1196
 7840SOL    HW135156   4.516   1.696   2.985  0.8490 -0.9376 -0.8345
 7840SOL    HW235157   4.587   1.598   3.071  0.0251 -2.6605 -0.9112
 7841SOL     OW35158   3.230   1.126  11.107  1.6657  0.1869  0.2298
 7841SOL    HW135159   3.297   1.133  11.039 -0.3497  0.9722 -1.6671
 7841SOL    HW235160   3.152   1.131  11.053  1.2834  1.9306  0.9352
 7842SOL     OW35161   0.244   1.774   2.768 -0.1328  0.4585 -0.1844
 7842SOL    HW135162   0.218   1.682   2.766 -0.6200  0.5715  0.7835
 7842SOL    HW235163   0.171   1.831   2.746 -1.1569 -1.3873 -1.6011
 7843SOL     OW35164   4.474   2.526   3.649  0.8561  0.0990  0.0140
 7843SOL    HW135165   4.411   2.541   3.720  0.5932  0.1624 -0.2303
 7843SOL    HW235166   4.458   2.603   3.595  2.4031  0.8667  0.6445
 7844SOL     OW35167   1.551   1.319   3.164 -0.3770  0.0529 -0.1747
 7844SOL    HW135168   1.516   1.308   3.076 -0.2637  0.6003 -0.2856
 7844SOL    HW235169   1.645   1.304   3.152 -0.7572 -1.4924 -1.2091
 7845SOL     OW35170   1.680   3.108  10.148  0.2827  0.4392  0.0299
 7845SOL    HW135171   1.625   3.108  10.071  2.5023  0.2593 -1.5635
 7845SOL    HW235172   1.682   3.019  10.183 -0.4920  0.6279  0.5520
 7846SOL     OW35173   1.258   1.939   5.782 -0.3268 -0.2037  0.2018
 7846SOL    HW135174   1.214   1.855   5.770  3.4691 -2.3167  1.1597
 7846SOL    HW235175   1.183   1.999   5.786 -0.4789 -0.4904  1.4645
 7847SOL     OW35176   3.555   1.950   9.576 -0.0755 -0.2769 -0.8577
 7847SOL    HW135177   3.480   1.986   9.624  0.7764 -0.3920  0.5365
 7847SOL    HW235178   3.509   1.882   9.526 -2.1601 -1.3127  2.4505
 7848SOL     OW35179   2.029   1.372   2.365  0.3303  0.0525  0.5700
 7848SOL    HW135180   1.970   1.445   2.345  1.3797  0.5375 -0.7507
 7848SOL    HW235181   2.015   1.301   2.303  1.8237 -0.1389  0.4356
 7849SOL     OW35182   4.624   2.556   5.566  0.4434 -0.1479  0.3716
 7849SOL    HW135183   4.580   2.580   5.647  0.6533  0.6391  0.2585
 7849SOL    HW235184   4.645   2.463   5.570  0.3704 -0.1729  0.1813
 7850SOL     OW35185   1.338   1.313   5.319  0.0001 -0.1970 -0.1958
 7850SOL    HW135186   1.392   1.367   5.261  0.2681  1.8135  1.9118
 7850SOL    HW235187   1.260   1.296   5.265 -0.0968  0.9022 -0.4037
 7851SOL     OW35188   1.315   0.122  11.435 -0.5367 -0.4969  0.3037
 7851SOL    HW135189   1.285   0.210  11.413  2.5150  0.8165  1.4515
 7851SOL    HW235190   1.410   0.134  11.429 -0.6667  0.5457  0.4623
 7852SOL     OW35191   1.773   4.587  16.349  0.8783 -0.2880 -0.3595
 7852SOL    HW135192   1.709   4.641  16.304  0.4484 -0.7083 -0.2480
 7852SOL    HW235193   1.862   4.611  16.323  0.6697  0.8267 -0.0419
 7853SOL     OW35194   3.142   1.066   6.689 -0.3275 -0.0157 -0.0264
 7853SOL    HW135195   3.114   0.974   6.693 -1.6374  0.4621  1.7587
 7853SOL    HW235196   3.219   1.063   6.632  0.4893 -1.0449  1.1410
 7854SOL     OW35197   3.563   0.886   2.133 -0.5830  0.1939 -0.3652
 7854SOL    HW135198   3.636   0.928   2.178 -0.9745  0.6660 -0.1778
 7854SOL    HW235199   3.498   0.851   2.194 -1.8435  2.2819 -0.5465
 7855SOL     OW35200   1.333   4.127   7.828 -0.4300  0.3909  0.6112
 7855SOL    HW135201   1.402   4.063   7.847 -2.6595 -1.0248  3.8066
 7855SOL    HW235202   1.383   4.209   7.827 -0.2246  0.2725  1.6768
 7856SOL     OW35203   3.123   0.839   3.559 -0.2125  0.1140 -0.2266
 7856SOL    HW135204   3.030   0.830   3.542 -0.5014  0.9964  0.8440
 7856SOL    HW235205   3.137   0.773   3.628  0.6777 -1.5255 -1.9747
 7857SOL     OW35206   2.241   0.654  11.882 -0.2708  0.0738 -0.4696
 7857SOL    HW135207   2.290   0.573  11.896  0.9918  1.3348  2.3529
 7857SOL    HW235208   2.151   0.621  11.878 -0.1477 -0.2228 -0.8629
 7858SOL     OW35209   1.580   0.621   9.928  0.1329  0.0359 -0.3025
 7858SOL    HW135210   1.655   0.562   9.929 -1.3210 -1.7964  1.1358
 7858SOL    HW235211   1.591   0.678   9.851 -0.1811 -0.1608 -0.4927
 7859SOL     OW35212   0.667   1.876   4.360 -0.0330 -0.0458 -0.3364
 7859SOL    HW135213   0.679   1.840   4.448  1.5768  1.3519  0.0071
 7859SOL    HW235214   0.642   1.963   4.392  1.2537  0.7343 -1.4758
 7860SOL     OW35215   3.882   4.592  14.371  0.1066  0.0427 -0.2624
 7860SOL    HW135216   3.900   4.627  14.284 -0.8788 -0.6158 -0.7237
 7860SOL    HW235217   3.933   4.653  14.425  0.4413  1.2935 -1.9927
 7861SOL     OW35218   1.563   3.739   4.234  0.3844 -0.2425 -0.2739
 7861SOL    HW135219   1.488   3.799   4.238  1.3238  0.9041  0.0693
 7861SOL    HW235220   1.522   3.658   4.264  0.6534  0.6674  2.5520
 7862SOL     OW35221   1.071   1.250   3.791  0.6792 -0.7395  0.1529
 7862SOL    HW135222   1.062   1.340   3.822 -0.0318 -0.3616 -1.1524
 7862SOL    HW235223   1.121   1.257   3.710  0.7705 -1.3370  0.1547
 7863SOL     OW35224   3.885   2.560   8.845 -0.1809  0.3454 -0.0382
 7863SOL    HW135225   3.942   2.486   8.824 -0.0716 -0.0808  1.7570
 7863SOL    HW235226   3.919   2.645   8.819  0.0791  0.2844  0.1066
 7864SOL     OW35227   3.552   2.535   6.571 -0.2411 -0.6803  0.1598
 7864SOL    HW135228   3.477   2.592   6.557  0.0457 -0.3327  0.0251
 7864SOL    HW235229   3.600   2.530   6.488 -1.7281  0.6064 -0.7736
 7865SOL     OW35230   3.097   2.056   7.842  0.1071  0.0066  0.3239
 7865SOL    HW135231   3.122   2.113   7.770 -1.4901  2.9939  2.1335
 7865SOL    HW235232   3.016   2.093   7.877  0.1519  0.4175 -0.0115
 7866SOL     OW35233   3.096   2.209   6.335 -0.6750 -0.0525  0.2818
 7866SOL    HW135234   3.108   2.205   6.240  0.6884 -1.5626  0.5205
 7866SOL    HW235235   3.079   2.115   6.341  1.3275 -0.5603 -1.9922
 7867SOL     OW35236   1.400   2.389   1.791 -0.5352  0.0731 -0.4978
 7867SOL    HW135237   1.424   2.343   1.872 -1.4790 -0.8583 -0.7337
 7867SOL    HW235238   1.314   2.421   1.820  0.2338  2.2165 -0.6606
 7868SOL     OW35239   3.126   2.905   1.047  0.5872 -0.2855  0.0994
 7868SOL    HW135240   3.209   2.915   1.094  1.8583  1.0022 -2.4582
 7868SOL    HW235241   3.095   2.995   1.038  1.2063 -0.1116 -0.2946
 7869SOL     OW35242   2.621   2.025   3.357  0.3203  0.0846 -0.3856
 7869SOL    HW135243   2.630   2.114   3.390 -0.1987  0.0730 -0.2184
 7869SOL    HW235244   2.606   2.042   3.264 -0.9999  1.7704  0.1422
 7870SOL     OW35245   2.595   0.323  13.665  0.4223 -0.1726 -0.0871
 7870SOL    HW135246   2.626   0.290  13.750 -1.9982  0.3323  0.9982
 7870SOL    HW235247   2.504   0.331  13.692  0.2152 -0.7718 -0.6038
 7871SOL     OW35248   2.944   2.692   7.963  0.0611  0.2304  0.2237
 7871SOL    HW135249   2.955   2.622   8.028  1.4908  1.9188  1.7842
 7871SOL    HW235250   2.977   2.658   7.881  1.3907  1.7759  0.1224
 7872SOL     OW35251   3.992   0.343  15.565 -0.3528 -0.2312 -0.5149
 7872SOL    HW135252   4.082   0.311  15.575 -0.7137 -1.8797 -2.4961
 7872SOL    HW235253   4.003   0.429  15.606 -1.1583 -0.2891 -0.1794
 7873SOL     OW35254   3.796   2.411   4.888 -0.3303  0.0058 -0.5601
 7873SOL    HW135255   3.722   2.457   4.926 -0.0205  0.5847 -0.6680
 7873SOL    HW235256   3.815   2.461   4.809  0.1853 -0.3893 -0.6874
 7874SOL     OW35257   2.058   2.572   6.604 -0.1659  0.0116 -0.1127
 7874SOL    HW135258   1.992   2.510   6.573  1.8606 -1.5993 -1.1526
 7874SOL    HW235259   2.048   2.569   6.699 -0.5625  1.1283 -0.1112
 7875SOL     OW35260   4.068   0.703   4.361  0.1930 -0.0609 -0.2011
 7875SOL    HW135261   4.082   0.617   4.324  1.4347 -0.7589  1.8887
 7875SOL    HW235262   4.158   0.736   4.360  1.0615 -2.4620 -0.0632
 7876SOL     OW35263   3.054   4.464   0.971  0.6270 -0.1646  0.3131
 7876SOL    HW135264   3.021   4.481   0.883 -1.8692 -2.3811  0.7795
 7876SOL    HW235265   3.082   4.375   0.950 -0.0518 -0.0877 -0.9419
 7877SOL     OW35266   2.441   3.652  15.281 -0.0685 -0.1105  0.0318
 7877SOL    HW135267   2.466   3.612  15.198  2.1416  0.3336  0.4668
 7877SOL    HW235268   2.396   3.725  15.239  0.3824  0.3769  0.3791
 7878SOL     OW35269   1.508   0.001  16.471  0.0279 -0.2882 -0.2614
 7878SOL    HW135270   1.424   0.018  16.427 -0.2424 -1.2770 -0.1370
 7878SOL    HW235271   1.553   4.708  16.393  0.2820  0.4080 -0.4157
 7879SOL     OW35272   4.438   4.222   8.381  0.3756  0.0371  0.1831
 7879SOL    HW135273   4.448   4.145   8.437 -1.3370  1.6861  2.7413
 7879SOL    HW235274   4.448   4.293   8.444 -1.7064  0.8387 -0.3691
 7880SOL     OW35275   3.965   3.070  11.574 -0.0937  0.3665 -0.0823
 7880SOL    HW135276   3.947   3.053  11.482 -1.1049  2.2057 -0.2156
 7880SOL    HW235277   3.980   3.164  11.578 -1.3148  0.3676  4.0782
 7881SOL     OW35278   0.466   0.250   8.178 -0.5634  0.0800  0.3268
 7881SOL    HW135279   0.386   0.299   8.200 -1.1620 -0.4952 -0.5717
 7881SOL    HW235280   0.524   0.272   8.251 -1.5245 -1.0284  1.4246
 7882SOL     OW35281   4.486   0.176   1.825 -0.2109 -0.2653 -0.3225
 7882SOL    HW135282   4.498   0.270   1.814  2.0936 -0.3746  1.3707
 7882SOL    HW235283   4.464   0.142   1.738  0.2959 -1.9571  0.2117
 7883SOL     OW35284   1.148   4.723  10.452  0.0673  0.4010 -0.2442
 7883SOL    HW135285   1.193   0.001  10.370  0.8461 -1.7181 -0.3029
 7883SOL    HW235286   1.134   0.068  10.491 -0.3694  0.1868  0.0622
 7884SOL     OW35287   3.394   2.632  17.182  0.1668 -0.4540  0.1248
 7884SOL    HW135288   3.340   2.624  17.261  1.8398  0.4555  1.3597
 7884SOL    HW235289   3.333   2.635  17.109  0.3421  0.0990 -0.0000
 7885SOL     OW35290   2.734   1.635   9.082  0.0252  0.1243  0.3160
 7885SOL    HW135291   2.761   1.680   9.162  2.8086  2.4426 -1.9366
 7885SOL    HW235292   2.771   1.683   9.008  1.3779 -0.1947  0.7852
 7886SOL     OW35293   4.653   1.865  12.865  0.3427  0.2738 -0.3774
 7886SOL    HW135294   4.634   1.958  12.870  0.2268  0.1310  1.8557
 7886SOL    HW235295   4.667   1.854  12.771 -0.2872 -1.7596 -0.2464
 7887SOL     OW35296   2.994   2.073   1.358 -0.3912  0.3904 -0.2660
 7887SOL    HW135297   3.034   2.083   1.272  0.3701 -0.1456  0.0291
 7887SOL    HW235298   3.061   2.112   1.414  0.8888 -1.7107 -0.3374
 7888SOL     OW35299   1.402   2.185   4.888 -0.5737  0.1822 -0.5151
 7888SOL    HW135300   1.429   2.131   4.814  2.4512  1.7058 -0.5003
 7888SOL    HW235301   1.434   2.271   4.862  0.7406  0.0460  0.6436
 7889SOL     OW35302   3.737   2.334  17.543  0.0282 -0.1548  0.2226
 7889SOL    HW135303   3.826   2.308  17.567  0.3291  0.3641 -0.3037
 7889SOL    HW235304   3.707   2.273  17.476 -0.3153  0.0127  0.2245
 7890SOL     OW35305   1.759   2.927   7.898  0.0607  0.0405 -0.2630
 7890SOL    HW135306   1.773   2.981   7.820 -0.2655  0.6229  0.0774
 7890SOL    HW235307   1.849   2.900   7.913 -0.1347 -0.6013 -0.2663
 7891SOL     OW35308   2.597   2.502   0.624  0.2309  0.0168  0.2447
 7891SOL    HW135309   2.614   2.559   0.699 -0.1170 -1.3201  1.3239
 7891SOL    HW235310   2.655   2.427   0.638 -1.2261 -1.3934 -1.2039
 7892SOL     OW35311   2.591   1.872  10.882  0.3065  0.2649  0.1274
 7892SOL    HW135312   2.659   1.845  10.821  0.8606 -1.3905  1.4471
 7892SOL    HW235313   2.570   1.786  10.921 -2.7608  0.9087 -0.1093
 7893SOL     OW35314   2.933   4.161   4.950  0.1629  0.2576  0.1499
 7893SOL    HW135315   2.847   4.169   4.910  1.1147 -0.7793 -2.1402
 7893SOL    HW235316   2.989   4.157   4.872  1.4703  0.2386  1.0755
 7894SOL     OW35317   3.564   0.851  12.892  0.3583  0.5912 -0.3411
 7894SOL    HW135318   3.650   0.893  12.887  1.4862 -1.6501  0.3381
 7894SOL    HW235319   3.535   0.872  12.803 -1.2746 -0.2630 -0.0096
 7895SOL     OW35320   1.799   2.328  11.802 -0.6557 -0.0650  0.7911
 7895SOL    HW135321   1.801   2.346  11.897 -1.3024 -0.7905  0.9401
 7895SOL    HW235322   1.856   2.254  11.786  0.9060  1.0057  1.3998
 7896SOL     OW35323   1.950   1.629   4.390  0.3916  0.5953 -0.2889
 7896SOL    HW135324   1.960   1.696   4.321 -0.2056 -0.5489 -1.4892
 7896SOL    HW235325   1.994   1.557   4.345  0.4032  0.1265  0.4879
 7897SOL     OW35326   1.950   1.307   9.557 -0.1130  0.2590  0.2628
 7897SOL    HW135327   2.027   1.307   9.500 -0.3487  1.5354 -0.0573
 7897SOL    HW235328   1.878   1.346   9.509 -0.6711 -3.3575 -1.8424
 7898SOL     OW35329   3.807   3.474  15.988 -0.2868 -0.4686  0.4419
 7898SOL    HW135330   3.788   3.567  15.985 -0.7825 -0.5784  0.2132
 7898SOL    HW235331   3.838   3.462  16.078  2.1866  2.1483 -0.0737
 7899SOL     OW35332   4.608   4.218   2.655  0.0266  0.1111 -0.4531
 7899SOL    HW135333   4.643   4.133   2.629 -0.6208  1.4188 -5.5349
 7899SOL    HW235334   4.524   4.221   2.609 -0.0383 -0.5285 -0.3740
 7900SOL     OW35335   0.984   1.447   6.967  0.0944 -0.0578 -0.0574
 7900SOL    HW135336   0.984   1.421   7.059  2.6682 -2.6408 -0.7871
 7900SOL    HW235337   1.079   1.459   6.967  0.0342  0.4115 -0.2290
 7901SOL     OW35338   0.404   3.034   2.396 -0.0257  0.2723  0.1567
 7901SOL    HW135339   0.327   2.982   2.419  1.8195 -2.7113 -0.4571
 7901SOL    HW235340   0.470   3.012   2.463  2.1889  0.3080 -2.0151
 7902SOL     OW35341   0.096   1.867   6.821  0.0054  0.4401 -0.1949
 7902SOL    HW135342   0.036   1.863   6.895 -0.9705  1.8234 -0.9144
 7902SOL    HW235343   0.168   1.883   6.882  0.5427 -1.9165 -0.2186
 7903SOL     OW35344   3.283   1.384   0.612  0.4277  0.1625 -0.0275
 7903SOL    HW135345   3.273   1.347   0.700  2.2782  0.5771  0.3463
 7903SOL    HW235346   3.364   1.351   0.574  0.3376  1.5579 -1.3981
 7904SOL     OW35347   3.932   1.422   8.862  0.2010 -0.4343 -0.2158
 7904SOL    HW135348   3.893   1.370   8.931  1.3733 -0.5332  0.3797
 7904SOL    HW235349   3.875   1.396   8.790  1.2157  0.2102 -1.2659
 7905SOL     OW35350   0.876   3.652   4.991  0.0470  0.3947 -0.1755
 7905SOL    HW135351   0.848   3.577   5.043 -0.7329  0.0654 -1.0749
 7905SOL    HW235352   0.929   3.620   4.919  0.7518  0.5060  0.2860
 7906SOL     OW35353   4.494   1.608  12.614  0.5292  0.2393 -0.2012
 7906SOL    HW135354   4.440   1.529  12.619  1.0880 -0.1186  0.2479
 7906SOL    HW235355   4.434   1.680  12.599 -0.5724 -0.8604 -1.0936
 7907SOL     OW35356   4.722   3.038   3.817 -0.2450 -0.3929 -0.4985
 7907SOL    HW135357   4.703   2.945   3.834  0.6007 -0.3985  0.4900
 7907SOL    HW235358   0.019   3.038   3.729 -2.8094 -1.1171 -1.5984
 7908SOL     OW35359   3.597   0.621   8.377 -0.0087 -0.1005  0.1211
 7908SOL    HW135360   3.511   0.633   8.338 -0.3299  1.8784  1.4572
 7908SOL    HW235361   3.629   0.536   8.346 -0.5127 -0.2635  0.0606
 7909SOL     OW35362   3.868   2.740  15.994  0.2004 -0.2394 -0.2673
 7909SOL    HW135363   3.889   2.683  15.920 -0.3737  1.6484 -1.8929
 7909SOL    HW235364   3.859   2.820  15.943 -1.6093  0.7694  1.6511
 7910SOL     OW35365   0.018   3.593  10.791  0.0735  0.4231  0.9020
 7910SOL    HW135366   0.026   3.501  10.769 -0.9021  0.3581  0.8356
 7910SOL    HW235367   4.667   3.617  10.777  0.0495 -0.1422  0.1278
 7911SOL     OW35368   1.044   4.360   5.786  0.2992  0.6327 -0.4759
 7911SOL    HW135369   1.027   4.336   5.877 -0.6883 -1.7453 -1.2934
 7911SOL    HW235370   0.958   4.393   5.759  0.4845  0.6325 -1.0641
 7912SOL     OW35371   0.394   1.028   6.657 -0.4525 -0.2723 -0.0168
 7912SOL    HW135372   0.428   1.021   6.746  0.7394 -0.5653 -0.4931
 7912SOL    HW235373   0.477   1.051   6.615 -0.7332  1.8090  0.5577
 7913SOL     OW35374   3.240   0.259   1.935 -0.5318  0.1786 -0.2605
 7913SOL    HW135375   3.244   0.336   1.992 -1.4077 -0.3080  0.4389
 7913SOL    HW235376   3.238   0.314   1.856 -0.4695  0.1002 -0.3156
 7914SOL     OW35377   4.359   0.036   2.980 -0.3179  0.0616 -0.1805
 7914SOL    HW135378   4.366   0.114   2.925  0.1396  1.3958  1.7820
 7914SOL    HW235379   4.434   4.721   2.960 -1.1626 -0.6260 -1.4398
 7915SOL     OW35380   3.909   4.461   5.662  0.0596  0.0009  0.2430
 7915SOL    HW135381   3.966   4.397   5.704 -1.7264 -2.1040 -0.5270
 7915SOL    HW235382   3.912   4.431   5.571 -0.4520  0.2991  0.1260
 7916SOL     OW35383   1.552   0.109  16.936  0.3766 -0.1127 -0.2827
 7916SOL    HW135384   1.619   0.172  16.907  1.6223 -0.3999  1.9878
 7916SOL    HW235385   1.532   0.071  16.851  2.3657 -2.2394  0.1992
 7917SOL     OW35386   0.820   3.205   9.796  0.2196 -0.2476  0.4081
 7917SOL    HW135387   0.779   3.142   9.855 -0.6357  0.1720  0.2745
 7917SOL    HW235388   0.805   3.167   9.709 -0.7586 -1.5470  1.1476
 7918SOL     OW35389   1.528   4.532   2.064 -0.2288  1.3805 -0.0666
 7918SOL    HW135390   1.567   4.613   2.098  1.0601  0.1825  1.3088
 7918SOL    HW235391   1.472   4.568   1.995 -1.6175  2.7451  1.7528
 7919SOL     OW35392   0.011   1.970   2.699 -0.0472  0.0054  0.1672
 7919SOL    HW135393   0.048   1.939   2.617 -0.6696  2.2583 -0.9694
 7919SOL    HW235394   0.011   2.066   2.694  1.7227  0.0298  0.9210
 7920SOL     OW35395   1.973   0.747   8.565  0.0609 -0.0442 -0.2355
 7920SOL    HW135396   2.036   0.692   8.518  0.8299  1.0897 -0.5431
 7920SOL    HW235397   1.906   0.759   8.499 -0.4354 -1.5145 -0.0031
 7921SOL     OW35398   1.440   2.642   5.981 -0.5419  0.2382  0.2679
 7921SOL    HW135399   1.476   2.617   6.066 -0.5057  1.0960  0.5048
 7921SOL    HW235400   1.472   2.569   5.928 -0.6911  0.2782  0.1228
 7922SOL     OW35401   2.277   0.111   3.760 -0.3105 -0.1019 -0.4068
 7922SOL    HW135402   2.231   0.180   3.808 -1.5266 -1.5222  0.4458
 7922SOL    HW235403   2.369   0.137   3.762 -0.2755 -0.3883  1.4720
 7923SOL     OW35404   0.346   4.308   6.592  0.0484 -0.4319  0.2733
 7923SOL    HW135405   0.408   4.358   6.644  2.2342 -1.4495 -1.3157
 7923SOL    HW235406   0.313   4.381   6.540 -0.6172 -1.5396 -0.8665
 7924SOL     OW35407   1.638   2.963  16.721  0.2566  0.5343  0.3185
 7924SOL    HW135408   1.644   2.946  16.814  2.3661 -1.7877 -0.2595
 7924SOL    HW235409   1.728   2.945  16.693 -0.3174 -0.3423 -0.9863
 7925SOL     OW35410   4.035   2.256   5.634  0.0030 -0.6387  0.2004
 7925SOL    HW135411   4.011   2.168   5.664 -2.7766  0.5864  1.5420
 7925SOL    HW235412   4.007   2.256   5.543 -3.8066  1.6623  1.3656
 7926SOL     OW35413   3.475   2.366  15.193  0.1522  0.2456 -0.2660
 7926SOL    HW135414   3.540   2.367  15.122 -0.2560 -0.0439 -0.6479
 7926SOL    HW235415   3.525   2.319  15.259 -0.2946 -0.6117 -0.5369
 7927SOL     OW35416   0.897   1.629   9.135 -0.1459  0.1999 -0.6801
 7927SOL    HW135417   0.919   1.661   9.048  0.4513  0.9663 -0.2540
 7927SOL    HW235418   0.902   1.703   9.196  0.7748 -0.6219  0.2392
 7928SOL     OW35419   4.237   3.652   2.937  0.6267 -0.0724 -0.1550
 7928SOL    HW135420   4.211   3.637   3.028 -0.5491 -0.6517 -0.5877
 7928SOL    HW235421   4.196   3.581   2.889 -1.8452  0.0469  1.7868
 7929SOL     OW35422   3.569   0.623   2.831  0.3612 -0.1945  0.1370
 7929SOL    HW135423   3.553   0.541   2.784  0.5342 -0.0966 -0.0896
 7929SOL    HW235424   3.520   0.687   2.780  0.4848 -0.5068 -0.3791
 7930SOL     OW35425   1.876   0.416  15.410 -0.8175 -0.1749 -0.4264
 7930SOL    HW135426   1.961   0.395  15.450 -1.6335 -1.4307  0.6296
 7930SOL    HW235427   1.866   0.511  15.417 -1.2755 -0.1952 -0.8667
 7931SOL     OW35428   3.698   4.316   3.027  0.5642  0.0128  0.0645
 7931SOL    HW135429   3.705   4.336   3.120 -0.4748 -0.5262  0.2583
 7931SOL    HW235430   3.625   4.373   3.001 -1.3228 -1.5752  1.9064
 7932SOL     OW35431   1.392   1.667   1.309  0.5571  0.0935 -0.2129
 7932SOL    HW135432   1.399   1.755   1.347  4.6188 -0.5861  0.6166
 7932SOL    HW235433   1.403   1.686   1.216  1.3953  0.6381 -0.0001
 7933SOL     OW35434   4.085   4.001   2.903 -0.1329  0.1100 -0.1625
 7933SOL    HW135435   4.110   4.094   2.902  0.4393 -0.0368  0.1807
 7933SOL    HW235436   4.169   3.956   2.892 -0.5388 -0.7583  0.2854
 7934SOL     OW35437   2.332   2.323  14.968  0.2659 -0.3815  0.4568
 7934SOL    HW135438   2.404   2.364  15.015 -0.7350  0.9280  0.8338
 7934SOL    HW235439   2.286   2.277  15.038  0.0132 -0.7630  0.0435
 7935SOL     OW35440   0.843   2.970   3.574 -0.4407  0.1226  0.0307
 7935SOL    HW135441   0.831   3.061   3.604 -1.0300 -0.5590  1.8780
 7935SOL    HW235442   0.870   2.966   3.483  0.8029 -0.2741  0.4114
 7936SOL     OW35443   0.396   4.392   4.018  0.3566  0.2661 -0.1815
 7936SOL    HW135444   0.307   4.363   4.000  1.1876 -0.6438 -2.7507
 7936SOL    HW235445   0.441   4.308   4.010 -0.5955 -0.0120 -2.5965
 7937SOL     OW35446   4.313   3.891   2.800  0.0998 -0.1806  0.1517
 7937SOL    HW135447   4.341   3.867   2.712 -0.6948  0.0184 -0.1499
 7937SOL    HW235448   4.280   3.805   2.826  2.2296 -0.7144  1.1561
 7938SOL     OW35449   3.717   3.954   4.574  0.3348 -0.4790 -0.1874
 7938SOL    HW135450   3.789   3.975   4.633 -0.9124 -0.7339  1.4219
 7938SOL    HW235451   3.722   4.028   4.514 -0.4446 -1.9082 -2.0180
 7939SOL     OW35452   1.626   2.501   3.302  0.4485  0.1350 -0.2163
 7939SOL    HW135453   1.658   2.413   3.324 -1.2855  0.1045  2.2411
 7939SOL    HW235454   1.663   2.548   3.376  1.1283 -1.6915  0.6199
 7940SOL     OW35455   3.825   3.133   7.459 -0.3483 -0.0608  0.6499
 7940SOL    HW135456   3.785   3.068   7.516 -1.6187  1.0017  0.9457
 7940SOL    HW235457   3.781   3.105   7.379  2.2806  0.4945 -1.0052
 7941SOL     OW35458   4.021   0.563   9.604 -0.2830 -0.4653  0.3886
 7941SOL    HW135459   4.033   0.565   9.698 -0.6927  0.2013  0.4271
 7941SOL    HW235460   3.929   0.536   9.604  0.0279 -1.5417 -0.7827
 7942SOL     OW35461   3.818   3.825   6.208 -0.1831 -0.5574 -0.5404
 7942SOL    HW135462   3.852   3.757   6.266  2.5839  0.2999 -1.1752
 7942SOL    HW235463   3.826   3.901   6.265  1.1398 -1.7751  0.8919
 7943SOL     OW35464   4.326   0.253   7.831 -0.0614  0.0177 -0.4594
 7943SOL    HW135465   4.278   0.182   7.788 -1.0365  0.5732 -0.2857
 7943SOL    HW235466   4.392   0.198   7.873 -0.1389  0.1664 -0.1434
 7944SOL     OW35467   0.940   3.141   2.641  0.0397  0.0444  0.0887
 7944SOL    HW135468   0.893   3.222   2.658  0.9380  0.7615 -0.8192
 7944SOL    HW235469   0.901   3.083   2.706  0.1437 -0.6862 -0.4979
 7945SOL     OW35470   1.475   4.415   2.306  0.3740  0.3533 -0.2503
 7945SOL    HW135471   1.502   4.429   2.216  1.8097 -2.5636 -0.2647
 7945SOL    HW235472   1.478   4.503   2.345  0.6725 -0.3620  1.3734
 7946SOL     OW35473   4.028   0.893  11.055  0.3295  0.2702 -0.0077
 7946SOL    HW135474   4.095   0.862  11.116 -0.4891 -1.8566 -0.2019
 7946SOL    HW235475   3.970   0.818  11.042 -1.7495  1.9576 -0.4766
 7947SOL     OW35476   0.883   1.879   2.654  0.0615  0.7494 -0.5482
 7947SOL    HW135477   0.833   1.958   2.636  0.6664  1.5168  1.1367
 7947SOL    HW235478   0.808   1.823   2.678 -0.1159  0.6579 -1.3206
 7948SOL     OW35479   1.151   0.060   3.145  0.1205 -0.0563  0.0153
 7948SOL    HW135480   1.092   0.127   3.110 -0.0990  0.1397  0.7605
 7948SOL    HW235481   1.206   0.111   3.205  0.5624  0.4473 -0.8248
 7949SOL     OW35482   0.372   1.685   7.299 -0.0751  0.2044  0.0687
 7949SOL    HW135483   0.431   1.686   7.374  0.3988 -0.7312 -0.2966
 7949SOL    HW235484   0.424   1.649   7.227  0.2788 -0.8472  0.8533
 7950SOL     OW35485   1.350   0.003  12.836  0.0465 -0.0547  0.1990
 7950SOL    HW135486   1.385   0.037  12.918  0.1655  0.6201 -0.1335
 7950SOL    HW235487   1.418   4.682  12.811  0.3772 -0.1311  1.2841
 7951SOL     OW35488   3.696   2.358  11.685  0.0191  0.4960  0.2665
 7951SOL    HW135489   3.627   2.292  11.691  1.3439 -0.7013  2.4485
 7951SOL    HW235490   3.687   2.388  11.595 -0.3142 -0.9034 -0.1741
 7952SOL     OW35491   1.474   4.644   6.102  0.0137 -0.0911  0.6556
 7952SOL    HW135492   1.522   4.714   6.058  0.6675 -1.5082 -0.8847
 7952SOL    HW235493   1.544   4.584   6.126 -0.9556 -0.7469  1.8763
 7953SOL     OW35494   0.655   4.293   5.841  0.2142 -0.1573 -0.1806
 7953SOL    HW135495   0.699   4.361   5.791  1.7813  0.4415  2.0218
 7953SOL    HW235496   0.719   4.228   5.868  0.7507  0.2885 -0.3677
 7954SOL     OW35497   2.405   2.019  14.821  0.8267  0.1730 -0.4024
 7954SOL    HW135498   2.340   2.029  14.751  0.4501 -0.9241 -0.2099
 7954SOL    HW235499   2.459   2.098  14.830 -0.1998  0.7380  0.7195
 7955SOL     OW35500   4.031   1.247   8.205  0.2527  1.1646  0.5995
 7955SOL    HW135501   4.020   1.326   8.259 -1.4003  1.7252 -0.5534
 7955SOL    HW235502   3.940   1.217   8.208  0.1403  1.4567 -0.0320
 7956SOL     OW35503   3.013   3.999   3.603  0.2615  0.1392  0.6052
 7956SOL    HW135504   3.073   3.987   3.676 -0.3548 -3.2260  0.5438
 7956SOL    HW235505   2.998   4.093   3.615  1.2745  0.3416  0.3102
 7957SOL     OW35506   3.067   2.339  13.772  0.2296  0.2614 -0.1657
 7957SOL    HW135507   3.138   2.328  13.836 -2.2335  1.2012  2.7025
 7957SOL    HW235508   3.099   2.402  13.707  3.1760  0.8071  1.8209
 7958SOL     OW35509   0.217   2.460   7.616  0.1031  0.4173  0.0609
 7958SOL    HW135510   0.205   2.516   7.539 -1.2992 -1.3128 -0.9925
 7958SOL    HW235511   0.312   2.461   7.614  0.0976 -2.0246 -1.7602
 7959SOL     OW35512   1.178   2.588   4.305  0.4404 -0.8899 -0.1848
 7959SOL    HW135513   1.168   2.493   4.299  2.8917 -1.2297  0.9036
 7959SOL    HW235514   1.228   2.599   4.224  0.5125 -1.9742 -0.2966
 7960SOL     OW35515   4.665   4.386  11.669 -0.1195  0.9073 -0.5628
 7960SOL    HW135516   4.606   4.310  11.664 -0.1420  0.7660  1.7883
 7960SOL    HW235517   4.612   4.447  11.721  0.7435 -0.4204  1.9142
 7961SOL     OW35518   3.786   2.460   8.213  0.2131 -0.0641 -0.0382
 7961SOL    HW135519   3.701   2.480   8.174 -0.3806 -0.7970  0.8798
 7961SOL    HW235520   3.816   2.398   8.147  2.0366  0.4776  0.2796
 7962SOL     OW35521   3.607   3.383   6.889 -0.3040  0.5990 -0.6177
 7962SOL    HW135522   3.533   3.344   6.842  1.0685 -1.4365 -1.0980
 7962SOL    HW235523   3.687   3.370   6.838  0.1373  1.7265 -0.2112
 7963SOL     OW35524   3.347   3.561   0.775 -0.4453  0.2547 -0.3049
 7963SOL    HW135525   3.431   3.605   0.793 -1.1068  1.5050 -0.2434
 7963SOL    HW235526   3.288   3.636   0.777 -1.7989 -0.7862 -1.2635
 7964SOL     OW35527   0.902   2.421  13.752  0.4899  0.0367 -0.0836
 7964SOL    HW135528   0.973   2.378  13.705 -0.9579 -1.3346 -1.0461
 7964SOL    HW235529   0.857   2.344  13.788 -0.2058  0.2528 -0.4798
 7965SOL     OW35530   0.758   4.561   1.796  0.7701  0.5897  0.8678
 7965SOL    HW135531   0.761   4.477   1.841 -0.2191 -0.1693 -0.5022
 7965SOL    HW235532   0.770   4.529   1.707 -0.2058  0.4671  0.7849
 7966SOL     OW35533   0.823   1.415   9.317  0.2460  0.2165  0.4544
 7966SOL    HW135534   0.811   1.434   9.410 -0.0079 -0.6905  0.6027
 7966SOL    HW235535   0.844   1.500   9.278 -1.6401  0.4077 -0.1238
 7967SOL     OW35536   1.690   1.523   4.418  0.7193  0.1638  0.1386
 7967SOL    HW135537   1.741   1.443   4.433  2.1794  1.2603  0.9759
 7967SOL    HW235538   1.766   1.581   4.427  0.1818  0.9951 -0.6559
 7968SOL     OW35539   0.302   3.813   4.600  0.3677  0.5611 -0.3516
 7968SOL    HW135540   0.388   3.849   4.580  0.1353  1.1954 -0.2344
 7968SOL    HW235541   0.277   3.760   4.524  0.4094  1.2168 -0.8281
 7969SOL     OW35542   0.290   4.507   3.416 -0.0161 -0.0246  0.1529
 7969SOL    HW135543   0.200   4.528   3.441  0.1899 -0.3314  1.1926
 7969SOL    HW235544   0.326   4.501   3.505  1.2199 -0.1665 -0.3653
 7970SOL     OW35545   2.742   1.712   0.865  0.2051 -0.5041  0.3742
 7970SOL    HW135546   2.783   1.711   0.952  1.2341 -1.8404 -0.1053
 7970SOL    HW235547   2.650   1.705   0.890  0.2912  0.4785  0.9392
 7971SOL     OW35548   1.314   2.345   1.116 -0.4393 -0.3924  0.4405
 7971SOL    HW135549   1.321   2.254   1.144 -1.6190 -1.1978 -1.8501
 7971SOL    HW235550   1.289   2.333   1.024 -1.0114 -0.4433  0.5992
 7972SOL     OW35551   3.258   2.236   1.323 -0.7273 -0.6009  0.0556
 7972SOL    HW135552   3.259   2.270   1.412  0.0491 -1.9021  0.5463
 7972SOL    HW235553   3.263   2.323   1.283 -2.6452  0.3419  1.8178
 7973SOL     OW35554   3.289   2.648  16.600  0.2814  0.9296 -0.0879
 7973SOL    HW135555   3.238   2.596  16.538 -0.1676  0.4048  0.7236
 7973SOL    HW235556   3.225   2.718  16.612 -1.0050  0.0333 -1.7145
 7974SOL     OW35557   3.639   2.914   3.588 -0.2245  0.0748  0.0956
 7974SOL    HW135558   3.551   2.950   3.582  0.6741  2.3268  0.4877
 7974SOL    HW235559   3.639   2.863   3.507  3.9093 -0.4847  0.4391
 7975SOL     OW35560   3.887   3.975  11.063 -0.2882 -0.0129 -0.4323
 7975SOL    HW135561   3.837   3.944  11.140 -0.4240 -2.0644 -1.3411
 7975SOL    HW235562   3.884   3.896  11.009 -1.1717  1.6898 -2.8218
 7976SOL     OW35563   2.928   3.476   7.982 -1.0776 -0.0705  0.1562
 7976SOL    HW135564   2.972   3.505   7.903 -1.6530 -2.0129 -0.8920
 7976SOL    HW235565   2.908   3.384   7.960  0.2635 -0.0999 -0.9494
 7977SOL     OW35566   4.548   4.000  11.141  0.1888  0.5326 -0.6391
 7977SOL    HW135567   4.457   3.972  11.150  0.0362  0.9621 -0.8619
 7977SOL    HW235568   4.573   3.953  11.062 -1.5025 -0.3978 -0.5969
 7978SOL     OW35569   1.844   3.548   7.300  0.1497 -0.0869  0.1224
 7978SOL    HW135570   1.819   3.477   7.360  1.0843  3.0927  4.3217
 7978SOL    HW235571   1.939   3.555   7.302  0.0582  0.8036  1.3316
 7979SOL     OW35572   2.985   0.268   4.780 -0.7221  0.3057 -0.6788
 7979SOL    HW135573   2.938   0.315   4.849  1.7248  2.2168 -0.3458
 7979SOL    HW235574   3.014   0.345   4.732  1.7004 -0.2296 -0.0632
 7980SOL     OW35575   1.154   0.350   7.783 -0.3153 -0.0522  0.5242
 7980SOL    HW135576   1.222   0.357   7.849  0.2299 -3.1942  0.2834
 7980SOL    HW235577   1.088   0.386   7.842 -1.1198  1.5639 -1.3658
 7981SOL     OW35578   4.276   3.884   5.125 -0.0149 -0.4328 -0.3640
 7981SOL    HW135579   4.195   3.893   5.175  0.5312  1.2204  0.2272
 7981SOL    HW235580   4.335   3.829   5.177 -2.0400 -3.1326 -0.9163
 7982SOL     OW35581   2.903   3.841   9.649  0.2422  0.3497 -0.1420
 7982SOL    HW135582   2.934   3.762   9.694  0.4517  0.0235 -0.8588
 7982SOL    HW235583   2.812   3.817   9.630  0.0893  1.3192 -0.6377
 7983SOL     OW35584   2.477   0.952  16.493 -0.0110  0.3134  0.0717
 7983SOL    HW135585   2.422   0.906  16.556 -0.9059  1.9451  0.4597
 7983SOL    HW235586   2.423   0.953  16.414  1.3721 -1.0769 -0.8896
 7984SOL     OW35587   0.345   2.640   9.097 -0.0790  0.8280  0.5494
 7984SOL    HW135588   0.257   2.619   9.066  0.7543 -1.9064 -0.0040
 7984SOL    HW235589   0.330   2.725   9.138 -2.8590  0.9250 -0.6897
 7985SOL     OW35590   3.780   1.483   1.977  0.0290  0.3488 -0.1637
 7985SOL    HW135591   3.842   1.533   1.925  0.3522  0.6231  0.4774
 7985SOL    HW235592   3.747   1.413   1.921 -2.3020  0.4304  1.0686
 7986SOL     OW35593   2.673   2.643   5.541  0.2480 -0.1682  0.5541
 7986SOL    HW135594   2.688   2.549   5.547 -1.9173 -0.7217 -2.9502
 7986SOL    HW235595   2.720   2.670   5.463 -1.3312  0.5149 -0.1660
 7987SOL     OW35596   0.438   2.837   5.943  0.0435  1.0404 -0.0293
 7987SOL    HW135597   0.374   2.838   5.872 -1.3282 -1.4753  1.1873
 7987SOL    HW235598   0.512   2.893   5.918 -1.0683  1.1335 -3.1701
 7988SOL     OW35599   0.750   1.007  13.555 -0.0724  0.0158  0.7806
 7988SOL    HW135600   0.744   0.966  13.641  0.2746 -0.3832  0.6089
 7988SOL    HW235601   0.759   0.929  13.501  0.7669  2.5126 -2.6343
 7989SOL     OW35602   2.406   1.727   3.165  0.1843  0.2468  0.6433
 7989SOL    HW135603   2.352   1.803   3.187 -1.3678 -1.1090  1.4497
 7989SOL    HW235604   2.415   1.681   3.249 -1.7258 -1.2115  0.0468
 7990SOL     OW35605   0.525   2.896  15.037  0.5506  0.1687  0.5604
 7990SOL    HW135606   0.591   2.966  15.038 -0.1525  0.8381 -0.3311
 7990SOL    HW235607   0.551   2.834  14.969 -0.8871 -0.2851  0.4406
 7991SOL     OW35608   2.747   0.535  17.378 -0.3132  0.0445  0.1900
 7991SOL    HW135609   2.795   0.551  17.296 -3.6782 -0.4820 -1.9015
 7991SOL    HW235610   2.667   0.578  17.350  0.1463  0.4218 -0.5472
 7992SOL     OW35611   2.069   3.598   3.365 -0.0016 -0.1415 -0.4317
 7992SOL    HW135612   2.009   3.525   3.383  2.1840 -1.8778 -0.2326
 7992SOL    HW235613   2.095   3.597   3.273  1.0797 -3.2973 -0.1049
 7993SOL     OW35614   0.175   1.294   0.784 -0.5157  0.7461 -0.2729
 7993SOL    HW135615   0.178   1.228   0.852  1.2443 -0.6480 -1.6975
 7993SOL    HW235616   0.244   1.258   0.728  1.5788 -0.0617  2.8534
 7994SOL     OW35617   2.927   0.384  17.485 -0.6903  0.4854 -0.4745
 7994SOL    HW135618   3.008   0.434  17.490 -0.2396 -0.3970  1.1958
 7994SOL    HW235619   2.871   0.449  17.442  2.0394  1.2493 -2.8097
 7995SOL     OW35620   1.245   0.828   5.699 -0.1391 -0.3890 -0.1125
 7995SOL    HW135621   1.230   0.742   5.660  0.0857  0.1527 -1.3841
 7995SOL    HW235622   1.297   0.881   5.639  0.2778 -2.4229 -1.5485
 7996SOL     OW35623   0.563   1.091  10.955 -0.5860  0.9825  0.1487
 7996SOL    HW135624   0.498   1.065  10.889  0.1175 -0.1470 -0.0978
 7996SOL    HW235625   0.620   1.017  10.973 -0.5060  1.1473  0.5711
 7997SOL     OW35626   1.284   2.120  17.742  0.2713 -0.0371 -0.2731
 7997SOL    HW135627   1.276   2.079  17.656  1.8132 -0.3283 -0.2745
 7997SOL    HW235628   1.222   2.072   0.036  0.2346 -0.0011 -0.2822
 7998SOL     OW35629   2.183   2.435   7.231  0.4735 -0.1505 -0.0203
 7998SOL    HW135630   2.212   2.416   7.319  2.5827  0.3655 -0.6125
 7998SOL    HW235631   2.087   2.428   7.240  0.4225  1.5953  0.7383
 7999SOL     OW35632   2.693   4.234   2.398  0.5597 -0.2630  0.6607
 7999SOL    HW135633   2.739   4.155   2.425 -0.4145 -1.4544 -1.2298
 7999SOL    HW235634   2.656   4.217   2.312 -0.9286 -1.9536  1.6195
 8000SOL     OW35635   2.760   2.565   9.178 -0.0633 -0.5095 -0.2292
 8000SOL    HW135636   2.781   2.602   9.093  0.3438  0.1252  0.1480
 8000SOL    HW235637   2.845   2.543   9.218 -0.2605 -1.1829 -0.1725
 8001SOL     OW35638   0.681   3.159  13.162 -0.0079  0.2106  0.2232
 8001SOL    HW135639   0.759   3.120  13.200 -0.5761 -0.3812  0.7837
 8001SOL    HW235640   0.713   3.184  13.075 -0.1761 -1.2490 -0.2557
 8002SOL     OW35641   3.223   0.654   5.526 -0.0079  0.1937 -0.1747
 8002SOL    HW135642   3.132   0.623   5.525 -0.0314  0.2839 -1.0201
 8002SOL    HW235643   3.228   0.700   5.610 -0.0513  2.3391 -1.3524
 8003SOL     OW35644   3.143   0.583   3.706 -0.6265  0.4347  0.2914
 8003SOL    HW135645   3.129   0.585   3.800 -1.5185 -1.0940  0.1915
 8003SOL    HW235646   3.236   0.572   3.688 -0.7792  2.2302 -1.6056
 8004SOL     OW35647   2.334   3.619  13.510 -0.3295 -0.2165 -0.1863
 8004SOL    HW135648   2.369   3.638  13.423 -0.5979 -1.2880 -0.5248
 8004SOL    HW235649   2.312   3.708  13.539  2.6330  0.4012  0.1275
 8005SOL     OW35650   0.331   2.400   8.388  0.2946 -0.1597 -0.0175
 8005SOL    HW135651   0.338   2.481   8.440  2.2849  0.2698 -0.9612
 8005SOL    HW235652   0.283   2.344   8.449  1.9352 -0.8764  0.6300
 8006SOL     OW35653   0.094   3.013   6.795  0.3137 -0.0488  0.1461
 8006SOL    HW135654   0.080   2.983   6.705  1.4249  0.2997 -0.1452
 8006SOL    HW235655   0.096   3.108   6.782 -0.5773 -0.1169 -0.4717
 8007SOL     OW35656   1.073   1.230   5.180 -0.3254 -0.3264 -0.3259
 8007SOL    HW135657   0.985   1.199   5.157  0.5508 -2.5793 -0.6767
 8007SOL    HW235658   1.101   1.277   5.103 -1.1386 -1.8085 -1.5306
 8008SOL     OW35659   0.427   0.628  11.736  0.2048 -0.0718  0.6178
 8008SOL    HW135660   0.419   0.534  11.720 -1.8723  0.1062  0.5487
 8008SOL    HW235661   0.449   0.613  11.828 -0.7574  1.2554  1.0716
 8009SOL     OW35662   1.271   0.437   3.509 -0.0285 -0.2238  0.6827
 8009SOL    HW135663   1.363   0.413   3.524  0.0376 -0.3396  0.0867
 8009SOL    HW235664   1.274   0.454   3.415 -2.4443 -1.2034  0.4263
 8010SOL     OW35665   3.393   2.598   2.884 -1.2396 -0.0196 -0.0129
 8010SOL    HW135666   3.389   2.560   2.796 -1.9873 -0.7061  0.3141
 8010SOL    HW235667   3.392   2.693   2.871  1.5862  0.0064  0.1532
 8011SOL     OW35668   2.716   3.462   3.126 -0.4795  0.1083 -0.5415
 8011SOL    HW135669   2.812   3.466   3.133 -0.4453 -0.5194 -0.7180
 8011SOL    HW235670   2.692   3.555   3.124 -0.0686  0.2279  0.0654
 8012SOL     OW35671   4.473   4.397   8.090 -0.4255 -0.1121 -0.5240
 8012SOL    HW135672   4.497   4.436   8.006  0.4365  0.9192  0.2021
 8012SOL    HW235673   4.383   4.374   8.070 -1.2257  0.5113  2.3134
 8013SOL     OW35674   1.592   3.025   2.693  0.5158  0.1883 -0.0789
 8013SOL    HW135675   1.676   3.070   2.683  0.8212 -0.6904 -1.3567
 8013SOL    HW235676   1.622   2.973   2.768  2.1842  0.5184 -0.5090
 8014SOL     OW35677   0.788   3.331   4.778 -0.5809 -0.5086 -0.3419
 8014SOL    HW135678   0.797   3.239   4.752 -2.1748 -0.6928 -0.2398
 8014SOL    HW235679   0.784   3.324   4.874  0.0477  1.6985 -0.1681
 8015SOL     OW35680   3.282   3.136   2.568  0.0652  0.0086  0.3069
 8015SOL    HW135681   3.305   3.103   2.655 -1.3798 -2.9048 -0.4139
 8015SOL    HW235682   3.186   3.142   2.571  0.0247 -0.2957 -0.5368
 8016SOL     OW35683   3.906   0.113  11.429 -0.3579 -0.0369 -0.5775
 8016SOL    HW135684   3.892   0.206  11.444  2.8965 -0.0117  2.3063
 8016SOL    HW235685   3.916   0.093  11.522 -3.6282 -0.1869 -0.2619
 8017SOL     OW35686   0.769   3.784   2.413 -0.2497 -0.3670 -0.1411
 8017SOL    HW135687   0.712   3.860   2.423 -1.3167 -1.1643 -0.2162
 8017SOL    HW235688   0.859   3.813   2.399 -0.8600  2.2797  1.4496
 8018SOL     OW35689   2.106   1.024   3.925 -0.5122  0.4544 -0.7505
 8018SOL    HW135690   2.039   0.988   3.866 -1.1359 -2.5764  1.8094
 8018SOL    HW235691   2.057   1.096   3.965 -1.3897 -0.3763 -0.3212
 8019SOL     OW35692   2.751   4.007   9.981 -0.2753  0.3090  0.1018
 8019SOL    HW135693   2.686   4.061   9.936 -1.3226 -0.7588  0.3526
 8019SOL    HW235694   2.824   4.016   9.919  1.1829  0.3065  1.7946
 8020SOL     OW35695   3.629   3.605   5.627 -0.0555  0.5676  0.0113
 8020SOL    HW135696   3.629   3.544   5.553 -0.5174 -2.7443  2.7346
 8020SOL    HW235697   3.548   3.654   5.609 -1.9103 -1.5168  2.6233
 8021SOL     OW35698   2.729   1.113   8.060 -0.4858 -0.7090 -0.4543
 8021SOL    HW135699   2.696   1.024   8.044  1.8658 -2.0310  1.9785
 8021SOL    HW235700   2.644   1.157   8.063  0.4161  0.9636  0.1333
 8022SOL     OW35701   2.790   3.267   4.528  0.2051 -0.2047 -0.3644
 8022SOL    HW135702   2.865   3.209   4.514  0.8399  0.7219 -0.7590
 8022SOL    HW235703   2.722   3.233   4.469  1.2114  1.4973 -2.4783
 8023SOL     OW35704   4.378   0.703   2.772  0.1592 -0.1625 -0.5183
 8023SOL    HW135705   4.316   0.652   2.720  1.5109  0.7477 -3.0173
 8023SOL    HW235706   4.316   0.748   2.830  1.7754  2.1172 -0.5718
 8024SOL     OW35707   4.676   3.709   1.119  0.0937 -0.0609  0.0357
 8024SOL    HW135708   4.611   3.657   1.167  2.0338 -1.4886  1.1150
 8024SOL    HW235709   4.683   3.654   1.041 -1.5308 -1.4209  0.8320
 8025SOL     OW35710   1.072   3.025  16.564  0.1733  0.4121  0.3589
 8025SOL    HW135711   1.141   3.017  16.630 -1.3841 -3.1734  1.5220
 8025SOL    HW235712   1.116   2.995  16.484 -2.9586  0.6555 -1.4356
 8026SOL     OW35713   0.618   1.767   9.344  0.8393 -0.1981  0.2833
 8026SOL    HW135714   0.681   1.723   9.401 -0.4817 -1.3619  0.8309
 8026SOL    HW235715   0.605   1.848   9.393 -0.6486 -0.1461 -0.2136
 8027SOL     OW35716   3.966   2.842  14.097 -0.4557 -0.3197  0.3784
 8027SOL    HW135717   4.037   2.904  14.081  0.8466 -1.3756  2.0207
 8027SOL    HW235718   4.008   2.756  14.095 -0.3791 -0.2967  0.8977
 8028SOL     OW35719   4.722   0.107  10.962  0.2974 -0.3049  0.0182
 8028SOL    HW135720   0.065   0.078  10.996  0.8571  0.0057 -1.0876
 8028SOL    HW235721   4.701   0.036  10.901 -2.3991  0.3644  0.1829
 8029SOL     OW35722   2.550   3.609   6.431  0.8004  0.1999 -0.0612
 8029SOL    HW135723   2.489   3.578   6.498 -0.7863 -0.4515 -1.7925
 8029SOL    HW235724   2.621   3.549   6.451  0.8634  0.4241  0.3846
 8030SOL     OW35725   4.247   1.540   3.877  0.8942 -0.2598 -0.2488
 8030SOL    HW135726   4.262   1.632   3.898  2.4726 -0.6459  0.2809
 8030SOL    HW235727   4.210   1.554   3.790  0.7149  0.7970 -0.0079
 8031SOL     OW35728   2.953   0.293   9.580  0.0622 -0.3498 -0.1848
 8031SOL    HW135729   2.962   0.372   9.633  0.6374 -0.3198 -0.3238
 8031SOL    HW235730   2.927   0.345   9.504 -0.2732  1.0941  0.8924
 8032SOL     OW35731   4.384   3.505   9.799  0.6360 -0.2967  0.1246
 8032SOL    HW135732   4.335   3.587   9.790  1.4835  0.3930  1.7676
 8032SOL    HW235733   4.448   3.512   9.729 -2.0065 -1.6138 -2.4288
 8033SOL     OW35734   3.562   1.301   2.839  0.6210 -0.2129 -0.0378
 8033SOL    HW135735   3.552   1.307   2.934  1.3266  1.9040 -0.1075
 8033SOL    HW235736   3.489   1.350   2.803  0.6748  0.8010  1.2460
 8034SOL     OW35737   1.504   3.364   5.259  0.0169 -0.2336  0.2082
 8034SOL    HW135738   1.599   3.362   5.262  0.0178  1.6687  2.1213
 8034SOL    HW235739   1.475   3.283   5.301  2.7671 -1.2134  0.1763
 8035SOL     OW35740   1.443   1.309   1.463  0.6217 -0.1649  0.2537
 8035SOL    HW135741   1.431   1.214   1.474  0.0492 -0.4109 -2.5744
 8035SOL    HW235742   1.474   1.295   1.374  0.1148 -2.5696  0.4375
 8036SOL     OW35743   4.073   4.491  15.102  0.4296  0.3224  0.2799
 8036SOL    HW135744   4.096   4.443  15.022 -0.4651 -0.8937  0.7454
 8036SOL    HW235745   4.096   4.434  15.175 -3.0571 -0.2033  0.9848
 8037SOL     OW35746   0.875   2.808  13.465 -0.4220  0.3854  0.0464
 8037SOL    HW135747   0.924   2.794  13.546 -4.1991  1.3545  2.4693
 8037SOL    HW235748   0.857   2.714  13.452 -1.4770  0.7491 -1.1241
 8038SOL     OW35749   2.556   2.340   3.612  0.2038  0.4705 -0.2616
 8038SOL    HW135750   2.508   2.414   3.573  1.7062  1.2960 -0.5557
 8038SOL    HW235751   2.484   2.280   3.629 -0.2019  0.2275 -2.8386
 8039SOL     OW35752   1.615   2.574   3.028  0.1556  0.0086  0.6081
 8039SOL    HW135753   1.695   2.617   2.996 -0.8977  2.2161  0.9821
 8039SOL    HW235754   1.650   2.551   3.114  0.0120 -0.6276  0.4972
 8040SOL     OW35755   4.135   2.063   7.573 -0.1619  0.1606  0.5178
 8040SOL    HW135756   4.170   2.039   7.659  0.1707  1.1143  0.6466
 8040SOL    HW235757   4.138   1.982   7.521  1.0083 -0.0967  0.9901
 8041SOL     OW35758   1.424   4.716   7.751 -0.0400 -0.4500 -0.2650
 8041SOL    HW135759   1.401   4.623   7.761 -0.3235 -0.3803 -0.2664
 8041SOL    HW235760   1.355   4.733   7.687 -0.8590  1.6335  1.1951
 8042SOL     OW35761   1.771   3.128   3.369  0.1490 -0.2107  0.2060
 8042SOL    HW135762   1.753   3.051   3.316  0.7191  0.8691 -1.5757
 8042SOL    HW235763   1.765   3.094   3.457 -2.6286 -0.6568 -0.1756
 8043SOL     OW35764   0.222   0.688   9.674 -0.3771 -0.2573 -0.2900
 8043SOL    HW135765   0.211   0.699   9.580  0.9980  0.8788 -0.3266
 8043SOL    HW235766   0.270   0.605   9.678  2.0315  0.9743 -3.9876
 8044SOL     OW35767   1.710   3.565  14.626 -0.4462 -0.1105  0.4926
 8044SOL    HW135768   1.756   3.579  14.709  2.9016 -0.6265 -1.2560
 8044SOL    HW235769   1.617   3.552  14.647 -0.3963 -0.2645  0.6191
 8045SOL     OW35770   0.681   3.654  11.498 -0.1569 -0.4672  0.3212
 8045SOL    HW135771   0.619   3.678  11.429 -0.4929  0.3780  0.9102
 8045SOL    HW235772   0.658   3.565  11.525  0.5586 -0.2374  1.6773
 8046SOL     OW35773   3.551   0.135   3.867  0.0810 -0.5799  0.2554
 8046SOL    HW135774   3.550   0.134   3.771  1.1807 -0.2369  0.2390
 8046SOL    HW235775   3.604   0.205   3.905  0.3468  0.2265 -1.6263
 8047SOL     OW35776   3.799   0.222   3.695  0.3702  0.3178  0.2567
 8047SOL    HW135777   3.769   0.264   3.614 -0.6866  0.0460  0.5149
 8047SOL    HW235778   3.820   0.297   3.750 -0.9711  0.6375  0.3231
 8048SOL     OW35779   0.792   1.509   5.374  0.6892 -0.8414  0.4029
 8048SOL    HW135780   0.707   1.515   5.416 -0.1275  0.8641 -1.4965
 8048SOL    HW235781   0.776   1.443   5.308 -0.5791  0.3705 -0.4981
 8049SOL     OW35782   1.855   2.766  14.539  0.0998 -0.5659 -0.1744
 8049SOL    HW135783   1.916   2.761  14.612  0.0887 -3.3488 -0.3532
 8049SOL    HW235784   1.918   2.787  14.470 -1.6817 -1.2059 -1.9992
 8050SOL     OW35785   1.314   4.644   4.409  0.1597  0.3385 -0.6342
 8050SOL    HW135786   1.280   4.555   4.399 -0.6996  0.2246  3.4848
 8050SOL    HW235787   1.327   4.673   4.319 -0.0389  1.2723 -0.3570
 8051SOL     OW35788   0.907   3.663  15.229 -0.0006 -0.1884  0.0879
 8051SOL    HW135789   0.887   3.634  15.140 -0.0036 -1.3040  0.4508
 8051SOL    HW235790   0.878   3.754  15.227  1.2036  0.1639 -2.3911
 8052SOL     OW35791   0.483   0.054   8.843  0.5336  0.1510  0.5253
 8052SOL    HW135792   0.508   0.021   8.929  0.2125  0.6798  0.8227
 8052SOL    HW235793   0.392   0.028   8.825  0.2788  1.7066 -0.4767
 8053SOL     OW35794   4.268   0.549   1.892  0.5626 -0.1306  0.0864
 8053SOL    HW135795   4.274   0.502   1.809  1.4680  1.5024 -0.7792
 8053SOL    HW235796   4.174   0.563   1.886  0.5125  0.5744  2.4821
 8054SOL     OW35797   4.380   4.332   6.050  0.1141 -0.3813 -0.6807
 8054SOL    HW135798   4.343   4.264   5.992  0.1018 -2.5441  1.8593
 8054SOL    HW235799   4.371   4.408   5.993  3.0484 -0.6474 -1.5069
 8055SOL     OW35800   3.457   3.321  14.050 -0.3634  0.0762  0.4997
 8055SOL    HW135801   3.399   3.334  13.975 -0.4402  1.3693  0.7920
 8055SOL    HW235802   3.465   3.411  14.081  1.9426  0.5302 -1.3521
 8056SOL     OW35803   2.948   3.391   8.666 -0.2724  0.2858 -0.0349
 8056SOL    HW135804   2.999   3.470   8.686 -0.2170 -0.7234  3.9679
 8056SOL    HW235805   2.931   3.361   8.756  1.0712 -0.1800  0.0631
 8057SOL     OW35806   3.131   1.334   9.089  0.1978 -0.2218 -0.5856
 8057SOL    HW135807   3.060   1.384   9.048  1.1784  1.6415 -0.0007
 8057SOL    HW235808   3.203   1.397   9.096  0.3599 -0.4268 -0.4041
 8058SOL     OW35809   3.874   0.102  11.692  0.0310  0.2175 -0.2527
 8058SOL    HW135810   3.786   0.141  11.692 -0.3565 -0.6591 -2.5453
 8058SOL    HW235811   3.920   0.186  11.703  1.7507 -0.6826 -0.6237
 8059SOL     OW35812   2.385   2.325  17.161  0.1027  0.3560  0.1880
 8059SOL    HW135813   2.398   2.418  17.143 -0.8989  0.5162  0.3043
 8059SOL    HW235814   2.309   2.333  17.218  0.9342 -2.1523  1.6794
 8060SOL     OW35815   3.416   2.359  17.324 -0.7271  1.0083  0.4798
 8060SOL    HW135816   3.439   2.317  17.407 -0.7592  1.6257  0.8045
 8060SOL    HW235817   3.482   2.339  17.258 -0.1572 -1.6931  1.9137
 8061SOL     OW35818   1.949   0.317   9.251  0.3043  0.3722 -0.4337
 8061SOL    HW135819   2.040   0.346   9.251 -0.2695  2.0503  2.3798
 8061SOL    HW235820   1.916   0.373   9.181  0.0517  0.5340 -0.1840
 8062SOL     OW35821   0.836   3.610  14.961 -0.0043 -0.1224 -0.3152
 8062SOL    HW135822   0.765   3.625  14.899  0.3003  2.3810 -0.0638
 8062SOL    HW235823   0.869   3.527  14.924 -1.5870 -0.3239 -1.2713
 8063SOL     OW35824   1.070   2.130   5.794  0.0887 -0.3859 -0.4239
 8063SOL    HW135825   0.997   2.094   5.744 -0.3789  0.0100 -0.0320
 8063SOL    HW235826   1.056   2.220   5.765 -0.7384  0.1117  1.5434
 8064SOL     OW35827   0.964   0.438   8.801  0.0977  0.2032  0.3270
 8064SOL    HW135828   0.960   0.343   8.800  1.7446  0.1525 -1.3079
 8064SOL    HW235829   0.872   0.462   8.815 -0.3055  0.0681 -2.1482
 8065SOL     OW35830   3.042   0.760   9.615  0.2264 -0.2352 -0.5408
 8065SOL    HW135831   2.984   0.799   9.549 -1.3545 -1.3536  0.1850
 8065SOL    HW235832   3.067   0.840   9.661 -0.1576  0.0668 -0.8483
 8066SOL     OW35833   4.654   4.214   8.202 -0.0342  0.9416  0.9109
 8066SOL    HW135834   4.573   4.220   8.252 -0.4462 -2.7133  0.6375
 8066SOL    HW235835   4.621   4.255   8.122 -0.9942 -0.6914  0.4765
 8067SOL     OW35836   2.413   1.427   7.189 -0.1151 -0.5670 -0.0531
 8067SOL    HW135837   2.436   1.376   7.111 -0.2471 -0.1386 -0.3684
 8067SOL    HW235838   2.327   1.462   7.166  0.4801  1.9596  1.6148
 8068SOL     OW35839   3.115   0.163   2.424  0.4306  0.3964 -0.0069
 8068SOL    HW135840   3.200   0.171   2.380 -0.1939 -1.7699 -1.5765
 8068SOL    HW235841   3.087   0.084   2.379 -0.6502  1.5174 -1.2672
 8069SOL     OW35842   4.035   3.851   3.608 -0.3604  0.3003 -0.0764
 8069SOL    HW135843   4.100   3.819   3.546 -0.9512 -0.1406 -0.4781
 8069SOL    HW235844   4.054   3.945   3.606 -2.1282  0.6504 -0.6400
 8070SOL     OW35845   4.473   2.813   7.284 -0.7312  0.3632 -0.0860
 8070SOL    HW135846   4.520   2.835   7.365  0.9013 -1.6774 -0.4932
 8070SOL    HW235847   4.476   2.718   7.285  1.7503  0.4005 -2.1891
 8071SOL     OW35848   1.244   1.956  17.498  0.0506  0.3728  0.1731
 8071SOL    HW135849   1.219   1.888  17.561 -1.9088  1.2256  0.3180
 8071SOL    HW235850   1.165   1.961  17.445 -0.3988  0.4720  0.8412
 8072SOL     OW35851   4.218   4.489   3.941  0.1503 -0.4835  0.7031
 8072SOL    HW135852   4.187   4.579   3.949 -0.2550 -0.4716 -0.9763
 8072SOL    HW235853   4.310   4.495   3.916 -0.6133 -0.8807 -2.2018
 8073SOL     OW35854   1.515   3.591  17.191 -0.4270 -0.0482  0.0624
 8073SOL    HW135855   1.575   3.536  17.140 -0.8805 -1.8790  1.4998
 8073SOL    HW235856   1.549   3.675  17.224 -0.4050  0.6874 -1.8344
 8074SOL     OW35857   4.593   0.983   3.099  0.4016 -0.0401 -0.6413
 8074SOL    HW135858   4.546   0.912   3.143  2.3313 -1.6051 -1.0968
 8074SOL    HW235859   4.573   1.046   3.169  1.7524  0.0553 -0.3350
 8075SOL     OW35860   2.565   4.097   7.394  0.0613 -0.4078  0.7908
 8075SOL    HW135861   2.504   4.050   7.450 -1.2643 -0.2086 -0.4718
 8075SOL    HW235862   2.521   4.095   7.309 -1.3238  2.2605  1.4513
 8076SOL     OW35863   3.819   0.320  16.577 -0.1760  0.1083 -0.2782
 8076SOL    HW135864   3.762   0.257  16.534 -1.3316  0.6642  0.4648
 8076SOL    HW235865   3.760   0.392  16.598 -1.2672 -1.9481  3.5945
 8077SOL     OW35866   0.843   4.009   3.973 -0.1031 -0.1885  0.4807
 8077SOL    HW135867   0.918   4.063   3.999 -0.7264 -1.3122  4.6680
 8077SOL    HW235868   0.807   3.984   4.059 -1.0566 -1.4311 -0.2799
 8078SOL     OW35869   3.422   3.302   0.964  0.0997 -0.0349  0.3004
 8078SOL    HW135870   3.381   3.306   1.050 -0.0162 -0.7651  0.2783
 8078SOL    HW235871   3.362   3.353   0.909  1.6734 -0.0119 -1.3892
 8079SOL     OW35872   4.271   0.949   6.535 -0.3275 -0.0203  0.6492
 8079SOL    HW135873   4.336   0.960   6.604  0.3005  1.1832 -0.1161
 8079SOL    HW235874   4.278   0.855   6.518 -1.1205 -0.2648  1.7077
 8080SOL     OW35875   0.379   1.510   4.512  0.1306  0.0591  0.1697
 8080SOL    HW135876   0.313   1.455   4.554 -1.2932  0.9856 -0.8582
 8080SOL    HW235877   0.440   1.525   4.584  0.2113 -2.7522  0.6702
 8081SOL     OW35878   3.869   0.694  13.703  0.1567 -0.1233  1.1878
 8081SOL    HW135879   3.908   0.645  13.631 -0.7786 -0.2574  0.7813
 8081SOL    HW235880   3.922   0.648  13.768 -0.2362 -1.1222  0.7889
 8082SOL     OW35881   1.726   1.319   9.383 -0.6560 -0.1725  0.1342
 8082SOL    HW135882   1.702   1.404   9.420  0.8046 -0.9530  2.8341
 8082SOL    HW235883   1.674   1.324   9.303 -0.4636 -0.2831  0.0013
 8083SOL     OW35884   3.614   0.020   4.744 -0.1916 -0.2909  0.6271
 8083SOL    HW135885   3.612   0.094   4.805  1.3493  0.9450 -0.8254
 8083SOL    HW235886   3.692   4.706   4.751 -0.6934 -0.9395  1.1687
 8084SOL     OW35887   2.124   0.894  10.226 -0.0261 -0.3023  0.4183
 8084SOL    HW135888   2.107   0.861  10.315 -0.1956 -1.7214 -0.1448
 8084SOL    HW235889   2.180   0.826  10.190  2.2179  0.4714  2.4406
 8085SOL     OW35890   1.470   2.063   5.114 -0.1775  0.3319 -0.3147
 8085SOL    HW135891   1.560   2.095   5.114 -1.2482  3.3118  2.3706
 8085SOL    HW235892   1.451   2.085   5.023  0.6359 -1.6920 -0.9668
 8086SOL     OW35893   0.722   4.334   7.466  0.2816  1.0402  0.0298
 8086SOL    HW135894   0.803   4.307   7.509 -0.2533 -1.6705 -0.6284
 8086SOL    HW235895   0.718   4.274   7.391  2.4210  0.2146  0.5774
 8087SOL     OW35896   0.404   3.432   2.636 -0.5399 -0.0557 -0.0673
 8087SOL    HW135897   0.488   3.477   2.647  0.4151 -2.1294  1.1240
 8087SOL    HW235898   0.348   3.506   2.662  0.6047  0.8601 -0.1919
 8088SOL     OW35899   1.837   4.524   4.705 -0.3872  0.3225 -0.4740
 8088SOL    HW135900   1.879   4.594   4.754  2.0116 -0.9436 -0.7320
 8088SOL    HW235901   1.751   4.562   4.686 -1.4462 -0.9821  1.6648
 8089SOL     OW35902   1.799   4.629   6.847  0.0733 -0.1310 -0.1365
 8089SOL    HW135903   1.726   4.630   6.909  0.5294 -3.1800  0.4486
 8089SOL    HW235904   1.805   4.724   6.837 -3.2392  0.0541 -0.5921
 8090SOL     OW35905   4.200   1.251  16.780 -0.2157 -0.4186 -0.1574
 8090SOL    HW135906   4.139   1.179  16.760  1.9959 -1.1969 -3.9837
 8090SOL    HW235907   4.133   1.316  16.800 -0.9719 -0.9842 -0.8082
 8091SOL     OW35908   3.074   2.135   3.696 -0.2305  0.1658  0.0351
 8091SOL    HW135909   3.145   2.101   3.641  2.1552  2.0381  1.9302
 8091SOL    HW235910   3.054   2.219   3.655  0.4703  0.3725  0.1160
 8092SOL     OW35911   2.839   3.043  12.579 -0.1924 -0.3241  0.1648
 8092SOL    HW135912   2.765   3.039  12.640 -0.2036 -2.1419  0.0293
 8092SOL    HW235913   2.801   3.050  12.491  2.6567 -2.1437 -1.2089
 8093SOL     OW35914   1.718   3.287   3.001 -0.2148 -0.4403  0.1005
 8093SOL    HW135915   1.761   3.218   3.052 -0.8845 -0.0837  1.1615
 8093SOL    HW235916   1.623   3.273   3.011 -0.2684 -0.2688 -0.1751
 8094SOL     OW35917   2.479   0.840  15.498 -0.1284 -0.6265  0.1589
 8094SOL    HW135918   2.409   0.883  15.449  0.6672 -0.1046 -0.5302
 8094SOL    HW235919   2.515   0.767  15.448 -0.0926  0.0408 -0.7811
 8095SOL     OW35920   0.071   0.335   3.768 -0.0640  0.6141 -0.1205
 8095SOL    HW135921   0.093   0.289   3.849 -2.4938 -0.1856  0.0737
 8095SOL    HW235922   0.098   0.272   3.701 -0.4584  0.8427 -0.4961
 8096SOL     OW35923   2.727   4.317   2.677  0.6539 -0.0259 -0.2248
 8096SOL    HW135924   2.710   4.350   2.589  1.9805  0.0331 -0.4497
 8096SOL    HW235925   2.704   4.390   2.734  1.1862 -0.9316  1.1689
 8097SOL     OW35926   0.336   2.280   9.862  0.7689  0.6130  0.9528
 8097SOL    HW135927   0.360   2.270   9.954  1.2373 -1.4982  0.5813
 8097SOL    HW235928   0.353   2.192   9.828  0.4514  0.1273  2.0505
 8098SOL     OW35929   3.495   1.949  13.548 -0.2843 -0.6107  0.0769
 8098SOL    HW135930   3.505   2.037  13.512  0.0636 -0.3562  0.7863
 8098SOL    HW235931   3.412   1.919  13.511  0.0463 -1.8102  0.3205
 8099SOL     OW35932   1.963   3.758   3.074  0.3354  0.5627  0.0207
 8099SOL    HW135933   1.883   3.716   3.103  1.3326  0.5862  2.8139
 8099SOL    HW235934   1.944   3.834   3.130 -1.6025  1.6132 -2.0817
 8100SOL     OW35935   0.201   3.261   5.765  0.0912  0.0423 -0.3746
 8100SOL    HW135936   0.113   3.236   5.737  0.6245  0.3281 -2.3377
 8100SOL    HW235937   0.188   3.284   5.857 -0.6885  2.6767 -1.1458
 8101SOL     OW35938   4.486   0.225  17.168 -0.2936 -0.5733 -0.7251
 8101SOL    HW135939   4.405   0.250  17.123 -0.5155 -2.1933 -1.2531
 8101SOL    HW235940   4.471   0.277  17.247  0.4752 -1.8288  0.2561
 8102SOL     OW35941   1.228   0.123  16.452  0.1807 -0.1390  0.5672
 8102SOL    HW135942   1.189   0.195  16.403  0.5781  0.2401  0.8018
 8102SOL    HW235943   1.160   0.082  16.506 -0.6423 -2.3391 -2.1922
 8103SOL     OW35944   3.987   2.615   3.305  0.0075  0.1102 -0.7694
 8103SOL    HW135945   3.956   2.616   3.395  0.1797  2.7065 -0.7355
 8103SOL    HW235946   4.046   2.540   3.299 -1.1889 -1.0793  2.4241
 8104SOL     OW35947   0.655   1.355   6.354  0.2808  0.3650  0.0944
 8104SOL    HW135948   0.694   1.411   6.421 -1.2644 -0.5010  1.7191
 8104SOL    HW235949   0.727   1.344   6.291 -0.3458 -1.4021 -0.3144
 8105SOL     OW35950   2.643   4.415   3.256 -0.2944 -0.0878  0.0699
 8105SOL    HW135951   2.666   4.503   3.285 -0.3538 -0.3844  1.0180
 8105SOL    HW235952   2.663   4.363   3.334  3.6795 -0.4557 -1.2067
 8106SOL     OW35953   2.357   2.789   3.644 -0.3798 -0.0677 -0.4870
 8106SOL    HW135954   2.274   2.830   3.621 -1.2890 -1.9395 -0.5868
 8106SOL    HW235955   2.412   2.864   3.623  0.9760 -1.2407 -1.1085
 8107SOL     OW35956   4.668   2.764   3.803 -0.0791  0.0340  0.1347
 8107SOL    HW135957   4.635   2.691   3.856 -2.5801  1.3730  0.4326
 8107SOL    HW235958   4.597   2.771   3.739 -0.6228  2.1165  0.9655
 8108SOL     OW35959   0.050   3.635   7.125  0.5171 -0.0610  0.0141
 8108SOL    HW135960   0.070   3.602   7.212  0.9701  0.5124  0.1227
 8108SOL    HW235961   0.021   3.724   7.144  1.5902  0.4216 -0.5865
 8109SOL     OW35962   0.069   0.409   9.498 -0.1768  0.1000  0.0481
 8109SOL    HW135963   0.041   0.327   9.539 -1.0663  0.8531  0.9407
 8109SOL    HW235964   0.147   0.427   9.551 -0.6910  1.3358  0.3964
 8110SOL     OW35965   0.019   1.930   9.787  0.4070  0.2509 -0.7522
 8110SOL    HW135966   0.037   1.966   9.874 -0.5970 -1.8173  0.2920
 8110SOL    HW235967   4.738   2.014   9.747  1.7458  1.2658  0.6157
 8111SOL     OW35968   2.323   1.317   1.872 -0.1345 -0.1661 -0.2541
 8111SOL    HW135969   2.399   1.325   1.930  1.1516  0.3668 -2.0063
 8111SOL    HW235970   2.366   1.331   1.788 -0.6086 -2.5647 -0.8841
 8112SOL     OW35971   0.167   0.843   4.729  0.8031  0.5840 -0.1332
 8112SOL    HW135972   0.187   0.856   4.636 -1.6720 -0.1641 -0.7797
 8112SOL    HW235973   0.084   0.797   4.722  0.7217  0.9283 -1.4780
 8113SOL     OW35974   0.129   0.835   3.162  0.4832  0.6759 -0.1211
 8113SOL    HW135975   0.066   0.894   3.204  2.0942  1.2400  1.5246
 8113SOL    HW235976   0.206   0.857   3.214 -1.3078  0.1326  2.7412
 8114SOL     OW35977   0.927   0.643   0.714  0.0535  0.0857  0.0519
 8114SOL    HW135978   0.865   0.682   0.776  0.0697  0.1915  0.0011
 8114SOL    HW235979   0.870   0.578   0.672 -1.1193  3.8703 -4.1691
 8115SOL     OW35980   2.906   0.116   9.782 -0.3341  0.1709 -0.5959
 8115SOL    HW135981   2.962   0.166   9.841  1.0881  0.4512 -2.1609
 8115SOL    HW235982   2.927   0.156   9.697 -3.0303  0.0280 -1.3162
 8116SOL     OW35983   0.057   4.476   1.735  0.2722 -0.5929 -0.8391
 8116SOL    HW135984   0.116   4.514   1.670 -0.0478 -0.4027 -1.0164
 8116SOL    HW235985   0.127   4.432   1.783  1.6349  0.3652 -1.9396
 8117SOL     OW35986   1.066   0.500   1.889 -0.1276  0.0446 -0.0326
 8117SOL    HW135987   1.129   0.450   1.942  0.3699 -0.1586 -0.8123
 8117SOL    HW235988   0.986   0.453   1.912  1.1997 -1.9806  0.4069
 8118SOL     OW35989   0.580   2.856   6.501 -0.2616  0.0970  0.4769
 8118SOL    HW135990   0.582   2.894   6.589  0.1263 -2.0285  1.3886
 8118SOL    HW235991   0.561   2.935   6.451  1.1498  1.0011  1.3439
 8119SOL     OW35992   1.279   1.830  12.653  0.3157  0.5088 -0.0414
 8119SOL    HW135993   1.251   1.827  12.744  1.5488  0.7213  0.3436
 8119SOL    HW235994   1.304   1.741  12.627  0.9682  0.5374  0.4840
 8120SOL     OW35995   0.133   0.663   3.869 -0.5824  0.2720  0.5796
 8120SOL    HW135996   0.122   0.599   3.939 -1.1643  0.4275  0.6287
 8120SOL    HW235997   0.207   0.713   3.904 -1.2736  0.8994  1.1456
 8121SOL     OW35998   3.522   1.993   7.433  0.3966  0.1248 -0.3906
 8121SOL    HW135999   3.614   2.004   7.410  0.1826 -0.3950 -1.4627
 8121SOL    HW236000   3.507   1.902   7.408  0.6381  0.2428 -0.9637
 8122SOL     OW36001   2.221   0.155  14.597 -0.4173 -0.5164 -0.5725
 8122SOL    HW136002   2.300   0.198  14.566 -1.3539  0.4419 -1.6067
 8122SOL    HW236003   2.267   0.075  14.622 -0.1623  0.0987  0.9678
 8123SOL     OW36004   4.660   3.549   8.177  0.2848 -0.1971 -0.5201
 8123SOL    HW136005   4.648   3.643   8.190 -0.0747  0.0647 -2.6400
 8123SOL    HW236006   4.568   3.523   8.186  0.8783 -1.6929  1.1937
 8124SOL     OW36007   0.975   1.748  13.797  0.0988  0.2132 -0.4969
 8124SOL    HW136008   0.911   1.709  13.857 -0.0202  1.6103  0.2834
 8124SOL    HW236009   0.950   1.711  13.713 -1.0364 -0.9397  0.3500
 8125SOL     OW36010   2.686   3.990   5.571  0.3196  0.0845 -0.1008
 8125SOL    HW136011   2.762   3.991   5.513 -1.0363 -0.3685 -1.9038
 8125SOL    HW236012   2.701   3.910   5.620  1.3305 -0.1386 -0.7765
 8126SOL     OW36013   2.252   3.058  14.966 -0.0888  0.3024 -1.1442
 8126SOL    HW136014   2.319   3.067  14.898  1.7396  0.8531  0.7327
 8126SOL    HW236015   2.265   2.963  14.965 -0.4344  0.2656 -1.7732
 8127SOL     OW36016   3.833   3.941   2.325  0.1566 -0.7157  0.0328
 8127SOL    HW136017   3.784   3.999   2.267 -0.8097 -1.0808  0.4728
 8127SOL    HW236018   3.913   3.989   2.345  0.0530 -0.3050 -0.5339
 8128SOL     OW36019   3.402   3.962  14.605  0.2124  0.8505  0.2787
 8128SOL    HW136020   3.332   3.897  14.596 -1.1258  2.4331 -0.6505
 8128SOL    HW236021   3.482   3.911  14.590  0.9335  2.3654 -1.0018
 8129SOL     OW36022   1.157   2.633   2.757 -0.5962  0.2091  0.0189
 8129SOL    HW136023   1.178   2.643   2.665  1.0173  0.9129  0.4623
 8129SOL    HW236024   1.225   2.572   2.784 -0.5985 -0.4337 -1.4735
 8130SOL     OW36025   1.006   3.972   8.042 -0.3989 -0.1312 -0.1891
 8130SOL    HW136026   0.978   4.056   8.077 -1.2115 -0.3199 -0.3847
 8130SOL    HW236027   1.101   3.979   8.046 -0.5884  2.8563 -1.1024
 8131SOL     OW36028   1.134   1.631  17.018  0.5169  0.6478 -0.2077
 8131SOL    HW136029   1.124   1.573  17.094 -1.8851 -2.0864 -2.5999
 8131SOL    HW236030   1.213   1.673  17.051  0.4054  0.0437  0.8264
 8132SOL     OW36031   3.031   2.923   6.962 -0.0585 -0.1102 -0.4280
 8132SOL    HW136032   3.019   3.012   6.997  0.1615 -0.7181  1.1819
 8132SOL    HW236033   3.053   2.959   6.876 -0.1511 -0.3027 -0.5310
 8133SOL     OW36034   0.201   2.105   6.950  0.4923 -0.4141  0.1716
 8133SOL    HW136035   0.223   2.172   7.015 -0.9017  1.0201 -0.8502
 8133SOL    HW236036   0.203   2.034   7.014  0.3714 -1.7883 -1.3583
 8134SOL     OW36037   4.103   3.808   8.954  0.4669 -0.3410 -0.0168
 8134SOL    HW136038   4.107   3.767   9.041  4.7327  0.8020  0.3287
 8134SOL    HW236039   4.166   3.879   8.968  0.5659 -0.6553  1.1452
 8135SOL     OW36040   4.259   0.417   6.923 -0.1305 -0.1260  0.4611
 8135SOL    HW136041   4.172   0.383   6.906  0.5291 -1.0553 -1.0857
 8135SOL    HW236042   4.296   0.350   6.981 -0.7295 -0.2092  0.7375
 8136SOL     OW36043   0.005   1.165   6.905 -0.0014 -0.2945  0.0346
 8136SOL    HW136044   0.048   1.192   6.986 -0.8969  1.7013 -0.1674
 8136SOL    HW236045   0.081   1.184   6.848 -0.2023 -0.7379 -0.3839
 8137SOL     OW36046   1.603   1.365  14.988  0.0224 -0.5850  0.2027
 8137SOL    HW136047   1.597   1.409  15.073 -1.7634  1.4857 -0.9936
 8137SOL    HW236048   1.696   1.348  14.975 -0.0285  1.7357 -3.1786
 8138SOL     OW36049   4.308   4.277   5.601  0.4028 -0.0912 -0.0127
 8138SOL    HW136050   4.377   4.254   5.663 -1.0159 -0.9655  1.2536
 8138SOL    HW236051   4.278   4.355   5.647 -0.7127 -0.1142 -0.6904
 8139SOL     OW36052   2.212   2.676   7.792  0.0278  0.0442 -0.1111
 8139SOL    HW136053   2.300   2.678   7.754  1.1701 -0.2515  2.5901
 8139SOL    HW236054   2.166   2.634   7.719  1.4699 -2.6479  0.5527
 8140SOL     OW36055   3.576   3.366   3.576  0.3243  0.1058  0.0227
 8140SOL    HW136056   3.661   3.323   3.571 -0.2396 -1.1253  0.9593
 8140SOL    HW236057   3.605   3.455   3.556 -0.8952  0.3829 -0.5678
 8141SOL     OW36058   3.305   4.727   1.896  0.2683 -0.3098 -0.8111
 8141SOL    HW136059   3.284   4.732   1.802  0.4842 -0.8809 -0.8935
 8141SOL    HW236060   3.301   0.080   1.910 -0.6712 -0.2509 -1.4877
 8142SOL     OW36061   4.731   4.522   6.437  0.2646 -0.1141 -0.1070
 8142SOL    HW136062   4.677   4.502   6.361  1.5955 -0.7529 -0.8774
 8142SOL    HW236063   4.679   4.475   6.502 -1.0600  0.2560 -0.8876
 8143SOL     OW36064   3.583   4.058   2.864 -0.6913 -0.6991 -0.2202
 8143SOL    HW136065   3.643   4.122   2.903 -2.1259 -0.3718  1.4021
 8143SOL    HW236066   3.620   4.062   2.776  1.3158  0.7119  0.6807
 8144SOL     OW36067   1.825   2.003   2.692 -0.2677 -0.1073 -0.5834
 8144SOL    HW136068   1.823   1.933   2.757 -1.5893 -0.3633 -0.8976
 8144SOL    HW236069   1.901   1.981   2.639  0.5239  0.7085  0.2370
 8145SOL     OW36070   2.339   1.141   5.684  0.1089 -0.2694  0.0821
 8145SOL    HW136071   2.271   1.139   5.751  1.8895 -0.7898  1.8760
 8145SOL    HW236072   2.376   1.226   5.705  0.4364 -0.5193  0.5323
 8146SOL     OW36073   2.509   1.766  17.614 -0.1036  0.0186 -0.3710
 8146SOL    HW136074   2.491   1.860  17.616  0.8086  0.2171 -1.4265
 8146SOL    HW236075   2.479   1.736  17.700  2.2603  2.3170  1.2459
 8147SOL     OW36076   1.773   2.865   5.457 -0.3353 -0.1777 -0.0074
 8147SOL    HW136077   1.777   2.927   5.385 -0.5941 -0.1132  0.0361
 8147SOL    HW236078   1.856   2.818   5.445 -0.1741  0.3845 -1.1066
 8148SOL     OW36079   2.515   3.573  14.327 -0.0120  0.0059 -0.3696
 8148SOL    HW136080   2.594   3.627  14.322 -0.0713  0.1754  0.6255
 8148SOL    HW236081   2.548   3.491  14.289  1.7080  0.5537 -0.0479
 8149SOL     OW36082   1.249   2.941  17.049 -0.2429 -0.5956  0.1671
 8149SOL    HW136083   1.326   2.946  17.106  0.5870 -1.5670 -0.8889
 8149SOL    HW236084   1.216   2.858  17.083 -1.2768 -1.2759 -2.5517
 8150SOL     OW36085   2.544   2.625  17.684 -0.1001  0.0608 -0.5874
 8150SOL    HW136086   2.490   2.671  17.749  0.2618  1.9510 -1.6467
 8150SOL    HW236087   2.596   2.575  17.748 -0.0320  0.2975 -0.4559
 8151SOL     OW36088   3.169   2.640  17.368 -0.7634 -0.0041  0.0923
 8151SOL    HW136089   3.215   2.665  17.447  1.5079 -0.3560 -1.1296
 8151SOL    HW236090   3.084   2.614  17.403  0.1676 -1.1799  1.4553
 8152SOL     OW36091   1.462   3.430   6.764 -0.0545  0.0058 -0.7002
 8152SOL    HW136092   1.474   3.438   6.670  3.8838 -1.9927 -0.3523
 8152SOL    HW236093   1.366   3.427   6.757 -0.2753  2.5623  0.9996
 8153SOL     OW36094   2.232   0.701   8.065 -0.3106 -0.2646  0.5391
 8153SOL    HW136095   2.217   0.606   8.058 -2.1049  0.1177 -0.7022
 8153SOL    HW236096   2.149   0.721   8.109 -0.3659 -0.2876  0.4441
 8154SOL     OW36097   0.090   1.810   2.235  0.0727  0.7781  0.3266
 8154SOL    HW136098   0.154   1.833   2.167  0.0341 -0.9735 -0.3007
 8154SOL    HW236099   0.018   1.866   2.206 -0.5822  0.3802  1.2176
 8155SOL     OW36100   3.322   1.545   9.114  0.4300  0.2792 -0.2419
 8155SOL    HW136101   3.296   1.562   9.205  1.9280  0.7691  0.0851
 8155SOL    HW236102   3.414   1.520   9.114  0.0088 -1.2846  0.7732
 8156SOL     OW36103   1.606   2.316   4.150 -0.1786 -0.0673 -0.0279
 8156SOL    HW136104   1.617   2.293   4.058  1.0653  2.0913 -0.4226
 8156SOL    HW236105   1.598   2.228   4.187  1.8724  0.6331  2.0845
 8157SOL     OW36106   4.244   2.027   1.010 -0.0432 -0.8380 -0.1577
 8157SOL    HW136107   4.188   1.950   1.001 -0.4452 -0.4944 -0.5711
 8157SOL    HW236108   4.292   2.029   0.927  2.5227  0.1636  1.3293
 8158SOL     OW36109   2.193   1.026   4.261 -0.1966  0.6729  0.1059
 8158SOL    HW136110   2.188   1.108   4.214 -0.4694  0.6082  0.0220
 8158SOL    HW236111   2.273   1.033   4.313  0.4108  1.6841 -0.9731
 8159SOL     OW36112   0.777   1.580   5.067  0.0264  0.8654  0.1622
 8159SOL    HW136113   0.789   1.488   5.046 -0.9324  0.9306 -0.6454
 8159SOL    HW236114   0.686   1.581   5.096 -0.5193 -2.8551 -1.4626
 8160SOL     OW36115   1.062   2.324   3.562  0.0724  0.3998  0.2353
 8160SOL    HW136116   1.016   2.245   3.535 -1.0304  0.3306  2.2765
 8160SOL    HW236117   1.154   2.306   3.541 -0.5083 -2.0305 -0.2125
 8161SOL     OW36118   3.027   1.818   2.697  0.1210  0.2737  0.0234
 8161SOL    HW136119   2.969   1.870   2.753 -0.4092 -1.4725  1.0893
 8161SOL    HW236120   2.958   1.794   2.635  1.0661  1.4085 -1.4794
 8162SOL     OW36121   0.053   3.635   7.398 -0.3829  0.1745 -0.0474
 8162SOL    HW136122   4.730   3.705   7.414  2.9060  2.6429  2.3263
 8162SOL    HW236123   0.136   3.678   7.420  0.1995  0.3052 -2.4885
 8163SOL     OW36124   3.289   1.799   8.348 -0.2858  0.2862 -0.2803
 8163SOL    HW136125   3.316   1.719   8.303  0.0555  0.2930 -0.0943
 8163SOL    HW236126   3.278   1.869   8.284 -0.7514  1.1127  0.7212
 8164SOL     OW36127   1.071   3.283   7.581 -0.0817 -0.1215  0.6422
 8164SOL    HW136128   0.993   3.324   7.543  1.3858  3.5222  1.6140
 8164SOL    HW236129   1.036   3.205   7.624 -0.1578 -0.7956 -0.6365
 8165SOL     OW36130   4.378   3.067   5.465  0.2137 -0.0997  0.5112
 8165SOL    HW136131   4.309   3.132   5.457  0.2119 -0.3866 -1.8691
 8165SOL    HW236132   4.394   3.046   5.373  2.8121 -0.1465  0.9489
 8166SOL     OW36133   2.608   3.238   8.023 -0.9437  0.4225 -0.4222
 8166SOL    HW136134   2.698   3.232   7.992 -0.5925  2.0656  0.2630
 8166SOL    HW236135   2.583   3.146   8.020 -1.7545  0.6823 -1.9582
 8167SOL     OW36136   4.076   1.500   2.716 -0.6399 -0.0114  0.2744
 8167SOL    HW136137   4.066   1.478   2.809  0.4144  0.7886  0.5758
 8167SOL    HW236138   4.140   1.571   2.717  1.2952 -1.7493  1.5667
 8168SOL     OW36139   4.668   2.939   9.345 -0.0743  0.5211 -0.0172
 8168SOL    HW136140   4.670   2.882   9.269  3.8693  0.2679  0.2688
 8168SOL    HW236141   4.577   2.968   9.337  0.3091  1.6701 -0.2170
 8169SOL     OW36142   4.074   3.083   3.505 -0.3852  0.1911 -0.4140
 8169SOL    HW136143   4.094   2.993   3.532 -3.0371  0.5473  2.8003
 8169SOL    HW236144   4.105   3.124   3.586 -0.6938 -0.6370  0.1275
 8170SOL     OW36145   3.170   0.086   7.930 -0.1319 -0.4697 -0.4631
 8170SOL    HW136146   3.114   0.009   7.926 -0.5106 -0.2410  0.6044
 8170SOL    HW236147   3.251   0.052   7.892  1.0144  2.0450 -0.2680
 8171SOL     OW36148   1.123   2.548  13.956 -0.0031 -0.1162 -0.2734
 8171SOL    HW136149   1.091   2.636  13.975  0.2549 -0.3076  1.0698
 8171SOL    HW236150   1.176   2.537  14.035  1.5104  0.4896 -1.2089
 8172SOL     OW36151   1.799   1.291   3.113  0.3089  0.5153  0.2236
 8172SOL    HW136152   1.885   1.267   3.148  0.6545 -0.3316 -1.2282
 8172SOL    HW236153   1.810   1.269   3.021 -2.6039 -0.9852  0.2260
 8173SOL     OW36154   2.837   2.862   1.981  0.7540 -0.3672 -0.7702
 8173SOL    HW136155   2.750   2.864   1.940 -0.1558  0.4434  1.1922
 8173SOL    HW236156   2.873   2.809   1.910 -0.4027 -2.9351  0.5545
 8174SOL     OW36157   2.426   4.521   5.778 -0.0781 -0.6326  0.0346
 8174SOL    HW136158   2.425   4.458   5.849  0.7901  1.6351  2.0663
 8174SOL    HW236159   2.405   4.460   5.707  2.6972  0.3699 -1.6828
 8175SOL     OW36160   3.106   0.341  13.684  0.6436 -0.0598 -0.1389
 8175SOL    HW136161   3.198   0.344  13.657  0.7274  1.7827  0.3258
 8175SOL    HW236162   3.096   0.255  13.723 -0.4697 -0.5894 -1.5826
 8176SOL     OW36163   1.663   2.651   5.612 -0.5098  0.0589 -0.0508
 8176SOL    HW136164   1.752   2.622   5.632 -0.7330 -0.5925  0.0184
 8176SOL    HW236165   1.683   2.725   5.554  3.1585  0.2760  1.4716
 8177SOL     OW36166   0.682   1.696   8.556  0.7118 -0.7596  0.1413
 8177SOL    HW136167   0.660   1.775   8.604 -0.8691 -1.3360  0.3472
 8177SOL    HW236168   0.629   1.628   8.596 -1.1788  1.3536  1.1543
 8178SOL     OW36169   0.452   2.811   2.818  0.5116  0.4179  0.0763
 8178SOL    HW136170   0.489   2.862   2.746  2.2503  0.4720  1.0062
 8178SOL    HW236171   0.395   2.882   2.847  0.5911  0.4396  0.1789
 8179SOL     OW36172   3.958   0.523   6.900  0.1649  0.3048 -0.3316
 8179SOL    HW136173   3.873   0.501   6.939  0.2813 -1.2027 -0.9200
 8179SOL    HW236174   4.011   0.531   6.980  0.7211  2.5805 -0.9448
 8180SOL     OW36175   0.187   2.715   7.452  0.4151  0.5919 -0.5265
 8180SOL    HW136176   0.269   2.740   7.494  0.1205 -0.8604  0.9061
 8180SOL    HW236177   0.122   2.772   7.491  0.6568 -1.7301  3.2454
 8181SOL     OW36178   1.210   2.486   5.148 -0.3069 -0.1619 -0.2985
 8181SOL    HW136179   1.244   2.493   5.237  0.6306  0.9078 -0.7397
 8181SOL    HW236180   1.132   2.432   5.158  0.4960 -1.6196 -1.9459
 8182SOL     OW36181   2.651   1.610   6.349 -0.2777  0.0583 -0.2816
 8182SOL    HW136182   2.692   1.567   6.274  0.1070 -1.5661  0.8637
 8182SOL    HW236183   2.691   1.696   6.338  1.2840 -0.4327  1.5866
 8183SOL     OW36184   4.313   2.682   4.058 -0.0147  0.0465  0.0923
 8183SOL    HW136185   4.303   2.659   4.150  1.7790  0.8409  0.4964
 8183SOL    HW236186   4.221   2.699   4.039  0.3361  0.3128 -1.3684
 8184SOL     OW36187   4.118   2.337   9.398  0.0929 -0.0682 -0.1229
 8184SOL    HW136188   4.088   2.285   9.472  0.0236 -0.0522 -0.1395
 8184SOL    HW236189   4.080   2.423   9.417 -2.4055 -1.3524  0.6324
 8185SOL     OW36190   0.356   3.434   6.812 -0.4113 -0.4828 -0.4581
 8185SOL    HW136191   0.362   3.402   6.902  0.2547  0.3336 -0.2190
 8185SOL    HW236192   0.438   3.483   6.806 -2.0241  2.3574  1.0229
 8186SOL     OW36193   4.230   3.017  15.869  0.2254  0.2910  0.5767
 8186SOL    HW136194   4.248   2.977  15.954  0.0705 -0.0769  0.4355
 8186SOL    HW236195   4.172   3.085  15.902 -0.6487 -0.8354  1.3176
 8187SOL     OW36196   1.619   1.404  11.719  0.1147  0.7545  0.0024
 8187SOL    HW136197   1.600   1.315  11.749  0.2895  1.0870  1.1231
 8187SOL    HW236198   1.705   1.414  11.760 -0.0288 -1.7123  0.9082
 8188SOL     OW36199   1.516   2.351   7.679  0.5172  0.4530  0.4581
 8188SOL    HW136200   1.498   2.422   7.618 -1.7516 -2.1427 -1.8806
 8188SOL    HW236201   1.608   2.366   7.700  0.7075  0.4931 -0.4054
 8189SOL     OW36202   0.239   3.638   5.087 -0.3243 -0.0524 -0.0719
 8189SOL    HW136203   0.325   3.656   5.124  0.6720 -0.1124 -2.3577
 8189SOL    HW236204   0.253   3.687   5.006  1.4540  0.9578  0.8644
 8190SOL     OW36205   0.195   2.146  11.465  0.3047  0.3959 -0.0915
 8190SOL    HW136206   0.130   2.135  11.395  0.6067  0.6573 -0.4147
 8190SOL    HW236207   0.231   2.059  11.485  1.3721  0.9006  0.1547
 8191SOL     OW36208   2.236   1.118   5.438 -0.5142 -0.3349 -0.0051
 8191SOL    HW136209   2.220   1.210   5.416 -0.1308 -0.0287  0.9855
 8191SOL    HW236210   2.285   1.114   5.520  0.1323  0.8958 -0.3276
 8192SOL     OW36211   3.157   4.356   2.950  0.6500 -0.0242  0.3337
 8192SOL    HW136212   3.110   4.334   2.870  0.3701  1.0617  0.2058
 8192SOL    HW236213   3.189   4.270   2.977  0.7976 -0.6246 -1.7370
 8193SOL     OW36214   0.888   0.779   6.489  0.1815  0.4504  0.8940
 8193SOL    HW136215   0.873   0.839   6.415  2.6538 -0.0213 -0.0037
 8193SOL    HW236216   0.970   0.818   6.520  0.8695 -0.6595  0.4865
 8194SOL     OW36217   4.243   0.896   7.521 -0.2149 -0.0151 -0.4577
 8194SOL    HW136218   4.194   0.909   7.440  0.2733  3.0702 -0.2724
 8194SOL    HW236219   4.220   0.811   7.558  2.5893 -0.1714  0.9468
 8195SOL     OW36220   2.852   4.152  13.687 -0.0594  0.1222  0.2888
 8195SOL    HW136221   2.931   4.188  13.727  1.3583 -3.0653  0.3278
 8195SOL    HW236222   2.892   4.125  13.604 -1.3182  2.4972 -1.1038
 8196SOL     OW36223   1.273   0.981   8.356  0.0197  0.2435  0.0822
 8196SOL    HW136224   1.243   1.014   8.271  0.5374 -0.1267 -0.2408
 8196SOL    HW236225   1.368   0.988   8.347  0.1381 -0.0786  1.0670
 8197SOL     OW36226   3.456   2.142  13.841  0.2457 -0.4080  0.4535
 8197SOL    HW136227   3.538   2.095  13.858  1.5549  1.5646 -0.4500
 8197SOL    HW236228   3.416   2.069  13.794 -1.6666  1.4155 -0.7590
 8198SOL     OW36229   0.238   4.506   7.166 -0.5760 -0.1993  0.5249
 8198SOL    HW136230   0.199   4.495   7.253 -0.7438 -1.6527  0.2747
 8198SOL    HW236231   0.238   4.601   7.156  2.9321 -0.2816 -0.0892
 8199SOL     OW36232   1.229   2.204  17.367 -0.6963 -0.2337 -0.4917
 8199SOL    HW136233   1.166   2.148  17.412 -1.0612  1.8513  1.5997
 8199SOL    HW236234   1.210   2.295  17.392  1.3335  0.0018  0.1979
 8200SOL     OW36235   4.358   1.260  16.538  0.4493  0.4988 -0.0013
 8200SOL    HW136236   4.290   1.209  16.494 -1.6165  2.0824  1.4002
 8200SOL    HW236237   4.334   1.257  16.630 -1.8651  2.7243 -0.5411
 8201SOL     OW36238   0.492   2.467   7.585  0.1288 -0.2236  0.2766
 8201SOL    HW136239   0.548   2.450   7.509 -2.1084  1.4205 -1.7328
 8201SOL    HW236240   0.548   2.535   7.623 -1.6119 -0.6950  3.6769
 8202SOL     OW36241   0.235   0.852   1.302  0.2106  0.1969  0.1362
 8202SOL    HW136242   0.293   0.845   1.378  0.6457  0.5978 -0.1635
 8202SOL    HW236243   0.155   0.867   1.353 -0.7322  0.1347 -1.3216
 8203SOL     OW36244   2.350   3.969   7.534  0.2723 -1.0666  0.0387
 8203SOL    HW136245   2.323   3.930   7.617  4.4335  2.9575  3.2838
 8203SOL    HW236246   2.263   4.000   7.509  2.2059  3.4185 -1.2219
 8204SOL     OW36247   3.175   1.685   4.250  0.1386 -0.2294  0.1542
 8204SOL    HW136248   3.113   1.724   4.312  1.3632  2.0303 -0.0147
 8204SOL    HW236249   3.197   1.757   4.191 -1.6063 -0.2992 -0.5696
 8205SOL     OW36250   2.608   4.451   9.433 -0.5623 -0.1023  0.5614
 8205SOL    HW136251   2.619   4.368   9.386 -0.0633 -0.6905  1.7467
 8205SOL    HW236252   2.581   4.501   9.355  2.6291 -0.8643 -1.0360
 8206SOL     OW36253   1.615   3.895  15.293 -0.0716 -0.3122  0.1339
 8206SOL    HW136254   1.571   3.973  15.259 -0.5523  0.3077  2.1440
 8206SOL    HW236255   1.564   3.870  15.370 -1.3363 -1.1459 -0.9740
 8207SOL     OW36256   3.668   3.808   5.963 -0.6833 -0.0985 -0.4167
 8207SOL    HW136257   3.739   3.784   5.903  0.3117 -0.6853  0.9903
 8207SOL    HW236258   3.707   3.807   6.050  1.7424  2.1788 -1.4977
 8208SOL     OW36259   2.982   4.699   4.719  0.6818  0.1517 -0.7477
 8208SOL    HW136260   2.976   0.051   4.743 -1.2488  0.0520 -0.8340
 8208SOL    HW236261   2.947   4.689   4.631 -1.4307  0.5325  0.0556
 8209SOL     OW36262   3.061   3.231   7.332 -0.1099  0.1775  0.1838
 8209SOL    HW136263   3.152   3.260   7.343 -0.1554  0.2658  0.3343
 8209SOL    HW236264   3.046   3.238   7.238  0.5355 -0.0736  0.0610
 8210SOL     OW36265   0.343   0.019   7.079 -0.2727  0.0856  0.3256
 8210SOL    HW136266   0.365   0.100   7.033 -1.6618 -0.2636 -0.9489
 8210SOL    HW236267   0.403   0.013   7.154  0.6679  0.0017 -0.4379
 8211SOL     OW36268   0.766   4.184  14.342 -0.4025  0.2788  0.5306
 8211SOL    HW136269   0.774   4.151  14.432 -0.3225 -0.5833  0.2076
 8211SOL    HW236270   0.671   4.181  14.340 -0.3397 -1.0547 -0.3965
 8212SOL     OW36271   1.465   1.094   9.252 -0.2899 -0.5633 -0.5499
 8212SOL    HW136272   1.520   1.148   9.197 -0.9730  1.7785  1.0661
 8212SOL    HW236273   1.414   1.156   9.305  0.2851 -1.0038  0.5299
 8213SOL     OW36274   0.388   3.114   5.024  0.1694  0.3033  0.2488
 8213SOL    HW136275   0.331   3.191   5.019  1.2897  1.0331 -1.2335
 8213SOL    HW236276   0.454   3.136   5.089 -0.7146  0.2259  1.1851
 8214SOL     OW36277   2.322   0.013   6.447 -0.2363 -0.3377  0.3461
 8214SOL    HW136278   2.305   4.715   6.533  1.2656  0.4550  1.0001
 8214SOL    HW236279   2.247   4.729   6.393  0.2586 -1.4326  0.1633
 8215SOL     OW36280   2.538   4.212  10.116  0.3185  0.3242  0.3275
 8215SOL    HW136281   2.557   4.128  10.157  0.2246  0.5258  0.7844
 8215SOL    HW236282   2.619   4.256  10.089 -0.0567  0.7447 -0.1246
 8216SOL     OW36283   3.779   4.455   1.976 -0.2903 -0.0353  0.3786
 8216SOL    HW136284   3.718   4.414   1.914 -0.2372  0.5116 -0.0311
 8216SOL    HW236285   3.833   4.376   1.978  0.8722  0.7940  1.6781
 8217SOL     OW36286   4.560   0.888  10.231  0.6508 -0.0992 -0.0609
 8217SOL    HW136287   4.490   0.841  10.276  2.5376  0.0983  3.1004
 8217SOL    HW236288   4.514   0.910  10.150  1.1908 -0.2807 -0.4154
 8218SOL     OW36289   2.805   4.688  13.213 -0.0891  0.1522  0.1608
 8218SOL    HW136290   2.771   4.607  13.250  0.1175  0.4135  0.9069
 8218SOL    HW236291   2.718   4.708  13.177  0.6966 -0.2066 -1.9755
 8219SOL     OW36292   1.051   1.147   5.437  0.3505  0.2099  0.2360
 8219SOL    HW136293   1.078   1.178   5.350 -1.0052 -0.2176 -0.3422
 8219SOL    HW236294   1.067   1.223   5.492 -0.6805  0.2437  0.4851
 8220SOL     OW36295   0.423   2.006   3.130 -0.3580  0.0862  0.0464
 8220SOL    HW136296   0.349   2.002   3.190 -0.5795  0.3564 -0.2106
 8220SOL    HW236297   0.384   2.038   3.049 -0.1029 -1.9617 -0.8967
 8221SOL     OW36298   1.276   2.223  14.333  0.3493 -0.4092  0.5416
 8221SOL    HW136299   1.283   2.286  14.405  1.5416  1.3950 -1.1643
 8221SOL    HW236300   1.204   2.256  14.278  0.4512 -0.3254  0.4587
 8222SOL     OW36301   0.101   3.706   5.994  0.2192 -0.5981 -0.1896
 8222SOL    HW136302   0.090   3.612   5.982  0.9206 -0.6616 -0.2867
 8222SOL    HW236303   0.046   3.726   5.918 -1.1081  1.2961  1.2330
 8223SOL     OW36304   0.673   2.699   3.196 -0.2318  0.4436  0.2396
 8223SOL    HW136305   0.596   2.749   3.223 -0.1832  0.3936  0.4714
 8223SOL    HW236306   0.741   2.747   3.242 -0.8238  0.1426  1.4325
 8224SOL     OW36307   3.011   4.064   9.208  0.0730  0.4466 -0.1534
 8224SOL    HW136308   3.028   4.153   9.239  1.8105 -0.2589  0.8956
 8224SOL    HW236309   3.046   4.060   9.119 -1.8330 -0.6245 -0.8707
 8225SOL     OW36310   3.526   0.933   7.098 -0.7807 -0.2339 -0.2543
 8225SOL    HW136311   3.588   0.944   7.170 -0.3012  0.4769 -0.7726
 8225SOL    HW236312   3.471   1.009   7.119  0.7311  0.2628  1.9384
 8226SOL     OW36313   4.124   4.135   8.516  0.0680 -0.1912 -0.1150
 8226SOL    HW136314   4.183   4.210   8.522 -0.0575 -0.1259  0.2654
 8226SOL    HW236315   4.097   4.109   8.604  0.7647  1.7853  0.6836
 8227SOL     OW36316   1.501   1.038   4.233  0.1384 -0.1554  0.3640
 8227SOL    HW136317   1.406   1.046   4.242  0.2125  1.2267 -0.0200
 8227SOL    HW236318   1.505   0.947   4.204 -1.4021  0.5987 -2.2919
 8228SOL     OW36319   0.966   2.763   3.375 -0.4429 -0.1819 -0.9749
 8228SOL    HW136320   1.004   2.702   3.438 -0.2881  0.4645 -0.4502
 8228SOL    HW236321   1.037   2.827   3.373 -0.8366  0.2436 -1.6128
 8229SOL     OW36322   4.414   4.557   1.009 -0.0330  0.1519 -0.4376
 8229SOL    HW136323   4.329   4.555   0.965  0.1351 -0.8931 -0.7268
 8229SOL    HW236324   4.462   4.488   0.963 -0.5062  0.8946 -2.0554
 8230SOL     OW36325   3.708   0.811  13.856  0.2118 -0.1278  0.0237
 8230SOL    HW136326   3.763   0.751  13.805  0.3629 -1.0403  1.2411
 8230SOL    HW236327   3.774   0.843  13.918  0.9570  0.3260 -1.0065
 8231SOL     OW36328   4.519   0.440   7.859  0.0809 -0.1117  0.3233
 8231SOL    HW136329   4.444   0.381   7.867  0.1054 -0.4000 -1.6689
 8231SOL    HW236330   4.589   0.383   7.826  1.6211  1.2880  1.1201
 8232SOL     OW36331   3.113   2.598  12.636 -0.4576  0.0010 -0.4502
 8232SOL    HW136332   3.019   2.593  12.623 -0.9571  0.1924  3.1664
 8232SOL    HW236333   3.149   2.511  12.621 -0.0713  0.1061 -0.1321
 8233SOL     OW36334   1.016   2.836   7.993  0.0003  0.0763  0.1914
 8233SOL    HW136335   1.110   2.822   7.981 -0.1528  0.1101 -1.0094
 8233SOL    HW236336   0.986   2.745   8.003  2.3146 -0.9618 -2.3219
 8234SOL     OW36337   2.039   4.494   7.287  0.2209  0.4056 -0.0318
 8234SOL    HW136338   2.094   4.537   7.222 -0.5156 -1.6368 -1.9910
 8234SOL    HW236339   1.949   4.506   7.259  0.1905  1.3154  0.4637
 8235SOL     OW36340   2.240   0.713  10.044  0.3289 -0.0639 -0.4201
 8235SOL    HW136341   2.154   0.715  10.001  0.3645  2.6189 -0.4066
 8235SOL    HW236342   2.303   0.671   9.986  0.0261  2.0976 -2.3424
 8236SOL     OW36343   2.615   1.992   4.740 -0.3641  0.2262 -0.1510
 8236SOL    HW136344   2.588   1.969   4.651 -3.3663  1.3420  0.4811
 8236SOL    HW236345   2.705   2.020   4.718 -0.1555 -0.6420 -0.3850
 8237SOL     OW36346   0.953   0.545   7.488 -0.4421  0.1115 -0.1008
 8237SOL    HW136347   0.912   0.527   7.404 -2.9793  0.3502  1.0966
 8237SOL    HW236348   0.876   0.559   7.543  0.6341  1.0208  1.1671
 8238SOL     OW36349   2.862   2.133   5.192 -0.0392  0.6457 -0.1687
 8238SOL    HW136350   2.909   2.175   5.264  0.2716  1.0439 -0.6008
 8238SOL    HW236351   2.938   2.116   5.137 -0.1111 -1.0575  0.2708
 8239SOL     OW36352   2.834   4.624   3.201  0.3506 -0.0052 -0.2896
 8239SOL    HW136353   2.848   4.713   3.168 -0.4559 -0.3024 -1.4367
 8239SOL    HW236354   2.910   4.576   3.168 -0.5173 -0.1191 -2.1727
 8240SOL     OW36355   1.259   0.226  11.746 -0.4286 -0.3345 -0.3345
 8240SOL    HW136356   1.190   0.205  11.808 -0.3301  0.4057  0.0309
 8240SOL    HW236357   1.232   0.315  11.726  2.3432  0.7325  0.6209
 8241SOL     OW36358   1.011   1.831   0.415 -0.1637 -0.4599  0.0714
 8241SOL    HW136359   1.060   1.772   0.471  0.7455 -1.3528 -1.6588
 8241SOL    HW236360   0.953   1.871   0.480  0.3959  0.9733 -0.3119
 8242SOL     OW36361   1.742   2.022   9.481 -0.0167  0.0520 -0.5208
 8242SOL    HW136362   1.716   2.004   9.390  2.6414  0.3885 -1.3544
 8242SOL    HW236363   1.737   1.934   9.519 -2.1177  0.6970  0.6688
 8243SOL     OW36364   1.038   2.362   2.329  0.2379  0.3899  0.0466
 8243SOL    HW136365   1.056   2.369   2.235  1.4362  1.1569  0.3306
 8243SOL    HW236366   1.096   2.435   2.352 -0.2773  0.2378  1.7976
 8244SOL     OW36367   1.309   1.127   8.640  0.0163 -0.1442  0.3211
 8244SOL    HW136368   1.398   1.149   8.668  0.0368 -0.3935  0.4454
 8244SOL    HW236369   1.321   1.044   8.595  1.2709  0.8585 -1.1692
 8245SOL     OW36370   2.894   2.794   7.431 -0.1226  0.0661 -0.0878
 8245SOL    HW136371   2.928   2.882   7.445  1.4572 -0.6233  0.4078
 8245SOL    HW236372   2.979   2.753   7.413 -0.5797 -1.0737  0.3545
 8246SOL     OW36373   0.810   4.265   2.690  0.3767 -0.6444  0.9970
 8246SOL    HW136374   0.752   4.189   2.692  2.1871 -1.9851  1.4181
 8246SOL    HW236375   0.887   4.240   2.639 -0.2783 -0.0807 -0.2881
 8247SOL     OW36376   4.263   4.596   9.038 -0.2378 -0.3907  0.0869
 8247SOL    HW136377   4.207   4.579   8.961 -0.8039 -2.9387  1.0646
 8247SOL    HW236378   4.186   4.620   9.091  0.6017  1.2825  0.5669
 8248SOL     OW36379   3.563   2.547   4.993  0.0592 -0.2752  1.1322
 8248SOL    HW136380   3.520   2.461   4.988  1.0530 -0.7031  0.0348
 8248SOL    HW236381   3.501   2.597   4.940  1.7140 -1.3600 -1.8177
 8249SOL     OW36382   2.256   3.278   9.157 -0.2350 -0.1210  0.3567
 8249SOL    HW136383   2.297   3.198   9.126 -0.7745 -0.1616 -0.2679
 8249SOL    HW236384   2.288   3.349   9.102  0.0733  1.5743  2.7164
 8250SOL     OW36385   3.909   1.106  10.919  0.6226  0.1899 -0.1424
 8250SOL    HW136386   3.945   1.145  10.998 -1.4130 -0.8136  1.2688
 8250SOL    HW236387   3.957   1.023  10.924 -2.3473 -1.4824  0.8694
 8251SOL     OW36388   2.546   3.625  12.320  0.0441  0.2668  0.1420
 8251SOL    HW136389   2.495   3.706  12.318 -0.3056  0.0855  2.3725
 8251SOL    HW236390   2.614   3.631  12.252 -0.2787  0.9123 -0.1233
 8252SOL     OW36391   0.125   3.601   4.134 -0.0179  0.4194  0.0188
 8252SOL    HW136392   0.031   3.614   4.144  0.0939  1.2929 -0.1202
 8252SOL    HW236393   0.115   3.528   4.072 -0.5867 -0.2408  0.8875
 8253SOL     OW36394   3.461   2.246   9.014 -0.3135  0.2918 -0.2095
 8253SOL    HW136395   3.539   2.199   8.985 -1.4404 -2.2476  0.8655
 8253SOL    HW236396   3.407   2.223   8.938  1.4951  1.7976 -1.9542
 8254SOL     OW36397   1.959   4.340   4.539  0.0891  0.1537  0.3177
 8254SOL    HW136398   1.920   4.394   4.608  0.9137  0.4656  0.5321
 8254SOL    HW236399   1.877   4.311   4.498  0.7000  1.3988 -1.7760
 8255SOL     OW36400   1.323   1.549  14.938  0.4746 -0.3463 -0.8350
 8255SOL    HW136401   1.262   1.582  15.004  3.3220 -1.5808  2.3825
 8255SOL    HW236402   1.275   1.559  14.856 -0.1071 -1.2711 -0.5979
 8256SOL     OW36403   2.131   1.127   5.860 -0.0110  0.7740 -0.0021
 8256SOL    HW136404   2.067   1.197   5.843 -0.4130  0.8147  1.7081
 8256SOL    HW236405   2.068   1.059   5.882  0.5492  0.5562  0.9145
 8257SOL     OW36406   3.362   0.103  11.676 -0.5742 -0.4168 -0.3217
 8257SOL    HW136407   3.323   0.173  11.728 -0.0658  0.6124 -1.3333
 8257SOL    HW236408   3.293   0.088  11.612  1.4199 -3.5314 -1.7571
 8258SOL     OW36409   0.288   1.889   4.865 -0.2382  0.2604  0.1792
 8258SOL    HW136410   0.309   1.937   4.945  0.0957  0.2392  0.1014
 8258SOL    HW236411   0.358   1.824   4.868  1.3314  1.9068 -0.5888
 8259SOL     OW36412   1.269   1.534   1.522 -0.1187 -0.8041 -0.6079
 8259SOL    HW136413   1.318   1.453   1.536  0.1210 -0.5606 -0.0366
 8259SOL    HW236414   1.324   1.558   1.447  0.2373  2.3398  0.6238
 8260SOL     OW36415   1.890   0.918   3.758  0.2024 -0.1005 -0.5288
 8260SOL    HW136416   1.936   0.836   3.738  1.8442  0.9931 -1.2748
 8260SOL    HW236417   1.798   0.894   3.757  0.2771 -0.3312 -1.6236
 8261SOL     OW36418   2.053   2.503   0.467  0.1694 -0.1050 -0.6199
 8261SOL    HW136419   2.148   2.509   0.461  0.4743 -2.8627  2.0256
 8261SOL    HW236420   2.050   2.503   0.562  1.7386 -1.3224 -0.5754
 8262SOL     OW36421   1.683   1.239  16.153 -0.3162  0.0629  0.2300
 8262SOL    HW136422   1.643   1.239  16.240 -0.8497 -2.2049 -0.0198
 8262SOL    HW236423   1.616   1.286  16.103  0.5444  0.6863 -0.3446
 8263SOL     OW36424   3.368   0.119   9.173 -0.3159  0.7393  0.7257
 8263SOL    HW136425   3.393   0.027   9.175 -1.1254  0.5108  0.0693
 8263SOL    HW236426   3.273   0.120   9.176 -0.3639  0.8741 -1.0979
 8264SOL     OW36427   2.169   0.396   7.790  0.0079  0.1255  0.3408
 8264SOL    HW136428   2.226   0.452   7.737 -1.9417  2.0738  0.3233
 8264SOL    HW236429   2.130   0.336   7.727 -0.0224 -0.6444  1.0961
 8265SOL     OW36430   0.123   1.563   0.490  0.0743  0.6140 -0.3959
 8265SOL    HW136431   0.160   1.477   0.471 -0.8175  0.0472  0.4660
 8265SOL    HW236432   0.036   1.535   0.519 -0.2476  0.2044 -1.7636
 8266SOL     OW36433   3.391   0.479   3.726 -0.0319  0.0392  0.1306
 8266SOL    HW136434   3.440   0.516   3.799 -1.7090  1.0147  0.7858
 8266SOL    HW236435   3.450   0.410   3.698  0.5919  0.7528 -0.3170
 8267SOL     OW36436   1.956   1.470   6.793 -0.3531 -0.3004 -0.0169
 8267SOL    HW136437   1.944   1.556   6.832  1.0093 -0.4404  0.6836
 8267SOL    HW236438   1.876   1.456   6.742 -0.8542  1.0297  0.4145
 8268SOL     OW36439   1.791   2.885   8.186  0.4180 -0.7132 -0.2673
 8268SOL    HW136440   1.769   2.915   8.098 -1.2830  1.7336  0.9792
 8268SOL    HW236441   1.712   2.851   8.228  0.6891 -0.8129  0.1694
 8269SOL     OW36442   2.990   0.087  13.323  0.1069  0.6092 -0.5105
 8269SOL    HW136443   2.932   0.041  13.262 -2.5767 -0.9241  3.1545
 8269SOL    HW236444   2.995   0.174  13.286 -1.9104 -0.1245 -2.4854
 8270SOL     OW36445   4.590   2.834   8.842 -0.5194 -0.7054 -0.0526
 8270SOL    HW136446   4.497   2.833   8.866 -0.1034  0.0911  1.5556
 8270SOL    HW236447   4.584   2.779   8.764 -0.9489 -1.0094  0.1951
 8271SOL     OW36448   4.455   3.758   2.176  0.0547  0.1553 -0.3351
 8271SOL    HW136449   4.392   3.759   2.248 -0.2685  1.1725 -0.6241
 8271SOL    HW236450   4.486   3.848   2.182  1.2569 -0.2401 -0.5919
 8272SOL     OW36451   2.236   4.602   9.104 -0.2776  0.1351 -0.1031
 8272SOL    HW136452   2.253   4.526   9.049 -2.4909  0.2037 -0.8782
 8272SOL    HW236453   2.263   4.673   9.045  1.2616 -2.4255 -2.4874
 8273SOL     OW36454   4.732   4.466   4.797  0.3953 -0.0686 -0.7240
 8273SOL    HW136455   0.014   4.381   4.761  2.0022 -1.1910  2.9956
 8273SOL    HW236456   4.735   4.451   4.891  2.0014 -0.0089 -0.7777
 8274SOL     OW36457   0.562   0.004   9.507 -0.2385 -0.2069 -0.2724
 8274SOL    HW136458   0.630   0.004   9.575  1.1052  0.3213 -1.6381
 8274SOL    HW236459   0.616   0.056   9.448  1.4749  0.8324  2.1703
 8275SOL     OW36460   3.177   1.493   3.227  0.1483  0.3910 -0.0226
 8275SOL    HW136461   3.098   1.527   3.269 -0.1059  0.3430 -0.4750
 8275SOL    HW236462   3.149   1.425   3.166  0.7611  0.0527  0.0777
 8276SOL     OW36463   0.144   2.983   3.532 -0.1376  0.2725 -0.2873
 8276SOL    HW136464   0.229   2.996   3.489 -0.3611 -0.8664 -1.0565
 8276SOL    HW236465   0.084   2.958   3.462  1.6605 -0.6641 -1.4926
 8277SOL     OW36466   0.522   2.162  11.726 -0.0223 -0.8917 -0.0114
 8277SOL    HW136467   0.543   2.229  11.661  0.5069 -0.0055  1.0768
 8277SOL    HW236468   0.454   2.209  11.775 -0.8474  2.1692 -4.0633
 8278SOL     OW36469   0.736   2.834   1.230  1.1543  0.2970  0.2518
 8278SOL    HW136470   0.821   2.839   1.186 -0.0580  0.4848 -2.0729
 8278SOL    HW236471   0.686   2.907   1.193 -0.1944 -0.0689  1.3341
 8279SOL     OW36472   3.389   1.693   2.618  0.0211  0.4458  0.0043
 8279SOL    HW136473   3.345   1.609   2.607 -2.5323  1.8889 -0.8040
 8279SOL    HW236474   3.322   1.753   2.652  0.3587  0.0068  1.4835
 8280SOL     OW36475   0.512   2.052   6.196  0.1231 -0.2446  0.1538
 8280SOL    HW136476   0.427   2.093   6.177 -0.1422 -1.3745 -1.0687
 8280SOL    HW236477   0.498   2.017   6.284 -1.5797  0.9921  0.3758
 8281SOL     OW36478   2.357   4.145   6.266 -0.0416 -0.1611 -0.0668
 8281SOL    HW136479   2.374   4.052   6.282 -0.2109 -0.0820  0.5649
 8281SOL    HW236480   2.415   4.174   6.337 -1.9266 -0.2394  1.4942
 8282SOL     OW36481   4.661   4.098   7.920 -0.1041 -1.0764 -0.3745
 8282SOL    HW136482   4.687   4.042   7.993  0.5238  1.1547  1.1144
 8282SOL    HW236483   4.698   4.045   7.849 -0.8817 -1.6520 -0.3487
 8283SOL     OW36484   1.084   0.915   2.200  0.0366 -0.3252  0.1671
 8283SOL    HW136485   1.081   0.939   2.107  0.8925  1.8368  0.6939
 8283SOL    HW236486   1.013   0.851   2.192 -1.2719  1.2830 -1.3004
 8284SOL     OW36487   0.957   2.514   6.169 -0.2400  0.4340  0.3343
 8284SOL    HW136488   0.986   2.561   6.247  2.4995 -1.0146  0.2012
 8284SOL    HW236489   1.021   2.443   6.158  0.7200  1.3134  0.2879
 8285SOL     OW36490   2.959   0.980   7.179  0.2324  0.5086  0.1094
 8285SOL    HW136491   2.898   0.932   7.123  1.4067  1.9854 -2.4471
 8285SOL    HW236492   2.993   1.040   7.112 -1.9087  0.2671 -1.2012
 8286SOL     OW36493   3.425   0.074  14.948 -0.6886 -0.4113 -0.1588
 8286SOL    HW136494   3.390   0.123  15.022 -0.0419 -0.2156  0.0128
 8286SOL    HW236495   3.488   0.020  14.995  1.8833  2.8043  0.0869
 8287SOL     OW36496   2.618   0.220   4.011 -0.0800  0.3581 -0.2167
 8287SOL    HW136497   2.527   0.234   4.036  0.3512  1.2013  0.9195
 8287SOL    HW236498   2.632   0.300   3.960  0.5447  0.3768 -0.0190
 8288SOL     OW36499   3.361   4.365   9.782  0.0687  0.4263 -0.1338
 8288SOL    HW136500   3.374   4.280   9.823  1.6255  0.3418 -0.7857
 8288SOL    HW236501   3.267   4.379   9.781 -0.3615 -2.8642 -2.5427
 8289SOL     OW36502   0.151   4.053  11.397 -0.1787  0.1395 -0.2426
 8289SOL    HW136503   0.107   4.118  11.342 -2.4948  0.6966  2.2354
 8289SOL    HW236504   0.219   4.102  11.443 -0.6613  0.0475  0.5800
 8290SOL     OW36505   0.951   1.339   7.237 -0.3412  0.0814  0.2988
 8290SOL    HW136506   0.875   1.288   7.209  0.3316 -0.5577 -0.3625
 8290SOL    HW236507   0.985   1.277   7.302 -1.5470 -3.0587 -2.0304
 8291SOL     OW36508   3.973   0.806   5.994  0.2071  0.2445  0.0817
 8291SOL    HW136509   4.007   0.855   5.919  1.5779 -0.6111  0.1439
 8291SOL    HW236510   4.003   0.721   5.962 -2.1354 -0.6945  0.3745
 8292SOL     OW36511   0.656   2.502   9.114  0.4941 -0.0146  0.8014
 8292SOL    HW136512   0.693   2.559   9.182 -0.9354  0.9181  0.8032
 8292SOL    HW236513   0.564   2.508   9.137 -0.5352  1.2643 -3.7992
 8293SOL     OW36514   1.115   2.572  15.361  0.5523  0.5568 -0.2000
 8293SOL    HW136515   1.033   2.545  15.321  0.3454 -0.6160  1.0252
 8293SOL    HW236516   1.179   2.549  15.293  0.4460  2.2617 -0.8674
 8294SOL     OW36517   3.791   3.689   7.175 -0.2464  0.1597 -0.2309
 8294SOL    HW136518   3.763   3.598   7.185  1.0756 -0.0630  1.4371
 8294SOL    HW236519   3.776   3.714   7.084 -0.7406  1.9126  0.3211
 8295SOL     OW36520   2.461   1.348  13.623  0.1593 -0.2141  0.2955
 8295SOL    HW136521   2.437   1.341  13.530 -1.3298 -0.8847  0.7353
 8295SOL    HW236522   2.403   1.284  13.664 -0.0219 -0.2522 -0.0188
 8296SOL     OW36523   2.835   2.999   2.617  0.1925 -0.0875  0.3647
 8296SOL    HW136524   2.745   3.022   2.639 -0.4428 -1.3384 -0.9184
 8296SOL    HW236525   2.859   2.947   2.693 -0.2394  0.6297  0.9963
 8297SOL     OW36526   4.303   4.721   7.978 -0.4671  0.0030 -0.4016
 8297SOL    HW136527   4.278   4.634   8.008 -0.7203  0.9340  2.1169
 8297SOL    HW236528   4.230   0.033   8.008  0.2380  0.9391 -0.3145
 8298SOL     OW36529   3.939   2.913  13.700 -0.0508  0.6434 -0.2181
 8298SOL    HW136530   3.906   2.980  13.759 -0.6901 -0.1191  0.2964
 8298SOL    HW236531   3.942   2.841  13.763  1.6709 -0.5924 -1.7043
 8299SOL     OW36532   1.136   2.215   7.872 -0.0321 -0.8579  0.6296
 8299SOL    HW136533   1.159   2.289   7.928  0.9453  0.2934 -1.3265
 8299SOL    HW236534   1.220   2.195   7.830 -0.5477 -2.3178  0.2805
 8300SOL     OW36535   0.771   2.649  17.409  0.0309 -0.3474  0.7816
 8300SOL    HW136536   0.699   2.705  17.380  0.0736  0.1400  1.6240
 8300SOL    HW236537   0.843   2.711  17.396 -0.5341 -0.1875 -1.6369
 8301SOL     OW36538   2.367   1.238   9.201 -0.5481 -0.0454 -0.2544
 8301SOL    HW136539   2.420   1.207   9.275 -1.2011 -2.3643 -0.7506
 8301SOL    HW236540   2.425   1.214   9.129 -1.3464  0.5021 -1.0840
 8302SOL     OW36541   0.130   1.040   9.309 -0.0688 -0.7148 -0.4311
 8302SOL    HW136542   0.090   1.117   9.349  1.4298  0.2735 -0.8445
 8302SOL    HW236543   0.062   1.022   9.243 -0.1952  0.3009 -0.5814
 8303SOL     OW36544   1.288   3.602   9.078  0.2804 -0.6735  0.0720
 8303SOL    HW136545   1.200   3.586   9.111 -0.3671  0.8164 -0.9426
 8303SOL    HW236546   1.339   3.523   9.095 -0.5774 -1.5856 -1.6246
 8304SOL     OW36547   2.747   3.501  13.595  0.6642  0.8949  0.2237
 8304SOL    HW136548   2.825   3.488  13.542  1.2736 -1.4799  1.7095
 8304SOL    HW236549   2.727   3.407  13.596 -0.5089  1.1889  2.7997
 8305SOL     OW36550   4.006   3.590   4.157 -0.1720 -0.2214 -0.1315
 8305SOL    HW136551   3.920   3.626   4.182 -0.2458 -0.8867  0.5760
 8305SOL    HW236552   4.003   3.641   4.076 -1.0069 -0.2796 -0.1436
 8306SOL     OW36553   3.525   0.534   5.201  0.3365  0.2568 -0.1880
 8306SOL    HW136554   3.449   0.497   5.246  1.6631 -3.7782 -1.3512
 8306SOL    HW236555   3.570   0.571   5.277  1.6544 -0.7577 -0.4832
 8307SOL     OW36556   1.774   2.981  10.906  0.0262 -0.4187 -0.0265
 8307SOL    HW136557   1.831   3.008  10.834 -0.3168 -3.1100 -1.3231
 8307SOL    HW236558   1.822   3.014  10.982 -0.1876 -1.1226  0.4112
 8308SOL     OW36559   1.311   0.147  17.099  0.3674  0.6747  0.1327
 8308SOL    HW136560   1.356   0.158  17.183  0.1638  2.8609 -0.0568
 8308SOL    HW236561   1.380   0.176  17.039 -0.3770  0.6083 -0.7628
 8309SOL     OW36562   3.325   1.307  14.024 -0.0627 -0.1828 -0.1040
 8309SOL    HW136563   3.334   1.381  13.964 -1.7257 -0.4540 -0.6837
 8309SOL    HW236564   3.330   1.344  14.113 -2.1677 -1.0277  0.3638
 8310SOL     OW36565   1.348   3.067  12.704 -0.0438 -0.2997  0.3393
 8310SOL    HW136566   1.309   3.127  12.768  0.4968  1.1532 -0.7110
 8310SOL    HW236567   1.301   3.104  12.629 -0.9396  1.5946  1.8042
 8311SOL     OW36568   3.794   1.987   9.204 -0.0927  0.0742  0.0081
 8311SOL    HW136569   3.830   2.070   9.171 -1.4694  1.0874  1.0189
 8311SOL    HW236570   3.874   1.937   9.196  0.4910  0.7027  1.9468
 8312SOL     OW36571   4.294   2.631   1.653  0.3835  0.0687 -0.1548
 8312SOL    HW136572   4.368   2.570   1.659  0.6942  0.5637  0.8531
 8312SOL    HW236573   4.332   2.699   1.597  2.7467  2.0677  3.9465
 8313SOL     OW36574   4.669   2.779   7.859 -0.2306  0.4558  0.3189
 8313SOL    HW136575   4.729   2.784   7.933  0.6383  0.6470 -0.3855
 8313SOL    HW236576   4.691   2.692   7.827 -1.7603 -0.4900  1.9074
 8314SOL     OW36577   0.773   3.933   4.245 -0.2290 -0.0593  0.0899
 8314SOL    HW136578   0.706   3.866   4.257 -4.2418  4.1935  1.3076
 8314SOL    HW236579   0.842   3.893   4.298  1.5345 -0.6206 -2.6511
 8315SOL     OW36580   0.788   1.855   6.488 -0.6720 -0.2594  0.0711
 8315SOL    HW136581   0.696   1.831   6.482 -0.5532 -0.7458  0.1898
 8315SOL    HW236582   0.796   1.926   6.424  0.9294 -0.2649  0.2628
 8316SOL     OW36583   2.947   0.381   2.320 -0.6529  0.1732  0.0626
 8316SOL    HW136584   3.016   0.445   2.305 -0.9821 -0.0179 -2.2770
 8316SOL    HW236585   2.998   0.309   2.356  2.2083  2.5745  0.8023
 8317SOL     OW36586   4.213   1.575   0.862 -0.1567  0.4502  0.0345
 8317SOL    HW136587   4.140   1.545   0.917  2.2770 -1.8422  1.9909
 8317SOL    HW236588   4.183   1.665   0.848  1.3948  0.7444 -1.3772
 8318SOL     OW36589   2.222   2.423   4.428  0.6880  0.4876  0.4603
 8318SOL    HW136590   2.216   2.494   4.492 -2.1607  1.1556 -0.5893
 8318SOL    HW236591   2.314   2.427   4.401  1.1432 -0.5877  1.8855
 8319SOL     OW36592   2.540   3.899   5.959  0.0229 -0.0069  0.0591
 8319SOL    HW136593   2.503   3.814   5.983  0.6644 -0.1608  0.5212
 8319SOL    HW236594   2.589   3.919   6.039 -0.0558  3.2314 -0.7283
 8320SOL     OW36595   1.040   1.332  16.238 -0.1454  0.0647  0.3536
 8320SOL    HW136596   1.030   1.237  16.242  2.2047 -0.1803  0.4437
 8320SOL    HW236597   1.135   1.343  16.233 -0.1484  0.1619  0.5355
 8321SOL     OW36598   2.681   4.222   5.697 -0.3166 -0.3228 -0.2587
 8321SOL    HW136599   2.628   4.265   5.630 -1.1242 -1.4492 -0.3348
 8321SOL    HW236600   2.701   4.141   5.650 -2.9567 -0.8512 -0.4714
 8322SOL     OW36601   0.742   1.834   1.839 -0.0178  0.3671  0.3558
 8322SOL    HW136602   0.763   1.781   1.916  0.2092  1.0530  0.7770
 8322SOL    HW236603   0.796   1.789   1.774 -0.7604  2.3798 -1.6337
 8323SOL     OW36604   0.138   3.694  12.692  0.9298  0.5642 -0.4047
 8323SOL    HW136605   0.194   3.629  12.651 -0.1645 -0.8823  0.4082
 8323SOL    HW236606   0.190   3.775  12.687 -0.2890  1.3927  0.3531
 8324SOL     OW36607   0.762   0.716  16.453  0.1613 -0.3829  0.3069
 8324SOL    HW136608   0.784   0.672  16.371  1.5794 -0.5755  0.7944
 8324SOL    HW236609   0.844   0.763  16.469  1.2838 -2.1839 -0.1881
 8325SOL     OW36610   3.522   0.063  13.660  0.2469  0.1240  0.3421
 8325SOL    HW136611   3.463   0.045  13.733 -0.2640 -0.2724 -0.1647
 8325SOL    HW236612   3.461   0.105  13.599 -1.3195 -0.4784  1.5014
 8326SOL     OW36613   3.443   0.100   7.479  0.1672 -0.2813  0.3991
 8326SOL    HW136614   3.482   0.083   7.565 -0.4335 -0.7531  0.5794
 8326SOL    HW236615   3.518   0.078   7.425 -2.3939  2.2700 -4.1670
 8327SOL     OW36616   0.357   0.847   7.209 -0.0555  0.1398 -1.1005
 8327SOL    HW136617   0.378   0.939   7.223 -0.1104  0.2844 -1.9570
 8327SOL    HW236618   0.270   0.839   7.249  0.2154 -1.9561 -0.9460
 8328SOL     OW36619   0.456   3.631   9.560  0.9040  0.1366  0.1371
 8328SOL    HW136620   0.467   3.538   9.544  2.7825  0.2380  0.8816
 8328SOL    HW236621   0.400   3.629   9.638  0.0246  0.4731 -0.4790
 8329SOL     OW36622   1.296   1.285   5.584  0.1753 -0.6871  0.4247
 8329SOL    HW136623   1.218   1.341   5.576 -1.2126 -2.6757 -0.0177
 8329SOL    HW236624   1.322   1.271   5.493 -0.9934  0.4555 -0.0853
 8330SOL     OW36625   2.261   3.890  13.510 -0.3936 -0.7300  0.1587
 8330SOL    HW136626   2.228   3.939  13.585  0.2580  4.6325 -3.0933
 8330SOL    HW236627   2.291   3.969  13.465 -1.9648 -0.3812 -0.2907
 8331SOL     OW36628   3.033   0.544   1.988 -0.0682 -0.2361  1.0275
 8331SOL    HW136629   2.980   0.590   2.054  1.0374 -0.0654  1.7901
 8331SOL    HW236630   3.110   0.526   2.042 -0.6234 -0.6600  1.6794
 8332SOL     OW36631   3.558   0.682   7.051  0.0321 -0.4337 -0.5245
 8332SOL    HW136632   3.546   0.777   7.058  3.4624  0.2230 -3.1002
 8332SOL    HW236633   3.482   0.658   6.998  2.1355 -2.5000 -2.6237
 8333SOL     OW36634   4.525   4.244   7.659 -0.4653 -0.0355 -0.0852
 8333SOL    HW136635   4.536   4.228   7.565 -0.5261  1.4354 -0.3551
 8333SOL    HW236636   4.516   4.151   7.679  0.4286 -0.3608 -1.1992
 8334SOL     OW36637   3.373   1.018   5.809  0.3492 -0.4031  0.1860
 8334SOL    HW136638   3.456   1.042   5.767 -0.4195  2.7831  0.4688
 8334SOL    HW236639   3.382   0.924   5.821 -0.1012 -0.7484 -2.1656
 8335SOL     OW36640   4.302   3.107   4.295  1.0486 -0.1280  0.6844
 8335SOL    HW136641   4.367   3.157   4.246 -0.6866  2.1099  0.6464
 8335SOL    HW236642   4.342   3.111   4.382 -0.3948 -0.4360  1.3728
 8336SOL     OW36643   0.015   4.232   9.536 -0.2153  0.0403  0.6642
 8336SOL    HW136644   4.707   4.151   9.544 -1.7836  0.9401  0.2779
 8336SOL    HW236645   0.044   4.251   9.625  0.6484 -1.4667  0.7084
 8337SOL     OW36646   2.476   1.920   6.331 -0.3170 -0.4430 -0.0465
 8337SOL    HW136647   2.412   1.891   6.266  0.2545 -1.2732 -0.2405
 8337SOL    HW236648   2.558   1.905   6.283 -0.2168  0.2388 -0.0948
 8338SOL     OW36649   3.735   2.691   2.696  0.3948 -0.2366 -0.3676
 8338SOL    HW136650   3.829   2.672   2.695  0.4297 -0.1319  1.4848
 8338SOL    HW236651   3.700   2.603   2.712  1.1431 -0.2774  1.0940
 8339SOL     OW36652   1.267   2.612  10.747  0.3892 -0.6640 -0.1104
 8339SOL    HW136653   1.276   2.538  10.807 -1.3071 -0.3807  0.4961
 8339SOL    HW236654   1.273   2.565  10.664  2.7338 -1.6885  0.6723
 8340SOL     OW36655   0.729   4.285   1.237  0.1274 -0.0934 -0.2751
 8340SOL    HW136656   0.687   4.204   1.268  1.6007 -0.5614  0.5014
 8340SOL    HW236657   0.654   4.340   1.217  0.2960  0.0663 -0.4678
 8341SOL     OW36658   0.204   0.141   3.630 -0.2479  0.2872 -0.1251
 8341SOL    HW136659   0.207   0.160   3.536  3.6787  1.7386  0.2854
 8341SOL    HW236660   0.283   0.094   3.657 -1.9050 -1.5313  1.5359
 8342SOL     OW36661   3.469   3.051  12.821  0.6650 -0.5801  0.2416
 8342SOL    HW136662   3.437   3.099  12.897  1.6549  0.7695 -0.1931
 8342SOL    HW236663   3.502   2.976  12.872  3.1675  1.0552  1.0454
 8343SOL     OW36664   4.373   0.512   2.171  0.1621 -0.2281 -0.6920
 8343SOL    HW136665   4.316   0.498   2.095 -2.0518 -0.5029  1.0350
 8343SOL    HW236666   4.402   0.602   2.161  0.2624 -0.2903 -0.9682
 8344SOL     OW36667   3.762   1.858   8.147 -0.1279 -0.1183  0.1477
 8344SOL    HW136668   3.850   1.855   8.183 -0.4301  0.2855  0.9459
 8344SOL    HW236669   3.720   1.785   8.193  2.0863 -1.7320 -0.4032
 8345SOL     OW36670   2.064   1.757   3.673 -0.5175 -0.0249 -0.1929
 8345SOL    HW136671   1.985   1.755   3.727 -1.4662  1.7981 -1.5173
 8345SOL    HW236672   2.134   1.735   3.735 -1.2805  1.5643  1.2427
 8346SOL     OW36673   2.077   2.005   1.597  0.1816  0.1034  0.3444
 8346SOL    HW136674   2.056   1.955   1.676 -0.7367 -1.2792 -0.7763
 8346SOL    HW236675   2.133   1.949   1.543 -1.1239 -2.2273  1.3880
 8347SOL     OW36676   1.368   0.960   2.465  0.4897  0.4573  0.4926
 8347SOL    HW136677   1.306   0.887   2.459  0.7153  0.3217 -0.1299
 8347SOL    HW236678   1.332   1.032   2.414 -0.6924 -1.4805 -1.4349
 8348SOL     OW36679   0.795   3.238   7.571  0.1648 -0.0328 -0.6516
 8348SOL    HW136680   0.723   3.176   7.582 -1.6659  2.3798  1.0039
 8348SOL    HW236681   0.755   3.325   7.566 -0.7870 -0.4452 -0.2434
 8349SOL     OW36682   0.369   0.571   4.991 -0.4103 -0.1028  0.1466
 8349SOL    HW136683   0.358   0.479   4.966  0.8703 -0.6959  1.8126
 8349SOL    HW236684   0.445   0.590   4.936 -0.9963  0.2830 -0.5410
 8350SOL     OW36685   1.334   1.483   5.887 -0.4220  0.2109 -0.0040
 8350SOL    HW136686   1.394   1.443   5.950  2.2216  1.5508 -1.6925
 8350SOL    HW236687   1.398   1.525   5.830  0.6058 -0.3741  0.7098
 8351SOL     OW36688   0.151   1.040   4.980 -0.0480 -0.9293 -0.3811
 8351SOL    HW136689   0.146   1.040   4.884  0.5896 -0.8767 -0.4133
 8351SOL    HW236690   0.190   0.956   5.004  1.9902  0.2639  0.5154
 8352SOL     OW36691   4.122   3.808   7.984  0.2670 -0.2926  0.0141
 8352SOL    HW136692   4.036   3.830   7.949 -0.2248  0.1914  1.5652
 8352SOL    HW236693   4.167   3.867   7.923 -1.7466 -0.0457 -1.2214
 8353SOL     OW36694   3.487   1.787   8.773 -0.7350 -0.0421  0.0522
 8353SOL    HW136695   3.537   1.857   8.732  0.5006 -1.6723 -1.2522
 8353SOL    HW236696   3.539   1.790   8.852  0.1704  1.2757 -0.6042
 8354SOL     OW36697   0.251   4.501   6.428  0.0367 -0.1923  0.5321
 8354SOL    HW136698   0.155   4.498   6.435  0.0351 -1.3421  0.1239
 8354SOL    HW236699   0.253   4.537   6.340  0.2246 -0.0918  0.5777
 8355SOL     OW36700   1.967   2.758   4.268  0.5993 -0.9306 -0.6033
 8355SOL    HW136701   2.045   2.734   4.320  0.6478  1.0371  0.2129
 8355SOL    HW236702   1.896   2.731   4.326  1.1417 -0.4994  0.2673
 8356SOL     OW36703   4.405   1.932  10.974 -0.4492  0.3829 -0.3504
 8356SOL    HW136704   4.481   1.880  10.949  0.1874  1.0413  0.2055
 8356SOL    HW236705   4.329   1.875  10.960 -0.5880 -0.3676  3.4966
 8357SOL     OW36706   3.218   0.714   0.427  0.1500  0.4743 -0.9228
 8357SOL    HW136707   3.136   0.759   0.449 -0.5551  0.0286 -2.5928
 8357SOL    HW236708   3.259   0.797   0.404  0.3894  0.3631 -0.8911
 8358SOL     OW36709   2.017   0.543   4.153 -0.1060 -0.0488 -0.6572
 8358SOL    HW136710   2.033   0.637   4.158 -2.3483  0.3454 -0.9850
 8358SOL    HW236711   1.923   0.541   4.138  0.4118 -0.7192 -3.7331
 8359SOL     OW36712   2.846   2.330  15.449 -0.0443 -0.5604  0.3236
 8359SOL    HW136713   2.904   2.278  15.393 -0.7751 -0.2109 -0.7568
 8359SOL    HW236714   2.903   2.335  15.526 -0.3553 -2.2380  0.6569
 8360SOL     OW36715   2.077   0.497   3.878 -0.2044  0.2632 -0.3467
 8360SOL    HW136716   2.077   0.402   3.890 -0.8789  0.0884 -1.8473
 8360SOL    HW236717   2.069   0.507   3.973 -0.4179  1.5538 -0.5035
 8361SOL     OW36718   1.531   1.797   3.837 -0.1684 -0.2148 -0.0676
 8361SOL    HW136719   1.505   1.790   3.745  1.3344  0.3942 -0.5424
 8361SOL    HW236720   1.470   1.731   3.872  1.0071 -0.8831  0.7507
 8362SOL     OW36721   3.701   3.202  17.499 -0.0826 -0.2045  0.3256
 8362SOL    HW136722   3.627   3.249  17.538  0.3761  2.9617 -2.5227
 8362SOL    HW236723   3.660   3.143  17.436 -0.5090  0.4001  0.0317
 8363SOL     OW36724   3.141   4.155   7.924  0.6341 -0.1168 -0.3164
 8363SOL    HW136725   3.139   4.086   7.991 -0.1495 -0.6994 -0.9464
 8363SOL    HW236726   3.123   4.224   7.988 -2.0149 -0.2914 -0.8649
 8364SOL     OW36727   3.686   4.527   0.561  0.2562  0.1104  0.1329
 8364SOL    HW136728   3.599   4.568   0.565 -0.8041 -1.6291 -5.9419
 8364SOL    HW236729   3.732   4.584   0.499  0.2792  0.4867  0.4957
 8365SOL     OW36730   0.972   4.352  13.116 -0.2198 -0.0777  0.1271
 8365SOL    HW136731   1.023   4.372  13.195  0.0682  1.9110 -0.5679
 8365SOL    HW236732   0.972   4.257  13.119 -1.3241 -0.1360 -1.8880
 8366SOL     OW36733   0.092   4.220   6.660  0.3545 -0.3928  0.2313
 8366SOL    HW136734   0.142   4.197   6.738  1.1253  0.0282 -0.1357
 8366SOL    HW236735   0.164   4.237   6.600  1.7238 -1.1997  1.6419
 8367SOL     OW36736   2.974   2.151   2.444 -0.0736  0.2362  0.2082
 8367SOL    HW136737   2.934   2.164   2.530 -2.1512  1.5938 -0.9636
 8367SOL    HW236738   3.066   2.155   2.472  0.1104 -1.0544 -0.2057
 8368SOL     OW36739   3.112   4.166   6.245  0.0339  0.1841  0.5912
 8368SOL    HW136740   3.182   4.230   6.248  0.9787 -0.8005 -0.2567
 8368SOL    HW236741   3.154   4.101   6.188  3.0241  3.9857 -1.4926
 8369SOL     OW36742   2.944   3.670   6.107 -0.0691  0.4168  0.1103
 8369SOL    HW136743   2.861   3.677   6.153 -0.7373 -0.8706 -0.9159
 8369SOL    HW236744   3.013   3.706   6.163  0.7241  1.4090 -1.4944
 8370SOL     OW36745   1.334   1.733  17.173 -0.3807 -0.1105  0.5574
 8370SOL    HW136746   1.298   1.822  17.172 -4.0150 -1.6158 -1.0793
 8370SOL    HW236747   1.405   1.742  17.237  0.0117 -0.3046  0.1531
 8371SOL     OW36748   4.354   4.230   3.933 -0.1994  0.0690  0.4620
 8371SOL    HW136749   4.300   4.294   3.885  3.0212  0.7383 -2.2866
 8371SOL    HW236750   4.394   4.290   3.996  1.5447 -0.1772 -0.4177
 8372SOL     OW36751   2.107   0.212   3.952  0.2578 -0.1467 -0.2887
 8372SOL    HW136752   2.096   0.192   4.045  2.1930 -1.3785 -0.3152
 8372SOL    HW236753   2.047   0.150   3.910 -1.5242  2.1895 -1.1780
 8373SOL     OW36754   0.972   2.234   6.836 -0.3933 -0.1032 -0.6258
 8373SOL    HW136755   0.990   2.326   6.815 -1.1494  0.1180 -0.3178
 8373SOL    HW236756   0.898   2.240   6.897  1.1194 -0.9534  1.2642
 8374SOL     OW36757   1.637   0.047  16.230 -0.9317  0.0427  0.3736
 8374SOL    HW136758   1.598   0.129  16.261 -0.8566  0.2822 -0.1794
 8374SOL    HW236759   1.604   0.061  16.141 -1.9169 -1.9196  0.4441
 8375SOL     OW36760   3.952   0.593  11.860  0.1090 -0.3623  0.4764
 8375SOL    HW136761   3.999   0.656  11.806 -1.4748  1.3190  1.0712
 8375SOL    HW236762   3.893   0.653  11.905 -2.8912 -2.3030 -0.8803
 8376SOL     OW36763   2.174   3.703   5.576  0.2395 -0.0721 -0.0077
 8376SOL    HW136764   2.263   3.723   5.606  0.2023 -1.1682  0.8461
 8376SOL    HW236765   2.197   3.614   5.550  0.1206 -0.3207  0.7245
 8377SOL     OW36766   1.998   3.986   3.230  0.4059  0.4195 -0.1736
 8377SOL    HW136767   2.086   4.007   3.260  0.5370  1.1678 -1.0707
 8377SOL    HW236768   1.938   4.054   3.260  1.1860  1.0771 -0.1103
 8378SOL     OW36769   1.047   3.897   7.236 -0.1771 -0.3687  0.0307
 8378SOL    HW136770   1.128   3.884   7.286 -1.7904 -3.5399  1.8536
 8378SOL    HW236771   1.081   3.956   7.170 -1.7639  0.7732  0.2499
 8379SOL     OW36772   0.797   1.544   3.249  0.1413 -0.2469  0.4120
 8379SOL    HW136773   0.772   1.637   3.242  0.7721 -0.0768  0.4149
 8379SOL    HW236774   0.847   1.539   3.331 -1.6852  1.8563  1.6387
 8380SOL     OW36775   2.170   2.580  11.826  0.1726 -0.8600 -0.3011
 8380SOL    HW136776   2.174   2.565  11.921  1.0023  2.8942  0.2844
 8380SOL    HW236777   2.174   2.492  11.789  1.5867 -0.9480  0.0494
 8381SOL     OW36778   3.419   0.661   3.311  0.2892 -0.4387  0.0288
 8381SOL    HW136779   3.442   0.625   3.225  0.3073  1.7491 -0.8895
 8381SOL    HW236780   3.457   0.587   3.359  1.4109  0.8941  1.1778
 8382SOL     OW36781   0.544   1.044  12.354 -0.0116  0.0500 -0.2281
 8382SOL    HW136782   0.509   0.956  12.368  1.6029 -0.4774  0.5616
 8382SOL    HW236783   0.622   1.035  12.299  0.4981 -1.3519  0.7150
 8383SOL     OW36784   0.617   1.169  14.629  0.5895 -0.5180  0.1628
 8383SOL    HW136785   0.653   1.246  14.674 -1.0838  0.1098  0.4089
 8383SOL    HW236786   0.692   1.112  14.615  1.2540  0.0267  1.4901
 8384SOL     OW36787   1.995   2.856  17.592 -0.7373  0.1659  0.2567
 8384SOL    HW136788   2.007   2.834  17.684  0.3411  0.5060  0.2018
 8384SOL    HW236789   1.919   2.808  17.560 -0.1749  0.7191 -1.9025
 8385SOL     OW36790   0.409   1.310   3.116  0.2687 -0.3833  0.1043
 8385SOL    HW136791   0.364   1.383   3.158 -2.0558 -1.0524 -1.1761
 8385SOL    HW236792   0.340   1.281   3.056 -0.6031 -0.8315  1.3155
 8386SOL     OW36793   2.834   4.220   3.099  0.5398 -0.1229 -0.3739
 8386SOL    HW136794   2.894   4.295   3.103  1.3284 -0.8320  0.9403
 8386SOL    HW236795   2.762   4.260   3.051  2.9983  2.7807 -1.6467
 8387SOL     OW36796   1.839   0.140   4.233  0.0031  0.2183  0.3505
 8387SOL    HW136797   1.816   0.050   4.210 -1.9362  0.2898  2.0751
 8387SOL    HW236798   1.933   0.133   4.215 -0.1046 -1.8644  0.5064
 8388SOL     OW36799   1.468   3.647   3.289 -0.5548 -0.5921 -0.4368
 8388SOL    HW136800   1.404   3.718   3.280  1.0123  0.4581 -3.4774
 8388SOL    HW236801   1.412   3.573   3.266 -0.7832 -0.1733 -1.2082
 8389SOL     OW36802   0.698   0.708   8.402 -0.3655 -0.5992  0.0662
 8389SOL    HW136803   0.629   0.671   8.347 -1.8184  0.3071  1.2715
 8389SOL    HW236804   0.688   0.802   8.383  2.5951  0.0760  1.8657
 8390SOL     OW36805   0.213   1.013   8.609  0.2316 -0.1951 -0.6348
 8390SOL    HW136806   0.237   1.102   8.583  0.0908 -0.7149 -2.4742
 8390SOL    HW236807   0.162   1.035   8.687  0.2642 -1.8286 -0.1427
 8391SOL     OW36808   2.186   3.105  12.534 -0.1243  0.0358 -0.6028
 8391SOL    HW136809   2.197   3.135  12.444  1.5973  0.4992 -0.2303
 8391SOL    HW236810   2.098   3.137  12.554 -0.1924  0.4588 -1.5566
 8392SOL     OW36811   1.420   3.301   8.946  0.5071 -0.0395 -0.2753
 8392SOL    HW136812   1.355   3.231   8.937  1.0019 -0.5993  0.4172
 8392SOL    HW236813   1.475   3.269   9.018  0.7116  0.0581 -0.3864
 8393SOL     OW36814   3.156   0.803  11.067  0.0638 -0.6199  0.0798
 8393SOL    HW136815   3.242   0.844  11.067 -0.9750  1.6134 -1.5693
 8393SOL    HW236816   3.171   0.732  11.129  4.5228  1.8651  1.8377
 8394SOL     OW36817   1.733   0.176  15.520 -0.2750  0.4062  0.1458
 8394SOL    HW136818   1.713   0.160  15.428 -0.0384 -0.2180  0.2029
 8394SOL    HW236819   1.761   0.268  15.515 -1.3020  0.6382 -1.4930
 8395SOL     OW36820   4.335   1.675   8.944  0.9642 -0.0380 -0.0112
 8395SOL    HW136821   4.325   1.592   8.990 -2.7079  2.2637  3.3814
 8395SOL    HW236822   4.321   1.731   9.020 -2.5501  2.6352 -2.6228
 8396SOL     OW36823   2.606   1.564   1.768 -0.5937 -0.0819 -0.4643
 8396SOL    HW136824   2.549   1.512   1.711 -0.4040 -0.0282 -0.7007
 8396SOL    HW236825   2.661   1.499   1.811  2.1304  2.4811 -0.0631
 8397SOL     OW36826   3.228   2.554   3.395 -0.1849 -0.3877 -0.0294
 8397SOL    HW136827   3.199   2.615   3.463 -1.0279  0.5867 -1.2774
 8397SOL    HW236828   3.211   2.609   3.319  1.5144 -0.2159 -0.2840
 8398SOL     OW36829   4.111   0.997  14.699  0.5487  0.0573  0.1946
 8398SOL    HW136830   4.068   1.018  14.782  0.4138 -0.8995  0.3619
 8398SOL    HW236831   4.102   0.902  14.705  1.0196 -0.0888 -1.3355
 8399SOL     OW36832   1.314   3.065   2.337  0.2369  0.2297 -0.2159
 8399SOL    HW136833   1.248   3.132   2.351  1.2432  1.1435  0.0968
 8399SOL    HW236834   1.397   3.108   2.321  1.0940 -1.6596 -0.9210
 8400SOL     OW36835   1.914   4.040   6.707  0.1043  0.1915 -0.1495
 8400SOL    HW136836   1.910   3.952   6.745 -3.9939  0.5884  0.3505
 8400SOL    HW236837   1.921   4.017   6.615  0.3976 -0.6378  0.0806
 8401SOL     OW36838   2.766   4.343  11.200  0.1879  0.2829 -0.4468
 8401SOL    HW136839   2.830   4.338  11.129  0.2360 -0.4696 -0.3532
 8401SOL    HW236840   2.709   4.270  11.176 -1.4674  0.4561  2.9402
 8402SOL     OW36841   1.204   4.713   2.465  0.4879 -0.0473  0.0669
 8402SOL    HW136842   1.118   4.721   2.422  1.1116 -0.3356 -1.2280
 8402SOL    HW236843   1.171   0.006   2.548  1.9771 -2.1139  1.4929
 8403SOL     OW36844   4.438   2.625   5.369 -0.3240  0.2928 -0.0688
 8403SOL    HW136845   4.516   2.603   5.420 -0.1891  2.1671  0.5122
 8403SOL    HW236846   4.478   2.638   5.283 -0.7338 -0.8992 -0.4368
 8404SOL     OW36847   4.135   2.786  14.399  0.3093  0.7923  0.1901
 8404SOL    HW136848   4.059   2.844  14.392 -0.9868 -0.6246  2.3382
 8404SOL    HW236849   4.184   2.812  14.478  1.6601  1.7737 -0.9574
 8405SOL     OW36850   1.593   2.145   8.134  0.0803 -0.2217 -0.2705
 8405SOL    HW136851   1.668   2.126   8.078 -0.4716 -1.0281 -0.7442
 8405SOL    HW236852   1.591   2.072   8.196  1.5487  1.4781  1.7758
 8406SOL     OW36853   4.270   4.721  11.688  0.2797 -0.5852 -0.8143
 8406SOL    HW136854   4.235   4.661  11.621 -0.2415 -0.7810 -0.3768
 8406SOL    HW236855   4.316   0.048  11.640 -0.6884 -0.5136 -1.6480
 8407SOL     OW36856   2.297   1.170   1.160  0.6881 -0.0642 -0.3191
 8407SOL    HW136857   2.364   1.196   1.097  0.7108 -1.1182 -0.7279
 8407SOL    HW236858   2.232   1.131   1.101 -0.9714  0.3035  1.2433
 8408SOL     OW36859   4.022   1.132  17.114 -0.2357  0.2250  0.3925
 8408SOL    HW136860   3.965   1.154  17.040  0.1644 -1.2450 -0.3710
 8408SOL    HW236861   3.964   1.116  17.188 -1.6472 -0.1721 -0.7988
 8409SOL     OW36862   0.243   3.422   8.609 -0.4840  0.0789 -0.1804
 8409SOL    HW136863   0.259   3.328   8.611 -1.8851 -0.1355  1.0030
 8409SOL    HW236864   0.152   3.425   8.582  0.2857  1.5388 -2.6018
 8410SOL     OW36865   1.828   0.915  15.125 -0.5744  0.8722 -0.1526
 8410SOL    HW136866   1.907   0.968  15.137  0.4711 -0.4962 -1.0308
 8410SOL    HW236867   1.825   0.910  15.029 -0.7001  0.5602 -0.1311
 8411SOL     OW36868   2.826   2.719   2.592 -0.3089 -0.2403  0.1789
 8411SOL    HW136869   2.920   2.723   2.581 -0.2554 -2.4543 -0.0472
 8411SOL    HW236870   2.804   2.813   2.595  0.9628  0.0231  1.2215
 8412SOL     OW36871   0.177   0.024   8.906  0.8193 -0.0585  0.4228
 8412SOL    HW136872   0.140   0.107   8.937  1.9603  1.2688 -1.7965
 8412SOL    HW236873   0.220   0.004   8.989  0.3640 -2.0839  0.1766
 8413SOL     OW36874   0.918   1.458  16.041  0.8212 -0.3211  0.9083
 8413SOL    HW136875   0.972   1.527  16.003  0.2462 -0.6683 -0.5551
 8413SOL    HW236876   0.969   1.419  16.111  0.4526 -0.4036  1.1341
 8414SOL     OW36877   1.222   1.133   4.363 -0.2629 -0.2501  0.2513
 8414SOL    HW136878   1.130   1.130   4.337  0.1487 -0.5489 -1.1504
 8414SOL    HW236879   1.220   1.058   4.422  1.3351  0.3546  1.0539
 8415SOL     OW36880   2.130   1.320   7.463  0.1147 -0.5186 -0.0219
 8415SOL    HW136881   2.096   1.354   7.546 -0.8090  0.6222 -0.8609
 8415SOL    HW236882   2.117   1.397   7.408 -1.4276 -0.9743 -0.3077
 8416SOL     OW36883   2.462   4.596   9.781 -0.9608  0.6549 -0.3435
 8416SOL    HW136884   2.556   4.594   9.767 -0.8911 -0.5385  0.3019
 8416SOL    HW236885   2.431   4.527   9.722 -0.3356 -0.0054  0.1093
 8417SOL     OW36886   2.182   3.614   2.787 -0.5503  0.3311  0.1137
 8417SOL    HW136887   2.086   3.611   2.790 -0.5375 -1.3382 -1.0125
 8417SOL    HW236888   2.191   3.651   2.700  2.0623 -1.8240 -0.5297
 8418SOL     OW36889   1.450   3.102   7.459 -0.1856 -0.1642 -0.2781
 8418SOL    HW136890   1.456   3.189   7.500 -1.0733  0.2444 -1.0351
 8418SOL    HW236891   1.522   3.107   7.395 -1.6678 -2.4338 -2.1135
 8419SOL     OW36892   0.551   2.735   1.740  0.0173 -0.4416  0.0292
 8419SOL    HW136893   0.470   2.757   1.786 -0.1833 -0.7201 -0.1943
 8419SOL    HW236894   0.587   2.821   1.716  1.2903 -1.4187 -1.5495
 8420SOL     OW36895   0.412   4.036   3.533  0.3518 -0.0251 -0.7155
 8420SOL    HW136896   0.447   4.061   3.448  0.9191  0.7693 -0.2476
 8420SOL    HW236897   0.359   3.960   3.508  0.5689 -0.3288 -0.2577
 8421SOL     OW36898   4.081   1.117   5.056 -0.4851  0.1407  0.5129
 8421SOL    HW136899   4.066   1.194   5.112 -1.0902  0.5730 -0.2397
 8421SOL    HW236900   4.108   1.164   4.978  0.6497  1.3319  1.6213
 8422SOL     OW36901   0.699   3.813   7.743 -0.3453  0.5730  0.3079
 8422SOL    HW136902   0.711   3.722   7.770 -1.3354  0.9553  2.0664
 8422SOL    HW236903   0.783   3.858   7.746 -0.9006  1.6206  0.3732
 8423SOL     OW36904   2.215   1.989  15.030  0.2240  0.1791  0.0073
 8423SOL    HW136905   2.300   1.993  14.986  0.6820 -4.0029  0.4909
 8423SOL    HW236906   2.160   1.980  14.952  2.1249  0.8856 -1.4079
 8424SOL     OW36907   0.036   4.393   8.581  0.3915 -0.2892  0.0127
 8424SOL    HW136908   0.056   4.378   8.489  1.7441  2.5574 -0.1683
 8424SOL    HW236909   4.693   4.439   8.572  0.9150  0.8904  1.0456
 8425SOL     OW36910   2.782   1.699   4.934 -0.2542  0.1993  0.2187
 8425SOL    HW136911   2.860   1.690   4.879 -1.0285  1.4419 -1.0647
 8425SOL    HW236912   2.750   1.609   4.937  3.1316 -1.0510 -1.1129
 8426SOL     OW36913   4.318   4.342   6.460  0.3352  0.2436 -0.6624
 8426SOL    HW136914   4.408   4.327   6.490  1.2757 -0.8577 -3.9867
 8426SOL    HW236915   4.337   4.327   6.367 -0.0227  0.4172 -0.7617
 8427SOL     OW36916   2.233   3.708   6.694 -0.3838  0.4500 -0.1687
 8427SOL    HW136917   2.309   3.656   6.719 -1.2719 -0.7394  0.0648
 8427SOL    HW236918   2.174   3.639   6.664  1.9495 -0.8064 -1.8980
 8428SOL     OW36919   0.222   2.479   6.739  0.3157 -0.6224 -0.4082
 8428SOL    HW136920   0.128   2.467   6.744  0.4739 -1.1250  1.3100
 8428SOL    HW236921   0.225   2.523   6.654 -0.3878 -1.7098 -0.9959
 8429SOL     OW36922   0.621   3.472   0.303 -0.0751 -0.7197 -0.1253
 8429SOL    HW136923   0.695   3.532   0.298 -0.0708 -0.7721 -0.7548
 8429SOL    HW236924   0.630   3.446   0.394  0.2583 -1.3391 -0.3309
 8430SOL     OW36925   3.248   4.062  16.620 -0.6772  0.4474 -0.1587
 8430SOL    HW136926   3.321   4.070  16.558  0.6817  0.6000  1.4444
 8430SOL    HW236927   3.177   4.103  16.572 -1.0088 -0.2226 -0.2305
 8431SOL     OW36928   3.070   4.147  11.349 -0.2702  0.6103  0.8390
 8431SOL    HW136929   3.118   4.071  11.318  0.9633  1.5005  0.5530
 8431SOL    HW236930   3.131   4.221  11.355  2.2086 -1.3409 -0.4729
 8432SOL     OW36931   4.574   2.350  12.443 -0.1416 -0.6815 -0.4876
 8432SOL    HW136932   4.517   2.275  12.462  0.0617 -0.3399  1.5363
 8432SOL    HW236933   4.554   2.412  12.513 -3.2174  0.1157 -2.0772
 8433SOL     OW36934   2.730   4.539   2.361  0.0377  0.9653  1.1430
 8433SOL    HW136935   2.745   4.546   2.267 -2.2664 -1.5596  0.5949
 8433SOL    HW236936   2.767   4.622   2.391  0.1394  0.3638  2.7102
 8434SOL     OW36937   3.328   2.826  14.078  0.4066 -0.1093 -0.0229
 8434SOL    HW136938   3.384   2.903  14.067  2.2827 -1.4351  0.3141
 8434SOL    HW236939   3.255   2.865  14.127  1.2087  0.4635  0.7103
 8435SOL     OW36940   3.560   4.531   8.970  0.6954  0.0309  0.1874
 8435SOL    HW136941   3.520   4.516   8.885 -0.6372  1.4231  0.5689
 8435SOL    HW236942   3.484   4.543   9.026  1.9725  2.5566  1.4044
 8436SOL     OW36943   3.264   2.756   0.839  0.1774 -0.2487 -0.1453
 8436SOL    HW136944   3.193   2.796   0.888  1.3179  2.9076 -1.0684
 8436SOL    HW236945   3.299   2.833   0.794 -0.4930  0.9646  1.4370
 8437SOL     OW36946   2.295   3.805   6.074  0.3438 -0.3484  0.2435
 8437SOL    HW136947   2.235   3.815   6.001  1.5309 -0.8168 -0.8009
 8437SOL    HW236948   2.303   3.709   6.079  1.8763 -0.2859 -1.1269
 8438SOL     OW36949   4.739   1.771  10.473  0.2579  0.7749 -0.9484
 8438SOL    HW136950   0.000   1.750  10.567  0.2831 -2.4688 -1.6508
 8438SOL    HW236951   4.657   1.727  10.452 -0.5481  1.1252  1.5353
 8439SOL     OW36952   1.066   1.294   8.476 -0.2505 -0.1528  0.6139
 8439SOL    HW136953   1.046   1.272   8.566  2.6099 -0.4175  1.2007
 8439SOL    HW236954   1.025   1.216   8.438 -1.9690  0.0603  2.0621
 8440SOL     OW36955   1.756   0.990  15.842 -0.1662  0.6954  0.0634
 8440SOL    HW136956   1.818   1.057  15.871  2.0483  0.1621 -3.4063
 8440SOL    HW236957   1.673   1.036  15.825 -0.7285  0.3287  1.7730
 8441SOL     OW36958   0.720   3.116   2.845  0.0150 -0.3670 -0.4861
 8441SOL    HW136959   0.699   3.189   2.903  0.8453 -1.4688  1.2068
 8441SOL    HW236960   0.706   3.034   2.892 -1.1607 -1.3129 -2.4699
 8442SOL     OW36961   3.518   1.280   0.438 -0.1894 -0.1400 -0.5593
 8442SOL    HW136962   3.558   1.256   0.354  0.6993  0.7556 -0.3910
 8442SOL    HW236963   3.507   1.192   0.472  0.3663 -0.2935 -0.7760
 8443SOL     OW36964   0.069   0.263  13.368  0.1567  0.3595 -0.3461
 8443SOL    HW136965   0.148   0.291  13.414  0.0006  0.5239 -0.1777
 8443SOL    HW236966   0.013   0.256  13.445 -1.0086 -2.2694 -1.4053
 8444SOL     OW36967   0.401   1.592  17.749  0.6542 -0.5752  0.0636
 8444SOL    HW136968   0.369   1.653   0.055 -2.8799 -2.8206  0.4151
 8444SOL    HW236969   0.475   1.550   0.032 -0.0958  0.9545  2.8295
 8445SOL     OW36970   2.722   2.451   1.164  0.0465 -0.4638  0.1069
 8445SOL    HW136971   2.738   2.373   1.217 -0.2391 -0.7322 -0.2019
 8445SOL    HW236972   2.794   2.505   1.195  1.5035 -1.7762 -0.9860
 8446SOL     OW36973   3.858   0.161   3.192  0.1181 -0.0506 -0.3338
 8446SOL    HW136974   3.920   0.212   3.244 -1.1637  0.7046  0.4477
 8446SOL    HW236975   3.793   0.128   3.255 -0.0840  0.1533 -0.4348
 8447SOL     OW36976   0.708   4.423   1.474 -0.4552  0.0507  0.2712
 8447SOL    HW136977   0.782   4.481   1.493  0.5050 -0.0067 -3.1905
 8447SOL    HW236978   0.754   4.340   1.467 -0.3860 -0.0275  1.6934
 8448SOL     OW36979   3.792   2.003   9.473 -0.2627 -0.2332  0.0233
 8448SOL    HW136980   3.777   1.975   9.383  0.8277  0.5743 -0.4108
 8448SOL    HW236981   3.705   2.018   9.511 -0.0272  1.4460 -0.0845
 8449SOL     OW36982   4.314   4.311   1.716  0.2919 -0.3792 -0.2851
 8449SOL    HW136983   4.252   4.358   1.660 -0.8347 -0.4243  0.9331
 8449SOL    HW236984   4.286   4.219   1.716 -1.2283  0.0823 -1.0646
 8450SOL     OW36985   3.862   2.382   7.020  0.2080  0.6116  0.2778
 8450SOL    HW136986   3.866   2.321   6.947 -2.1205  1.0581 -0.2202
 8450SOL    HW236987   3.858   2.466   6.974  2.7962  0.3732 -0.3748
 8451SOL     OW36988   1.394   3.148   3.900  0.3642 -0.3856  0.5697
 8451SOL    HW136989   1.405   3.088   3.826 -1.5789 -0.0203 -0.0016
 8451SOL    HW236990   1.324   3.195   3.855  1.4098  0.1975 -0.4473
 8452SOL     OW36991   0.183   3.766   8.666  0.5943 -0.6110  0.0882
 8452SOL    HW136992   0.200   3.793   8.757  1.3294  1.2069 -0.6038
 8452SOL    HW236993   0.091   3.740   8.665 -0.0971  2.0895 -3.5460
 8453SOL     OW36994   2.743   2.857   6.940  0.5427  0.4862  0.3721
 8453SOL    HW136995   2.740   2.787   6.874  2.0773  2.3211 -1.6375
 8453SOL    HW236996   2.838   2.863   6.949  0.5970 -0.6452  0.5715
 8454SOL     OW36997   3.898   3.995   4.797  0.4175  0.1733 -0.3436
 8454SOL    HW136998   3.868   4.016   4.885  0.8513  0.2250 -0.2044
 8454SOL    HW236999   3.935   3.907   4.809  0.8357  0.1935 -1.4380
 8455SOL     OW37000   0.896   1.933   4.077  0.5459  0.7270  0.0117
 8455SOL    HW137001   0.816   1.985   4.068 -0.3159 -0.8026 -1.0532
 8455SOL    HW237002   0.949   2.004   4.115 -1.2282  2.6813 -1.1229
 8456SOL     OW37003   4.223   2.652   6.908 -0.0207  0.0483 -0.2311
 8456SOL    HW137004   4.212   2.568   6.864  0.6563 -0.1255 -0.0627
 8456SOL    HW237005   4.197   2.627   6.997  0.1606 -0.2017 -0.2477
 8457SOL     OW37006   2.094   0.473   5.938  0.4577 -0.4709 -0.0398
 8457SOL    HW137007   2.040   0.443   6.011 -1.3617  1.7058 -0.4642
 8457SOL    HW237008   2.106   0.563   5.969 -1.1463 -0.0707 -0.5665
 8458SOL     OW37009   0.383   3.545   3.951  0.7007  0.2129 -0.6564
 8458SOL    HW137010   0.473   3.565   3.976 -0.3096  0.4801  2.7573
 8458SOL    HW237011   0.392   3.464   3.901  1.7119  0.0985 -0.2891
 8459SOL     OW37012   4.413   1.433   2.821  0.9236  0.2185 -0.0894
 8459SOL    HW137013   4.408   1.505   2.758  0.8494  1.7872  1.7007
 8459SOL    HW237014   4.420   1.481   2.904  2.4670 -1.0261  0.4937
 8460SOL     OW37015   2.586   0.053  17.001  0.3142  0.1845 -0.0217
 8460SOL    HW137016   2.681   0.051  17.011  0.3002 -2.0407 -0.4915
 8460SOL    HW237017   2.578   0.148  16.994 -2.5047  0.0084  0.5547
 8461SOL     OW37018   0.386   4.033   3.830  0.6817 -0.3943  0.0489
 8461SOL    HW137019   0.394   4.037   3.735  0.2573  0.0679  0.0365
 8461SOL    HW237020   0.293   4.015   3.846  1.2513 -2.0672  1.5389
 8462SOL     OW37021   3.927   1.841   1.951  0.2039  0.4868 -0.4846
 8462SOL    HW137022   3.832   1.850   1.959  0.0646 -0.0550 -1.4821
 8462SOL    HW237023   3.934   1.764   1.895 -2.1954  0.7741 -1.2094
 8463SOL     OW37024   1.943   2.512   6.231 -0.2964  0.2844  0.5209
 8463SOL    HW137025   1.912   2.464   6.154 -0.9320 -0.3470  1.1632
 8463SOL    HW237026   1.920   2.461   6.309  3.0154 -0.8954  0.7105
 8464SOL     OW37027   2.735   3.819  11.550 -0.0111 -0.3526 -0.7278
 8464SOL    HW137028   2.800   3.826  11.480  0.3620  0.7651 -0.2784
 8464SOL    HW237029   2.792   3.864  11.614  0.3668 -1.2829 -0.4089
 8465SOL     OW37030   1.499   1.076   3.286 -0.7019 -0.0604  0.0496
 8465SOL    HW137031   1.458   1.162   3.286  2.4483  1.4225  0.4659
 8465SOL    HW237032   1.453   1.038   3.212 -2.2142  2.4530 -0.2888
 8466SOL     OW37033   0.563   4.075   4.718  0.0080 -0.1656 -0.3726
 8466SOL    HW137034   0.536   4.032   4.800  1.3983 -0.3971 -0.0322
 8466SOL    HW237035   0.656   4.051   4.721 -0.6191 -2.6038 -0.3577
 8467SOL     OW37036   0.870   1.719  10.838 -0.4093  0.2736 -0.4301
 8467SOL    HW137037   0.803   1.657  10.865 -0.9289  0.2705 -1.7215
 8467SOL    HW237038   0.935   1.666  10.792  1.3891  1.3238  0.9222
 8468SOL     OW37039   4.032   1.551   3.313 -0.2719 -0.3679 -0.1372
 8468SOL    HW137040   3.951   1.520   3.274 -0.2881 -0.1612 -0.2679
 8468SOL    HW237041   4.006   1.642   3.327 -0.4080 -0.2444 -1.2532
 8469SOL     OW37042   2.053   3.164   1.343  0.3082 -0.3169  0.6293
 8469SOL    HW137043   1.992   3.213   1.399 -1.4588 -1.6153 -0.1527
 8469SOL    HW237044   2.076   3.229   1.276  1.7473  0.5039  1.9170
 8470SOL     OW37045   3.819   1.397  17.642 -0.6338  0.6808  0.4300
 8470SOL    HW137046   3.878   1.327  17.616 -1.1050  0.5153 -0.1937
 8470SOL    HW237047   3.804   1.383  17.736 -0.6120  0.8635  0.4608
 8471SOL     OW37048   3.151   3.778   6.357  0.0697  0.3028  0.4398
 8471SOL    HW137049   3.176   3.829   6.280 -0.5100  0.4178  0.3269
 8471SOL    HW237050   3.098   3.837   6.410 -0.2477 -0.3003  0.7957
 8472SOL     OW37051   2.792   4.606   2.096  0.2820 -0.4843 -0.4730
 8472SOL    HW137052   2.757   4.678   2.044 -1.5390 -0.7653  0.3652
 8472SOL    HW237053   2.815   4.541   2.029 -1.8925 -0.4525 -1.2438
 8473SOL     OW37054   1.328   2.952   2.619 -0.5363  0.1452 -0.2326
 8473SOL    HW137055   1.419   2.965   2.647 -1.0757 -0.1988  1.7123
 8473SOL    HW237056   1.311   3.023   2.556 -1.1761 -0.6347 -0.9397
 8474SOL     OW37057   3.669   4.036   7.878  0.2945  0.0064 -0.2443
 8474SOL    HW137058   3.633   3.989   7.802  0.6146  0.2530 -0.5515
 8474SOL    HW237059   3.690   4.122   7.842 -1.2829  0.5299  0.0848
 8475SOL     OW37060   3.307   2.131   2.252  0.5215  0.3890 -0.0257
 8475SOL    HW137061   3.231   2.078   2.229  0.2622  0.1806  1.3464
 8475SOL    HW237062   3.274   2.213   2.215  4.5241  2.3390  0.6597
 8476SOL     OW37063   1.056   0.230  11.925  0.2675 -0.5258  0.3800
 8476SOL    HW137064   0.974   0.191  11.957  0.7620 -1.3287  0.6584
 8476SOL    HW237065   1.029   0.318  11.901 -0.6810 -0.0912  3.0387
 8477SOL     OW37066   2.995   4.579   9.898 -0.6528  0.6144  0.0211
 8477SOL    HW137067   3.014   4.656   9.845 -0.5854  1.0312  0.6589
 8477SOL    HW237068   3.050   4.594   9.975 -1.4006 -0.5554  0.7842
 8478SOL     OW37069   1.830   3.988   3.640 -0.2293  0.0283  0.3016
 8478SOL    HW137070   1.910   3.967   3.687 -0.4993 -1.1113  0.2443
 8478SOL    HW237071   1.833   3.937   3.559 -2.3177  0.4228 -0.0215
 8479SOL     OW37072   0.405   1.090   9.399  0.1336 -0.4636  0.0759
 8479SOL    HW137073   0.338   1.083   9.332  0.3497 -1.4504 -0.0302
 8479SOL    HW237074   0.477   1.068   9.340  0.3418  0.6123 -0.0829
 8480SOL     OW37075   1.657   4.064   7.709 -0.0619 -0.3666 -0.0923
 8480SOL    HW137076   1.680   4.105   7.792 -0.1099  1.5588 -1.0222
 8480SOL    HW237077   1.651   3.972   7.734 -3.0110 -0.7389 -2.1063
 8481SOL     OW37078   4.029   3.169  15.993  0.0257  0.4440 -0.2736
 8481SOL    HW137079   4.006   3.133  16.078 -0.7216  1.1186 -0.1928
 8481SOL    HW237080   3.947   3.215  15.973 -0.0249  0.3576 -0.2625
 8482SOL     OW37081   2.026   3.204   8.174 -0.0432  0.8537 -0.2566
 8482SOL    HW137082   1.978   3.269   8.224 -0.7783  0.5639 -0.5831
 8482SOL    HW237083   1.964   3.188   8.102  0.2106  0.3580 -0.3656
 8483SOL     OW37084   0.901   3.860   4.813  0.7389 -0.2352 -0.3655
 8483SOL    HW137085   0.980   3.840   4.762  1.8992  0.6542  1.0715
 8483SOL    HW237086   0.901   3.796   4.884 -0.3184  1.9409  1.6076
 8484SOL     OW37087   1.939   1.160   7.344  0.2318 -0.4704  0.0859
 8484SOL    HW137088   2.016   1.204   7.382 -0.7019 -0.0433  1.4834
 8484SOL    HW237089   1.886   1.232   7.309  1.0176  0.6221  1.1008
 8485SOL     OW37090   2.327   1.268   4.247  0.2911  0.5583  0.5318
 8485SOL    HW137091   2.389   1.215   4.197  0.6662  0.6395  0.9048
 8485SOL    HW237092   2.385   1.324   4.299  0.2614  2.2785 -1.2742
 8486SOL     OW37093   3.640   3.474  10.169  0.4710 -0.0317 -0.0717
 8486SOL    HW137094   3.576   3.539  10.140  1.6963  2.2088  2.2705
 8486SOL    HW237095   3.637   3.496  10.262  2.0417 -2.7164  0.6176
 8487SOL     OW37096   0.159   3.522  11.670 -0.3216  0.4594 -0.3075
 8487SOL    HW137097   0.225   3.494  11.606  0.7301  0.4809  0.7681
 8487SOL    HW237098   0.077   3.489  11.635  0.0922 -0.4988 -0.3849
 8488SOL     OW37099   2.373   0.287  11.121 -0.0368  0.4807 -0.2292
 8488SOL    HW137100   2.377   0.210  11.177  1.8978  0.1218 -0.8535
 8488SOL    HW237101   2.453   0.286  11.067  0.2928 -1.6748  0.3025
 8489SOL     OW37102   1.388   0.614  14.178 -0.0704 -0.0627 -0.1937
 8489SOL    HW137103   1.319   0.604  14.243  0.8083 -2.9679  0.2664
 8489SOL    HW237104   1.450   0.667  14.229 -0.6084 -1.1709  1.6058
 8490SOL     OW37105   4.470   2.594   2.139 -0.5426  0.1553  0.3206
 8490SOL    HW137106   4.415   2.620   2.065 -0.5584  0.8828  0.5923
 8490SOL    HW237107   4.494   2.502   2.132 -0.9089  0.0314  0.7145
 8491SOL     OW37108   1.175   3.640   5.345 -0.5006  0.1819  0.7062
 8491SOL    HW137109   1.142   3.551   5.333 -0.2303  0.3197 -1.1253
 8491SOL    HW237110   1.092   3.684   5.360 -0.3168 -0.3236  3.1889
 8492SOL     OW37111   4.412   0.649  13.853 -0.4750  0.0681  0.0919
 8492SOL    HW137112   4.353   0.611  13.918  0.1328 -1.8739 -0.4797
 8492SOL    HW237113   4.423   0.731  13.901 -0.1536  1.1773 -1.8827
 8493SOL     OW37114   0.492   1.873   6.698 -0.1361  0.0339  0.1002
 8493SOL    HW137115   0.506   1.871   6.604  1.1801 -0.2518  0.3007
 8493SOL    HW237116   0.466   1.964   6.712 -0.5714  0.0446 -0.8270
 8494SOL     OW37117   0.205   2.123   2.171  0.6927  0.5061 -0.3295
 8494SOL    HW137118   0.259   2.104   2.247 -2.9683  0.4878  2.2897
 8494SOL    HW237119   0.211   2.042   2.121  2.6968 -0.0313  0.7899
 8495SOL     OW37120   3.045   2.682   7.061 -0.0218  0.3427  0.0108
 8495SOL    HW137121   3.028   2.768   7.023  2.3978  1.5902  1.7156
 8495SOL    HW237122   3.108   2.644   6.999 -0.7697 -2.4819  0.9941
 8496SOL     OW37123   4.135   4.105   6.453 -0.1184 -0.3114 -0.0790
 8496SOL    HW137124   4.184   4.183   6.480  0.0482 -0.2091 -0.6721
 8496SOL    HW237125   4.119   4.070   6.541 -1.0277 -0.7753 -0.4275
 8497SOL     OW37126   2.953   1.187   2.481 -0.1773 -0.1823  0.1275
 8497SOL    HW137127   2.903   1.247   2.536 -1.0230 -1.8378  1.1783
 8497SOL    HW237128   2.971   1.121   2.548  0.3886  1.4171  1.5334
 8498SOL     OW37129   0.012   2.528   7.801 -0.5010  0.6557  0.4377
 8498SOL    HW137130   0.082   2.532   7.736  0.3525  0.0863  1.3257
 8498SOL    HW237131   0.020   2.444   7.845  3.0703  0.3156 -0.9034
 8499SOL     OW37132   0.861   3.542   8.047 -0.6851 -0.2288 -0.2087
 8499SOL    HW137133   0.932   3.512   7.990  1.4580  0.5048  2.1263
 8499SOL    HW237134   0.816   3.458   8.058 -1.3508 -0.2631 -3.1635
 8500SOL     OW37135   0.536   2.255  17.557  0.2806 -0.4440 -0.3023
 8500SOL    HW137136   0.604   2.315  17.526  0.3867 -0.3826  0.0525
 8500SOL    HW237137   0.544   2.180  17.499  2.0795 -0.4374 -0.0662
 8501SOL     OW37138   0.552   1.488   0.611  0.0549 -0.3172 -0.0706
 8501SOL    HW137139   0.611   1.563   0.613  1.4894 -1.3973 -2.5418
 8501SOL    HW237140   0.518   1.501   0.522 -1.7787  1.4484  0.8740
 8502SOL     OW37141   4.315   1.469  16.945 -0.0269 -0.4318  0.2830
 8502SOL    HW137142   4.261   1.412  17.000  1.0727 -1.8455 -0.1335
 8502SOL    HW237143   4.326   1.413  16.869  1.6812  1.3479 -0.7554
 8503SOL     OW37144   3.922   0.402   7.619 -0.2422 -0.3543 -0.1531
 8503SOL    HW137145   3.965   0.372   7.700 -0.1495  0.4763  0.0988
 8503SOL    HW237146   3.931   0.320   7.570 -0.7361  1.5416 -3.3792
 8504SOL     OW37147   3.180   0.409  11.025  0.0274 -0.3713  0.1745
 8504SOL    HW137148   3.100   0.432  10.979 -1.5241 -1.6519  2.2165
 8504SOL    HW237149   3.180   0.316  11.003  0.0679  0.1898 -2.1319
 8505SOL     OW37150   3.843   4.611  11.796  0.2926 -0.0402 -0.1267
 8505SOL    HW137151   3.835   4.648  11.884  0.1484  1.4320 -0.7649
 8505SOL    HW237152   3.846   4.688  11.740 -0.7954 -0.5147 -0.8376
 8506SOL     OW37153   3.761   2.654   9.604  0.4095  0.5000  0.4989
 8506SOL    HW137154   3.684   2.710   9.598  1.8404  2.2099 -1.7693
 8506SOL    HW237155   3.716   2.570   9.616  2.2295 -0.2721  1.9322
 8507SOL     OW37156   2.749   2.500   9.974  0.1842  0.3195 -0.2860
 8507SOL    HW137157   2.745   2.483  10.068  0.2944  0.7205 -0.2106
 8507SOL    HW237158   2.782   2.413   9.949 -3.2139 -1.2971  0.8258
 8508SOL     OW37159   1.042   2.857   8.368 -0.5777  0.9968  0.1609
 8508SOL    HW137160   1.070   2.766   8.360 -1.7644  0.6304  0.2337
 8508SOL    HW237161   1.092   2.897   8.297 -0.2350  0.6219  0.1962
 8509SOL     OW37162   1.200   2.346   8.155 -0.4726 -0.3290  0.1168
 8509SOL    HW137163   1.137   2.391   8.210  0.5551 -0.1288  1.1355
 8509SOL    HW237164   1.216   2.261   8.196  2.0212 -0.0343 -0.2098
 8510SOL     OW37165   3.052   2.944   3.503 -0.2629 -0.0834  0.1327
 8510SOL    HW137166   2.984   2.992   3.457  1.1746  1.0664 -0.7976
 8510SOL    HW237167   3.123   3.007   3.518 -0.6086  0.7466 -1.6874
 8511SOL     OW37168   1.588   3.712   2.555 -0.0316  0.1297  0.5535
 8511SOL    HW137169   1.657   3.649   2.535 -0.5163  0.5904 -2.5355
 8511SOL    HW237170   1.562   3.744   2.469  1.2413  0.3115  0.2368
 8512SOL     OW37171   0.593   0.727   9.856  0.0510  0.5795 -0.1141
 8512SOL    HW137172   0.655   0.791   9.890 -1.2740  1.6158  0.3580
 8512SOL    HW237173   0.589   0.735   9.761 -0.3346 -2.5382 -0.3672
 8513SOL     OW37174   4.085   2.028   2.090  0.2109 -0.4068  0.2336
 8513SOL    HW137175   4.051   1.954   2.039 -1.0895  1.0334 -0.9728
 8513SOL    HW237176   4.003   2.076   2.103  1.0443  1.1969 -0.4965
 8514SOL     OW37177   4.225   4.186   8.201 -0.2536 -0.1469 -0.1852
 8514SOL    HW137178   4.300   4.209   8.257 -0.2678 -0.3864 -0.0709
 8514SOL    HW237179   4.259   4.125   8.136  1.4333  0.8942 -0.2674
 8515SOL     OW37180   0.792   1.825   3.252 -0.6133  0.5366 -0.3978
 8515SOL    HW137181   0.809   1.918   3.239 -2.7993  0.5600 -2.9777
 8515SOL    HW237182   0.780   1.817   3.347 -1.6294 -0.3354 -0.6024
 8516SOL     OW37183   1.371   0.104   9.194  0.2706 -0.5044  0.0948
 8516SOL    HW137184   1.389   0.198   9.190 -2.0736 -0.0406  0.7592
 8516SOL    HW237185   1.335   0.097   9.282  0.0840  0.2103  0.0731
 8517SOL     OW37186   3.991   1.856   8.781  0.2204  0.1486  0.4290
 8517SOL    HW137187   3.998   1.797   8.857  0.1030 -2.8255 -1.8600
 8517SOL    HW237188   3.955   1.799   8.713  0.9421 -0.1735  0.3158
 8518SOL     OW37189   0.001   4.629   7.498  0.4181 -0.0607  0.1554
 8518SOL    HW137190   0.080   4.682   7.488  0.6825 -0.7486 -1.2425
 8518SOL    HW237191   0.031   4.543   7.470  0.9082 -0.1944  1.0788
 8519SOL     OW37192   3.745   1.404   3.365  0.3992  0.1551  0.5616
 8519SOL    HW137193   3.758   1.360   3.281 -3.3043  0.4471 -0.1663
 8519SOL    HW237194   3.669   1.362   3.406  0.9270  0.0536  1.4237
 8520SOL     OW37195   2.509   4.611   8.560 -0.1736  0.0317 -0.0818
 8520SOL    HW137196   2.468   4.621   8.474 -0.1522  0.7640 -0.0086
 8520SOL    HW237197   2.544   4.696   8.587 -1.7035  0.6318  0.0110
 8521SOL     OW37198   1.404   3.397   8.618 -0.3409  0.6169 -0.5714
 8521SOL    HW137199   1.335   3.454   8.653  0.1546  0.4184  0.7169
 8521SOL    HW237200   1.369   3.308   8.621 -0.8164  0.8411  0.8141
 8522SOL     OW37201   0.734   0.541  10.265 -0.4238 -0.1191  0.1322
 8522SOL    HW137202   0.742   0.632  10.236 -0.8866 -1.1642 -3.2457
 8522SOL    HW237203   0.824   0.507  10.270 -0.9419 -1.5130 -0.0826
 8523SOL     OW37204   2.557   2.374   4.345  0.3569 -0.6874  0.2283
 8523SOL    HW137205   2.609   2.454   4.347 -0.9625  0.2114 -1.7216
 8523SOL    HW237206   2.589   2.326   4.421 -0.4544 -1.5744  0.0201
 8524SOL     OW37207   3.187   3.942   8.142 -0.2323 -0.0813  0.3356
 8524SOL    HW137208   3.166   3.855   8.109 -2.2996  0.7753 -0.5780
 8524SOL    HW237209   3.276   3.938   8.106  0.1478 -0.1986  1.2732
 8525SOL     OW37210   0.314   4.116   4.566  0.3050  0.4355  0.0029
 8525SOL    HW137211   0.270   4.032   4.550  0.4239  0.4729 -0.5094
 8525SOL    HW237212   0.396   4.097   4.610  0.5144 -0.8007 -0.9111
 8526SOL     OW37213   4.740   0.802   6.289  0.8534 -0.1128 -0.4019
 8526SOL    HW137214   4.724   0.854   6.368  3.2206 -0.3489  0.2240
 8526SOL    HW237215   0.011   0.716   6.330  0.6450 -0.8072 -1.7942
 8527SOL     OW37216   3.412   0.049   4.950 -0.5046  0.2562 -0.5299
 8527SOL    HW137217   3.319   0.028   4.949  0.0500 -2.3433  1.9519
 8527SOL    HW237218   3.431   0.046   4.857  0.4486 -2.0123 -0.2617
 8528SOL     OW37219   1.662   2.935   1.908  0.2175 -0.0831  0.0084
 8528SOL    HW137220   1.598   2.990   1.953 -1.4669 -2.5599  0.6181
 8528SOL    HW237221   1.610   2.860   1.878 -1.1161  0.8453  0.0130
 8529SOL     OW37222   0.946   2.400   4.525  0.3581  0.5017  0.5610
 8529SOL    HW137223   0.973   2.309   4.535 -2.7810 -0.6366 -1.3440
 8529SOL    HW237224   1.009   2.434   4.462 -0.6025 -0.6105 -0.9950
 8530SOL     OW37225   1.474   1.884   3.583  0.2689 -0.2829  0.2796
 8530SOL    HW137226   1.548   1.837   3.544  0.1883  1.8941 -2.5177
 8530SOL    HW237227   1.468   1.949   3.513 -0.9229  0.1558  0.8079
 8531SOL     OW37228   1.581   2.139   8.831 -0.3312  0.4513 -0.5357
 8531SOL    HW137229   1.532   2.095   8.762  1.6760 -2.4634 -0.0779
 8531SOL    HW237230   1.534   2.107   8.908 -1.0401 -1.6389 -1.8528
 8532SOL     OW37231   0.664   1.032   9.946  0.7834 -0.5638  0.4738
 8532SOL    HW137232   0.622   1.037   9.860  2.4645  1.0208 -0.2369
 8532SOL    HW237233   0.744   1.082   9.931  1.5896 -1.4009  1.9163
 8533SOL     OW37234   2.600   2.074   3.100 -0.5153 -0.2021  0.4630
 8533SOL    HW137235   2.618   2.168   3.086 -0.5946 -0.5959 -2.3367
 8533SOL    HW237236   2.552   2.070   3.018  0.0518 -0.4016  0.1362
 8534SOL     OW37237   2.093   0.898   7.380  0.4585 -0.3149  0.4081
 8534SOL    HW137238   2.023   0.963   7.385 -0.6553 -1.3512 -1.6323
 8534SOL    HW237239   2.159   0.943   7.432  0.4373 -1.5369  1.5004
 8535SOL     OW37240   2.294   2.824   7.049 -1.0624 -0.9201  0.6847
 8535SOL    HW137241   2.312   2.783   6.964  1.6731  1.2868  0.2057
 8535SOL    HW237242   2.201   2.842   7.037 -0.6737  0.6375 -0.0172
 8536SOL     OW37243   2.159   1.878   2.067 -0.3612 -0.0225 -0.0855
 8536SOL    HW137244   2.244   1.881   2.111 -0.3278  1.0352 -0.2210
 8536SOL    HW237245   2.119   1.961   2.093  1.2757  0.3289  1.3032
 8537SOL     OW37246   1.628   2.807   8.388  0.0394 -0.0348 -0.1985
 8537SOL    HW137247   1.532   2.805   8.385  0.2349 -2.7856 -4.4130
 8537SOL    HW237248   1.653   2.727   8.433 -1.0085  0.1304  0.6825
 8538SOL     OW37249   3.866   2.987   2.766 -0.0106  0.0577 -0.3722
 8538SOL    HW137250   3.898   2.982   2.856 -2.4829  1.4050  0.5859
 8538SOL    HW237251   3.806   3.060   2.785  1.9835  1.3330  1.0627
 8539SOL     OW37252   1.807   0.177   6.881 -0.2555 -0.2645  0.3574
 8539SOL    HW137253   1.796   0.258   6.831 -1.0359  0.4337  1.6832
 8539SOL    HW237254   1.810   0.193   6.975 -1.3324 -1.0739  0.5374
 8540SOL     OW37255   4.483   4.131   8.883 -0.1869  0.0187 -0.3589
 8540SOL    HW137256   4.550   4.198   8.895 -2.5406  2.1426  0.9150
 8540SOL    HW237257   4.472   4.083   8.965 -0.2969  0.1023 -0.3263
 8541SOL     OW37258   1.745   4.581   5.242 -0.3099  0.4876  0.3861
 8541SOL    HW137259   1.816   4.562   5.303 -0.9337  0.2418  1.0483
 8541SOL    HW237260   1.688   4.505   5.257  0.3559 -0.1239 -0.2116
 8542SOL     OW37261   1.211   3.625   7.736  0.1982 -0.3212 -0.4225
 8542SOL    HW137262   1.257   3.639   7.818  0.7720  0.5672 -0.8972
 8542SOL    HW237263   1.151   3.556   7.763 -0.3750  0.8984  1.3969
 8543SOL     OW37264   4.578   3.771   0.766  0.1453 -0.4689 -0.4663
 8543SOL    HW137265   4.614   3.830   0.700 -0.5328 -0.1140 -0.5205
 8543SOL    HW237266   4.544   3.700   0.713 -1.4707 -1.1989  1.5914
 8544SOL     OW37267   2.370   4.147   8.138  0.7324 -0.0334 -0.3768
 8544SOL    HW137268   2.429   4.088   8.091 -1.1414 -1.3811 -1.0381
 8544SOL    HW237269   2.390   4.126   8.229 -0.7741  0.3235  0.0426
 8545SOL     OW37270   2.510   1.235  14.266  0.4817  0.4512  0.2893
 8545SOL    HW137271   2.515   1.154  14.215  0.3243 -0.5168  1.8140
 8545SOL    HW237272   2.600   1.228  14.298  0.1704  0.2608  1.1208
 8546SOL     OW37273   2.508   1.032  12.159  0.1179 -0.0703  0.0609
 8546SOL    HW137274   2.445   0.969  12.124 -1.1136  1.3996 -0.3838
 8546SOL    HW237275   2.557   0.982  12.224 -1.5579 -1.6853  0.0510
 8547SOL     OW37276   1.000   1.737   2.235 -0.0549  0.5818 -0.6177
 8547SOL    HW137277   1.034   1.824   2.259 -0.8316 -0.0256  2.7040
 8547SOL    HW237278   1.008   1.702   2.323 -2.1534 -1.2765 -1.1832
 8548SOL     OW37279   0.256   3.843   4.114  0.5774  0.2011 -0.0298
 8548SOL    HW137280   0.225   3.753   4.121 -0.3939  0.4891 -0.5560
 8548SOL    HW237281   0.205   3.875   4.039 -1.0868 -0.5356  0.7819
 8549SOL     OW37282   1.738   3.259   7.854  1.1763 -0.0431  0.2399
 8549SOL    HW137283   1.655   3.303   7.835  0.0254 -3.5086 -2.5522
 8549SOL    HW237284   1.761   3.219   7.770  0.9990  0.3080  0.0205
 8550SOL     OW37285   3.037   0.957  14.150 -0.2326 -0.2502  0.4622
 8550SOL    HW137286   3.129   0.953  14.175 -0.2400 -1.1699  0.3287
 8550SOL    HW237287   3.026   1.049  14.126  0.3818 -0.4463 -0.5476
 8551SOL     OW37288   3.146   3.843   5.554  0.2528  0.3878  0.3272
 8551SOL    HW137289   3.144   3.912   5.620  0.6775  1.3444 -0.6632
 8551SOL    HW237290   3.071   3.874   5.504 -0.0776 -1.0482 -0.0672
 8552SOL     OW37291   4.517   2.338   4.427 -0.4663  0.1018 -0.4991
 8552SOL    HW137292   4.587   2.282   4.461 -0.9276  0.2232  0.6303
 8552SOL    HW237293   4.563   2.414   4.390 -2.3379  0.6935 -1.6221
 8553SOL     OW37294   4.280   3.663  14.326  0.0546  0.5099 -0.1357
 8553SOL    HW137295   4.337   3.739  14.339  2.2332 -0.6813 -2.9162
 8553SOL    HW237296   4.327   3.600  14.272  0.0522  2.0959 -1.9817
 8554SOL     OW37297   1.109   0.383   6.946  0.5265  0.0510  0.7279
 8554SOL    HW137298   1.027   0.392   6.898  0.9251  1.9222  0.4027
 8554SOL    HW237299   1.076   0.346   7.028 -1.5516 -1.2674 -0.7036
 8555SOL     OW37300   3.936   2.687  11.886 -0.0653  0.3258  0.1879
 8555SOL    HW137301   3.913   2.759  11.944 -1.5853 -2.0257  2.5140
 8555SOL    HW237302   4.031   2.682  11.902 -0.3423 -0.5882  1.5671
 8556SOL     OW37303   1.626   1.546   8.955 -0.2658 -0.3394  0.0159
 8556SOL    HW137304   1.624   1.642   8.959 -3.5009 -0.3973 -0.3519
 8556SOL    HW237305   1.636   1.536   8.860 -1.8901  0.2710 -0.2189
 8557SOL     OW37306   3.034   3.815   9.365 -0.0293  0.2216 -0.1588
 8557SOL    HW137307   2.993   3.829   9.450 -0.4654 -1.0556 -0.1589
 8557SOL    HW237308   3.042   3.908   9.341 -1.6299  0.1419 -1.0002
 8558SOL     OW37309   3.853   1.576  15.491 -0.0355 -0.1892  0.1098
 8558SOL    HW137310   3.851   1.670  15.511 -0.3161 -0.3604  0.8954
 8558SOL    HW237311   3.760   1.557  15.482  0.0508 -1.2930  1.4884
 8559SOL     OW37312   2.589   3.307   2.498  0.7252 -0.0431 -0.5893
 8559SOL    HW137313   2.562   3.234   2.443 -0.4024 -0.9797  1.2266
 8559SOL    HW237314   2.682   3.296   2.479  1.0859  1.0389  0.5280
 8560SOL     OW37315   3.038   4.144   2.177  0.0289 -0.4158  0.0373
 8560SOL    HW137316   3.001   4.231   2.192 -0.8177 -0.6602 -0.6971
 8560SOL    HW237317   3.002   4.120   2.092  2.4952  0.4177 -1.2445
 8561SOL     OW37318   1.781   2.149   5.432  0.7894 -0.7128 -0.3071
 8561SOL    HW137319   1.723   2.204   5.485  0.9704  0.2190 -1.0761
 8561SOL    HW237320   1.717   2.103   5.378  0.6200  0.0034 -0.7191
 8562SOL     OW37321   2.777   1.667   6.763 -0.1164  0.5772 -0.2131
 8562SOL    HW137322   2.725   1.692   6.839 -0.4366 -0.0332 -0.2368
 8562SOL    HW237323   2.706   1.635   6.707  0.6846  0.4503 -1.1611
 8563SOL     OW37324   3.324   2.999  17.476 -0.2822 -0.1017  0.3463
 8563SOL    HW137325   3.242   2.964  17.442  0.8496 -0.8109 -1.6994
 8563SOL    HW237326   3.337   2.931  17.542  1.6739  1.3438  1.4629
 8564SOL     OW37327   2.330   1.733   4.912  0.2583  0.1470 -0.6314
 8564SOL    HW137328   2.299   1.671   4.979  1.1034 -0.5617 -0.8992
 8564SOL    HW237329   2.418   1.753   4.945  0.0205  0.7940 -0.3924
 8565SOL     OW37330   2.950   0.869  11.406  0.1550  0.0063  0.0693
 8565SOL    HW137331   3.008   0.793  11.398 -0.9868 -0.9043  0.4626
 8565SOL    HW237332   3.018   0.937  11.411 -0.7509  0.8899  0.2790
 8566SOL     OW37333   4.644   2.278   5.675  0.5585  0.4889 -0.3110
 8566SOL    HW137334   4.669   2.314   5.760 -1.7493  1.2824  0.0097
 8566SOL    HW237335   4.565   2.230   5.697  0.1348 -0.3108 -3.6173
 8567SOL     OW37336   2.036   4.536   5.242  0.4263 -0.7517  0.1384
 8567SOL    HW137337   2.037   4.525   5.147  3.5940 -1.8100  0.2798
 8567SOL    HW237338   2.096   4.610   5.254  0.0281 -0.8309  2.7873
 8568SOL     OW37339   1.068   2.782   4.480  0.5344 -0.4081  0.4236
 8568SOL    HW137340   1.116   2.706   4.447  1.5672 -0.0797  1.1579
 8568SOL    HW237341   1.116   2.857   4.443  0.4457  0.0956  1.3248
 8569SOL     OW37342   1.525   2.204   7.038 -0.2463 -0.3067 -0.5512
 8569SOL    HW137343   1.605   2.180   7.084  0.5566  0.3196 -1.6463
 8569SOL    HW237344   1.532   2.299   7.035 -1.7260 -0.1541  0.6513
 8570SOL     OW37345   0.790   4.533   6.046 -0.3968  0.1074  0.2109
 8570SOL    HW137346   0.845   4.559   6.119 -1.3321  0.3738  0.8204
 8570SOL    HW237347   0.774   4.441   6.068  1.7211 -0.2065  0.4377
 8571SOL     OW37348   1.435   4.435   6.602  0.3668 -0.0708  0.1389
 8571SOL    HW137349   1.527   4.419   6.621  0.5679 -1.3208 -1.8952
 8571SOL    HW237350   1.446   4.522   6.563  1.0028 -0.2689 -0.1168
 8572SOL     OW37351   0.512   3.825   4.218  0.2869 -0.2451 -0.1919
 8572SOL    HW137352   0.424   3.840   4.184 -0.1775 -0.8460  0.7272
 8572SOL    HW237353   0.513   3.732   4.196 -1.3284  0.2479 -2.3759
 8573SOL     OW37354   0.412   4.245   9.610  0.3087  0.0874  0.0316
 8573SOL    HW137355   0.468   4.176   9.575  1.0344  0.8148 -0.2099
 8573SOL    HW237356   0.446   4.318   9.559 -0.8395  0.6799  0.1249
 8574SOL     OW37357   3.792   0.150   5.340 -0.0383 -0.4172 -0.3562
 8574SOL    HW137358   3.824   0.240   5.352  0.5152 -0.5346 -0.9467
 8574SOL    HW237359   3.730   0.162   5.268 -0.1452 -2.7631 -0.6327
 8575SOL     OW37360   4.413   3.075  11.532 -0.5979 -0.0619 -0.2948
 8575SOL    HW137361   4.496   3.028  11.536  0.2568  1.6493  1.7327
 8575SOL    HW237362   4.350   3.024  11.584 -1.2396 -0.5327 -1.5274
 8576SOL     OW37363   1.665   1.680   6.715 -0.0224  0.3688  0.1795
 8576SOL    HW137364   1.599   1.626   6.758 -0.6489  2.0105  1.2679
 8576SOL    HW237365   1.661   1.753   6.776 -0.5444  1.7632 -1.5427
 8577SOL     OW37366   1.158   4.648  13.003 -0.1172  0.1311  0.0459
 8577SOL    HW137367   1.083   4.707  12.996  0.2757  0.8488  1.9425
 8577SOL    HW237368   1.217   4.682  12.935  3.3907 -1.5636  2.2875
 8578SOL     OW37369   1.438   3.645   1.002 -0.0142 -0.4224  0.0465
 8578SOL    HW137370   1.348   3.613   1.009  0.3483 -0.9113  2.4035
 8578SOL    HW237371   1.485   3.567   1.033 -0.2956 -0.9149 -0.7703
 8579SOL     OW37372   4.558   0.689  16.838 -0.7573  0.3971 -0.1238
 8579SOL    HW137373   4.523   0.601  16.849  2.2093 -0.6005  1.4389
 8579SOL    HW237374   4.569   0.701  16.744  2.2410 -1.5420 -0.0230
 8580SOL     OW37375   1.900   3.918  17.497  0.2526  0.4722 -0.2141
 8580SOL    HW137376   1.864   4.005  17.514 -1.5835 -0.7216  1.9097
 8580SOL    HW237377   1.817   3.871  17.494 -0.6553  2.2149 -2.1368
 8581SOL     OW37378   0.417   3.214  10.839 -0.5158 -0.6127  0.1722
 8581SOL    HW137379   0.368   3.271  10.780  0.4501  1.5236  1.4440
 8581SOL    HW237380   0.507   3.246  10.833 -0.6426  0.4386  3.6761
 8582SOL     OW37381   3.682   2.956   4.093 -0.3938 -0.3721  0.1516
 8582SOL    HW137382   3.644   2.977   4.178  0.7497  1.5714  0.1772
 8582SOL    HW237383   3.674   3.041   4.051  0.9123 -1.1076 -1.5787
 8583SOL     OW37384   0.178   0.901   7.887 -0.0226  0.8859  0.7202
 8583SOL    HW137385   0.250   0.850   7.848 -0.0646 -0.7027  2.6812
 8583SOL    HW237386   0.101   0.846   7.877  1.1807 -0.5461 -0.7085
 8584SOL     OW37387   0.871   4.409   8.542 -0.0251 -0.5478  0.7013
 8584SOL    HW137388   0.925   4.466   8.488 -2.9600  1.2367 -0.3437
 8584SOL    HW237389   0.844   4.469   8.612 -1.8057 -1.1876  0.5531
 8585SOL     OW37390   0.697   1.443   2.063 -0.1123  0.6152  0.3400
 8585SOL    HW137391   0.613   1.483   2.042 -0.9093 -0.7744  0.8823
 8585SOL    HW237392   0.749   1.523   2.053  3.2696 -1.4513  1.2678
 8586SOL     OW37393   4.495   0.322   3.476  0.1861  0.2513 -0.4422
 8586SOL    HW137394   4.562   0.254   3.461 -0.6829 -0.4387 -1.2467
 8586SOL    HW237395   4.552   0.399   3.472  1.0290 -0.3902 -0.9194
 8587SOL     OW37396   0.120   0.756   8.675  1.0583  0.1730  0.4854
 8587SOL    HW137397   0.142   0.846   8.653 -0.7408  1.0442  2.2252
 8587SOL    HW237398   0.031   0.754   8.639  0.8680  0.6067  0.9413
 8588SOL     OW37399   0.469   4.467   9.453 -0.0246 -0.1402  0.4792
 8588SOL    HW137400   0.505   4.541   9.501  0.5579 -1.1527  1.6056
 8588SOL    HW237401   0.475   4.487   9.360 -3.4064 -3.1489 -0.4037
 8589SOL     OW37402   1.362   0.253  15.102  0.3275  0.3420 -0.2397
 8589SOL    HW137403   1.430   0.240  15.036 -0.1947 -1.6475 -0.3706
 8589SOL    HW237404   1.295   0.190  15.075  0.7826 -1.0864  2.0449
 8590SOL     OW37405   1.150   2.045   0.216  0.0992 -0.4376  0.3676
 8590SOL    HW137406   1.235   2.030   0.256  0.8819  1.2855 -0.6382
 8590SOL    HW237407   1.090   2.003   0.277  2.4557 -2.9491  0.9211
 8591SOL     OW37408   3.298   0.030   2.277 -0.3670  0.0527  0.2979
 8591SOL    HW137409   3.228   0.003   2.217  0.3610 -0.0888 -0.4781
 8591SOL    HW237410   3.361   0.052   2.209 -0.4648  1.0060  0.5249
 8592SOL     OW37411   2.219   4.170   7.812  0.1702 -0.0898 -0.4975
 8592SOL    HW137412   2.196   4.209   7.896 -1.4354  1.4971 -1.6650
 8592SOL    HW237413   2.264   4.232   7.755 -2.0503  1.2151 -0.8381
 8593SOL     OW37414   2.785   4.647   0.171 -0.2202 -0.3128 -0.3431
 8593SOL    HW137415   2.794   4.580   0.238 -1.1640 -1.6147 -1.5191
 8593SOL    HW237416   2.838   4.722   0.200  0.5180 -1.5597  1.5290
 8594SOL     OW37417   2.325   4.397   6.165 -0.1305  0.3906  0.1391
 8594SOL    HW137418   2.330   4.303   6.181 -1.7771  0.2559 -0.1369
 8594SOL    HW237419   2.279   4.402   6.082  0.0590  0.5290  0.0422
 8595SOL     OW37420   2.280   1.835   6.149 -0.0291 -0.2567 -0.3583
 8595SOL    HW137421   2.209   1.898   6.141  0.4682  0.0807 -2.0356
 8595SOL    HW237422   2.309   1.841   6.058  1.3535  0.2019  0.1212
 8596SOL     OW37423   2.545   4.077   5.095  0.3683  0.3582 -0.5677
 8596SOL    HW137424   2.496   3.995   5.101 -0.9973  1.1880 -0.2431
 8596SOL    HW237425   2.471   4.133   5.072 -0.2644 -0.8038 -1.3647
 8597SOL     OW37426   0.593   0.783   9.538  0.1145  0.1548  0.2236
 8597SOL    HW137427   0.633   0.810   9.455  1.7680 -0.8870  0.6865
 8597SOL    HW237428   0.540   0.712   9.502  0.3261 -0.7464  1.6902
 8598SOL     OW37429   0.796   0.016   5.883  0.0769  0.0890  0.3583
 8598SOL    HW137430   0.783   4.690   5.951  0.0847 -2.9166 -2.5567
 8598SOL    HW237431   0.887   4.732   5.867  0.6440  2.0185  0.5784
 8599SOL     OW37432   1.065   3.226   3.512 -0.2759  0.3998  0.1253
 8599SOL    HW137433   1.077   3.208   3.419  2.9441 -0.1437  0.6238
 8599SOL    HW237434   0.971   3.237   3.501 -0.3441  1.4238  1.7125
 8600SOL     OW37435   1.347   0.569   4.299  0.1672  0.1317 -0.1721
 8600SOL    HW137436   1.257   0.559   4.331  0.5993  2.9876  1.9444
 8600SOL    HW237437   1.339   0.636   4.232  2.5941  0.8670  0.3006
 8601SOL     OW37438   1.937   3.331  12.563  0.4192 -0.2772 -0.2377
 8601SOL    HW137439   1.890   3.273  12.503 -2.1847  0.9334  0.6310
 8601SOL    HW237440   1.914   3.279  12.640 -2.9397  0.7976 -0.5386
 8602SOL     OW37441   0.931   2.463   2.012  0.5817  0.1608 -0.0732
 8602SOL    HW137442   0.853   2.461   1.956 -0.9625 -0.3323  2.0625
 8602SOL    HW237443   0.933   2.558   2.023  1.0307  0.2858 -1.2192
 8603SOL     OW37444   1.213   0.529   8.911 -0.8674 -0.2549  0.0775
 8603SOL    HW137445   1.279   0.495   8.850 -0.7222  0.8969 -0.4015
 8603SOL    HW237446   1.130   0.518   8.865 -0.3198 -0.4747 -0.8639
 8604SOL     OW37447   2.105   4.538   4.068  0.5497 -0.3371 -0.4483
 8604SOL    HW137448   2.180   4.561   4.013  2.2801 -1.4305  1.4309
 8604SOL    HW237449   2.149   4.478   4.128  1.6486 -0.5635 -1.4557
 8605SOL     OW37450   3.319   4.414   2.106 -0.4069 -0.2095  0.5055
 8605SOL    HW137451   3.264   4.486   2.135 -1.4388 -0.1704 -1.5258
 8605SOL    HW237452   3.403   4.434   2.146 -1.3172 -0.1893  2.4211
 8606SOL     OW37453   0.045   4.045   6.464  0.0115 -0.2108  0.7181
 8606SOL    HW137454   0.047   4.085   6.551  0.0014  1.2357  0.0527
 8606SOL    HW237455   0.122   3.990   6.481  0.6585  1.4539  3.2573
 8607SOL     OW37456   1.150   3.722  15.022 -0.4007 -0.0322 -0.4284
 8607SOL    HW137457   1.061   3.728  14.987 -0.9566  2.4553  1.4037
 8607SOL    HW237458   1.163   3.628  15.025 -0.1259  0.0778  2.0098
 8608SOL     OW37459   3.588   1.281   7.890  0.0288 -0.4414 -0.0739
 8608SOL    HW137460   3.656   1.331   7.936 -0.9766  1.4811 -0.6943
 8608SOL    HW237461   3.541   1.342   7.833 -0.4660 -0.6786  0.0867
 8609SOL     OW37462   2.657   3.496   2.688  0.0689  0.6549  0.2099
 8609SOL    HW137463   2.661   3.582   2.646 -2.7352  2.1844  3.1172
 8609SOL    HW237464   2.637   3.434   2.618 -0.5477  1.1996 -0.1030
 8610SOL     OW37465   0.856   1.026   1.653  0.3553 -0.0960  0.1726
 8610SOL    HW137466   0.897   0.959   1.599  3.2994 -0.5253  2.9272
 8610SOL    HW237467   0.783   0.978   1.693  0.8786 -1.6138 -0.6911
 8611SOL     OW37468   1.951   0.163   6.475 -0.3203  0.5331  0.3962
 8611SOL    HW137469   2.010   0.118   6.535 -0.1876 -1.3429 -1.1422
 8611SOL    HW237470   1.938   0.246   6.520 -1.1351 -0.2795  1.6420
 8612SOL     OW37471   1.421   4.226  17.279  0.3054  0.1618 -0.2537
 8612SOL    HW137472   1.468   4.251  17.199 -0.8874  1.2184 -0.6161
 8612SOL    HW237473   1.368   4.305  17.290 -1.6804 -1.1032 -0.7642
 8613SOL     OW37474   0.409   2.819   8.152 -0.1008  0.4124 -0.4242
 8613SOL    HW137475   0.400   2.845   8.061  1.8674  1.8466 -0.1937
 8613SOL    HW237476   0.348   2.889   8.177 -2.1525 -1.8116  0.8659
 8614SOL     OW37477   0.758   0.898   4.921 -0.5588 -0.4634 -0.0452
 8614SOL    HW137478   0.796   0.810   4.916 -0.4591 -0.3137 -1.6634
 8614SOL    HW237479   0.761   0.922   4.829 -1.5714  0.2261  0.1083
 8615SOL     OW37480   2.685   3.977   6.283 -0.3375 -0.0786  0.3032
 8615SOL    HW137481   2.604   3.957   6.330 -0.1106  0.6892  1.0211
 8615SOL    HW237482   2.718   3.891   6.256  1.6732  0.8139 -0.1211
 8616SOL     OW37483   1.747   4.090   8.094 -0.0764  0.1555 -0.2706
 8616SOL    HW137484   1.787   4.120   8.176  1.6006 -0.4206 -0.8758
 8616SOL    HW237485   1.654   4.088   8.117 -0.1285  1.8945 -0.2786
 8617SOL     OW37486   0.262   0.886   9.065  0.2815  0.3014 -0.0144
 8617SOL    HW137487   0.252   0.797   9.032  0.7326  0.1568  0.2367
 8617SOL    HW237488   0.178   0.904   9.108 -0.2682 -1.3426 -0.4099
 8618SOL     OW37489   1.803   3.815   3.447  0.2233 -0.0117  0.2165
 8618SOL    HW137490   1.832   3.728   3.418 -3.6693 -1.2075 -0.1039
 8618SOL    HW237491   1.753   3.846   3.372  0.4314  0.8008  0.4133
 8619SOL     OW37492   0.607   4.662   9.065  0.9274 -0.1693  0.7840
 8619SOL    HW137493   0.583   4.573   9.040  1.8029 -0.1056 -0.3309
 8619SOL    HW237494   0.685   4.644   9.117  0.2172  2.6038  2.7878
 8620SOL     OW37495   3.361   0.331   7.226 -0.2925  0.0301 -0.6047
 8620SOL    HW137496   3.405   0.274   7.162  0.7018 -0.7623  0.7865
 8620SOL    HW237497   3.440   0.353   7.276  0.0895  1.6358 -1.8724
 8621SOL     OW37498   2.519   3.640   8.570 -0.1681  0.3864 -0.2318
 8621SOL    HW137499   2.557   3.617   8.485  1.8558  1.6435  0.3614
 8621SOL    HW237500   2.584   3.613   8.635  0.9057 -0.0167 -1.4770
 8622SOL     OW37501   2.323   2.075   0.348  0.7018 -0.3105 -0.0713
 8622SOL    HW137502   2.263   2.011   0.387  0.1634  0.3788  0.2293
 8622SOL    HW237503   2.273   2.117   0.277 -0.0878 -0.1559  0.5804
 8623SOL     OW37504   4.729   0.554   6.420  0.0472 -0.2050  0.4321
 8623SOL    HW137505   4.726   0.567   6.514  1.5132 -1.1007  0.5969
 8623SOL    HW237506   0.064   0.497   6.414  0.1336  0.0339 -0.7773
 8624SOL     OW37507   3.852   2.409   2.068 -0.5517  0.4187  0.1724
 8624SOL    HW137508   3.894   2.448   2.145  0.5591  1.7152 -1.1199
 8624SOL    HW237509   3.903   2.447   1.997 -1.4620  1.0406 -0.1515
 8625SOL     OW37510   2.736   2.813   4.503  0.0783 -0.1267 -0.5098
 8625SOL    HW137511   2.796   2.740   4.483  1.5609  0.4931  1.7422
 8625SOL    HW237512   2.732   2.855   4.417  0.2198  2.1701  0.6237
 8626SOL     OW37513   4.125   4.537   4.193 -0.1083 -0.2877 -0.3818
 8626SOL    HW137514   4.157   4.477   4.125  0.8842 -1.2357  0.9363
 8626SOL    HW237515   4.210   4.545   4.236 -0.1890 -0.2272 -0.2338
 8627SOL     OW37516   0.230   1.132  11.029  0.2965 -0.1884  0.4297
 8627SOL    HW137517   0.307   1.110  10.977  0.3108 -0.7662  0.6939
 8627SOL    HW237518   0.270   1.129  11.116  1.2205  2.0586  0.0888
 8628SOL     OW37519   0.672   2.489   5.430 -0.2665  0.8572 -0.0753
 8628SOL    HW137520   0.720   2.485   5.348  1.7520 -0.3893  1.1555
 8628SOL    HW237521   0.606   2.424   5.406 -0.0128  0.8939 -0.8439
 8629SOL     OW37522   1.740   4.549   6.162  0.1254 -0.1755 -0.5935
 8629SOL    HW137523   1.732   4.578   6.253 -0.3937 -0.0182 -0.6923
 8629SOL    HW237524   1.798   4.611   6.118 -0.4545  0.1738 -0.8569
 8630SOL     OW37525   4.413   2.057   4.481  0.4249 -0.4053  0.9363
 8630SOL    HW137526   4.459   2.126   4.433 -0.4827  0.0599  0.7518
 8630SOL    HW237527   4.472   1.982   4.472  0.2681 -0.3717 -0.4098
 8631SOL     OW37528   2.000   1.591  17.543  0.5915 -0.1014 -0.5361
 8631SOL    HW137529   2.038   1.521  17.490 -4.1900 -1.2912 -2.4156
 8631SOL    HW237530   2.022   1.579  17.635  1.3712 -0.1767 -0.7368
 8632SOL     OW37531   0.432   2.601   8.618 -0.1257  0.3666  0.4976
 8632SOL    HW137532   0.404   2.666   8.554  0.3201 -1.7856 -1.8914
 8632SOL    HW237533   0.415   2.651   8.698 -0.2821  0.9171  0.1212
 8633SOL     OW37534   3.695   4.081   2.627 -0.1817 -0.3310  0.3417
 8633SOL    HW137535   3.643   4.091   2.547  1.9776  2.3372 -0.7522
 8633SOL    HW237536   3.776   4.061   2.579  1.1428  1.1152  1.9672
 8634SOL     OW37537   4.399   0.464   6.669  0.6848 -0.4257  0.0083
 8634SOL    HW137538   4.411   0.456   6.764  0.6929  2.9220  0.2996
 8634SOL    HW237539   4.453   0.395   6.632  0.2601  0.0460 -1.4848
 8635SOL     OW37540   0.866   0.177  11.555  0.6077  0.2594 -0.2998
 8635SOL    HW137541   0.780   0.136  11.542 -0.6166  2.4084  0.8797
 8635SOL    HW237542   0.850   0.216  11.641  2.4844 -1.5602  0.8538
 8636SOL     OW37543   1.593   1.580   9.390 -1.0410  0.3333 -0.0436
 8636SOL    HW137544   1.590   1.632   9.310  0.6976  2.3680  1.1970
 8636SOL    HW237545   1.587   1.649   9.457  0.3151  0.9900 -0.6021
 8637SOL     OW37546   0.474   3.011   7.157 -0.1609 -0.1813  0.1899
 8637SOL    HW137547   0.468   3.016   7.062  0.6471  1.2983  0.2131
 8637SOL    HW237548   0.487   2.917   7.171 -0.5074 -0.6944 -2.9960
 8638SOL     OW37549   3.767   4.701   6.483  0.3864 -0.1408  0.2154
 8638SOL    HW137550   3.777   4.609   6.460 -0.2365  0.0166 -0.7032
 8638SOL    HW237551   3.689   4.687   6.537  1.5651  0.0619  1.9641
 8639SOL     OW37552   0.859   4.235   6.028  0.7828 -0.1481  0.2693
 8639SOL    HW137553   0.902   4.154   6.056  1.1059 -0.0133  0.1580
 8639SOL    HW237554   0.791   4.226   6.096  0.7943  0.4981  0.3662
 8640SOL     OW37555   1.283   3.858   3.321 -0.2924 -0.5996 -0.7665
 8640SOL    HW137556   1.195   3.893   3.306 -0.8289 -1.5663  0.0971
 8640SOL    HW237557   1.335   3.934   3.298  0.1464 -0.7974 -0.4151
 8641SOL     OW37558   2.384   1.968   4.058  0.3330  0.4044 -0.9007
 8641SOL    HW137559   2.408   1.965   3.966  2.5453 -2.8373 -0.2080
 8641SOL    HW237560   2.448   1.906   4.092  0.0091 -0.4779 -1.9125
 8642SOL     OW37561   2.890   2.722   6.156  0.0913 -0.2440 -0.4271
 8642SOL    HW137562   2.795   2.729   6.167  0.5216  2.0031  1.6627
 8642SOL    HW237563   2.898   2.663   6.080 -0.6673 -0.8392 -0.0412
 8643SOL     OW37564   4.298   2.599   6.184  0.8044 -0.3304  0.2283
 8643SOL    HW137565   4.260   2.674   6.138  2.9558 -0.2152 -1.3485
 8643SOL    HW237566   4.228   2.581   6.247  1.4803  0.7602  1.3002
 8644SOL     OW37567   1.013   2.660   8.878 -0.6323 -0.5494 -0.4413
 8644SOL    HW137568   0.955   2.708   8.818  1.1776 -0.1799 -1.8869
 8644SOL    HW237569   0.973   2.576   8.902 -0.6385 -0.3915  0.0971
 8645SOL     OW37570   4.457   4.465   4.583  0.9782 -0.2532  0.1413
 8645SOL    HW137571   4.488   4.376   4.597 -0.6276 -0.9539 -0.7778
 8645SOL    HW237572   4.461   4.489   4.676 -1.7103  2.1693 -0.3742
 8646SOL     OW37573   4.607   2.090  15.510 -0.7363 -0.8214 -0.0827
 8646SOL    HW137574   4.645   2.010  15.474 -0.5484 -0.5817 -0.4203
 8646SOL    HW237575   4.583   2.124  15.424  0.1430 -1.7257 -0.6861
 8647SOL     OW37576   2.080   0.802   4.146 -0.1972  0.6370 -0.3365
 8647SOL    HW137577   2.138   0.864   4.189  2.4601 -1.5191 -0.8165
 8647SOL    HW237578   2.077   0.854   4.065  1.9856  0.6193 -0.4307
 8648SOL     OW37579   4.492   0.768   9.292  0.5701 -0.0276  0.1574
 8648SOL    HW137580   4.503   0.846   9.347  0.5221 -0.5686  0.9366
 8648SOL    HW237581   4.523   0.696   9.347 -0.5270 -1.7621 -1.4809
 8649SOL     OW37582   0.375   4.058   5.274 -0.0267 -0.2784 -0.0665
 8649SOL    HW137583   0.351   4.011   5.354  0.0037  0.7298  0.5284
 8649SOL    HW237584   0.470   4.061   5.287 -0.5451  1.2802  3.3973
 8650SOL     OW37585   0.710   4.086   2.313  0.5520 -0.6837  0.2967
 8650SOL    HW137586   0.773   4.039   2.258 -0.5135  0.0595 -1.5613
 8650SOL    HW237587   0.746   4.174   2.311 -1.3562  0.0609 -0.5854
 8651SOL     OW37588   2.816   3.877   4.657 -0.5972  0.2745  0.2084
 8651SOL    HW137589   2.757   3.952   4.648 -0.8960 -0.2096 -1.9122
 8651SOL    HW237590   2.846   3.875   4.566 -1.4316  0.5889 -0.0784
 8652SOL     OW37591   0.480   2.455   5.055  0.1589  0.6547 -0.2033
 8652SOL    HW137592   0.517   2.538   5.025  3.8929 -1.4645 -1.3344
 8652SOL    HW237593   0.459   2.414   4.971  2.1808 -0.0457 -0.3665
 8653SOL     OW37594   2.794   4.210   6.167  0.6013 -0.4555  0.0644
 8653SOL    HW137595   2.882   4.177   6.187  0.9276  0.4754  0.1693
 8653SOL    HW237596   2.743   4.131   6.183  0.3578 -0.6051 -1.4667
 8654SOL     OW37597   4.485   3.791   7.914  0.0413 -0.3958  0.1071
 8654SOL    HW137598   4.497   3.793   8.009 -0.9994  1.8794  0.1869
 8654SOL    HW237599   4.519   3.702   7.902 -0.1428 -0.3157 -0.9946
 8655SOL     OW37600   1.977   0.512   5.010 -0.0152  0.5851  0.3588
 8655SOL    HW137601   1.999   0.463   5.090 -0.6853  0.5804  0.5404
 8655SOL    HW237602   1.906   0.463   4.967  0.5832 -1.4368  1.6693
 8656SOL     OW37603   4.726   2.267  13.065  0.0882 -0.9067 -0.3162
 8656SOL    HW137604   4.659   2.329  13.037 -0.9158 -1.1869  1.5252
 8656SOL    HW237605   0.036   2.323  13.123  1.3712 -1.3372 -1.0224
 8657SOL     OW37606   4.689   4.698  17.012  0.3039  0.1815  0.3182
 8657SOL    HW137607   4.637   4.620  17.034  2.1819 -0.6042  1.9449
 8657SOL    HW237608   0.004   4.668  16.941  0.1151  0.8095 -0.0959
 8658SOL     OW37609   0.919   0.367   3.744 -0.2910  0.5573  0.3331
 8658SOL    HW137610   0.880   0.373   3.657  1.1470 -1.1683 -0.4455
 8658SOL    HW237611   0.845   0.365   3.804 -1.1250  0.3969 -0.6890
 8659SOL     OW37612   1.192   2.190   5.472  0.4061  0.1517 -0.3154
 8659SOL    HW137613   1.230   2.133   5.405 -2.3677  2.0588 -3.4525
 8659SOL    HW237614   1.120   2.144   5.515  1.5869  1.0551  2.6742
 8660SOL     OW37615   1.593   2.630   7.858 -0.2465 -0.7175  0.2213
 8660SOL    HW137616   1.548   2.567   7.914  0.6934  0.5217  2.3658
 8660SOL    HW237617   1.679   2.616   7.896  0.1686 -2.0340 -1.2243
 8661SOL     OW37618   1.324   2.193   3.449 -0.5148  0.2418  0.1953
 8661SOL    HW137619   1.285   2.105   3.443 -0.9930  0.4013  0.9855
 8661SOL    HW237620   1.284   2.234   3.372 -0.5838  0.3615  0.2956
 8662SOL     OW37621   1.176   0.649   8.460 -0.1576  0.0810  0.3541
 8662SOL    HW137622   1.115   0.718   8.486  2.0163  1.8152  0.8929
 8662SOL    HW237623   1.159   0.641   8.366 -0.8297 -1.7096  0.6142
 8663SOL     OW37624   3.303   0.804   4.092  0.3249  0.0802 -0.2108
 8663SOL    HW137625   3.322   0.710   4.088  1.8341  0.4309 -1.6416
 8663SOL    HW237626   3.321   0.824   4.184 -1.4981  0.5450  0.0440
 8664SOL     OW37627   3.407   2.065   7.663  0.0261  0.2284 -0.3875
 8664SOL    HW137628   3.436   2.013   7.588  1.3825  0.4226 -0.0017
 8664SOL    HW237629   3.319   2.081   7.629 -1.5450  0.3781  3.8069
 8665SOL     OW37630   0.525   2.868   0.290  0.1301 -0.1561  0.4425
 8665SOL    HW137631   0.580   2.805   0.243 -0.0039  0.2771 -0.2953
 8665SOL    HW237632   0.492   2.915   0.213 -1.3785  1.2042  1.9194
 8666SOL     OW37633   1.983   2.977   6.253  0.1211  0.2993  0.2499
 8666SOL    HW137634   1.993   2.924   6.175  1.6642  0.3280  0.4280
 8666SOL    HW237635   1.998   2.910   6.320  0.5133 -0.3277 -0.4807
 8667SOL     OW37636   0.362   1.270   2.237 -0.2037 -0.6458  0.6846
 8667SOL    HW137637   0.295   1.324   2.279  0.4312 -0.3093  1.2696
 8667SOL    HW237638   0.305   1.206   2.196  0.2604 -1.3063  1.0587
 8668SOL     OW37639   4.516   3.075  16.928 -0.0675  0.1337  0.6566
 8668SOL    HW137640   4.510   3.113  16.840 -0.8480 -2.1832 -0.2923
 8668SOL    HW237641   4.429   3.070  16.967  0.2581 -1.3681  1.2018
 8669SOL     OW37642   2.457   1.668  11.281  0.3486 -0.4417  0.0763
 8669SOL    HW137643   2.383   1.696  11.335 -1.7366 -0.6197 -2.7071
 8669SOL    HW237644   2.482   1.755  11.251  1.3880 -0.4075  1.0262
 8670SOL     OW37645   0.583   1.130   2.339 -0.2791  0.1671 -0.0660
 8670SOL    HW137646   0.552   1.040   2.349  0.7431 -0.0061  1.5585
 8670SOL    HW237647   0.506   1.184   2.323  0.4449  1.0571 -0.5754
 8671SOL     OW37648   1.839   0.863   6.076 -0.3174 -0.2721 -0.8981
 8671SOL    HW137649   1.859   0.918   6.153 -1.6995  1.0053 -1.4385
 8671SOL    HW237650   1.763   0.814   6.108  0.0068 -1.2639 -1.6757
 8672SOL     OW37651   0.416   0.778  10.067 -0.8680  0.5948 -0.2697
 8672SOL    HW137652   0.392   0.866  10.038 -2.6762 -0.4318 -1.9258
 8672SOL    HW237653   0.477   0.751   9.998  1.1590  0.4475  1.5954
 8673SOL     OW37654   0.384   0.006   3.310 -0.1275  0.6380  0.8738
 8673SOL    HW137655   0.367   4.654   3.325 -0.3906  0.5418  0.0051
 8673SOL    HW237656   0.339   0.008   3.225 -1.5009 -0.9857  1.5588
 8674SOL     OW37657   1.416   2.219   2.021  0.1214 -0.1460 -0.1893
 8674SOL    HW137658   1.385   2.220   2.111 -0.9278 -0.9855 -0.5372
 8674SOL    HW237659   1.376   2.137   1.993 -0.0994 -0.4856  1.1539
 8675SOL     OW37660   3.758   3.280   1.547  0.4335 -0.1271 -0.2737
 8675SOL    HW137661   3.715   3.213   1.600 -0.2164 -0.9434 -1.8513
 8675SOL    HW237662   3.767   3.344   1.618  0.2467 -0.3845 -0.0182
 8676SOL     OW37663   0.013   2.301  12.756  0.7107 -0.0533  0.1084
 8676SOL    HW137664   0.035   2.358  12.682 -0.0492  0.4609  0.2829
 8676SOL    HW237665   0.083   2.319  12.819  1.0973  3.1437 -1.2673
 8677SOL     OW37666   1.345   3.990   6.225 -0.0483  0.5109  0.5103
 8677SOL    HW137667   1.407   3.974   6.154  0.0582 -2.6489  1.3444
 8677SOL    HW237668   1.326   4.079   6.194 -0.6629 -0.2410 -1.2468
 8678SOL     OW37669   2.143   4.472   8.576 -0.6297  0.3114 -0.6491
 8678SOL    HW137670   2.132   4.545   8.637  1.5137 -0.7958  1.0692
 8678SOL    HW237671   2.134   4.500   8.485 -0.0570  0.6595 -0.6027
 8679SOL     OW37672   3.064   4.059   2.699  0.1376 -0.5986 -0.0508
 8679SOL    HW137673   3.159   4.052   2.705  0.0073 -0.8088  1.6835
 8679SOL    HW237674   3.063   4.154   2.687  1.1020 -0.6238 -0.3175
 8680SOL     OW37675   0.014   2.312   6.492 -0.1118  0.0097  0.3887
 8680SOL    HW137676   0.078   2.254   6.533  0.5472  0.3414 -0.1582
 8680SOL    HW237677   0.005   2.382   6.557  0.5733 -1.2730  1.8500
 8681SOL     OW37678   0.184   3.013   8.521 -0.5739 -0.4678  0.0068
 8681SOL    HW137679   0.092   3.010   8.497 -0.3724  1.0241 -0.9965
 8681SOL    HW237680   0.184   3.071   8.597  1.2893  1.5343 -1.4976
 8682SOL     OW37681   0.435   2.751   9.597 -0.0571  0.2813  0.3092
 8682SOL    HW137682   0.430   2.843   9.572 -1.8125 -0.3445 -1.7245
 8682SOL    HW237683   0.403   2.752   9.687 -1.2448  2.3834 -0.1398
 8683SOL     OW37684   0.389   0.265   6.345 -0.7908 -0.2001 -0.1164
 8683SOL    HW137685   0.396   0.331   6.275  0.4106 -1.0816 -0.8269
 8683SOL    HW237686   0.319   0.299   6.401  0.4022  0.9759  0.6756
 8684SOL     OW37687   4.204   1.727   7.973 -0.3506  0.1103 -0.2149
 8684SOL    HW137688   4.207   1.676   8.054  0.5304  1.2577  0.4718
 8684SOL    HW237689   4.174   1.669   7.903 -1.7929 -1.0386  1.3438
 8685SOL     OW37690   4.399   3.477   8.139 -1.0852 -0.3771 -0.4234
 8685SOL    HW137691   4.367   3.505   8.054 -0.9607  0.8819 -0.0590
 8685SOL    HW237692   4.393   3.383   8.120 -1.6332 -0.6302  0.9880
 8686SOL     OW37693   1.070   4.113   5.640  0.4695 -1.1891 -0.1285
 8686SOL    HW137694   1.091   4.147   5.553 -1.9009 -1.3792 -0.7817
 8686SOL    HW237695   1.052   4.189   5.695  3.3218  0.6163 -1.7146
 8687SOL     OW37696   0.025   4.281   3.426  0.6820 -0.4949  0.3152
 8687SOL    HW137697   0.054   4.285   3.517 -1.4598  0.2888  0.9653
 8687SOL    HW237698   0.072   4.207   3.387 -0.7538 -1.3887  0.2257
 8688SOL     OW37699   2.587   2.971   5.389 -0.2392 -0.5003 -0.4151
 8688SOL    HW137700   2.643   2.953   5.465  0.3068 -1.0945 -0.9534
 8688SOL    HW237701   2.649   2.992   5.319  0.3261 -0.3986  0.1109
 8689SOL     OW37702   4.627   3.017   8.471  0.2514  0.1191 -0.5538
 8689SOL    HW137703   4.597   2.986   8.556  0.8799 -0.9657 -0.7308
 8689SOL    HW237704   4.559   3.078   8.443  2.0242  1.7590 -1.2800
 8690SOL     OW37705   1.760   3.801  16.987  0.3305 -0.2649 -0.1810
 8690SOL    HW137706   1.762   3.843  16.901  0.6258  0.1594  0.0306
 8690SOL    HW237707   1.835   3.742  16.983  0.1103 -0.4958 -1.0085
 8691SOL     OW37708   1.810   1.134   1.930  1.0183 -0.0952 -0.2382
 8691SOL    HW137709   1.804   1.177   1.844 -1.9893  0.7666  0.3887
 8691SOL    HW237710   1.874   1.067   1.908  1.9698  1.0564 -0.9587
 8692SOL     OW37711   1.790   3.716   6.046  0.4131  1.0204  0.0501
 8692SOL    HW137712   1.814   3.624   6.034  1.3734  1.2700  0.0203
 8692SOL    HW237713   1.731   3.716   6.122 -1.0868 -1.9232 -1.1105
 8693SOL     OW37714   0.638   0.892  12.681  0.2257  0.2258  0.1879
 8693SOL    HW137715   0.555   0.896  12.728 -0.4310  0.8571 -1.0356
 8693SOL    HW237716   0.687   0.843  12.747 -0.3204 -0.3408  0.1619
 8694SOL     OW37717   3.055   4.612   4.402  0.3992  0.1917 -0.2975
 8694SOL    HW137718   3.143   4.648   4.413  0.2837  1.0689 -2.2220
 8694SOL    HW237719   2.998   4.687   4.384 -0.8637 -0.5694  0.5802
 8695SOL     OW37720   4.273   2.358   8.059  0.1199 -0.4162  0.2009
 8695SOL    HW137721   4.317   2.409   7.991 -1.1204  1.2401  0.6111
 8695SOL    HW237722   4.265   2.275   8.013 -1.5403 -0.8651  1.2875
 8696SOL     OW37723   3.856   1.550   7.169  0.5561 -0.3113  0.9697
 8696SOL    HW137724   3.856   1.483   7.100 -1.5646  1.2897 -0.5932
 8696SOL    HW237725   3.938   1.534   7.216  1.1562 -1.4087 -0.4481
 8697SOL     OW37726   4.593   0.315   4.672  0.1612 -0.1297  0.0092
 8697SOL    HW137727   4.536   0.299   4.747  1.4117 -3.3770  0.2396
 8697SOL    HW237728   4.527   0.340   4.607  0.3755 -1.0913 -0.5725
 8698SOL     OW37729   4.625   1.762  17.183  0.0846  0.7171 -0.4406
 8698SOL    HW137730   4.638   1.685  17.126 -0.1892  1.3808 -1.4030
 8698SOL    HW237731   4.563   1.756  17.255  0.3750  2.7731 -0.0293
 8699SOL     OW37732   1.068   0.757   3.809  0.3931  0.3464  0.6376
 8699SOL    HW137733   0.983   0.802   3.808  0.0188 -0.3227  1.7922
 8699SOL    HW237734   1.123   0.809   3.750  0.2568  1.1642  1.2184
 8700SOL     OW37735   3.956   1.263   5.655 -0.3096 -0.1915  0.2294
 8700SOL    HW137736   3.919   1.222   5.732  1.6178 -1.3830  0.5309
 8700SOL    HW237737   4.051   1.257   5.665 -0.1289  0.1005 -1.1843
 8701SOL     OW37738   0.067   3.799   9.578  0.6062  0.4930  0.2951
 8701SOL    HW137739   0.153   3.824   9.543  1.5347 -4.5134 -1.0066
 8701SOL    HW237740   0.025   3.777   9.495 -0.6276  2.6995  0.3429
 8702SOL     OW37741   4.401   1.861   4.792 -1.1183 -0.4022  0.1130
 8702SOL    HW137742   4.330   1.925   4.783 -2.0024 -1.1639  1.7005
 8702SOL    HW237743   4.398   1.826   4.703  0.9813 -0.8001  0.1977
 8703SOL     OW37744   3.913   1.434   6.931  0.2295 -0.7139 -0.1263
 8703SOL    HW137745   3.833   1.384   6.913  1.0462 -2.3946  0.9582
 8703SOL    HW237746   3.956   1.436   6.846  0.3032 -2.8267 -0.1366
 8704SOL     OW37747   2.498   4.677   2.623 -0.5178 -0.3302 -0.4296
 8704SOL    HW137748   2.414   4.712   2.653  0.5366  1.4452  0.4783
 8704SOL    HW237749   2.506   4.707   2.533  0.3615  1.5075  0.2522
 8705SOL     OW37750   0.965   1.190   5.811 -0.5530  0.5402  0.6917
 8705SOL    HW137751   1.038   1.131   5.794 -0.6495  0.5402  0.2920
 8705SOL    HW237752   0.902   1.141   5.865 -0.8384 -0.4497 -0.5617
 8706SOL     OW37753   0.658   0.806  11.349 -0.0758 -0.3815  0.3010
 8706SOL    HW137754   0.585   0.789  11.409 -1.0004  2.0548 -0.1341
 8706SOL    HW237755   0.728   0.757  11.392 -0.6101 -0.3115  1.2489
 8707SOL     OW37756   0.137   1.144   7.971  0.1452 -0.5710  0.2193
 8707SOL    HW137757   0.233   1.147   7.980  0.3186  1.3774 -2.0944
 8707SOL    HW237758   0.139   1.051   7.947  2.2848 -0.7552  1.1256
 8708SOL     OW37759   4.161   0.163   9.225  0.6795  0.0601 -0.3665
 8708SOL    HW137760   4.087   0.102   9.231 -1.0042  2.3350  2.0504
 8708SOL    HW237761   4.122   0.250   9.241  0.3626  0.1858 -1.8604
 8709SOL     OW37762   4.376   3.242   3.188 -0.4335  0.7028  0.3893
 8709SOL    HW137763   4.347   3.318   3.137  2.0753  1.6305  0.3758
 8709SOL    HW237764   4.331   3.260   3.271 -1.4127  0.1373 -0.0201
 8710SOL     OW37765   0.175   1.828   8.244 -0.4088  0.2774 -0.5122
 8710SOL    HW137766   0.180   1.871   8.158  1.1049 -0.9325 -1.0259
 8710SOL    HW237767   0.241   1.759   8.231  0.6249  1.6418 -2.4998
 8711SOL     OW37768   2.205   3.484   0.051 -0.1740 -0.4633 -0.4264
 8711SOL    HW137769   2.206   3.404  17.759 -0.2071  0.2391 -1.5002
 8711SOL    HW237770   2.126   3.529   0.019  0.0055  0.3960  0.3301
 8712SOL     OW37771   0.922   4.375   4.286  0.6452  0.4488 -0.2877
 8712SOL    HW137772   1.006   4.390   4.330  0.9802 -1.2506 -0.3152
 8712SOL    HW237773   0.871   4.322   4.348 -0.0286 -1.8163 -2.7899
 8713SOL     OW37774   4.662   3.276   7.634 -0.0414 -0.1463 -0.1243
 8713SOL    HW137775   4.740   3.330   7.631  0.9006 -1.5026  0.2272
 8713SOL    HW237776   4.680   3.214   7.705 -1.3558  0.1297  0.4676
 8714SOL     OW37777   1.040   3.299   5.660 -0.0088 -0.0405 -0.7761
 8714SOL    HW137778   0.979   3.224   5.661 -0.5178  0.4015  1.1092
 8714SOL    HW237779   0.985   3.377   5.657 -0.0645 -0.1067 -1.4884
 8715SOL     OW37780   2.615   0.709  17.259  0.5216 -0.0773 -0.1166
 8715SOL    HW137781   2.571   0.689  17.177 -1.6399  1.8312  0.5711
 8715SOL    HW237782   2.572   0.789  17.290  1.7532 -0.4702  2.6715
 8716SOL     OW37783   1.891   2.935   6.673 -0.0963  0.4998 -0.0030
 8716SOL    HW137784   1.897   3.013   6.618 -2.0237  0.3265 -0.4611
 8716SOL    HW237785   1.982   2.921   6.699 -0.5152  0.1943  1.2819
 8717SOL     OW37786   3.397   0.997  11.608 -0.7515 -0.6257  0.2736
 8717SOL    HW137787   3.324   0.983  11.668  0.1054 -1.1914  1.1837
 8717SOL    HW237788   3.412   0.903  11.596 -0.2213 -0.6298  0.9841
 8718SOL     OW37789   3.453   1.998  16.381  0.8016  0.5750 -0.2472
 8718SOL    HW137790   3.548   2.004  16.373  1.0552  0.4529  2.5588
 8718SOL    HW237791   3.433   1.933  16.450 -1.7884  0.6661 -0.8956
 8719SOL     OW37792   3.693   2.834   1.168  0.3857  0.0937  0.0743
 8719SOL    HW137793   3.708   2.926   1.190  1.3826  0.1022 -0.6385
 8719SOL    HW237794   3.690   2.835   1.073  1.1773 -0.6433  0.0392
 8720SOL     OW37795   3.814   0.146  12.859 -0.0598  0.0535 -0.5262
 8720SOL    HW137796   3.856   0.168  12.942  1.1783 -2.1173 -0.5792
 8720SOL    HW237797   3.863   0.066  12.842  0.9673  0.9807 -1.8732
 8721SOL     OW37798   2.520   2.958   6.319 -0.2606  0.0571  0.7829
 8721SOL    HW137799   2.516   2.928   6.228  1.6698 -1.1989  1.1171
 8721SOL    HW237800   2.612   2.986   6.316 -0.0076 -0.6087  2.7083
 8722SOL     OW37801   1.578   0.137   5.995 -0.4183 -0.0406  0.2335
 8722SOL    HW137802   1.506   0.165   5.939 -0.1369 -0.4442 -0.3330
 8722SOL    HW237803   1.634   0.092   5.931 -1.7855 -0.2812 -0.8119
 8723SOL     OW37804   0.953   3.617   7.574  0.0498 -0.1816 -0.0732
 8723SOL    HW137805   1.034   3.566   7.573 -1.4031 -2.5225  1.4829
 8723SOL    HW237806   0.980   3.687   7.633 -3.0669 -0.3038  1.4949
 8724SOL     OW37807   4.248   1.365   1.197 -0.3127 -0.1688 -0.6657
 8724SOL    HW137808   4.329   1.372   1.146 -1.0642  1.4180 -1.6340
 8724SOL    HW237809   4.247   1.455   1.230 -0.9619  0.3086 -2.0065
 8725SOL     OW37810   3.469   2.268  16.222  0.1954 -0.0661 -0.3439
 8725SOL    HW137811   3.475   2.335  16.291  1.5204 -0.0314 -0.4779
 8725SOL    HW237812   3.443   2.189  16.268  0.5319  0.9395  1.5785
 8726SOL     OW37813   1.333   1.403  11.788  0.5650 -0.8313  0.2273
 8726SOL    HW137814   1.428   1.400  11.772  0.4493  0.8441 -0.7844
 8726SOL    HW237815   1.312   1.316  11.821  1.6594 -0.4938  1.8535
 8727SOL     OW37816   0.754   2.499   0.440 -0.1969 -0.6098 -0.3061
 8727SOL    HW137817   0.721   2.527   0.354 -1.6068  1.8527  1.0386
 8727SOL    HW237818   0.684   2.528   0.499 -0.6943 -2.0782 -0.1832
 8728SOL     OW37819   0.580   3.369   5.734  0.4959  0.3767 -0.0016
 8728SOL    HW137820   0.591   3.424   5.811 -0.7791  1.3853 -0.5291
 8728SOL    HW237821   0.495   3.404   5.705 -0.2160 -2.3967 -1.1935
 8729SOL     OW37822   0.886   1.116   3.994  0.0976 -0.3174 -0.5191
 8729SOL    HW137823   0.805   1.168   3.995  0.2535 -0.0866  0.1427
 8729SOL    HW237824   0.922   1.135   3.908 -0.7019 -0.9519 -1.0042
 8730SOL     OW37825   1.789   3.450   5.788 -0.0647 -0.4863 -0.3714
 8730SOL    HW137826   1.821   3.423   5.702 -0.7752 -2.2906 -0.0750
 8730SOL    HW237827   1.741   3.529   5.765 -0.3172 -0.4681  0.2040
 8731SOL     OW37828   1.254   3.739   6.492 -0.2064  0.2508  0.5523
 8731SOL    HW137829   1.266   3.824   6.450  3.2434 -0.5603 -0.1372
 8731SOL    HW237830   1.184   3.704   6.437  0.5454  0.9083 -0.8369
 8732SOL     OW37831   1.473   2.087   9.500 -0.0272  0.0355 -0.1271
 8732SOL    HW137832   1.462   2.142   9.422 -0.3081 -1.0570 -0.8552
 8732SOL    HW237833   1.569   2.094   9.500  0.0939 -1.7011  0.9428
 8733SOL     OW37834   3.473   3.833   9.423 -0.3959 -0.4787  0.0222
 8733SOL    HW137835   3.502   3.913   9.378 -0.2439 -0.5346  0.0212
 8733SOL    HW237836   3.438   3.788   9.346  0.3766 -2.6142  0.9317
 8734SOL     OW37837   4.669   4.419   3.673  0.2208  0.5426  0.1048
 8734SOL    HW137838   4.599   4.471   3.713 -0.5438  0.1578 -0.7119
 8734SOL    HW237839   4.737   4.410   3.739 -0.6112  2.0603  1.1589
 8735SOL     OW37840   3.763   2.459   3.098 -0.9036 -0.0132 -0.1785
 8735SOL    HW137841   3.816   2.468   3.019 -0.1201 -0.8390  0.2547
 8735SOL    HW237842   3.824   2.451   3.172  0.9885  0.9996 -1.6066
 8736SOL     OW37843   2.165   0.791   4.461 -0.2017  0.3394 -0.2564
 8736SOL    HW137844   2.093   0.732   4.436  0.5805 -1.3774  1.5488
 8736SOL    HW237845   2.147   0.878   4.427  2.5839  0.6338 -0.9345
 8737SOL     OW37846   2.318   1.466  11.882  0.2398  0.0511 -0.8851
 8737SOL    HW137847   2.344   1.494  11.795  1.0201 -1.7122 -1.2245
 8737SOL    HW237848   2.390   1.405  11.900 -0.4629  0.1231  2.1830
 8738SOL     OW37849   2.913   2.591   1.298 -0.1461 -0.1642 -0.6370
 8738SOL    HW137850   2.910   2.584   1.393  2.3062  2.1879 -0.3923
 8738SOL    HW237851   2.990   2.648   1.295 -0.4678  0.2389 -1.2080
 8739SOL     OW37852   0.792   3.781   3.253  0.3042  0.4191  0.3567
 8739SOL    HW137853   0.775   3.796   3.346 -0.2847 -2.1744  0.6708
 8739SOL    HW237854   0.859   3.848   3.242 -0.3648  1.2751  1.4403
 8740SOL     OW37855   2.644   0.780   8.876  0.0731  0.3930  0.1243
 8740SOL    HW137856   2.702   0.856   8.887  0.5567 -0.2298  1.7514
 8740SOL    HW237857   2.713   0.718   8.896  0.7731  1.5167  1.1653
 8741SOL     OW37858   1.753   4.227  15.275  0.1839  0.0416  0.7520
 8741SOL    HW137859   1.699   4.208  15.352 -0.7935  0.7079  0.2343
 8741SOL    HW237860   1.810   4.299  15.300  0.8942  0.0133 -0.7628
 8742SOL     OW37861   3.280   1.126   5.563 -1.2632  0.2740 -0.3263
 8742SOL    HW137862   3.316   1.039   5.578  2.4072  1.9877  0.9451
 8742SOL    HW237863   3.305   1.173   5.642  1.8023  1.2109 -1.8509
 8743SOL     OW37864   2.506   1.904   2.580 -0.4241 -0.7739  0.0075
 8743SOL    HW137865   2.554   1.967   2.527 -0.5851 -0.3985  0.3025
 8743SOL    HW237866   2.425   1.897   2.530 -1.1673  1.0638  0.9539
 8744SOL     OW37867   4.247   1.565  17.227  0.3181 -1.0609  0.7004
 8744SOL    HW137868   4.266   1.475  17.201 -0.5353 -0.6083 -1.4584
 8744SOL    HW237869   4.229   1.598  17.139 -0.6976 -1.2020  0.8511
 8745SOL     OW37870   0.826   2.810   4.571 -0.3046 -0.1330  0.4463
 8745SOL    HW137871   0.785   2.734   4.531 -0.7922 -1.1610  2.8890
 8745SOL    HW237872   0.915   2.797   4.538 -1.4955 -2.3808 -1.8816
 8746SOL     OW37873   3.396   4.674  13.850  0.6588  0.2404  0.0721
 8746SOL    HW137874   3.395   4.585  13.886  0.1796  0.7006  1.1941
 8746SOL    HW237875   3.365   4.724  13.926 -0.2252  0.6812 -0.5797
 8747SOL     OW37876   1.534   3.460   3.551  0.1008 -0.2231  0.0813
 8747SOL    HW137877   1.464   3.440   3.488 -0.9848  0.4122  1.0814
 8747SOL    HW237878   1.611   3.482   3.499  0.7728 -2.1719  0.2368
 8748SOL     OW37879   0.202   2.992   7.224 -0.2109  0.5712 -0.0254
 8748SOL    HW137880   0.296   2.972   7.217 -0.9231 -1.1316 -4.6785
 8748SOL    HW237881   0.204   3.049   7.300 -0.4032  1.5424 -0.7422
 8749SOL     OW37882   2.404   3.391  13.637 -0.2067 -0.3035  0.0745
 8749SOL    HW137883   2.393   3.469  13.583  0.0430 -1.1218 -1.1512
 8749SOL    HW237884   2.490   3.356  13.616 -0.2453 -1.4182  1.7526
 8750SOL     OW37885   0.407   3.038   8.834  0.1611 -0.5362 -0.0215
 8750SOL    HW137886   0.482   3.098   8.833 -0.1456 -0.1501  0.9180
 8750SOL    HW237887   0.339   3.097   8.801 -0.5348 -1.6645 -0.5803
 8751SOL     OW37888   4.666   0.030   6.978 -0.4407 -0.5059 -0.1721
 8751SOL    HW137889   0.012   4.735   6.957  0.9089  1.9021  1.2188
 8751SOL    HW237890   4.606   4.724   6.920 -0.9721 -1.6814  1.3168
 8752SOL     OW37891   3.012   0.394   0.255 -0.1416  0.6754  0.3726
 8752SOL    HW137892   2.996   0.420   0.164 -2.3195 -1.7035  0.0811
 8752SOL    HW237893   2.928   0.412   0.297 -0.0900 -0.1311  0.8150
 8753SOL     OW37894   0.707   1.734   6.148 -0.0465  0.1529 -0.2230
 8753SOL    HW137895   0.793   1.695   6.162  0.2066  0.8905  0.2824
 8753SOL    HW237896   0.667   1.682   6.079 -0.5156  0.0294  0.1481
 8754SOL     OW37897   1.069   1.900  11.892 -0.5393 -0.0198  0.6958
 8754SOL    HW137898   1.085   1.942  11.807  0.9892 -1.1668  0.4122
 8754SOL    HW237899   1.121   1.821  11.876 -0.3907  0.2748 -0.2811
 8755SOL     OW37900   3.302   1.794   7.186  0.1474 -0.2145  0.3758
 8755SOL    HW137901   3.376   1.811   7.127  2.0823 -2.3280  2.1771
 8755SOL    HW237902   3.235   1.783   7.118  0.3222 -1.7362  0.4398
 8756SOL     OW37903   0.423   2.846   3.208  0.6669 -0.0656 -0.1893
 8756SOL    HW137904   0.462   2.933   3.210  1.6622 -0.5470  2.7965
 8756SOL    HW237905   0.349   2.855   3.268 -1.4631 -0.1498 -2.8139
 8757SOL     OW37906   3.463   3.409   8.814  0.0536  0.5191  0.2947
 8757SOL    HW137907   3.415   3.327   8.804  0.0051  0.6623 -0.6670
 8757SOL    HW237908   3.516   3.368   8.882  0.0229 -0.0602 -0.0304
 8758SOL     OW37909   0.081   4.550   4.556 -0.0843  0.0282  1.0436
 8758SOL    HW137910   0.033   4.527   4.636  1.2009 -0.4539  1.6773
 8758SOL    HW237911   0.106   4.465   4.520  1.4829  0.8995  0.0790
 8759SOL     OW37912   1.202   0.302   5.544 -0.5292  0.5804 -0.1400
 8759SOL    HW137913   1.194   0.258   5.629  0.0810 -1.4835 -1.1402
 8759SOL    HW237914   1.293   0.329   5.555 -0.5521  1.7067 -2.8140
 8760SOL     OW37915   3.985   2.866   4.467  0.6573 -0.4285 -0.1443
 8760SOL    HW137916   3.990   2.952   4.509  0.2960 -1.4641  2.0025
 8760SOL    HW237917   3.972   2.898   4.378 -2.2298  1.6439  1.0454
 8761SOL     OW37918   1.537   1.085  14.430  0.0271 -0.8280  0.1983
 8761SOL    HW137919   1.552   1.164  14.482  3.4950 -0.4778 -1.2884
 8761SOL    HW237920   1.489   1.132  14.363 -1.5394 -1.8717  0.5958
 8762SOL     OW37921   3.110   0.141  10.917 -0.0049  0.4682  0.0227
 8762SOL    HW137922   3.157   0.079  10.973 -0.0995 -1.8960 -2.5800
 8762SOL    HW237923   3.087   0.085  10.844 -0.0559  0.8255 -0.2380
 8763SOL     OW37924   1.748   2.482   0.278 -0.4974 -0.1649 -0.2152
 8763SOL    HW137925   1.662   2.521   0.295 -1.2051 -1.8973  0.1664
 8763SOL    HW237926   1.763   2.425   0.353 -1.0923 -0.1218 -0.0601
 8764SOL     OW37927   3.039   1.961   8.938  0.0554  0.3633  0.2371
 8764SOL    HW137928   3.102   1.889   8.943  0.9583  1.2471  1.7938
 8764SOL    HW237929   2.958   1.911   8.931  0.8888 -1.0531  0.8157
 8765SOL     OW37930   3.534   1.874   7.010 -0.3185 -0.3852  0.3139
 8765SOL    HW137931   3.567   1.816   7.078  0.2831 -0.4478 -0.0297
 8765SOL    HW237932   3.581   1.830   6.939 -0.0359  1.3984 -0.6134
 8766SOL     OW37933   3.305   0.990   7.945  0.8142 -0.5636 -0.3807
 8766SOL    HW137934   3.239   1.055   7.920 -0.1204 -1.2552  0.3025
 8766SOL    HW237935   3.258   0.914   7.979  0.5285  0.1725  0.8498
 8767SOL     OW37936   1.895   0.425   1.166 -0.4560  1.1115 -0.0697
 8767SOL    HW137937   1.891   0.354   1.102 -0.3029  0.5775  0.5077
 8767SOL    HW237938   1.857   0.386   1.245 -1.0536 -0.0369 -0.9244
 8768SOL     OW37939   3.402   1.873  11.728  0.0032 -0.3492  0.3492
 8768SOL    HW137940   3.313   1.861  11.695 -0.7030 -0.3692  2.2456
 8768SOL    HW237941   3.424   1.785  11.760  1.0789 -0.0124  0.5529
 8769SOL     OW37942   2.971   1.716   6.582  0.3642 -0.1081 -0.0545
 8769SOL    HW137943   3.007   1.631   6.607  1.7438  1.1417  2.1429
 8769SOL    HW237944   2.888   1.729   6.626 -0.1564 -1.3338 -0.6510
 8770SOL     OW37945   4.225   3.668   5.813 -0.2133  0.1890  0.1554
 8770SOL    HW137946   4.166   3.595   5.798 -2.1578  2.1678 -1.8066
 8770SOL    HW237947   4.166   3.722   5.867  0.1043 -1.9189  2.6149
 8771SOL     OW37948   1.352   4.151   7.299 -0.1470  0.3654 -0.2847
 8771SOL    HW137949   1.302   4.170   7.378  3.2435  0.7189  1.7265
 8771SOL    HW237950   1.368   4.236   7.257  0.3028 -0.0936 -1.0494
 8772SOL     OW37951   3.577   2.175   4.077  0.0959 -0.4882  0.4152
 8772SOL    HW137952   3.613   2.221   4.001  0.4370 -1.2655  0.1057
 8772SOL    HW237953   3.484   2.192   4.065 -0.0220 -1.7980 -0.5482
 8773SOL     OW37954   1.470   0.620   7.653 -0.2503  0.5108 -0.2588
 8773SOL    HW137955   1.397   0.617   7.714 -1.1315  0.6471 -1.3111
 8773SOL    HW237956   1.430   0.671   7.583 -0.9252  0.8207  0.3597
 8774SOL     OW37957   4.403   2.993   2.858  0.1576 -0.6013  0.3397
 8774SOL    HW137958   4.345   3.032   2.924  0.2419 -0.7302  0.4911
 8774SOL    HW237959   4.372   2.902   2.863 -0.8492 -0.1519  2.3043
 8775SOL     OW37960   0.612   2.704  11.040 -0.4053  0.1750  0.5370
 8775SOL    HW137961   0.660   2.719  11.122  1.1289  0.1201 -0.3392
 8775SOL    HW237962   0.689   2.681  10.988 -0.1977  0.9997  0.4810
 8776SOL     OW37963   3.759   2.848  12.290 -0.8548 -0.0908 -0.0038
 8776SOL    HW137964   3.734   2.883  12.205  1.1532  2.1388  0.3273
 8776SOL    HW237965   3.839   2.804  12.260 -0.3124 -0.7410  2.3951
 8777SOL     OW37966   1.242   2.570   7.063 -0.2100 -0.0913  0.0587
 8777SOL    HW137967   1.309   2.531   7.119  1.5074  1.3556 -0.9937
 8777SOL    HW237968   1.287   2.644   7.023 -1.3666  0.5652 -0.0079
 8778SOL     OW37969   1.859   0.219   7.150 -0.3913  0.1055 -0.5435
 8778SOL    HW137970   1.830   0.214   7.241  0.0699 -1.0847 -0.4478
 8778SOL    HW237971   1.902   0.303   7.162 -0.2234 -0.0606  0.0077
 8779SOL     OW37972   0.883   1.350  16.624  0.1354  0.2539  0.5112
 8779SOL    HW137973   0.914   1.404  16.697  0.3862  0.1140  0.5085
 8779SOL    HW237974   0.890   1.418  16.557  1.9282 -0.4405 -0.0144
 8780SOL     OW37975   0.699   3.134   4.314  0.6224 -0.4342 -0.3160
 8780SOL    HW137976   0.747   3.201   4.362 -0.0258 -0.8885  0.9507
 8780SOL    HW237977   0.633   3.116   4.380 -0.4836 -2.9447 -2.0948
 8781SOL     OW37978   2.654   3.736   9.594 -0.0933  0.3929  0.2538
 8781SOL    HW137979   2.670   3.649   9.556 -1.5528  0.6445 -0.9573
 8781SOL    HW237980   2.573   3.761   9.550  0.1462 -0.5255 -0.7136
 8782SOL     OW37981   2.148   3.528   5.995  0.5545  0.6016  0.3294
 8782SOL    HW137982   2.083   3.523   6.065  0.9281 -0.2543  0.6123
 8782SOL    HW237983   2.092   3.542   5.919  2.5696 -0.6958 -1.3972
 8783SOL     OW37984   0.177   2.330  12.459  0.6372  1.0190 -0.5854
 8783SOL    HW137985   0.172   2.345  12.365 -0.4240 -2.3814 -1.0726
 8783SOL    HW237986   0.121   2.253  12.466  1.3849  0.6271  1.0910
 8784SOL     OW37987   0.302   0.619   6.979  0.2260 -0.1779  0.1724
 8784SOL    HW137988   0.332   0.668   6.902 -1.0813 -0.4438 -0.5141
 8784SOL    HW237989   0.232   0.677   7.008 -0.0441 -0.1906 -0.4562
 8785SOL     OW37990   0.407   1.654   2.304 -0.3233 -0.2859 -0.0732
 8785SOL    HW137991   0.460   1.732   2.322 -2.0900  0.8496  0.1393
 8785SOL    HW237992   0.410   1.607   2.387  1.9577 -0.2957 -0.1602
 8786SOL     OW37993   1.850   1.943  16.276 -0.4021  0.0385  0.4459
 8786SOL    HW137994   1.881   1.863  16.320 -3.1854 -0.9327  0.6596
 8786SOL    HW237995   1.803   1.911  16.199  3.0813 -0.8006 -1.3284
 8787SOL     OW37996   1.899   4.252   4.182 -0.0328 -0.2387 -0.3432
 8787SOL    HW137997   1.941   4.169   4.164  1.1587 -0.4468  3.3601
 8787SOL    HW237998   1.969   4.310   4.213  0.0960 -1.1473  1.0270
 8788SOL     OW37999   4.430   2.316  12.991 -0.2356  0.2880 -0.3498
 8788SOL    HW138000   4.377   2.304  12.912  1.6208  0.3748 -1.6102
 8788SOL    HW238001   4.474   2.233  12.971  1.8252  1.0062  1.2452
 8789SOL     OW38002   0.607   1.750   4.631 -0.4714  0.0565 -0.3574
 8789SOL    HW138003   0.581   1.666   4.667  2.2036 -0.6022  0.0291
 8789SOL    HW238004   0.682   1.767   4.688  0.8592 -1.4910 -1.6476
 8790SOL     OW38005   4.410   3.224   8.083 -0.1667  0.0954  0.1929
 8790SOL    HW138006   4.346   3.174   8.134  0.5819  0.1114  1.1468
 8790SOL    HW238007   4.477   3.156   8.086 -0.4081 -0.2345 -1.8479
 8791SOL     OW38008   2.717   0.652   6.801  0.2705  0.3314 -0.3486
 8791SOL    HW138009   2.761   0.605   6.730 -1.6276  0.0924 -1.3740
 8791SOL    HW238010   2.636   0.666   6.752 -1.1838 -0.1247  1.9301
 8792SOL     OW38011   2.153   2.784   1.766 -0.3322  0.5046  0.5668
 8792SOL    HW138012   2.067   2.741   1.770 -0.3514  0.7301  2.6107
 8792SOL    HW238013   2.188   2.760   1.680  0.5775  0.5588  0.9245
 8793SOL     OW38014   3.656   0.759   1.926  0.2079 -0.0205 -0.1131
 8793SOL    HW138015   3.609   0.797   2.000  0.1349 -0.1267 -0.1058
 8793SOL    HW238016   3.596   0.784   1.855  1.0704  1.1172 -0.4515
 8794SOL     OW38017   0.343   3.057   3.750  0.7644  0.3309  0.3424
 8794SOL    HW138018   0.430   3.022   3.734  0.1602 -0.8406 -0.4411
 8794SOL    HW238019   0.290   2.978   3.737  0.1449  0.6616  0.8562
 8795SOL     OW38020   0.476   1.209   3.695 -0.5536 -0.0846  0.9489
 8795SOL    HW138021   0.457   1.259   3.615  1.8149 -1.0432 -0.2248
 8795SOL    HW238022   0.464   1.117   3.674  1.5335 -0.1352 -0.1159
 8796SOL     OW38023   2.638   1.761   0.570 -0.5308  0.5418  0.1395
 8796SOL    HW138024   2.640   1.737   0.662 -1.5138 -0.6411 -0.1435
 8796SOL    HW238025   2.549   1.727   0.557 -0.7335  0.5967  1.4574
 8797SOL     OW38026   2.375   1.939   0.100  0.5122 -0.0929 -0.1620
 8797SOL    HW138027   2.286   1.968   0.083 -0.5936 -4.1011 -1.0621
 8797SOL    HW238028   2.394   1.978   0.186  1.8242 -0.8634 -0.1031
 8798SOL     OW38029   0.268   2.353  12.162  0.5571  0.3654 -0.3692
 8798SOL    HW138030   0.270   2.356  12.067  2.3277  1.2431 -0.3118
 8798SOL    HW238031   0.359   2.331  12.184  0.1295  0.4899  1.5638
 8799SOL     OW38032   2.576   3.928   9.361  0.3863 -0.3037  0.7965
 8799SOL    HW138033   2.534   3.931   9.447  0.8482 -1.0262  1.0462
 8799SOL    HW238034   2.545   3.841   9.339  2.0215 -1.0045  1.2804
 8800SOL     OW38035   3.602   2.763  16.900  0.4328  0.1886  0.3090
 8800SOL    HW138036   3.577   2.855  16.908 -0.4859  0.0553 -0.9824
 8800SOL    HW238037   3.624   2.752  16.993  1.0410 -0.7142  0.0549
 8801SOL     OW38038   0.829   2.476   2.587 -0.4213  0.0205  0.1141
 8801SOL    HW138039   0.831   2.494   2.493  0.9203 -0.3701  0.0737
 8801SOL    HW238040   0.765   2.405   2.587 -1.3223  0.8231  0.1418
 8802SOL     OW38041   3.467   4.663   5.865  0.1609  0.1490  0.5713
 8802SOL    HW138042   3.452   4.573   5.896  2.5932 -0.2025  0.7045
 8802SOL    HW238043   3.526   4.648   5.791  2.2773 -1.0507  2.4909
 8803SOL     OW38044   1.971   0.559   9.727  0.5014  1.0155 -0.0489
 8803SOL    HW138045   1.983   0.609   9.807  2.3784 -2.6027  1.9510
 8803SOL    HW238046   2.056   0.514   9.723 -0.2029 -0.3966  0.7493
 8804SOL     OW38047   0.897   1.073   8.320  0.3570 -0.0218 -0.4864
 8804SOL    HW138048   0.820   1.021   8.297 -0.2532  0.5383  0.3056
 8804SOL    HW238049   0.860   1.160   8.306 -1.2524 -0.5558  0.4693
 8805SOL     OW38050   1.868   2.402   6.467  0.1349  0.0694 -0.5820
 8805SOL    HW138051   1.778   2.412   6.497  0.0860 -1.6464 -0.1752
 8805SOL    HW238052   1.877   2.307   6.471 -1.4867 -0.0790 -0.4295
 8806SOL     OW38053   2.628   4.702   6.089  0.1584  0.3325 -0.1854
 8806SOL    HW138054   2.676   4.621   6.069  0.5953  0.5637 -0.0657
 8806SOL    HW238055   2.559   4.667   6.146 -0.2321 -1.9607 -2.0764
 8807SOL     OW38056   4.684   0.629  13.811 -0.2729  0.1160  0.4196
 8807SOL    HW138057   4.589   0.623  13.820 -0.1207 -0.3596  1.6579
 8807SOL    HW238058   4.704   0.700  13.872  0.6145  0.8162 -0.6878
 8808SOL     OW38059   3.801   4.442   6.374  0.1602  0.7458 -0.2057
 8808SOL    HW138060   3.871   4.429   6.310 -0.1872 -1.5513 -0.1181
 8808SOL    HW238061   3.801   4.351   6.402 -1.4743  0.6534 -0.5137
 8809SOL     OW38062   0.306   0.819   4.963 -0.7563  0.1393 -0.4706
 8809SOL    HW138063   0.256   0.803   4.883  1.2191 -1.0470 -1.4767
 8809SOL    HW238064   0.330   0.729   4.986  2.9098  0.8652 -1.4060
 8810SOL     OW38065   3.322   2.831   0.212  0.4927 -0.0838 -0.3999
 8810SOL    HW138066   3.254   2.858   0.150  0.7614  0.1818 -0.5829
 8810SOL    HW238067   3.372   2.774   0.153 -0.4935 -2.0118  0.6553
 8811SOL     OW38068   3.353   2.194   2.970 -0.1657  0.0929  0.7328
 8811SOL    HW138069   3.393   2.247   3.039 -1.7325  1.2030  0.7980
 8811SOL    HW238070   3.259   2.191   2.988  0.1942 -3.0388  2.1032
 8812SOL     OW38071   0.648   3.025   5.512 -0.1164  0.7377 -0.0460
 8812SOL    HW138072   0.555   3.040   5.497 -0.5914  0.7607  2.9830
 8812SOL    HW238073   0.642   2.978   5.595 -0.1911  0.4108 -0.2379
 8813SOL     OW38074   4.668   1.755  13.144  0.6507 -0.1379  0.1016
 8813SOL    HW138075   4.691   1.676  13.095 -1.0176  0.5325 -1.7654
 8813SOL    HW238076   4.643   1.806  13.067 -1.7249 -1.2826  0.1074
 8814SOL     OW38077   1.757   2.804   4.065  0.0210  0.6346  0.4180
 8814SOL    HW138078   1.741   2.888   4.109  0.5380  0.3375  1.1667
 8814SOL    HW238079   1.826   2.765   4.118  2.5256  2.0851 -1.7657
 8815SOL     OW38080   3.069   1.724   3.457 -0.1398  0.4612 -0.1246
 8815SOL    HW138081   2.993   1.695   3.407  0.0736 -1.4486  0.6483
 8815SOL    HW238082   3.026   1.804   3.486 -2.3100 -0.6339 -0.3013
 8816SOL     OW38083   4.406   3.718  12.323 -0.0559 -0.5853 -0.0321
 8816SOL    HW138084   4.475   3.652  12.331  0.3435 -0.2981 -1.2238
 8816SOL    HW238085   4.408   3.751  12.413  0.3370 -0.0208 -0.2483
 8817SOL     OW38086   1.488   4.497  12.798 -0.2214 -0.2391  0.2267
 8817SOL    HW138087   1.568   4.484  12.849  0.9838  2.7410 -0.9057
 8817SOL    HW238088   1.457   4.407  12.792 -1.5633  0.4077 -2.7641
 8818SOL     OW38089   3.586   4.150   5.336  0.3678 -0.1004  0.4068
 8818SOL    HW138090   3.591   4.076   5.277  0.6886 -1.9112  2.7160
 8818SOL    HW238091   3.520   4.201   5.289  0.0471 -0.5317  0.3935
 8819SOL     OW38092   0.114   2.506   1.887 -0.5216 -0.3481  0.0124
 8819SOL    HW138093   0.206   2.505   1.914 -0.0503  0.2767 -1.5951
 8819SOL    HW238094   0.087   2.417   1.912  1.4336 -0.6494  1.0874
 8820SOL     OW38095   2.806   3.293  17.281  0.1062 -0.3268  0.7223
 8820SOL    HW138096   2.843   3.257  17.200  0.9898 -2.0297  1.9032
 8820SOL    HW238097   2.856   3.241  17.343  0.4944 -0.4842  0.2776
 8821SOL     OW38098   1.504   2.540   2.217 -0.7594  0.0697  0.3243
 8821SOL    HW138099   1.535   2.515   2.304 -0.0081 -0.9972 -0.2469
 8821SOL    HW238100   1.585   2.520   2.170 -0.6682  2.5228 -0.5450
 8822SOL     OW38101   3.230   0.526   3.983  0.3363 -0.3676 -0.0880
 8822SOL    HW138102   3.142   0.509   4.017  0.5855 -4.0404 -1.3124
 8822SOL    HW238103   3.263   0.438   3.965 -2.1963 -1.5032  0.8434
 8823SOL     OW38104   2.217   2.099  17.511  0.3988  0.5726 -0.5592
 8823SOL    HW138105   2.151   2.140  17.456 -1.8193 -1.8118  0.3162
 8823SOL    HW238106   2.184   2.010  17.498  1.2825  0.4587 -2.0047
 8824SOL     OW38107   4.740   3.951   4.765 -0.0997  0.8268 -0.3096
 8824SOL    HW138108   0.029   3.889   4.699 -0.3119 -0.6870  1.0253
 8824SOL    HW238109   4.702   3.905   4.840 -1.2523  0.8947 -0.8472
 8825SOL     OW38110   2.995   4.075  13.445  0.4341  0.0579 -0.2137
 8825SOL    HW138111   3.056   4.133  13.398  1.3777  0.7970  1.9030
 8825SOL    HW238112   2.933   4.059  13.374  1.3183 -2.0417 -0.5239
 8826SOL     OW38113   0.193   4.512  11.773 -0.1130 -0.6241  0.6665
 8826SOL    HW138114   0.147   4.432  11.798  0.1262 -1.1787 -0.6506
 8826SOL    HW238115   0.263   4.471  11.722 -1.2398 -2.9190  0.9342
 8827SOL     OW38116   0.442   2.426   3.590  0.2533 -0.6545  0.4696
 8827SOL    HW138117   0.440   2.362   3.661  1.1244  0.5405  1.5667
 8827SOL    HW238118   0.350   2.426   3.563  0.4378 -0.9971 -0.1565
 8828SOL     OW38119   0.337   4.276   4.941 -0.2775  0.5999 -0.0847
 8828SOL    HW138120   0.279   4.347   4.968 -1.4206 -0.6169  0.6635
 8828SOL    HW238121   0.406   4.326   4.899 -0.2988  0.2724 -0.5043
 8829SOL     OW38122   0.119   1.413   4.651  0.2032 -0.3373 -0.0822
 8829SOL    HW138123   0.099   1.484   4.711 -0.7075 -1.3987  0.8662
 8829SOL    HW238124   0.035   1.388   4.613  0.7352 -2.0218 -0.1787
 8830SOL     OW38125   0.098   1.440  17.334  0.1629 -0.4201  0.0124
 8830SOL    HW138126   0.008   1.465  17.317  0.2075 -0.2743 -0.0074
 8830SOL    HW238127   0.116   1.374  17.267  2.7678 -0.9952  1.2785
 8831SOL     OW38128   0.503   3.808   8.702 -0.3999  0.5148  0.2542
 8831SOL    HW138129   0.474   3.779   8.788 -0.0731  0.1440  0.2361
 8831SOL    HW238130   0.481   3.901   8.709 -0.5686  0.2916  2.6799
 8832SOL     OW38131   4.005   3.336   2.485  0.8983  0.2384  0.5088
 8832SOL    HW138132   4.099   3.351   2.495  1.3753 -1.3437 -1.5921
 8832SOL    HW238133   3.956   3.389   2.547 -0.2282  1.7422 -1.6483
 8833SOL     OW38134   2.362   2.549  17.486  0.2990  0.4924  0.2935
 8833SOL    HW138135   2.328   2.478  17.541 -0.7287  0.5316 -0.2921
 8833SOL    HW238136   2.416   2.587  17.556 -2.0508  2.9936  0.7312
 8834SOL     OW38137   2.078   0.936   3.322 -0.1101  0.3555  0.7445
 8834SOL    HW138138   2.000   0.969   3.276  0.2780  0.0299 -0.1579
 8834SOL    HW238139   2.075   0.977   3.408 -1.0339  3.4804 -0.7487
 8835SOL     OW38140   0.678   1.277  12.875 -0.6867 -0.0175 -0.2856
 8835SOL    HW138141   0.724   1.334  12.936 -2.6470  2.1211 -0.8457
 8835SOL    HW238142   0.748   1.231  12.827 -1.6645 -1.4876 -0.3084
 8836SOL     OW38143   3.472   2.299   7.383 -0.1016  0.2281  0.2869
 8836SOL    HW138144   3.549   2.336   7.427  0.4256  2.3711 -2.4401
 8836SOL    HW238145   3.490   2.206   7.395 -2.2095 -0.0692  1.1761
 8837SOL     OW38146   2.870   1.190   8.257 -0.1997  0.1776 -0.6159
 8837SOL    HW138147   2.856   1.279   8.224  2.6472 -0.2541 -3.0116
 8837SOL    HW238148   2.818   1.148   8.188  0.7392 -1.1843 -0.4743
 8838SOL     OW38149   4.585   0.887   4.115  0.6453  0.4363 -0.2456
 8838SOL    HW138150   4.584   0.882   4.019 -0.6401 -0.5064 -0.1894
 8838SOL    HW238151   4.503   0.935   4.124  0.6276 -0.0655  2.3444
 8839SOL     OW38152   2.520   1.378   4.435  0.0711 -0.1116 -0.1647
 8839SOL    HW138153   2.526   1.354   4.528  2.2559 -0.2716 -0.3492
 8839SOL    HW238154   2.606   1.350   4.406  0.3398 -1.0449  1.5466
 8840SOL     OW38155   3.125   1.219   5.171  0.2156  0.3699  0.1897
 8840SOL    HW138156   3.076   1.295   5.141  0.7538  0.3067 -0.8299
 8840SOL    HW238157   3.213   1.248   5.148 -0.7507  2.6119 -0.6940
 8841SOL     OW38158   1.846   3.419   8.603  0.4703 -0.5167  0.0097
 8841SOL    HW138159   1.857   3.361   8.528 -0.1351  0.5000 -0.8610
 8841SOL    HW238160   1.798   3.365   8.666  0.9749 -0.9420  0.0347
 8842SOL     OW38161   2.097   0.625   6.732 -0.0719  0.6266  0.7767
 8842SOL    HW138162   2.157   0.695   6.706  1.6835 -0.8549  0.8347
 8842SOL    HW238163   2.038   0.668   6.795  1.6322  0.8788  2.2152
 8843SOL     OW38164   4.734   2.706   2.025 -0.4411  0.2525  0.2851
 8843SOL    HW138165   4.647   2.707   1.986 -0.5124 -4.0780  0.3107
 8843SOL    HW238166   0.033   2.639   1.968 -0.2500  2.3867 -2.1011
 8844SOL     OW38167   0.477   2.002  13.991  0.5351  0.3649  0.2122
 8844SOL    HW138168   0.419   2.040  13.925  0.6655 -0.7199 -0.5253
 8844SOL    HW238169   0.426   1.921  13.998 -1.9076  1.9582  0.9413
 8845SOL     OW38170   3.066   2.192   3.051  0.0389  0.6071  0.1882
 8845SOL    HW138171   3.091   2.103   3.073  1.3366  1.0845  0.6904
 8845SOL    HW238172   3.003   2.208   3.121  0.6645  0.0482  0.8807
 8846SOL     OW38173   1.547   3.434   8.320 -0.6285 -0.1799  0.0115
 8846SOL    HW138174   1.542   3.525   8.349  1.2694  0.0530 -0.3623
 8846SOL    HW238175   1.617   3.401   8.377 -1.7191 -0.1251  1.3774
 8847SOL     OW38176   2.603   1.788   6.023  0.3537 -0.2624  0.4011
 8847SOL    HW138177   2.564   1.700   6.024  1.1606 -0.6352 -0.1991
 8847SOL    HW238178   2.694   1.775   6.049  1.0412  3.1564 -0.2939
 8848SOL     OW38179   2.440   3.838   7.019  0.2137 -0.3959 -0.0799
 8848SOL    HW138180   2.470   3.747   7.015  0.2071 -0.5107  2.0228
 8848SOL    HW238181   2.514   3.882   6.978 -2.9406  1.0029 -4.2071
 8849SOL     OW38182   3.519   3.910   8.792  0.6562  0.3206  0.5695
 8849SOL    HW138183   3.511   3.835   8.852  1.8327 -0.3897 -0.1712
 8849SOL    HW238184   3.601   3.881   8.752 -0.3756 -1.0799 -0.5135
 8850SOL     OW38185   3.769   0.563   2.075 -0.8142 -0.4523 -0.6913
 8850SOL    HW138186   3.820   0.531   2.000 -0.3466 -0.1238 -0.5151
 8850SOL    HW238187   3.742   0.646   2.034 -0.0442  0.7190  1.1501
 8851SOL     OW38188   0.197   3.965  10.210  0.0467 -0.5481 -0.2575
 8851SOL    HW138189   0.204   3.915  10.291  1.2044  0.6824  0.4004
 8851SOL    HW238190   0.257   4.035  10.236  0.6706 -0.4954 -1.8510
 8852SOL     OW38191   2.508   0.923   8.081 -0.0783  0.0065  0.1378
 8852SOL    HW138192   2.509   0.859   8.152  1.1576  2.7206  2.5641
 8852SOL    HW238193   2.469   0.871   8.011  0.2717 -0.2371  0.1237
 8853SOL     OW38194   2.126   3.676  15.021  0.0582 -0.0678  0.1886
 8853SOL    HW138195   2.148   3.583  15.022 -0.8411 -0.2788  0.9500
 8853SOL    HW238196   2.188   3.719  15.080 -1.6909 -0.6026  2.3843
 8854SOL     OW38197   4.664   1.317   4.237  0.1001 -0.3429 -0.1249
 8854SOL    HW138198   4.631   1.391   4.186  0.9174  0.7224  0.9066
 8854SOL    HW238199   4.686   1.249   4.173 -0.0142 -1.8162  1.3951
 8855SOL     OW38200   3.166   4.201   0.992  0.1879  0.2488  0.2222
 8855SOL    HW138201   3.182   4.229   1.082 -2.5110 -0.0867  0.8162
 8855SOL    HW238202   3.257   4.183   0.969  0.2246  0.7479 -0.0362
 8856SOL     OW38203   4.306   2.675   1.939 -0.2994  0.4110 -0.0355
 8856SOL    HW138204   4.232   2.717   1.983 -0.5005  1.0869 -1.0164
 8856SOL    HW238205   4.273   2.666   1.849  0.6497 -3.6721  0.0385
 8857SOL     OW38206   0.724   0.131   2.604  0.0423 -0.3475 -0.1218
 8857SOL    HW138207   0.769   0.120   2.688 -2.8290 -1.0471  1.2998
 8857SOL    HW238208   0.652   0.192   2.617  1.1510  0.6361  1.4038
 8858SOL     OW38209   1.781   2.665   0.532 -0.3044 -0.7848 -0.7525
 8858SOL    HW138210   1.756   2.586   0.485 -1.3936 -0.2643 -1.0407
 8858SOL    HW238211   1.831   2.625   0.603  0.5653 -1.1195 -1.5476
 8859SOL     OW38212   1.807   4.397   6.418  0.0500 -0.0599 -0.3344
 8859SOL    HW138213   1.764   4.381   6.502 -0.3167  5.8813  0.5818
 8859SOL    HW238214   1.900   4.385   6.437  0.1377  0.8889 -0.2097
 8860SOL     OW38215   3.512   0.367   1.232 -0.5016  0.6821  0.5343
 8860SOL    HW138216   3.450   0.301   1.202  0.4581  0.4732 -1.0153
 8860SOL    HW238217   3.447   0.424   1.272  0.5391  1.9706  0.3982
 8861SOL     OW38218   2.892   2.446  12.148 -0.8455  0.0973 -0.1257
 8861SOL    HW138219   2.866   2.513  12.211  0.0476  0.8216 -0.5300
 8861SOL    HW238220   2.950   2.502  12.096 -0.9594  0.1997 -0.1410
 8862SOL     OW38221   1.238   1.870   7.859 -0.2155 -0.1439 -0.7874
 8862SOL    HW138222   1.154   1.906   7.886 -1.4371 -2.5045 -1.4961
 8862SOL    HW238223   1.291   1.898   7.934  2.9146 -1.9805 -2.3234
 8863SOL     OW38224   1.672   1.283   4.115 -0.6559 -0.5394 -0.2859
 8863SOL    HW138225   1.667   1.237   4.199 -0.1380  0.4528  0.2938
 8863SOL    HW238226   1.632   1.215   4.062 -2.2635  0.4641 -0.3929
 8864SOL     OW38227   4.331   4.272   4.925  0.0897 -0.1952 -0.1397
 8864SOL    HW138228   4.375   4.357   4.924 -0.4811  0.0866 -0.8371
 8864SOL    HW238229   4.371   4.232   4.848 -1.6561  1.3323 -1.8501
 8865SOL     OW38230   2.391   4.444   5.276 -0.2491 -0.6475 -0.2938
 8865SOL    HW138231   2.299   4.473   5.271  0.1712  0.8621  0.5477
 8865SOL    HW238232   2.377   4.378   5.209 -0.6278 -0.8539 -0.0122
 8866SOL     OW38233   3.317   3.331   4.144  0.4458  0.0140 -0.1662
 8866SOL    HW138234   3.333   3.300   4.055 -0.7069 -2.2584  0.4192
 8866SOL    HW238235   3.400   3.377   4.154 -0.2006  0.9304  0.9110
 8867SOL     OW38236   2.174   3.346   2.876 -0.0427 -0.1640  0.9125
 8867SOL    HW138237   2.206   3.426   2.833  3.0280 -1.5910  0.4972
 8867SOL    HW238238   2.160   3.287   2.801  0.0864  1.6143 -0.5246
 8868SOL     OW38239   4.629   3.703   2.649  0.0757 -0.0734  0.5044
 8868SOL    HW138240   4.671   3.653   2.719  1.6718  0.5566 -0.0008
 8868SOL    HW238241   4.626   3.630   2.587  2.2159 -1.0030  1.4859
 8869SOL     OW38242   3.466   2.201   0.189  0.1713  0.1415  0.5869
 8869SOL    HW138243   3.541   2.251   0.156  1.2296 -1.1756  1.0088
 8869SOL    HW238244   3.499   2.111   0.187  2.1529  0.9094 -1.0303
 8870SOL     OW38245   4.364   1.721   4.569 -0.2917  0.1327  0.1128
 8870SOL    HW138246   4.285   1.720   4.516  0.5329  0.2061 -1.1097
 8870SOL    HW238247   4.429   1.763   4.513  0.6767 -1.8672 -0.2974
 8871SOL     OW38248   2.943   2.632  16.779 -0.5047 -0.1791 -0.2466
 8871SOL    HW138249   3.017   2.602  16.832 -1.2544  1.5908  1.7958
 8871SOL    HW238250   2.981   2.704  16.728  0.3504 -0.0355  0.5866
 8872SOL     OW38251   0.020   3.814   7.808  0.1156 -0.3377 -0.0099
 8872SOL    HW138252   0.086   3.797   7.876 -0.5043 -0.1288  0.6356
 8872SOL    HW238253   4.681   3.808   7.859 -0.0141  0.1404 -0.1576
 8873SOL     OW38254   4.396   1.360  15.528  0.3040  0.4116  0.2371
 8873SOL    HW138255   4.396   1.269  15.497  1.5825  0.0043  1.4654
 8873SOL    HW238256   4.462   1.360  15.597 -1.3909 -1.1105  1.8623
 8874SOL     OW38257   4.126   3.392   9.788  0.6195 -0.5840 -0.6322
 8874SOL    HW138258   4.126   3.422   9.697 -1.8588 -1.2710 -0.8494
 8874SOL    HW238259   4.219   3.401   9.811  0.8990  0.0361 -2.0089
 8875SOL     OW38260   0.893   3.412   0.788  0.3525  0.1113 -0.2560
 8875SOL    HW138261   0.926   3.398   0.699 -2.5393 -0.3592 -1.2637
 8875SOL    HW238262   0.915   3.501   0.817  1.1470 -0.0057 -0.5015
 8876SOL     OW38263   1.787   3.025   7.650  0.1510  0.0068  0.0207
 8876SOL    HW138264   1.747   2.961   7.592  1.5817 -0.3027 -0.6240
 8876SOL    HW238265   1.870   3.035   7.603  0.1598  3.7465  0.8272
 8877SOL     OW38266   4.027   2.875   6.467  0.3722  0.2400  0.3429
 8877SOL    HW138267   3.933   2.867   6.454  0.3198  1.9172 -0.4195
 8877SOL    HW238268   4.041   2.802   6.527 -0.2840  0.8978  1.2836
 8878SOL     OW38269   3.091   0.049   3.535 -0.6659 -0.8360  0.9488
 8878SOL    HW138270   3.152   0.084   3.600  0.7128  1.1603 -1.4368
 8878SOL    HW238271   3.060   4.715   3.586 -0.5467 -1.7382 -0.3076
 8879SOL     OW38272   3.136   3.745   7.945  0.2663 -0.7770 -0.3259
 8879SOL    HW138273   3.210   3.685   7.946  1.5015  0.7566 -0.1953
 8879SOL    HW238274   3.137   3.766   7.852 -1.8210  0.4987 -0.0502
 8880SOL     OW38275   0.140   0.729  17.315  0.0507 -0.5046 -0.1593
 8880SOL    HW138276   0.048   0.754  17.317  0.2107  0.1856 -2.4375
 8880SOL    HW238277   0.129   0.639  17.284  0.0810 -0.6397  0.2205
 8881SOL     OW38278   1.576   2.799   0.088  0.0574 -0.3318 -0.1760
 8881SOL    HW138279   1.668   2.778   0.075 -0.8725 -2.9578 -2.5506
 8881SOL    HW238280   1.576   2.870   0.153 -0.8639  0.4666 -1.0490
 8882SOL     OW38281   2.191   1.554   8.972  0.4046  0.3579  0.3772
 8882SOL    HW138282   2.276   1.595   8.956  1.2916 -2.5156 -2.3287
 8882SOL    HW238283   2.134   1.576   8.898  0.0591 -2.5442 -0.2398
 8883SOL     OW38284   1.277   1.265  13.758  0.3845  0.3846  0.0758
 8883SOL    HW138285   1.193   1.228  13.732  0.8505 -1.0241  0.5807
 8883SOL    HW238286   1.281   1.335  13.693 -2.0245  1.4823  1.1215
 8884SOL     OW38287   3.765   0.925   4.642 -0.1071  0.0001  0.3098
 8884SOL    HW138288   3.773   0.884   4.728  1.6554 -0.0075  0.1389
 8884SOL    HW238289   3.707   0.999   4.661  1.1600  1.6641 -2.3532
 8885SOL     OW38290   3.207   1.729   5.446 -0.2350 -0.4352  0.7124
 8885SOL    HW138291   3.161   1.803   5.407 -1.4228 -1.4948  0.1001
 8885SOL    HW238292   3.147   1.657   5.426 -0.2478 -0.1259 -0.3157
 8886SOL     OW38293   4.640   1.268   6.328  0.2042 -0.3516  0.2769
 8886SOL    HW138294   4.551   1.235   6.312 -1.5263  3.7750  1.3320
 8886SOL    HW238295   4.654   1.254   6.421  4.3374  1.2630 -0.1351
 8887SOL     OW38296   1.029   0.801  11.281 -0.2706 -0.5864 -0.4636
 8887SOL    HW138297   0.957   0.801  11.345 -1.5078  0.8033 -1.8548
 8887SOL    HW238298   1.004   0.861  11.211  0.4042 -0.4945 -0.6250
 8888SOL     OW38299   4.255   1.780   6.517  0.1683  0.3376  0.3399
 8888SOL    HW138300   4.268   1.857   6.461 -0.0226  1.1818  1.4395
 8888SOL    HW238301   4.171   1.751   6.481  0.1818  2.1968 -1.1815
 8889SOL     OW38302   2.473   2.867   7.236 -0.1615 -0.4417  0.3795
 8889SOL    HW138303   2.404   2.851   7.172  0.6931 -5.1624  0.6196
 8889SOL    HW238304   2.477   2.780   7.275  0.8697  0.2303  1.8121
 8890SOL     OW38305   3.736   0.491   9.608  0.5115  0.0616  0.3859
 8890SOL    HW138306   3.781   0.407   9.596  0.7665  0.3138 -0.3991
 8890SOL    HW238307   3.691   0.503   9.525  0.3454  0.2390  0.5020
 8891SOL     OW38308   3.852   2.892   7.835 -0.0850  0.1980 -0.5146
 8891SOL    HW138309   3.802   2.926   7.761 -2.3236 -0.4414  0.6907
 8891SOL    HW238310   3.915   2.961   7.855 -2.1471  1.6778  0.9407
 8892SOL     OW38311   1.819   2.749   3.689 -0.2406 -0.0941 -0.2236
 8892SOL    HW138312   1.786   2.677   3.743  2.7850 -1.1661  0.2227
 8892SOL    HW238313   1.887   2.710   3.634 -1.2466 -0.4262 -1.2322
 8893SOL     OW38314   4.106   4.161  12.276  0.1173  0.2432 -0.3208
 8893SOL    HW138315   4.184   4.210  12.250 -1.0341  2.3993  0.2479
 8893SOL    HW238316   4.049   4.200  12.210  0.9812 -0.0364 -1.2401
 8894SOL     OW38317   1.538   1.826   8.872  0.2206 -0.2480  0.4116
 8894SOL    HW138318   1.468   1.824   8.807 -0.3865  0.7522  1.0274
 8894SOL    HW238319   1.608   1.875   8.830 -0.8007 -0.3858 -1.4589
 8895SOL     OW38320   2.339   0.961  16.251  0.3106 -0.4832  0.3519
 8895SOL    HW138321   2.311   1.053  16.247  0.5465 -0.3715  1.3047
 8895SOL    HW238322   2.373   0.950  16.162 -0.7532 -2.4897  0.2125
 8896SOL     OW38323   3.162   4.316   5.781 -0.1694  0.1696 -0.1470
 8896SOL    HW138324   3.149   4.228   5.747  1.6897  1.9563 -5.5088
 8896SOL    HW238325   3.218   4.359   5.716  0.2233  0.5703  0.4487
 8897SOL     OW38326   3.783   3.766   3.719 -0.2976 -0.3449 -0.5775
 8897SOL    HW138327   3.865   3.803   3.684  0.0348  0.6263  1.2094
 8897SOL    HW238328   3.737   3.844   3.748  0.9542  0.0898  0.2429
 8898SOL     OW38329   4.678   0.117   3.401 -0.6051  0.7757  0.2962
 8898SOL    HW138330   0.025   0.146   3.375 -0.1531 -0.8764  0.0266
 8898SOL    HW238331   4.700   0.039   3.451 -2.6509 -0.2445 -0.4178
 8899SOL     OW38332   2.793   0.911   6.164 -0.6070 -0.8419 -0.3657
 8899SOL    HW138333   2.725   0.968   6.128 -1.7689 -0.9745  1.6360
 8899SOL    HW238334   2.745   0.890   6.245  0.1949  1.2680  0.6333
 8900SOL     OW38335   3.507   1.878  12.499 -0.6591  0.8477 -0.3449
 8900SOL    HW138336   3.426   1.861  12.547  0.5056  0.5996  1.5444
 8900SOL    HW238337   3.498   1.973  12.486  1.1690  1.0966  0.2394
 8901SOL     OW38338   4.494   2.797   6.287  0.6029 -0.2267 -0.2291
 8901SOL    HW138339   4.450   2.806   6.203 -2.3268  0.5157  1.3763
 8901SOL    HW238340   4.498   2.886   6.321 -1.6187 -0.6012  1.0249
 8902SOL     OW38341   1.593   1.758   7.953 -0.1368  0.0086  0.3988
 8902SOL    HW138342   1.559   1.809   8.027 -1.1214 -0.2729  0.1443
 8902SOL    HW238343   1.547   1.674   7.958 -0.4337  0.1944  0.8502
 8903SOL     OW38344   0.122   3.447   7.667 -0.2976 -0.1151  0.2289
 8903SOL    HW138345   0.134   3.436   7.762 -3.4410  1.1617  0.7908
 8903SOL    HW238346   0.215   3.456   7.649 -0.1008  0.1406  1.3477
 8904SOL     OW38347   0.108   2.952   5.397  0.0213  0.4578  0.2614
 8904SOL    HW138348   0.106   2.943   5.302  0.0385  0.3171  0.2752
 8904SOL    HW238349   0.124   2.859   5.415 -0.5784  0.2788 -0.1185
 8905SOL     OW38350   2.067   0.502   4.555 -0.8842 -0.2133  0.4554
 8905SOL    HW138351   2.061   0.417   4.600  1.5362 -0.7843 -0.2589
 8905SOL    HW238352   2.000   0.537   4.614 -0.2776 -0.8580  1.5412
 8906SOL     OW38353   1.464   3.852   0.823  0.3465 -0.0709  0.1313
 8906SOL    HW138354   1.424   3.911   0.887  0.8957  1.0458 -0.5581
 8906SOL    HW238355   1.460   3.765   0.863 -0.4655  0.5377  1.3846
 8907SOL     OW38356   3.894   0.087   1.145  0.0435 -0.5851  0.3905
 8907SOL    HW138357   3.870   4.737   1.127 -0.0691 -0.3037 -0.8393
 8907SOL    HW238358   3.963   0.097   1.079 -0.9011 -1.8859 -0.7850
 8908SOL     OW38359   4.204   2.929   2.628  0.1689  0.6032 -0.8980
 8908SOL    HW138360   4.291   2.967   2.645 -0.1169  0.2252  1.5152
 8908SOL    HW238361   4.164   2.964   2.708 -0.2945 -0.3732 -0.7078
 8909SOL     OW38362   2.898   1.287   2.928 -0.0976 -0.0067 -0.7907
 8909SOL    HW138363   2.917   1.229   3.001  1.5970 -1.6397 -2.5252
 8909SOL    HW238364   2.982   1.331   2.936 -0.3130  0.7687 -2.7050
 8910SOL     OW38365   3.933   3.545  12.859 -0.2225 -0.1798  0.2901
 8910SOL    HW138366   3.881   3.468  12.833 -0.2363 -0.3264  0.7532
 8910SOL    HW238367   3.880   3.620  12.830 -0.8511 -2.0264 -3.3093
 8911SOL     OW38368   3.696   3.050   8.321  0.3801 -0.4145 -0.4491
 8911SOL    HW138369   3.710   3.053   8.227  0.8115 -2.2593 -0.4475
 8911SOL    HW238370   3.602   3.071   8.327  0.3324 -0.3351 -1.5237
 8912SOL     OW38371   2.378   0.706  17.068  0.2435 -0.2998 -0.3101
 8912SOL    HW138372   2.356   0.683  17.158  0.0215 -1.1189 -0.5762
 8912SOL    HW238373   2.336   0.640  17.013 -0.2770  0.1107 -0.4157
 8913SOL     OW38374   4.185   1.103   8.616  0.1801 -0.4015 -0.2288
 8913SOL    HW138375   4.185   1.184   8.666 -2.5050  1.8496 -3.8268
 8913SOL    HW238376   4.202   1.116   8.522  0.6657 -0.9115 -0.2072
 8914SOL     OW38377   0.491   3.506   8.000 -0.1451  0.3126 -0.4798
 8914SOL    HW138378   0.484   3.600   7.982  1.2310 -0.3186 -4.2298
 8914SOL    HW238379   0.538   3.517   8.083 -0.8439 -0.9907  0.0992
 8915SOL     OW38380   3.935   3.112   8.432  0.1310  0.2138 -0.2040
 8915SOL    HW138381   3.859   3.082   8.383 -0.2492 -2.0769  1.8112
 8915SOL    HW238382   3.904   3.201   8.445  0.7685  0.3954  0.0474
 8916SOL     OW38383   1.152   1.548   3.276 -0.6371  0.1174 -0.0175
 8916SOL    HW138384   1.139   1.588   3.362  0.8609 -0.8363  0.6343
 8916SOL    HW238385   1.241   1.517   3.289 -0.8239 -1.0115 -1.4354
 8917SOL     OW38386   4.595   3.528  12.455  0.2075 -0.4409 -0.0677
 8917SOL    HW138387   4.591   3.502  12.547 -0.2888  1.7573  0.5372
 8917SOL    HW238388   4.687   3.523  12.432 -0.3886  0.4317 -2.6742
 8918SOL     OW38389   3.480   1.046  11.336 -0.3133 -0.2984 -0.0496
 8918SOL    HW138390   3.537   1.123  11.345 -1.5798  1.0162 -2.9958
 8918SOL    HW238391   3.458   1.032  11.428  0.7268  0.1170  0.2731
 8919SOL     OW38392   1.321   4.188  12.396 -0.0036 -0.0311 -0.1982
 8919SOL    HW138393   1.265   4.189  12.474 -0.3444  0.9541 -0.4579
 8919SOL    HW238394   1.251   4.203  12.333  1.2097  5.3766 -0.2969
 8920SOL     OW38395   2.617   0.080   8.363 -0.0719  0.2194  1.0481
 8920SOL    HW138396   2.631   0.138   8.438 -1.5133 -1.3586  2.5454
 8920SOL    HW238397   2.696   0.102   8.313 -0.3465  0.6880  0.8190
 8921SOL     OW38398   4.270   2.667  12.233  0.0048 -0.0251  0.8889
 8921SOL    HW138399   4.305   2.612  12.163 -2.8472  0.7031 -1.1305
 8921SOL    HW238400   4.340   2.732  12.237 -1.0163  1.1520 -0.3562
 8922SOL     OW38401   2.367   4.408   1.818 -0.0008 -0.8394  0.5567
 8922SOL    HW138402   2.334   4.462   1.747  0.2567 -0.0125  1.0609
 8922SOL    HW238403   2.380   4.476   1.885 -1.4588 -0.0621  0.0574
 8923SOL     OW38404   3.471   1.619   5.342  0.0563 -0.3194 -0.6074
 8923SOL    HW138405   3.425   1.595   5.261  0.2639  1.3181 -1.1991
 8923SOL    HW238406   3.402   1.659   5.394  0.1191 -0.3450 -0.5052
 8924SOL     OW38407   1.487   4.309   2.760 -0.0487  0.3407 -0.9937
 8924SOL    HW138408   1.421   4.378   2.764  0.3059  0.4556  3.4096
 8924SOL    HW238409   1.569   4.359   2.764  0.2609 -0.2502  0.2710
 8925SOL     OW38410   1.951   0.015  12.339 -0.2279 -0.0916 -0.0852
 8925SOL    HW138411   1.893   0.044  12.269  0.0794  2.3943  0.6741
 8925SOL    HW238412   1.972   4.670  12.302  0.5827 -0.0244  0.2158
 8926SOL     OW38413   3.005   1.507  11.397  0.1259 -0.0008  0.2662
 8926SOL    HW138414   3.035   1.583  11.448 -1.5415  0.5132  0.4560
 8926SOL    HW238415   2.923   1.548  11.370 -0.0924 -0.0446  0.8693
 8927SOL     OW38416   2.411   0.836   2.088 -0.1280 -0.0187 -0.3014
 8927SOL    HW138417   2.378   0.814   2.175 -0.8002 -1.5689 -0.9586
 8927SOL    HW238418   2.425   0.749   2.050  0.4720 -0.2933  0.5475
 8928SOL     OW38419   1.562   1.542   7.666 -0.4648 -0.5627 -0.0942
 8928SOL    HW138420   1.543   1.536   7.759 -2.5918  0.0913 -0.4850
 8928SOL    HW238421   1.589   1.454   7.642  0.1301  0.0713 -1.7913
 8929SOL     OW38422   3.155   3.945   3.840  0.4138  0.4168  0.1546
 8929SOL    HW138423   3.193   4.011   3.898 -0.6244  1.0627  0.0972
 8929SOL    HW238424   3.127   3.887   3.910  0.7150  0.7476  0.5487
 8930SOL     OW38425   1.335   4.372   8.614 -0.1930 -0.6328 -0.1534
 8930SOL    HW138426   1.381   4.443   8.660 -0.8219  0.0407 -0.5471
 8930SOL    HW238427   1.325   4.309   8.685  1.8030 -1.4914 -0.6398
 8931SOL     OW38428   0.152   0.469   5.534  0.1705  0.5137 -0.3535
 8931SOL    HW138429   0.078   0.409   5.541  0.3742  0.3869  0.6486
 8931SOL    HW238430   0.167   0.461   5.440 -0.7090  1.7220 -0.5859
 8932SOL     OW38431   4.649   2.180   3.874  0.1525 -0.6475 -0.6000
 8932SOL    HW138432   4.620   2.210   3.960 -1.4081  0.3197 -1.4653
 8932SOL    HW238433   4.706   2.251   3.844 -0.8392  0.9652  1.3511
 8933SOL     OW38434   0.909   2.429  17.659 -0.6858  0.6364 -0.1399
 8933SOL    HW138435   0.931   2.460  17.747 -2.3222 -2.7890  1.4950
 8933SOL    HW238436   0.891   2.338  17.683  3.3614 -0.3602 -0.9411
 8934SOL     OW38437   0.607   3.749   7.392 -0.1623  0.1193  0.5954
 8934SOL    HW138438   0.689   3.798   7.393 -0.9520  1.4213  1.1939
 8934SOL    HW238439   0.625   3.683   7.459  2.1368  0.1362 -0.0077
 8935SOL     OW38440   0.080   3.042   2.712  0.1071  0.2217  0.7657
 8935SOL    HW138441   0.145   3.028   2.781  0.9555  2.6742  0.4690
 8935SOL    HW238442   0.138   3.090   2.652  0.0897 -0.9151 -0.1707
 8936SOL     OW38443   2.268   3.580  10.807 -0.5328 -0.2109  0.8614
 8936SOL    HW138444   2.199   3.638  10.775  0.3731 -0.3336 -1.3228
 8936SOL    HW238445   2.206   3.520  10.849  0.1889 -0.1612  1.9805
 8937SOL     OW38446   1.527   2.545   6.197  0.2152 -0.0343  0.0499
 8937SOL    HW138447   1.548   2.453   6.211  0.4141 -0.0539 -0.3959
 8937SOL    HW238448   1.504   2.568   6.287 -0.0558  1.5060 -0.4198
 8938SOL     OW38449   3.927   2.924   5.328 -0.2484  0.6857  0.3735
 8938SOL    HW138450   3.954   2.850   5.383  2.0765  0.8578 -0.5510
 8938SOL    HW238451   3.917   2.876   5.245  0.7503  0.1627  0.5526
 8939SOL     OW38452   2.568   3.097   2.186 -0.3043 -0.5131 -0.0864
 8939SOL    HW138453   2.652   3.053   2.200 -1.1362 -2.4431 -1.0751
 8939SOL    HW238454   2.511   3.078   2.260  0.2794  2.6887  1.1694
 8940SOL     OW38455   1.662   4.377  14.886 -0.5441  0.1901  0.5437
 8940SOL    HW138456   1.645   4.383  14.792 -1.7255  1.7388  0.8496
 8940SOL    HW238457   1.726   4.447  14.900 -0.3087  0.3826 -1.4867
 8941SOL     OW38458   2.884   2.522   7.705  0.2395  0.1072  0.6372
 8941SOL    HW138459   2.806   2.501   7.756 -1.1852  0.3163 -1.4764
 8941SOL    HW238460   2.840   2.524   7.620  0.0556 -1.2206  0.7048
 8942SOL     OW38461   1.737   3.218   5.929  0.2302  0.0091 -0.2165
 8942SOL    HW138462   1.759   3.302   5.891 -0.4459  0.5291  0.5467
 8942SOL    HW238463   1.821   3.190   5.964 -0.4491 -0.6738  0.8892
 8943SOL     OW38464   2.881   3.834   8.573 -0.1344 -0.5564 -0.2816
 8943SOL    HW138465   2.841   3.882   8.646  1.1069 -0.3280  0.2512
 8943SOL    HW238466   2.916   3.759   8.622  0.6932 -0.2492 -0.4095
 8944SOL     OW38467   1.997   1.507  17.219 -0.3694  0.3690 -0.1568
 8944SOL    HW138468   2.089   1.504  17.193 -0.1715  0.8815  0.4653
 8944SOL    HW238469   1.954   1.519  17.134  2.6642  1.3049 -1.5310
 8945SOL     OW38470   4.458   2.511  11.519 -0.2353  0.0535 -0.2200
 8945SOL    HW138471   4.441   2.544  11.607  1.6483 -0.2029  0.2401
 8945SOL    HW238472   4.385   2.549  11.470  0.0178  1.1748  0.2652
 8946SOL     OW38473   3.717   3.714  16.073  0.6375 -0.3534 -0.2364
 8946SOL    HW138474   3.768   3.782  16.116 -0.6317 -0.4473  1.4147
 8946SOL    HW238475   3.680   3.666  16.148  1.4458 -0.4477  0.0977
 8947SOL     OW38476   3.613   0.532   5.650  0.1942 -0.3729 -0.8880
 8947SOL    HW138477   3.598   0.446   5.611  0.5875 -2.0299  2.5493
 8947SOL    HW238478   3.589   0.506   5.739 -0.3771  0.2196 -0.8741
 8948SOL     OW38479   1.458   3.445  11.652  0.1030  0.2631  0.0132
 8948SOL    HW138480   1.443   3.414  11.562  0.9159  0.0595 -0.0457
 8948SOL    HW238481   1.531   3.503  11.634  0.3222  0.6588  2.1767
 8949SOL     OW38482   2.003   0.273   5.410 -0.4741 -0.4461  0.1829
 8949SOL    HW138483   2.034   0.357   5.375 -1.0116 -0.4563 -0.3296
 8949SOL    HW238484   2.075   0.250   5.468  0.1243  0.3084 -0.2686
 8950SOL     OW38485   1.100   2.348  15.799  0.8279  0.3061 -0.5136
 8950SOL    HW138486   1.142   2.424  15.760  0.5935  0.3521 -0.6724
 8950SOL    HW238487   1.138   2.354  15.887  1.4375 -0.6856 -0.7024
 8951SOL     OW38488   1.692   4.283   6.172 -0.0569 -0.1614 -0.1194
 8951SOL    HW138489   1.759   4.252   6.233 -0.4763 -2.0862 -0.6614
 8951SOL    HW238490   1.705   4.378   6.176 -2.0892  0.1360 -0.7811
 8952SOL     OW38491   1.567   1.571   7.093 -0.1152 -0.1851 -0.4113
 8952SOL    HW138492   1.534   1.603   7.177 -1.9119  2.7906 -2.2369
 8952SOL    HW238493   1.646   1.625   7.089  0.8182 -1.4556  1.3057
 8953SOL     OW38494   3.390   2.004   6.057  0.5524  0.3718 -0.1135
 8953SOL    HW138495   3.431   2.052   5.986  0.4908  1.4030  0.5511
 8953SOL    HW238496   3.400   1.916   6.021 -0.6340  0.7189 -1.2611
 8954SOL     OW38497   4.497   0.178   2.744  0.2928  0.1244 -0.4693
 8954SOL    HW138498   4.442   0.230   2.803  0.7523  0.6413 -0.4991
 8954SOL    HW238499   4.468   0.214   2.660 -0.5159 -0.3039 -0.3785
 8955SOL     OW38500   4.373   0.068   7.035  0.3448  0.5779 -0.0721
 8955SOL    HW138501   4.363   4.717   7.010 -1.1482  0.0785  2.3812
 8955SOL    HW238502   4.456   0.086   6.990  0.5261  0.4422  0.2050
 8956SOL     OW38503   4.280   1.028   5.350 -0.0391  0.4652 -0.0253
 8956SOL    HW138504   4.333   0.954   5.380 -2.5735 -1.2227  0.2453
 8956SOL    HW238505   4.315   1.075   5.274  0.8199  1.7757  1.1690
 8957SOL     OW38506   3.883   1.776   3.380 -0.4966 -0.1046  0.0817
 8957SOL    HW138507   3.885   1.872   3.380 -0.6607 -0.0987  1.1608
 8957SOL    HW238508   3.832   1.759   3.301  1.1660 -0.9550 -0.8148
 8958SOL     OW38509   3.423   2.016   1.254  0.1536 -0.0085 -0.4527
 8958SOL    HW138510   3.363   2.090   1.261 -0.8458 -1.0154  1.6318
 8958SOL    HW238511   3.490   2.059   1.202  0.3409 -0.1289 -0.3096
 8959SOL     OW38512   3.897   0.099   1.584  0.1421 -0.3702  0.9224
 8959SOL    HW138513   3.829   0.084   1.650  0.9445 -2.4987  1.2687
 8959SOL    HW238514   3.977   0.075   1.631  2.1871  0.8019 -1.9924
 8960SOL     OW38515   0.912   1.660  11.769  0.2247  0.1767 -0.1928
 8960SOL    HW138516   0.974   1.594  11.800  1.6613  0.4789 -2.3921
 8960SOL    HW238517   0.852   1.663  11.843  0.5099  1.1794 -0.0055
 8961SOL     OW38518   2.636   1.176  16.137 -0.2365 -0.0230 -0.3541
 8961SOL    HW138519   2.715   1.122  16.137 -1.7837 -2.2705  1.5464
 8961SOL    HW238520   2.613   1.164  16.229  0.5747  0.4618 -0.0936
 8962SOL     OW38521   2.521   0.235  15.808 -0.1815 -0.5475  0.4419
 8962SOL    HW138522   2.518   0.331  15.803 -2.5774 -0.7579 -2.1599
 8962SOL    HW238523   2.612   0.216  15.785  0.4892  2.4217  0.5859
 8963SOL     OW38524   3.383   3.372   5.666  0.2737  0.0935  0.8207
 8963SOL    HW138525   3.336   3.440   5.617  1.1690 -0.2328 -0.4626
 8963SOL    HW238526   3.420   3.324   5.593  0.8147 -0.7394  1.6549
 8964SOL     OW38527   3.885   0.403   3.886 -0.8069  0.1905 -0.2435
 8964SOL    HW138528   3.876   0.321   3.935 -4.2157 -1.1986 -3.2286
 8964SOL    HW238529   3.889   0.465   3.959  0.2446  0.1533 -0.2713
 8965SOL     OW38530   2.432   1.679   1.289  0.2184  0.3300  0.5977
 8965SOL    HW138531   2.491   1.608   1.262  1.4827  0.6237  2.5693
 8965SOL    HW238532   2.442   1.682   1.385 -1.6397 -0.8549  0.8212
 8966SOL     OW38533   3.404   0.831   8.652 -0.2066  0.0876 -0.0432
 8966SOL    HW138534   3.466   0.867   8.589 -2.2608  0.8981 -1.6270
 8966SOL    HW238535   3.364   0.908   8.691 -1.0458 -0.8519  0.9382
 8967SOL     OW38536   4.452   1.830   6.063  0.0799 -0.2940  0.3225
 8967SOL    HW138537   4.459   1.800   5.972  1.6666 -0.1029  0.3673
 8967SOL    HW238538   4.357   1.834   6.073  0.4915  1.0091  3.6778
 8968SOL     OW38539   4.267   1.312   6.688  0.0527 -0.3955 -0.3805
 8968SOL    HW138540   4.180   1.310   6.726  0.5173  0.0802  0.6866
 8968SOL    HW238541   4.266   1.392   6.635  0.5913  0.0081  0.2309
 8969SOL     OW38542   1.181   0.250   3.841 -0.0461 -0.2488 -0.1466
 8969SOL    HW138543   1.088   0.274   3.839 -0.1598 -0.5552  1.7048
 8969SOL    HW238544   1.178   0.198   3.922  1.2845  0.2437  0.2197
 8970SOL     OW38545   2.319   0.480  14.165  0.3511  0.2554 -0.1030
 8970SOL    HW138546   2.312   0.490  14.070  0.8803 -0.6019 -0.2341
 8970SOL    HW238547   2.231   0.489  14.201 -0.8453  0.2584 -2.9701
 8971SOL     OW38548   4.217   2.706  10.839 -0.0101  0.2388 -0.3435
 8971SOL    HW138549   4.248   2.682  10.926 -1.7147 -0.9197 -0.0579
 8971SOL    HW238550   4.301   2.708  10.792  0.0154  1.1794 -0.2532
 8972SOL     OW38551   4.607   0.128   8.644 -0.1728 -0.7916 -0.1010
 8972SOL    HW138552   4.631   0.073   8.569 -1.0492 -1.2112 -0.0826
 8972SOL    HW238553   4.678   0.191   8.653 -0.7336 -0.2128  0.2698
 8973SOL     OW38554   0.534   3.089   4.797 -0.1362  0.0800 -0.0101
 8973SOL    HW138555   0.480   3.078   4.875 -1.5277  1.9034 -0.7224
 8973SOL    HW238556   0.592   3.013   4.804  0.6673  0.9670  2.9141
 8974SOL     OW38557   1.771   3.493  17.117  0.1597 -0.1101 -0.2635
 8974SOL    HW138558   1.809   3.519  17.201 -1.7894  1.7069  0.0497
 8974SOL    HW238559   1.824   3.540  17.052 -0.1057  1.2813  0.5159
 8975SOL     OW38560   2.907   2.091   5.579  0.1891 -0.1804 -0.2680
 8975SOL    HW138561   2.827   2.060   5.536  0.1124 -3.0814  1.9361
 8975SOL    HW238562   2.914   2.179   5.542  0.1216  0.8540  2.2134
 8976SOL     OW38563   3.336   4.581   9.134 -0.2998 -0.2862 -0.0859
 8976SOL    HW138564   3.329   4.552   9.225 -0.6464 -0.9957 -0.3451
 8976SOL    HW238565   3.246   4.579   9.103 -0.9473  2.8387  1.5863
 8977SOL     OW38566   0.128   2.914   5.839  0.2655  0.3570 -0.4863
 8977SOL    HW138567   0.085   2.964   5.907 -0.7137 -0.0012 -0.8440
 8977SOL    HW238568   0.098   2.954   5.757 -0.5714  1.7990  0.5380
 8978SOL     OW38569   2.169   4.555   8.329  0.8303  0.0799 -0.4629
 8978SOL    HW138570   2.163   4.624   8.263 -0.0733  2.9914  2.6622
 8978SOL    HW238571   2.259   4.521   8.327  1.1016  0.7674 -0.2771
 8979SOL     OW38572   4.101   3.812   4.561  0.0442  0.7666  0.1040
 8979SOL    HW138573   4.038   3.742   4.541  0.1764  0.7613 -0.2960
 8979SOL    HW238574   4.187   3.773   4.574  0.2259  1.3844  0.7127
 8980SOL     OW38575   3.593   1.854   8.435  0.9583  0.4358 -0.2858
 8980SOL    HW138576   3.588   1.897   8.520 -0.9501  0.6159 -0.4856
 8980SOL    HW238577   3.593   1.762   8.461 -1.1665 -0.0957 -2.1318
 8981SOL     OW38578   4.491   3.164   6.040  0.5358 -0.0951  0.6276
 8981SOL    HW138579   4.446   3.133   5.961  0.6386  1.6866 -0.1288
 8981SOL    HW238580   4.431   3.156   6.113  0.1589  3.0604  0.6790
 8982SOL     OW38581   4.133   0.090   1.710  0.3174  0.1232 -0.3157
 8982SOL    HW138582   4.170   0.169   1.671  1.8610 -1.0061 -1.1651
 8982SOL    HW238583   4.205   0.047   1.755  0.6052  0.8169 -0.1106
 8983SOL     OW38584   2.057   2.824   4.756  0.0639 -0.0295 -0.2946
 8983SOL    HW138585   2.065   2.907   4.803 -0.1940  0.7451 -1.6257
 8983SOL    HW238586   1.972   2.823   4.713 -0.4801 -0.7411  0.7919
 8984SOL     OW38587   4.423   2.060  11.497  0.3772 -0.2338 -0.1743
 8984SOL    HW138588   4.424   2.084  11.405  0.5352  1.4548  0.2700
 8984SOL    HW238589   4.339   2.098  11.524 -0.5345 -1.5873 -1.1226
 8985SOL     OW38590   3.558   3.371   8.293 -0.0914 -0.3731 -0.0483
 8985SOL    HW138591   3.607   3.354   8.373  0.8723 -0.3917 -0.6516
 8985SOL    HW238592   3.506   3.448   8.318  1.4385 -0.0406  2.0584
 8986SOL     OW38593   0.179   1.218   4.417  0.0591 -0.1070  0.1103
 8986SOL    HW138594   0.126   1.274   4.473  1.9420 -0.2761  2.0732
 8986SOL    HW238595   0.149   1.251   4.332  0.0696 -0.2764  0.0403
 8987SOL     OW38596   2.000   3.425   7.626  0.1496  0.2616  0.2489
 8987SOL    HW138597   2.082   3.385   7.597 -0.6417 -0.4812 -0.9396
 8987SOL    HW238598   1.933   3.375   7.581  0.0134  0.4146  0.2804
 8988SOL     OW38599   1.363   4.667   7.334 -0.5201  0.0489  0.0834
 8988SOL    HW138600   1.315   4.712   7.404  1.3817  2.5869 -0.2684
 8988SOL    HW238601   1.448   4.708   7.317 -0.7495  1.5054  2.4771
 8989SOL     OW38602   0.957   1.610   4.521  0.1348 -0.4528  0.1740
 8989SOL    HW138603   0.863   1.611   4.508  0.6616 -0.7507 -3.7274
 8989SOL    HW238604   0.975   1.523   4.485 -1.5493 -0.5303 -0.4555
 8990SOL     OW38605   2.458   3.825   4.460  0.5248 -0.3397 -0.0407
 8990SOL    HW138606   2.543   3.844   4.418  1.1032 -0.6885  0.9766
 8990SOL    HW238607   2.421   3.769   4.392 -1.2769 -2.4608  2.6611
 8991SOL     OW38608   3.758   3.055   8.782 -0.0185  0.2085 -0.7456
 8991SOL    HW138609   3.694   3.104   8.730 -0.6181  1.8256  1.5580
 8991SOL    HW238610   3.705   2.987   8.824 -1.3143  2.6580  1.5321
 8992SOL     OW38611   3.138   2.235   4.619 -0.3809 -0.2766 -0.2232
 8992SOL    HW138612   3.087   2.187   4.554  1.0718 -1.0328 -0.8102
 8992SOL    HW238613   3.195   2.165   4.651  1.6042  1.9730  1.1409
 8993SOL     OW38614   4.726   2.651   6.278 -0.1019 -0.3976  0.3893
 8993SOL    HW138615   0.029   2.725   6.237  2.1025  0.2558  3.8447
 8993SOL    HW238616   4.638   2.685   6.289  1.2115  2.6188  1.5320
 8994SOL     OW38617   1.314   1.456  17.694 -0.1089 -0.4139  0.3895
 8994SOL    HW138618   1.291   1.388  17.756 -0.6083  0.1475  0.8181
 8994SOL    HW238619   1.229   1.479  17.657  0.6207  0.3508 -0.8277
 8995SOL     OW38620   1.273   0.557   6.155  0.5516 -0.2174 -0.6046
 8995SOL    HW138621   1.209   0.622   6.183 -0.0062 -1.0225 -0.0048
 8995SOL    HW238622   1.306   0.593   6.073  0.5955 -0.9164 -0.8934
 8996SOL     OW38623   4.370   1.010   4.523  0.0465 -0.3016  0.8467
 8996SOL    HW138624   4.459   1.031   4.495  0.5076  0.2150  2.6481
 8996SOL    HW238625   4.396   0.957   4.598 -0.7582  0.0284  1.3604
 8997SOL     OW38626   1.921   2.588   1.796  0.1505  0.5024  0.5364
 8997SOL    HW138627   1.961   2.523   1.738 -2.0538  0.7803 -1.2661
 8997SOL    HW238628   1.827   2.590   1.777  0.3822 -0.3807 -0.6801
 8998SOL     OW38629   1.615   1.160   8.238  0.1455 -0.5691 -0.5358
 8998SOL    HW138630   1.710   1.161   8.224  0.2188 -0.8008 -0.0556
 8998SOL    HW238631   1.608   1.089   8.301  0.5162  0.7016  0.9424
 8999SOL     OW38632   2.503   0.380  13.118  0.6350  0.4000 -0.2860
 8999SOL    HW138633   2.551   0.447  13.070 -0.4147  1.8204  0.6285
 8999SOL    HW238634   2.427   0.373  13.061  0.9849 -1.5114 -0.5012
 9000SOL     OW38635   4.456   0.789  13.044  0.3244  0.0833 -0.1752
 9000SOL    HW138636   4.402   0.815  12.969 -1.9955 -0.2967  1.3673
 9000SOL    HW238637   4.427   0.698  13.053  1.1274 -0.1505  0.0142
 9001SOL     OW38638   2.710   1.030   3.168  1.1424  0.4300  0.0913
 9001SOL    HW138639   2.780   1.096   3.174 -0.2720  1.8804  0.4597
 9001SOL    HW238640   2.748   0.974   3.099 -0.5684 -0.7043  0.0729
 9002SOL     OW38641   2.409   3.405   9.346  0.2607  0.0736 -0.2785
 9002SOL    HW138642   2.373   3.365   9.267 -2.6618 -0.3433  1.2743
 9002SOL    HW238643   2.355   3.359   9.411  1.4168  1.4446  1.6649
 9003SOL     OW38644   1.996   2.380  11.371  0.7559 -0.0171  0.1947
 9003SOL    HW138645   2.003   2.476  11.366  2.4149 -0.0701  1.6511
 9003SOL    HW238646   1.906   2.357  11.349  0.9436  1.7071 -2.3689
 9004SOL     OW38647   0.674   1.520  16.148  0.0482  0.3356 -0.1134
 9004SOL    HW138648   0.742   1.495  16.086  0.3525 -1.9070  1.1288
 9004SOL    HW238649   0.624   1.441  16.166  1.1789 -0.3978 -0.2090
 9005SOL     OW38650   0.562   2.351  12.130  0.3738 -0.5282  0.0218
 9005SOL    HW138651   0.645   2.364  12.082 -0.2826  0.2500 -0.9063
 9005SOL    HW238652   0.522   2.273  12.091  0.0823 -0.8222  0.9266
 9006SOL     OW38653   0.902   1.118   6.826 -0.4870  0.2542 -0.1797
 9006SOL    HW138654   0.888   1.089   6.736  2.7399  0.0858 -0.6318
 9006SOL    HW238655   0.883   1.212   6.820 -0.3684  0.1887 -1.7870
 9007SOL     OW38656   3.279   2.297   5.808  0.0882 -0.4340 -1.0755
 9007SOL    HW138657   3.236   2.268   5.727  1.5770  0.3569 -2.1509
 9007SOL    HW238658   3.361   2.336   5.777  1.5337 -1.9444  0.8601
 9008SOL     OW38659   1.459   2.547  17.016 -0.4557  0.5543 -0.1968
 9008SOL    HW138660   1.516   2.568  16.943  0.0477 -0.7229 -0.1654
 9008SOL    HW238661   1.526   2.513  17.074 -3.4180 -1.4320  2.0690
 9009SOL     OW38662   0.320   1.358  16.526 -0.4396 -0.1177 -0.2313
 9009SOL    HW138663   0.331   1.273  16.569  0.5197  0.2733  0.2954
 9009SOL    HW238664   0.341   1.416  16.600  1.0347 -0.5776 -0.2883
 9010SOL     OW38665   1.959   4.595   2.376 -0.4130  0.5726 -0.5367
 9010SOL    HW138666   1.971   4.680   2.336 -1.2442  0.9096 -0.0797
 9010SOL    HW238667   2.026   4.595   2.445  0.8541  0.0496 -1.7798
 9011SOL     OW38668   0.895   1.778  14.786 -0.0659  0.3453  0.4910
 9011SOL    HW138669   0.940   1.848  14.737  1.5439 -0.2968  1.0486
 9011SOL    HW238670   0.849   1.826  14.855 -1.3413  0.8420 -0.7130
 9012SOL     OW38671   2.897   0.775  17.276 -0.1566 -0.1188  0.1449
 9012SOL    HW138672   2.862   0.838  17.213  1.0789 -1.1909 -1.6239
 9012SOL    HW238673   2.816   0.748  17.320 -0.8522 -1.6936 -2.0555
 9013SOL     OW38674   3.601   1.028   6.819 -0.5939  0.2835 -0.4622
 9013SOL    HW138675   3.570   0.999   6.904  0.9458  1.1134  0.3944
 9013SOL    HW238676   3.553   0.956   6.779 -1.0128 -0.1973  0.9201
 9014SOL     OW38677   2.392   4.318   7.681  0.6103 -0.2946 -0.8279
 9014SOL    HW138678   2.350   4.334   7.596  0.9966 -0.6542 -1.0847
 9014SOL    HW238679   2.484   4.320   7.655  0.3232 -1.9756 -1.9548
 9015SOL     OW38680   1.248   1.602   5.617  0.1612 -0.5067  0.1424
 9015SOL    HW138681   1.159   1.580   5.591  0.0767 -2.2038  1.8564
 9015SOL    HW238682   1.287   1.630   5.534  1.9607 -0.3078  1.0390
 9016SOL     OW38683   4.670   2.884   3.363 -0.0990  0.3589 -0.2415
 9016SOL    HW138684   4.637   2.796   3.350  2.9102 -1.1550  2.3131
 9016SOL    HW238685   4.598   2.936   3.327  0.7628  0.6523 -1.5405
 9017SOL     OW38686   1.002   4.301   4.614  0.0231  0.0419 -0.3209
 9017SOL    HW138687   0.924   4.355   4.630  1.4745  2.0710 -0.0811
 9017SOL    HW238688   0.986   4.246   4.690  1.4459  0.1682  0.0708
 9018SOL     OW38689   2.374   3.174   2.976 -0.2290  0.6051 -0.1713
 9018SOL    HW138690   2.329   3.251   2.940 -0.4860  0.2809 -0.5438
 9018SOL    HW238691   2.304   3.124   3.019  1.7257 -0.4614  1.7720
 9019SOL     OW38692   0.451   0.295   3.748  0.0933 -0.2347  0.2378
 9019SOL    HW138693   0.425   0.387   3.736 -1.3194 -0.6405  0.1840
 9019SOL    HW238694   0.370   0.259   3.783  1.4554 -1.5803  2.0221
 9020SOL     OW38695   1.294   4.189   5.875 -0.1736  0.2148 -0.4089
 9020SOL    HW138696   1.238   4.218   5.802 -1.3382 -0.1048  0.3674
 9020SOL    HW238697   1.331   4.110   5.835 -1.4209 -1.6979  2.3053
 9021SOL     OW38698   3.235   0.467  17.266  0.1354 -0.1123  0.5373
 9021SOL    HW138699   3.231   0.561  17.251  1.1410 -0.7781 -3.7854
 9021SOL    HW238700   3.210   0.459  17.358 -0.2575  1.8701  0.6048
 9022SOL     OW38701   1.808   0.693   2.434 -0.2921  0.5575  0.1949
 9022SOL    HW138702   1.897   0.721   2.453  0.0025 -1.1535  1.3854
 9022SOL    HW238703   1.787   0.645   2.514 -1.9309 -1.4207 -1.4366
 9023SOL     OW38704   1.473   0.096   9.741  0.5369  0.1493  0.2141
 9023SOL    HW138705   1.553   0.099   9.793  1.1141  0.0508 -0.6813
 9023SOL    HW238706   1.417   0.038   9.792  0.4568 -0.2699 -0.3517
 9024SOL     OW38707   3.669   1.054   2.741 -0.0220  0.7941 -0.2310
 9024SOL    HW138708   3.648   1.143   2.769  1.1004  0.4994  1.5396
 9024SOL    HW238709   3.588   1.005   2.760  0.2880  1.3953  2.5830
 9025SOL     OW38710   1.432   2.696  14.668  0.1874 -0.2634 -0.0744
 9025SOL    HW138711   1.479   2.740  14.597  1.5153  0.8479  1.4719
 9025SOL    HW238712   1.472   2.747  14.739 -1.4334 -1.5143  1.7539
 9026SOL     OW38713   0.863   3.107   5.680  0.2994 -0.3595 -0.2137
 9026SOL    HW138714   0.775   3.069   5.689  0.1959 -0.2271 -0.6643
 9026SOL    HW238715   0.917   3.032   5.657  1.1706  0.2970 -0.3102
 9027SOL     OW38716   1.958   1.418   6.365 -0.4487 -0.5355 -0.2714
 9027SOL    HW138717   1.914   1.439   6.448  1.3360  1.7585  0.1082
 9027SOL    HW238718   2.047   1.447   6.387 -0.0130 -0.3016 -2.3473
 9028SOL     OW38719   2.514   2.119  15.094  0.0389  0.2446  0.2749
 9028SOL    HW138720   2.559   2.141  15.012  0.8879 -0.0990  0.6573
 9028SOL    HW238721   2.513   2.207  15.132 -2.2189  1.4284 -2.4625
 9029SOL     OW38722   2.016   2.383   2.675  0.2392 -0.3664  0.5693
 9029SOL    HW138723   1.945   2.366   2.737 -0.1449 -1.6464 -0.2265
 9029SOL    HW238724   2.095   2.348   2.715 -0.1316 -0.2380  1.4081
 9030SOL     OW38725   3.271   0.968   7.367 -0.0896 -0.5862  0.7910
 9030SOL    HW138726   3.289   0.878   7.340  0.6690  0.4495 -2.1464
 9030SOL    HW238727   3.177   0.956   7.373  0.0267 -1.4723  0.8963
 9031SOL     OW38728   4.466   0.517   5.274 -0.2813  0.0496  0.9701
 9031SOL    HW138729   4.522   0.540   5.200  0.5373 -0.8939  1.2970
 9031SOL    HW238730   4.498   0.428   5.288 -1.2777 -0.2737  1.2011
 9032SOL     OW38731   2.859   4.326  17.598 -0.5276  0.7000 -0.0348
 9032SOL    HW138732   2.776   4.335  17.552 -0.9178 -1.2285  0.2741
 9032SOL    HW238733   2.863   4.231  17.609  0.6580  0.8525  0.8236
 9033SOL     OW38734   1.009   3.948   3.305 -0.0554  0.2463 -0.5045
 9033SOL    HW138735   0.982   3.982   3.390 -2.6907 -0.8938 -0.8629
 9033SOL    HW238736   1.041   4.024   3.258 -0.0220  0.4745 -0.1103
 9034SOL     OW38737   0.317   1.717   0.209  0.4722 -0.1125 -0.1047
 9034SOL    HW138738   0.326   1.808   0.238 -0.2058 -0.1766  0.3037
 9034SOL    HW238739   0.390   1.682   0.260  0.0186  2.9315  2.6136
 9035SOL     OW38740   1.548   3.943   3.951  0.1832 -0.0363  0.3827
 9035SOL    HW138741   1.631   3.896   3.946  0.1154 -0.4721  3.0519
 9035SOL    HW238742   1.542   3.975   3.862 -1.4535 -0.1313  0.4527
 9036SOL     OW38743   2.506   2.026   5.392  0.6416 -0.0245  0.5263
 9036SOL    HW138744   2.450   2.006   5.317 -0.4036 -0.3212  1.3817
 9036SOL    HW238745   2.529   2.117   5.373 -0.5979  0.0082 -0.8277
 9037SOL     OW38746   3.400   2.796   8.720 -0.0437 -0.3194  0.2105
 9037SOL    HW138747   3.380   2.703   8.708 -2.8771  0.3955 -0.5453
 9037SOL    HW238748   3.333   2.839   8.667  0.0966 -0.7968 -0.3506
 9038SOL     OW38749   2.084   3.969   7.381 -0.3891 -0.0528  0.2755
 9038SOL    HW138750   2.050   3.891   7.425 -1.4368  0.8143  1.0198
 9038SOL    HW238751   2.032   4.033   7.429 -1.2981 -1.6819  1.4695
 9039SOL     OW38752   3.377   3.319   9.571 -0.5973 -0.1252  0.2479
 9039SOL    HW138753   3.338   3.234   9.553 -0.2156 -0.4112  0.7763
 9039SOL    HW238754   3.393   3.304   9.664  0.3176 -0.3892  0.0464
 9040SOL     OW38755   3.598   3.514   7.600 -0.4420 -0.5198 -0.8316
 9040SOL    HW138756   3.643   3.495   7.518  1.4578 -1.3848  0.4332
 9040SOL    HW238757   3.666   3.556   7.653 -1.7243 -0.1978  0.5758
 9041SOL     OW38758   1.580   4.500   8.416 -0.6302 -0.4040  0.6391
 9041SOL    HW138759   1.651   4.557   8.445 -0.4992 -0.5318  0.5692
 9041SOL    HW238760   1.604   4.422   8.467  2.2811 -1.0938 -1.7923
 9042SOL     OW38761   0.069   1.658  14.976  0.1507  0.0021 -0.3528
 9042SOL    HW138762   0.079   1.569  14.945 -1.3131 -0.8478  1.5789
 9042SOL    HW238763   4.716   1.662  14.957  0.2373  1.4855 -0.4842
 9043SOL     OW38764   0.067   0.143  16.312  0.4836  0.4218 -0.2869
 9043SOL    HW138765   0.118   0.139  16.232  0.3869  1.1944 -0.3916
 9043SOL    HW238766   0.065   0.237  16.333  1.2088 -0.0010  1.6936
 9044SOL     OW38767   2.968   0.817   1.251 -0.2391 -0.0861 -0.8619
 9044SOL    HW138768   2.949   0.899   1.205  0.7563  0.7569  0.2340
 9044SOL    HW238769   2.875   0.798   1.262 -0.8282  1.7928 -2.7617
 9045SOL     OW38770   1.201   2.593   2.260 -0.3287 -0.8656 -0.1210
 9045SOL    HW138771   1.293   2.588   2.235 -0.2044 -0.8929  0.3388
 9045SOL    HW238772   1.184   2.682   2.230  0.4629 -0.8516 -0.5267
 9046SOL     OW38773   4.231   3.874   9.427  0.4636 -0.0382  0.6023
 9046SOL    HW138774   4.325   3.895   9.428  0.2722  0.7610  1.3653
 9046SOL    HW238775   4.222   3.837   9.515  0.6632  0.7703  0.9644
 9047SOL     OW38776   2.673   3.894   4.311  0.6541 -0.7946  0.2851
 9047SOL    HW138777   2.685   3.803   4.285  1.7093 -0.1857 -1.3731
 9047SOL    HW238778   2.730   3.939   4.249  0.2219 -0.2158  0.3119
 9048SOL     OW38779   4.485   1.131   2.587 -0.1522  0.1390 -0.1568
 9048SOL    HW138780   4.477   1.122   2.682  0.0046  5.4481  0.3904
 9048SOL    HW238781   4.480   1.226   2.576  0.4621  0.2741  0.6960
 9049SOL     OW38782   1.496   4.712  10.860 -0.0684 -0.5984 -0.0720
 9049SOL    HW138783   1.532   4.650  10.923  1.2635  0.2575 -0.0040
 9049SOL    HW238784   1.476   0.049  10.912 -1.2229 -1.1844  0.3598
 9050SOL     OW38785   3.465   2.370  12.646 -0.3082  0.1717 -0.3584
 9050SOL    HW138786   3.468   2.280  12.614  1.3477  1.1408 -2.9375
 9050SOL    HW238787   3.484   2.423  12.568  0.6319 -0.2478 -0.4041
 9051SOL     OW38788   0.449   2.538   3.330  0.2461  0.2293 -0.1673
 9051SOL    HW138789   0.380   2.472   3.319 -0.4981  1.1132 -0.7100
 9051SOL    HW238790   0.491   2.497   3.406  1.3783 -0.4493 -1.1630
 9052SOL     OW38791   3.486   1.044   0.580  0.1395 -0.2765 -0.1093
 9052SOL    HW138792   3.482   1.124   0.633 -0.7876 -0.1872 -0.3248
 9052SOL    HW238793   3.400   1.009   0.603 -1.9019  2.7779 -3.1109
 9053SOL     OW38794   0.815   0.031   9.372  0.2109  0.9199  0.0383
 9053SOL    HW138795   0.879   4.736   9.433 -1.1924 -0.1479  0.8992
 9053SOL    HW238796   0.811   4.700   9.308 -1.1075 -0.1205  1.2787
 9054SOL     OW38797   4.312   3.863  10.388 -0.0884  0.0383  0.2782
 9054SOL    HW138798   4.217   3.858  10.385 -0.2621  2.3556  1.8386
 9054SOL    HW238799   4.342   3.787  10.437  0.3252 -0.7096 -1.1361
 9055SOL     OW38800   1.294   3.217   4.883 -0.0749 -0.0380  0.2406
 9055SOL    HW138801   1.267   3.138   4.929 -1.1352  0.3204  0.2412
 9055SOL    HW238802   1.279   3.289   4.944 -2.1336  1.7142 -2.3320
 9056SOL     OW38803   1.819   2.481  10.224  0.1192 -0.1144 -0.9859
 9056SOL    HW138804   1.877   2.495  10.149  1.0433  0.1502 -0.2263
 9056SOL    HW238805   1.812   2.386  10.228 -1.5125  0.0527 -0.0764
 9057SOL     OW38806   4.412   0.423   8.269 -0.0652  0.5874  0.2822
 9057SOL    HW138807   4.501   0.393   8.248 -0.4536  0.5482 -1.3429
 9057SOL    HW238808   4.376   0.357   8.328 -0.6667  2.1886  1.7113
 9058SOL     OW38809   3.050   2.593   2.977  0.2318  0.6014  0.4897
 9058SOL    HW138810   3.044   2.497   2.979 -0.5563  0.6625  1.3306
 9058SOL    HW238811   3.073   2.602   2.885 -3.7412 -1.3521 -0.7179
 9059SOL     OW38812   2.410   1.778  15.999 -0.2512  0.0631 -0.3642
 9059SOL    HW138813   2.425   1.795  15.906  0.0476  0.4604 -0.2426
 9059SOL    HW238814   2.375   1.689  15.998 -1.1264  0.3737  1.6611
 9060SOL     OW38815   3.641   1.446   9.328  0.0654  0.5092  0.8223
 9060SOL    HW138816   3.732   1.419   9.346  0.6209  1.4328 -0.6410
 9060SOL    HW238817   3.650   1.529   9.281 -0.2602  0.6532  1.0138
 9061SOL     OW38818   3.801   1.756  16.574 -0.3324 -0.1081  0.2922
 9061SOL    HW138819   3.741   1.829  16.587  0.3118  0.9111 -2.4529
 9061SOL    HW238820   3.867   1.782  16.638 -0.5325 -1.8942  1.2267
 9062SOL     OW38821   4.468   1.172  13.009  0.4569  0.3694 -0.0505
 9062SOL    HW138822   4.451   1.240  13.074  1.2943  0.3394  0.1997
 9062SOL    HW238823   4.438   1.092  13.053  1.5692  0.0310  0.1080
 9063SOL     OW38824   3.259   1.650  16.340 -0.2795 -0.5906  0.1238
 9063SOL    HW138825   3.283   1.696  16.260 -1.1932  1.6112  1.1179
 9063SOL    HW238826   3.166   1.670  16.348  0.1700  0.8905  1.5887
 9064SOL     OW38827   4.174   1.310   2.946 -0.3623  1.8564  0.4679
 9064SOL    HW138828   4.175   1.379   3.013 -0.5853  0.5226  1.8667
 9064SOL    HW238829   4.265   1.283   2.933  0.7148  5.2736  0.8813
 9065SOL     OW38830   2.512   3.620   5.992  0.4031  0.1811 -0.2478
 9065SOL    HW138831   2.600   3.600   5.959  0.7046  3.9187 -1.7124
 9065SOL    HW238832   2.479   3.534   6.016 -0.5761  1.2655  2.2353
 9066SOL     OW38833   0.788   3.811   3.788  0.0803  0.0944  0.6018
 9066SOL    HW138834   0.878   3.784   3.807  0.0207 -0.8010 -0.3353
 9066SOL    HW238835   0.785   3.887   3.846  0.6641 -0.3511  1.2178
 9067SOL     OW38836   3.001   2.054  15.024  0.2075 -0.3330 -0.4854
 9067SOL    HW138837   2.971   2.023  15.110  2.1119  1.8479  0.9783
 9067SOL    HW238838   2.927   2.025  14.971  0.0487 -1.1775  0.1976
 9068SOL     OW38839   0.672   1.839  11.499 -0.2799 -0.0088  0.0557
 9068SOL    HW138840   0.711   1.826  11.413  1.2435  2.2332  0.4056
 9068SOL    HW238841   0.621   1.761  11.519 -1.2307 -0.0387 -2.5080
 9069SOL     OW38842   1.901   2.321   3.829  0.2678 -0.6479  0.6921
 9069SOL    HW138843   1.972   2.313   3.892  0.0293  3.2106  1.4336
 9069SOL    HW238844   1.835   2.261   3.863 -2.6053  3.5019  2.4173
 9070SOL     OW38845   4.076   2.783   0.143  0.2688 -0.3094  0.0666
 9070SOL    HW138846   4.091   2.836   0.064 -0.4770  1.6372  1.2408
 9070SOL    HW238847   4.146   2.819   0.197  0.9371  0.8148 -1.5562
 9071SOL     OW38848   0.764   0.855   7.540 -0.0671  0.0310 -0.3861
 9071SOL    HW138849   0.688   0.847   7.483 -0.3967  3.1581 -0.3558
 9071SOL    HW238850   0.768   0.764   7.570 -2.7115 -0.3094 -1.0966
 9072SOL     OW38851   2.972   0.192   5.895  0.7653 -0.2909  0.1567
 9072SOL    HW138852   2.932   0.184   5.982  0.5618 -1.2102 -0.0216
 9072SOL    HW238853   3.055   0.145   5.899 -1.1565 -3.6532  0.4290
 9073SOL     OW38854   4.705   1.249   9.368  0.4203 -0.1901  0.2457
 9073SOL    HW138855   0.010   1.317   9.318 -0.5054  0.6980  0.6047
 9073SOL    HW238856   4.634   1.290   9.417  0.9674  1.0896 -0.0389
 9074SOL     OW38857   2.539   3.739  15.884 -0.9177  0.1542  0.3422
 9074SOL    HW138858   2.502   3.815  15.841 -1.9974 -1.3219 -1.3560
 9074SOL    HW238859   2.633   3.754  15.892 -0.6581 -0.9868 -0.4427
 9075SOL     OW38860   2.987   3.477  13.447  0.4262 -0.3838  0.1931
 9075SOL    HW138861   2.990   3.382  13.445  1.6838 -0.3722  2.1356
 9075SOL    HW238862   2.993   3.494  13.352 -0.0752 -0.3961  0.1584
 9076SOL     OW38863   2.586   4.471  17.523 -0.2231 -0.3334 -0.0622
 9076SOL    HW138864   2.627   4.557  17.512 -0.5706 -0.3662 -1.6662
 9076SOL    HW238865   2.615   4.426  17.444 -0.3706 -0.8095  0.1570
 9077SOL     OW38866   2.586   1.143   2.352  0.0968 -0.3788  0.3571
 9077SOL    HW138867   2.565   1.191   2.432  3.3564  1.7339 -0.0898
 9077SOL    HW238868   2.670   1.105   2.378 -0.2186 -1.5460 -0.3368
 9078SOL     OW38869   0.827   2.981   3.286  0.0218  0.1847 -1.1478
 9078SOL    HW138870   0.881   2.903   3.277 -1.7882 -0.7899 -3.7220
 9078SOL    HW238871   0.892   3.047   3.261  1.4978 -1.2193 -0.9654
 9079SOL     OW38872   1.049   0.605   3.590  0.6484 -0.1247 -0.3758
 9079SOL    HW138873   1.045   0.608   3.686  0.1906 -1.0547 -0.3623
 9079SOL    HW238874   1.105   0.528   3.579 -0.1413 -0.6710 -0.5684
 9080SOL     OW38875   1.099   1.507   9.512  0.3268  0.4019 -0.1140
 9080SOL    HW138876   1.087   1.516   9.606 -0.6377  0.8420 -0.2786
 9080SOL    HW238877   1.191   1.483   9.498  0.7422  1.7824  0.2107
 9081SOL     OW38878   4.253   1.441   2.475  0.6003  0.1002 -0.0091
 9081SOL    HW138879   4.186   1.435   2.408  0.3263 -1.1577  0.3780
 9081SOL    HW238880   4.265   1.354   2.513  1.8182  1.2164  2.1771
 9082SOL     OW38881   3.070   1.939   1.010  0.3887  0.0304  0.3857
 9082SOL    HW138882   2.975   1.936   1.018  0.2939  0.9960 -0.4912
 9082SOL    HW238883   3.086   2.032   0.995 -0.5367  0.0558 -0.4965
 9083SOL     OW38884   3.829   1.156  16.872  0.0533  0.4277 -0.3740
 9083SOL    HW138885   3.890   1.129  16.803 -0.7356  0.0819 -0.9315
 9083SOL    HW238886   3.814   1.247  16.846 -2.1087 -0.4040 -2.0355
 9084SOL     OW38887   0.973   2.967   5.324  0.1380 -0.0432 -0.1959
 9084SOL    HW138888   0.940   2.943   5.410  0.4209  1.8409  0.4443
 9084SOL    HW238889   1.043   2.904   5.307  2.1623  1.8397  1.0777
 9085SOL     OW38890   0.791   2.528   6.868  0.1857 -0.9350  0.1710
 9085SOL    HW138891   0.799   2.512   6.774  0.8973  2.2606 -0.3101
 9085SOL    HW238892   0.802   2.621   6.883 -0.2491 -0.9083  0.3235
 9086SOL     OW38893   0.768   0.368  15.673 -0.2519 -0.7888  0.1843
 9086SOL    HW138894   0.679   0.387  15.643  0.7502 -0.8511 -2.8492
 9086SOL    HW238895   0.786   0.425  15.748  1.0727 -0.6673 -0.2354
 9087SOL     OW38896   2.071   3.496  14.500 -0.2237  0.2110 -0.1457
 9087SOL    HW138897   2.056   3.495  14.595  3.3561  1.5502  0.4539
 9087SOL    HW238898   2.061   3.403  14.479 -0.4566  0.1447  0.2547
 9088SOL     OW38899   0.475   3.480   8.418 -0.0747  0.4532  0.2187
 9088SOL    HW138900   0.387   3.506   8.442  0.4857  0.2833  2.4249
 9088SOL    HW238901   0.513   3.568   8.418 -1.3070  0.9777  2.3399
 9089SOL     OW38902   3.412   3.195   7.029  0.1382  0.4630 -0.2092
 9089SOL    HW138903   3.421   3.100   7.027 -2.4736  0.2047 -0.8539
 9089SOL    HW238904   3.443   3.212   6.940 -1.4113 -2.0588 -1.2525
 9090SOL     OW38905   0.611   4.086   1.414 -0.2694  0.1399 -0.1020
 9090SOL    HW138906   0.519   4.107   1.424 -1.4376 -4.2474 -1.6889
 9090SOL    HW238907   0.614   4.049   1.326 -0.8152 -1.5395  0.6020
 9091SOL     OW38908   4.732   4.372   6.913 -0.1070 -0.2778 -0.2434
 9091SOL    HW138909   4.642   4.345   6.893 -0.9946  2.1062  0.5239
 9091SOL    HW238910   0.027   4.330   6.835  0.9427  0.2037 -0.0242
 9092SOL     OW38911   4.740   1.732   5.258 -0.1294 -0.4112 -0.6340
 9092SOL    HW138912   0.003   1.823   5.288 -0.6173  0.7162 -4.0433
 9092SOL    HW238913   0.035   1.745   5.170 -0.5359  0.7940 -0.6175
 9093SOL     OW38914   4.221   0.798   7.994 -0.1965 -0.4473  0.6042
 9093SOL    HW138915   4.143   0.746   8.012  0.9757 -2.5006 -0.2343
 9093SOL    HW238916   4.234   0.845   8.077 -1.5348 -0.6303  0.9121
 9094SOL     OW38917   1.331   3.326   4.617 -0.4246 -0.0551  0.0983
 9094SOL    HW138918   1.328   3.287   4.705  0.8059  0.3857  0.3319
 9094SOL    HW238919   1.390   3.270   4.567  0.2323  0.7797 -0.0615
 9095SOL     OW38920   1.601   2.842  14.517 -0.3436 -0.1758  0.4857
 9095SOL    HW138921   1.592   2.936  14.533  2.0215 -0.0973  1.5189
 9095SOL    HW238922   1.696   2.829  14.516 -0.1122  1.1140  3.6807
 9096SOL     OW38923   0.302   3.724  16.163  0.8095 -0.3641  0.2830
 9096SOL    HW138924   0.217   3.700  16.124  0.3240 -0.0136  1.1175
 9096SOL    HW238925   0.359   3.671  16.107  0.4858 -1.1028  0.6543
 9097SOL     OW38926   4.555   3.156   0.344  0.3545 -0.3829 -0.3161
 9097SOL    HW138927   4.525   3.178   0.432  1.7999 -2.7416  0.7646
 9097SOL    HW238928   4.601   3.238   0.325  0.4960  0.3238  3.0248
 9098SOL     OW38929   3.273   2.307   6.847 -0.0669  0.8102  0.1952
 9098SOL    HW138930   3.331   2.234   6.867  1.9451  1.9644 -1.4455
 9098SOL    HW238931   3.252   2.290   6.755  0.6415 -0.5394  0.2882
 9099SOL     OW38932   1.346   1.261   8.036 -0.1106 -0.7600  0.1152
 9099SOL    HW138933   1.422   1.206   8.019  0.3074  0.6427 -2.4571
 9099SOL    HW238934   1.275   1.199   8.054  0.6544 -1.2843  1.3719
 9100SOL     OW38935   0.018   3.712   5.384  0.4078 -0.0518 -0.0731
 9100SOL    HW138936   0.036   3.765   5.306 -0.3320 -0.7566 -0.7217
 9100SOL    HW238937   4.734   3.630   5.343 -0.8589  0.4657 -0.3516
 9101SOL     OW38938   0.905   0.170   8.748  0.1331 -0.3432 -0.0931
 9101SOL    HW138939   0.825   0.146   8.701 -1.0406 -0.8752  2.1345
 9101SOL    HW238940   0.971   0.148   8.683 -0.7541 -0.2411 -1.0370
 9102SOL     OW38941   0.645   0.053   2.951 -0.4514  0.2072  0.7684
 9102SOL    HW138942   0.584   4.735   2.906 -1.2148  1.4075  0.2199
 9102SOL    HW238943   0.614   0.045   3.042 -0.9660 -0.8301  0.4944
 9103SOL     OW38944   1.122   2.976   3.294 -0.1292  0.2812 -0.4492
 9103SOL    HW138945   1.168   2.947   3.216  1.2737  1.7559 -0.1651
 9103SOL    HW238946   1.117   3.070   3.279  3.3303  0.1853 -2.0457
 9104SOL     OW38947   0.355   3.101   5.528  0.0047  0.3822  0.3982
 9104SOL    HW138948   0.309   3.123   5.609 -1.1257  0.0964 -0.1679
 9104SOL    HW238949   0.285   3.048   5.490  0.8900 -0.7159  0.3040
 9105SOL     OW38950   0.174   0.425  12.764  0.3122  0.2912  0.4614
 9105SOL    HW138951   0.099   0.372  12.790  1.5016 -1.7118 -0.2499
 9105SOL    HW238952   0.234   0.393  12.831  2.3803 -0.5208 -1.7812
 9106SOL     OW38953   1.622   0.321  10.413  0.4237 -0.1646 -0.7089
 9106SOL    HW138954   1.589   0.298  10.500  1.2533  2.1546  0.2376
 9106SOL    HW238955   1.565   0.392  10.383  0.7417  0.6345  0.5474
 9107SOL     OW38956   1.238   0.935   1.689 -0.2443  0.3637 -0.4556
 9107SOL    HW138957   1.288   1.016   1.681 -0.1524  0.5424  1.9991
 9107SOL    HW238958   1.294   0.873   1.735  1.2722  2.0940 -0.0019
 9108SOL     OW38959   2.522   1.370   9.572  0.1772 -0.0783 -0.4715
 9108SOL    HW138960   2.605   1.405   9.604  1.3488 -1.8449 -1.5427
 9108SOL    HW238961   2.502   1.428   9.500 -1.9049 -1.5416 -1.0518
 9109SOL     OW38962   2.457   1.089   2.872 -0.1481 -0.2082  0.2698
 9109SOL    HW138963   2.464   0.996   2.889  1.4680 -0.5303 -2.1173
 9109SOL    HW238964   2.372   1.089   2.827  0.2532 -0.8613 -0.4830
 9110SOL     OW38965   3.669   0.556  15.063  0.2113 -0.0672 -1.4177
 9110SOL    HW138966   3.644   0.464  15.072 -2.6794  0.7315 -1.2138
 9110SOL    HW238967   3.582   0.595  15.068  0.4313  0.3706 -0.9363
 9111SOL     OW38968   2.362   3.724   4.223 -0.1664  0.2229  0.1667
 9111SOL    HW138969   2.356   3.763   4.136  1.4692  0.5661  0.2043
 9111SOL    HW238970   2.279   3.677   4.213  0.3873 -0.8660  0.7698
 9112SOL     OW38971   0.418   1.506   5.762 -0.5050 -0.0357  0.0200
 9112SOL    HW138972   0.445   1.587   5.719  2.3819  0.2338  2.3244
 9112SOL    HW238973   0.383   1.447   5.695 -1.4933 -0.4323  0.8809
 9113SOL     OW38974   0.945   0.728   2.682 -0.2203 -0.9428 -0.4304
 9113SOL    HW138975   0.972   0.640   2.707  1.0313 -0.5943 -0.5600
 9113SOL    HW238976   0.997   0.750   2.605  0.7776  2.1375  1.1358
 9114SOL     OW38977   0.886   0.406   4.608 -0.3433  0.3585  0.7655
 9114SOL    HW138978   0.868   0.312   4.613  0.6090  0.0042 -1.9994
 9114SOL    HW238979   0.956   0.412   4.673  0.8878  0.3488 -0.5670
 9115SOL     OW38980   3.360   1.074   8.754  0.1061 -0.3082  0.4345
 9115SOL    HW138981   3.308   1.137   8.703  0.1318 -1.6515 -1.2346
 9115SOL    HW238982   3.366   1.119   8.839  0.6013 -1.2533  0.9041
 9116SOL     OW38983   3.526   4.148   4.844  0.2001 -0.1750  0.0224
 9116SOL    HW138984   3.604   4.185   4.801  0.0492 -0.5573 -0.5849
 9116SOL    HW238985   3.506   4.205   4.918  0.0232 -0.0909 -0.0892
 9117SOL     OW38986   2.423   0.261   1.905  0.2001 -0.2014  0.6601
 9117SOL    HW138987   2.353   0.220   1.855  1.5612 -2.3603  0.5394
 9117SOL    HW238988   2.382   0.292   1.986 -2.7419  2.4139 -1.8784
 9118SOL     OW38989   0.604   0.104   5.353  0.0100 -0.1776 -0.4742
 9118SOL    HW138990   0.642   0.184   5.317  3.2210 -1.8905 -0.9462
 9118SOL    HW238991   0.612   0.109   5.449 -1.6611  4.9010 -0.6156
 9119SOL     OW38992   4.660   1.852   9.034  0.3242 -0.3741  0.2475
 9119SOL    HW138993   4.736   1.901   9.064 -0.4245  2.1006 -1.8690
 9119SOL    HW238994   4.627   1.918   8.972 -1.3143  0.5893  2.1509
 9120SOL     OW38995   2.779   0.133  15.667  0.0826 -0.3249  0.0446
 9120SOL    HW138996   2.767   0.228  15.659 -0.0967 -0.5458 -2.2644
 9120SOL    HW238997   2.871   0.136  15.640 -0.1528  0.6916 -0.6643
 9121SOL     OW38998   3.334   3.590  14.747 -0.4852 -0.2430 -0.2226
 9121SOL    HW138999   3.301   3.520  14.803 -0.6732  0.5571  0.6816
 9121SOL    HW239000   3.423   3.556  14.738 -0.5457 -0.5211  0.2143
 9122SOL     OW39001   4.075   0.337   7.857 -0.4859  0.2620  0.0502
 9122SOL    HW139002   4.114   0.424   7.851  0.9236 -0.2610  1.4611
 9122SOL    HW239003   4.144   0.295   7.909 -0.6582  0.0912  0.1404
 9123SOL     OW39004   0.555   4.659   6.164  0.7726  0.1269 -0.1175
 9123SOL    HW139005   0.595   4.653   6.251 -1.4681  2.2249  1.0648
 9123SOL    HW239006   0.625   4.613   6.119 -1.5768 -1.9227 -1.6514
 9124SOL     OW39007   1.661   0.898   8.643  0.0211 -0.1501 -0.3333
 9124SOL    HW139008   1.589   0.924   8.701  0.1514  2.6792 -1.4117
 9124SOL    HW239009   1.722   0.850   8.698 -0.7687 -1.4274 -0.5641
 9125SOL     OW39010   1.950   2.605   2.074 -0.1373  0.2794  0.9468
 9125SOL    HW139011   1.966   2.592   1.981 -1.4105 -1.7934  1.0210
 9125SOL    HW239012   1.920   2.695   2.056 -4.3452 -1.4509 -0.7539
 9126SOL     OW39013   2.303   0.095  13.026  0.6000 -0.9705 -0.8267
 9126SOL    HW139014   2.260   0.012  13.047 -0.8339 -0.3394 -1.2638
 9126SOL    HW239015   2.235   0.141  12.976  0.6783  1.5365  1.3830
 9127SOL     OW39016   2.327   1.825   2.296  0.4006  0.4629  0.5951
 9127SOL    HW139017   2.239   1.840   2.332 -0.1247  0.9413 -0.8886
 9127SOL    HW239018   2.318   1.731   2.287  0.6426  0.6279 -1.2860
 9128SOL     OW39019   3.334   0.627   8.292 -0.5185 -0.5783  0.0134
 9128SOL    HW139020   3.363   0.655   8.205 -1.8521 -0.2434 -0.3236
 9128SOL    HW239021   3.240   0.634   8.278 -0.4222 -0.0204 -0.3318
 9129SOL     OW39022   2.057   3.770   1.840 -0.1773 -0.2816 -0.5036
 9129SOL    HW139023   2.127   3.716   1.877  0.3804  0.8499  0.0896
 9129SOL    HW239024   2.092   3.857   1.856 -0.8149 -0.6291  2.7084
 9130SOL     OW39025   1.133   3.822   4.096 -0.1047 -0.4894 -0.3552
 9130SOL    HW139026   1.085   3.894   4.056 -0.2015 -0.4567 -0.1756
 9130SOL    HW239027   1.203   3.796   4.035  0.4742  0.2658 -0.0154
 9131SOL     OW39028   1.120   1.991  11.646 -0.6616 -0.0707 -0.1728
 9131SOL    HW139029   1.182   2.054  11.610 -0.2225 -0.4329 -0.0530
 9131SOL    HW239030   1.139   1.906  11.607 -1.2860 -0.7377  0.9664
 9132SOL     OW39031   4.336   1.188   9.137 -0.0724  0.1428  0.2382
 9132SOL    HW139032   4.394   1.250   9.092  1.2936  0.0078  1.7843
 9132SOL    HW239033   4.286   1.157   9.061 -0.4984  0.2056  0.4926
 9133SOL     OW39034   3.620   3.976   3.786 -0.2222  0.5588  0.3550
 9133SOL    HW139035   3.550   3.963   3.722 -2.2006  3.0235  2.0034
 9133SOL    HW239036   3.571   3.927   3.854 -2.1567  1.8620 -0.1010
 9134SOL     OW39037   3.090   4.653   7.199 -0.3320  0.3990 -0.4644
 9134SOL    HW139038   3.088   4.580   7.261  0.0399  0.6649 -0.1417
 9134SOL    HW239039   3.096   4.729   7.257 -0.9557  0.4245 -0.4313
 9135SOL     OW39040   2.212   1.310   6.434 -0.1407 -0.1973  0.0469
 9135SOL    HW139041   2.228   1.402   6.455 -1.1342 -0.8439  3.6829
 9135SOL    HW239042   2.155   1.286   6.507 -1.0080  2.6144  0.2906
 9136SOL     OW39043   0.026   0.698  17.010 -0.0733 -0.3974  0.3928
 9136SOL    HW139044   4.707   0.688  16.935 -1.0750 -1.3041  1.3108
 9136SOL    HW239045   0.102   0.726  16.958  0.9027 -1.9249  0.9954
 9137SOL     OW39046   3.126   3.309   5.037 -0.1936  0.1375 -0.2990
 9137SOL    HW139047   3.057   3.375   5.027 -0.0367  0.5941  1.7040
 9137SOL    HW239048   3.068   3.233   5.023 -1.2599  0.6744  1.2233
 9138SOL     OW39049   4.394   1.683  10.712 -0.0530 -0.3693  0.8938
 9138SOL    HW139050   4.397   1.663  10.618  1.9024 -0.4455  0.9582
 9138SOL    HW239051   4.486   1.671  10.736  1.0219  0.1256 -2.8700
 9139SOL     OW39052   3.148   2.241   9.854 -0.2959  0.2900  0.4111
 9139SOL    HW139053   3.182   2.304   9.791 -1.5098 -0.6111 -1.1335
 9139SOL    HW239054   3.131   2.296   9.930  0.3717  1.0886 -0.0223
 9140SOL     OW39055   2.884   2.673   8.294 -0.4160 -0.6023  0.5501
 9140SOL    HW139056   2.829   2.749   8.275  0.3150 -0.5701 -1.4527
 9140SOL    HW239057   2.956   2.711   8.344  0.5737  1.6136 -2.5376
 9141SOL     OW39058   4.109   3.327   3.259  0.2019 -0.0074 -0.7860
 9141SOL    HW139059   4.018   3.356   3.249  0.0585 -0.0461  0.4308
 9141SOL    HW239060   4.160   3.408   3.256 -2.0785  1.4844  0.9594
 9142SOL     OW39061   2.995   2.033   4.170 -0.3105 -0.4456 -0.2568
 9142SOL    HW139062   2.921   2.061   4.225  1.8975  3.6904  0.6364
 9142SOL    HW239063   2.977   2.078   4.088 -1.2735  0.5783  0.5080
 9143SOL     OW39064   0.089   0.349   9.227  0.2772 -0.4921 -0.2546
 9143SOL    HW139065   0.067   0.386   9.313  0.4781  2.8804 -1.6505
 9143SOL    HW239066   0.050   0.262   9.230  3.3925 -1.9788 -2.3800
 9144SOL     OW39067   0.821   2.654   2.783  0.2575  1.0199 -0.1133
 9144SOL    HW139068   0.821   2.574   2.731  0.3442  0.4373  0.7895
 9144SOL    HW239069   0.791   2.714   2.714  1.5848  0.0517 -1.5493
 9145SOL     OW39070   1.413   0.185   2.953  0.0817  0.0328  0.5670
 9145SOL    HW139071   1.373   0.114   3.004  1.6012 -0.3799  1.1830
 9145SOL    HW239072   1.508   0.176   2.959  0.1953  0.4519 -0.7129
 9146SOL     OW39073   0.190   4.665   6.223 -0.3518 -0.2096 -0.7166
 9146SOL    HW139074   0.239   4.726   6.168  0.3771  0.2259  0.4254
 9146SOL    HW239075   0.116   4.719   6.251 -0.7526 -1.4064  0.5449
 9147SOL     OW39076   0.570   1.290  16.224  0.4358  0.2176 -0.3854
 9147SOL    HW139077   0.591   1.209  16.178 -0.0614 -0.1441  0.0090
 9147SOL    HW239078   0.589   1.264  16.315 -0.0787  0.8616 -0.0881
 9148SOL     OW39079   4.081   3.439  13.061 -0.4245  0.0092  0.4188
 9148SOL    HW139080   4.034   3.481  12.988 -0.3605  2.3678  1.7450
 9148SOL    HW239081   4.149   3.506  13.067  0.9042 -1.0589 -2.3819
 9149SOL     OW39082   1.336   2.835   8.373 -0.4611  0.1382 -0.6508
 9149SOL    HW139083   1.294   2.751   8.356  0.0785 -0.2145 -0.2446
 9149SOL    HW239084   1.321   2.882   8.291 -1.1301  0.0573 -0.5781
 9150SOL     OW39085   3.726   0.041  16.457 -0.4656  0.2697 -0.3174
 9150SOL    HW139086   3.762   4.695  16.443 -1.0369 -0.1828  1.0523
 9150SOL    HW239087   3.636   0.033  16.426 -0.3625 -2.5808  0.1417
 9151SOL     OW39088   4.106   4.525   0.048  0.4895 -0.2940  0.0667
 9151SOL    HW139089   4.132   4.475   0.126 -2.9805 -1.7732  0.2856
 9151SOL    HW239090   4.192   4.541   0.009  0.1297  2.5872  0.4592
 9152SOL     OW39091   2.497   3.667   9.281 -0.4894  0.0305  0.0408
 9152SOL    HW139092   2.457   3.696   9.199  0.4405  0.7799 -0.1488
 9152SOL    HW239093   2.465   3.577   9.284  0.0068 -0.2213 -2.2598
 9153SOL     OW39094   0.660   1.061   0.917 -0.1970 -0.4981  0.0950
 9153SOL    HW139095   0.678   1.050   1.010  1.1856  1.7528  0.0882
 9153SOL    HW239096   0.596   1.132   0.926  0.1107 -0.1684 -0.3173
 9154SOL     OW39097   1.743   3.489   4.929  0.6713 -0.2383 -0.5739
 9154SOL    HW139098   1.651   3.509   4.947  0.8989 -0.4752  0.8069
 9154SOL    HW239099   1.773   3.552   4.995 -0.4481 -0.5649  0.2521
 9155SOL     OW39100   3.378   3.074   5.181 -0.5449 -0.2497 -0.7275
 9155SOL    HW139101   3.392   3.046   5.090 -1.8233 -0.2246 -0.9310
 9155SOL    HW239102   3.364   3.166   5.162  1.7073  0.1913 -0.2641
 9156SOL     OW39103   3.159   0.599   7.528  0.2642 -0.1087 -0.2310
 9156SOL    HW139104   3.247   0.596   7.492 -0.9337 -0.0778 -3.2118
 9156SOL    HW239105   3.114   0.648   7.458  1.3195  0.5036 -0.4912
 9157SOL     OW39106   4.136   3.598  10.588  0.0809  0.5898  0.3770
 9157SOL    HW139107   4.200   3.650  10.538  1.4398 -0.6109  0.8538
 9157SOL    HW239108   4.165   3.515  10.552 -2.0498 -0.6362  1.5090
 9158SOL     OW39109   3.316   4.173   2.213 -0.0365  0.2021  0.0559
 9158SOL    HW139110   3.298   4.248   2.156  4.2146  0.8599 -0.4071
 9158SOL    HW239111   3.240   4.117   2.200  0.2235  0.0092 -0.6156
 9159SOL     OW39112   3.749   0.190   7.492  0.2955  0.0109 -0.4355
 9159SOL    HW139113   3.806   0.115   7.480 -0.7345 -0.3789 -2.9760
 9159SOL    HW239114   3.724   0.183   7.584  0.8382 -1.1494 -0.3818
 9160SOL     OW39115   0.659   0.270   9.403  0.2480 -0.0481  0.0641
 9160SOL    HW139116   0.742   0.223   9.406  0.9871  1.2544 -0.1620
 9160SOL    HW239117   0.628   0.251   9.315 -2.6843 -1.8156  1.4658
 9161SOL     OW39118   0.740   1.686   0.721 -0.5908 -0.0776 -0.0923
 9161SOL    HW139119   0.776   1.765   0.680  1.6743 -0.8969  0.3517
 9161SOL    HW239120   0.645   1.702   0.720 -0.3848  1.1816 -0.2771
 9162SOL     OW39121   1.530   0.815   4.764  0.1573  0.2353  0.2490
 9162SOL    HW139122   1.534   0.724   4.732 -0.6550  0.4439 -0.4448
 9162SOL    HW239123   1.596   0.864   4.714 -0.6337 -1.4031 -2.4026
 9163SOL     OW39124   1.394   0.554  11.289 -0.0499 -0.3163  0.1683
 9163SOL    HW139125   1.356   0.476  11.329  0.2839 -1.4090 -1.6369
 9163SOL    HW239126   1.476   0.531  11.243 -0.4243  0.8865 -1.0981
 9164SOL     OW39127   2.803   1.256   5.566 -0.0948  0.0142 -0.0088
 9164SOL    HW139128   2.875   1.236   5.507 -0.7557  0.2142 -0.8918
 9164SOL    HW239129   2.742   1.302   5.509 -1.5148  0.1901  1.6446
 9165SOL     OW39130   1.846   4.116   9.113 -0.5375 -0.1402  0.3548
 9165SOL    HW139131   1.834   4.119   9.208 -2.2579  0.9838  0.0991
 9165SOL    HW239132   1.768   4.162   9.084  1.2540  0.5015 -3.4082
 9166SOL     OW39133   1.718   1.555   8.698 -0.3184 -0.1155 -0.4981
 9166SOL    HW139134   1.671   1.618   8.644 -0.2177  1.0380  0.7752
 9166SOL    HW239135   1.731   1.485   8.633  0.7691 -1.5299  1.2449
 9167SOL     OW39136   0.163   1.967   1.109 -0.0817 -0.0678  0.0488
 9167SOL    HW139137   0.172   1.913   1.031  0.5156 -0.0463  0.1027
 9167SOL    HW239138   0.068   1.966   1.125 -0.0756  1.4776  0.2135
 9168SOL     OW39139   1.550   3.291   4.453 -0.1023 -0.7378 -0.2505
 9168SOL    HW139140   1.644   3.305   4.469 -0.6381 -0.3979  2.6054
 9168SOL    HW239141   1.552   3.236   4.375  1.3238 -0.9355 -0.0734
 9169SOL     OW39142   2.888   0.466   4.984  0.2089  0.1778  0.4802
 9169SOL    HW139143   2.940   0.546   4.993 -0.0763  0.6490 -1.8522
 9169SOL    HW239144   2.875   0.446   5.076 -1.2646  0.4948  0.3360
 9170SOL     OW39145   3.534   3.661   9.627  0.2962  0.2308 -0.1298
 9170SOL    HW139146   3.520   3.739   9.573 -1.0129 -0.6791 -1.0788
 9170SOL    HW239147   3.571   3.595   9.569  2.5197  0.4799  1.0277
 9171SOL     OW39148   1.776   0.034   8.187  0.0148 -0.2579  0.5085
 9171SOL    HW139149   1.860   0.010   8.148  0.4987  0.2577  1.2298
 9171SOL    HW239150   1.801   0.085   8.264  0.7001  1.5512 -0.9129
 9172SOL     OW39151   1.872   2.355   8.655  0.4248  0.1631 -0.5961
 9172SOL    HW139152   1.957   2.398   8.646  0.4373  0.2068 -0.2654
 9172SOL    HW239153   1.849   2.365   8.747  0.2743 -0.2121 -0.5914
 9173SOL     OW39154   0.285   2.202  13.401 -0.0559 -0.3315 -0.2811
 9173SOL    HW139155   0.213   2.187  13.461  1.1521  0.3171  1.3187
 9173SOL    HW239156   0.306   2.117  13.361  0.5827 -0.3960  0.2060
 9174SOL     OW39157   3.005   0.725   9.200  0.1413 -0.7132  0.1195
 9174SOL    HW139158   3.070   0.719   9.269 -0.5701  1.1086  0.9457
 9174SOL    HW239159   3.043   0.787   9.137  0.5599  0.4991  1.5647
 9175SOL     OW39160   1.738   3.651   3.679  0.2865  0.3226 -0.1905
 9175SOL    HW139161   1.776   3.670   3.593 -1.8859  1.0669 -0.9808
 9175SOL    HW239162   1.651   3.625   3.649  0.1532  1.1528 -0.5340
 9176SOL     OW39163   3.726   1.721  12.552 -0.1922  0.3347  0.6305
 9176SOL    HW139164   3.652   1.773  12.520  1.3335  0.0858 -3.2463
 9176SOL    HW239165   3.716   1.753  12.642  0.5661  0.0137  0.8225
 9177SOL     OW39166   3.535   3.592   3.164 -0.0234  0.1851 -0.3117
 9177SOL    HW139167   3.590   3.665   3.193  0.1397  0.5269 -1.4827
 9177SOL    HW239168   3.515   3.619   3.075 -2.2851 -1.1085 -0.1955
 9178SOL     OW39169   1.018   1.127  12.440  0.4289  0.0142 -0.4862
 9178SOL    HW139170   1.087   1.062  12.455  1.5878  1.0430 -1.2887
 9178SOL    HW239171   0.972   1.121  12.523  0.8338  1.2383 -0.1740
 9179SOL     OW39172   4.575   2.711   2.367 -0.3741 -0.7103 -0.0222
 9179SOL    HW139173   4.562   2.675   2.279  0.3996 -1.0596 -0.0010
 9179SOL    HW239174   4.602   2.801   2.353  0.0075 -0.8346 -0.1056
 9180SOL     OW39175   1.299   1.332   7.652 -0.1417 -0.1974 -0.7906
 9180SOL    HW139176   1.367   1.362   7.712  0.6422 -0.1158 -1.7114
 9180SOL    HW239177   1.328   1.247   7.618  0.2064 -0.0303 -0.9085
 9181SOL     OW39178   3.430   2.946   7.583 -0.7214 -0.4836  0.5325
 9181SOL    HW139179   3.361   2.992   7.630 -1.1760  0.8488 -1.4234
 9181SOL    HW239180   3.403   2.856   7.602  1.1743 -1.2333 -0.3492
 9182SOL     OW39181   2.184   3.294   1.958 -0.0533 -0.0882  0.4361
 9182SOL    HW139182   2.099   3.338   1.955  0.6752  1.2852 -0.1281
 9182SOL    HW239183   2.162   3.208   1.923  0.9325 -0.0749 -0.2175
 9183SOL     OW39184   2.758   4.496   4.409 -0.3403  0.2017 -0.0402
 9183SOL    HW139185   2.725   4.478   4.321  0.1314 -2.2338  0.2605
 9183SOL    HW239186   2.852   4.506   4.396 -0.4548  1.0464 -0.2136
 9184SOL     OW39187   0.360   1.737  17.109 -0.7146  0.5793  0.3511
 9184SOL    HW139188   0.427   1.788  17.063 -0.0509 -2.9801 -2.6356
 9184SOL    HW239189   0.316   1.701  17.032  0.7152  0.3018 -0.3485
 9185SOL     OW39190   4.074   3.450   3.655 -0.7034  1.1025  0.1103
 9185SOL    HW139191   4.112   3.529   3.616  2.2756 -0.6007 -0.4269
 9185SOL    HW239192   4.153   3.420   3.700 -1.2680 -1.1614 -0.4294
 9186SOL     OW39193   0.580   1.016  14.297 -0.8888 -0.9425 -0.5518
 9186SOL    HW139194   0.490   0.982  14.301 -1.7249  1.3736  0.3008
 9186SOL    HW239195   0.563   1.103  14.332  0.2730 -0.3993 -1.3596
 9187SOL     OW39196   0.589   3.742   2.869 -0.0882 -0.2287  0.5316
 9187SOL    HW139197   0.569   3.812   2.806 -3.0863 -1.3246  0.2676
 9187SOL    HW239198   0.680   3.721   2.850  0.6571  2.9190  0.6172
 9188SOL     OW39199   2.395   2.466  12.806 -0.0500  0.0700  0.6463
 9188SOL    HW139200   2.488   2.443  12.808  0.0242  0.3521  0.4363
 9188SOL    HW239201   2.356   2.379  12.795  1.0193 -0.0475 -2.4176
 9189SOL     OW39202   2.983   1.652  16.337 -0.0091 -0.0663  0.1295
 9189SOL    HW139203   2.935   1.630  16.417 -1.2478 -0.1362 -0.6425
 9189SOL    HW239204   2.908   1.677  16.282  0.0694 -0.1303 -0.0058
 9190SOL     OW39205   3.777   4.298   5.004  0.4637  0.3971  0.4800
 9190SOL    HW139206   3.719   4.374   5.007 -0.3440 -0.3069  3.0223
 9190SOL    HW239207   3.821   4.309   4.920  1.4347 -0.9214  0.8159
 9191SOL     OW39208   0.369   3.762   6.067  0.2032  0.6027  0.0230
 9191SOL    HW139209   0.378   3.856   6.082 -1.6261  0.5506  1.3575
 9191SOL    HW239210   0.278   3.755   6.038  1.1505 -1.4229 -2.4591
 9192SOL     OW39211   2.137   1.547   7.270 -0.3431 -0.1455 -0.1080
 9192SOL    HW139212   2.181   1.617   7.318 -0.2049 -0.6268  0.4548
 9192SOL    HW239213   2.140   1.578   7.179  1.2580 -1.1727 -0.4047
 9193SOL     OW39214   1.269   1.115   2.250  0.3019  0.4194 -0.8880
 9193SOL    HW139215   1.211   1.046   2.220 -0.2753  0.4483  0.1356
 9193SOL    HW239216   1.322   1.123   2.171 -0.8140  2.5318 -1.4185
 9194SOL     OW39217   1.976   0.322   2.941 -0.3402  0.0621  0.3711
 9194SOL    HW139218   2.042   0.356   3.001 -0.5343 -0.6144  0.9699
 9194SOL    HW239219   1.949   0.241   2.984  0.9009 -1.5716 -1.9131
 9195SOL     OW39220   3.876   3.759   9.388  0.0800  0.2364 -0.2347
 9195SOL    HW139221   3.904   3.836   9.337 -1.1631 -0.3978 -1.8604
 9195SOL    HW239222   3.828   3.796   9.463  1.1647  1.9773 -0.3931
 9196SOL     OW39223   4.601   3.801   8.246 -0.3539  1.0526  0.0917
 9196SOL    HW139224   4.668   3.861   8.211 -0.3057 -0.0732 -1.7743
 9196SOL    HW239225   4.540   3.856   8.294  0.0814  2.4219 -0.8977
 9197SOL     OW39226   0.109   0.308  11.686 -0.8537  0.1077 -0.3296
 9197SOL    HW139227   0.099   0.396  11.648 -0.0220  0.7154  0.8475
 9197SOL    HW239228   0.076   0.331  11.773  1.2176 -0.0803  0.4983
 9198SOL     OW39229   3.911   3.221   9.147 -0.2755 -0.8461  0.2542
 9198SOL    HW139230   3.939   3.161   9.216  0.9992  0.9235  1.2652
 9198SOL    HW239231   3.916   3.159   9.075 -0.5066  1.2165 -1.5537
 9199SOL     OW39232   3.121   3.369  11.068 -0.2717 -0.2268 -0.6408
 9199SOL    HW139233   3.085   3.312  11.136  1.8378  1.2911  1.7303
 9199SOL    HW239234   3.104   3.319  10.988 -1.1497  0.7272 -1.0494
 9200SOL     OW39235   0.641   1.499   3.024 -0.3565 -0.0431  0.6628
 9200SOL    HW139236   0.566   1.442   3.040 -1.6235  1.2684 -0.5580
 9200SOL    HW239237   0.685   1.505   3.109  0.6629  1.0438  0.0633
 9201SOL     OW39238   2.420   4.243   8.824 -0.2732 -0.3344 -0.3092
 9201SOL    HW139239   2.511   4.254   8.851 -0.3283 -2.6328  0.8089
 9201SOL    HW239240   2.428   4.263   8.731  0.7710  1.7162  0.2207
 9202SOL     OW39241   2.339   2.794   1.944  0.3138  0.1890 -0.2514
 9202SOL    HW139242   2.270   2.785   1.878 -0.1751  0.9948  0.1484
 9202SOL    HW239243   2.275   2.808   2.014  1.5180 -0.3023  0.9409
 9203SOL     OW39244   2.413   0.783  12.616  0.0046 -0.3779 -0.1268
 9203SOL    HW139245   2.387   0.799  12.707 -0.8101  0.3811 -0.5024
 9203SOL    HW239246   2.338   0.725  12.602 -0.4068 -0.2271  1.4315
 9204SOL     OW39247   0.269   4.269   7.821 -0.4050  0.1271  0.5106
 9204SOL    HW139248   0.200   4.221   7.775  0.2658  0.0919 -0.4616
 9204SOL    HW239249   0.330   4.285   7.749 -0.6465 -0.9074  0.0725
 9205SOL     OW39250   4.047   2.847   0.478  0.2889 -0.2582 -0.0247
 9205SOL    HW139251   4.024   2.801   0.397 -0.6368 -0.2925  0.2569
 9205SOL    HW239252   4.082   2.773   0.529  0.8039  0.5356  0.7680
 9206SOL     OW39253   0.264   3.155  10.232  0.8004 -0.1927 -0.6626
 9206SOL    HW139254   0.271   3.095  10.306  2.0331 -1.2298 -1.6229
 9206SOL    HW239255   0.189   3.111  10.191 -0.5943 -0.9331  2.7346
 9207SOL     OW39256   3.402   1.961   1.546  0.3879  0.2610  0.6213
 9207SOL    HW139257   3.375   1.870   1.536  0.3491  0.1523  1.6751
 9207SOL    HW239258   3.398   1.998   1.458  0.6311 -0.5280  0.2795
 9208SOL     OW39259   2.535   1.976   8.529 -0.2323 -0.3172 -0.2522
 9208SOL    HW139260   2.450   2.014   8.552 -0.2308 -1.4180  1.5621
 9208SOL    HW239261   2.519   1.946   8.440  1.5972 -1.3744 -0.2246
 9209SOL     OW39262   3.138   0.011   5.089  0.2321 -0.3625 -0.5386
 9209SOL    HW139263   3.046   4.738   5.113  0.5774 -2.7359 -0.5406
 9209SOL    HW239264   3.154   0.101   5.115 -1.9290 -0.9271  2.7679
 9210SOL     OW39265   3.576   2.294   9.853  0.0585 -0.2490  0.4805
 9210SOL    HW139266   3.646   2.317   9.793 -0.2182 -0.5425  0.0484
 9210SOL    HW239267   3.538   2.377   9.882  0.4782  0.0531  0.1588
 9211SOL     OW39268   1.156   1.511   7.934 -0.4532 -0.0722  0.2705
 9211SOL    HW139269   1.116   1.425   7.924 -1.2463  0.4155 -0.8831
 9211SOL    HW239270   1.134   1.549   7.849 -0.1663  0.0620  0.2561
 9212SOL     OW39271   4.067   3.563   6.803  0.1532  0.6591 -0.5274
 9212SOL    HW139272   4.098   3.504   6.871 -1.2411  0.6633  0.1149
 9212SOL    HW239273   4.147   3.585   6.756 -1.3919 -0.9932 -3.9137
 9213SOL     OW39274   2.131   3.254   4.614 -0.6244  0.8308 -0.0145
 9213SOL    HW139275   2.194   3.319   4.645 -0.0939  0.7288 -0.8654
 9213SOL    HW239276   2.151   3.260   4.521 -0.9072  1.3186 -0.0419
 9214SOL     OW39277   0.115   3.430   5.982  0.7659  0.0697 -0.2370
 9214SOL    HW139278   0.130   3.386   6.066  2.1150  1.1800  0.1070
 9214SOL    HW239279   0.029   3.390   5.966  0.5273  0.0750  1.0501
 9215SOL     OW39280   3.602   0.837   6.415 -0.2743 -0.2551 -0.0213
 9215SOL    HW139281   3.668   0.837   6.345 -1.5073  1.3795 -1.1718
 9215SOL    HW239282   3.624   0.764   6.473  1.4433  2.0282  2.1864
 9216SOL     OW39283   0.994   2.113  15.537  0.1124  0.3195  0.6474
 9216SOL    HW139284   0.950   2.183  15.586 -0.5273  0.3420  0.0445
 9216SOL    HW239285   1.057   2.166  15.489  0.8364 -0.3413  0.8681
 9217SOL     OW39286   4.279   2.880   7.916  0.3513  0.2980  0.0862
 9217SOL    HW139287   4.248   2.829   7.840 -0.8135 -2.3282  2.3051
 9217SOL    HW239288   4.202   2.930   7.943 -0.6634 -0.6506 -1.0237
 9218SOL     OW39289   3.851   0.821   4.921 -0.0969 -0.0919 -0.1157
 9218SOL    HW139290   3.785   0.871   4.970  1.1114  0.2445  1.1623
 9218SOL    HW239291   3.873   0.745   4.975 -1.1613 -0.1517  0.2369
 9219SOL     OW39292   2.469   1.298   5.053 -0.2278 -0.2055  0.0299
 9219SOL    HW139293   2.417   1.225   5.021 -0.5214  0.0127  0.0036
 9219SOL    HW239294   2.535   1.255   5.108 -0.4551 -1.2255 -0.5134
 9220SOL     OW39295   1.278   0.335  14.257  0.0142 -0.2324  0.7646
 9220SOL    HW139296   1.341   0.341  14.185 -1.5740  3.4048 -0.3153
 9220SOL    HW239297   1.195   0.356  14.213  0.7988  1.3216  0.0358
 9221SOL     OW39298   3.920   2.740   8.537  0.3405 -0.4682 -0.6923
 9221SOL    HW139299   3.940   2.760   8.628  0.7303  0.8573 -1.0676
 9221SOL    HW239300   3.824   2.740   8.539  0.4135  0.4851  3.0188
 9222SOL     OW39301   2.186   3.504   5.398 -0.6550 -0.3011 -0.3675
 9222SOL    HW139302   2.203   3.536   5.309 -0.1354 -0.0023 -0.1604
 9222SOL    HW239303   2.253   3.437   5.402  0.5658  0.9335 -0.2211
 9223SOL     OW39304   0.399   0.367  11.702  0.0691 -0.4931  0.1547
 9223SOL    HW139305   0.344   0.290  11.688 -0.1143 -0.7413  2.1799
 9223SOL    HW239306   0.436   0.340  11.787  3.0787  2.0630 -0.3337
 9224SOL     OW39307   1.937   1.541   4.791 -0.4275 -0.2675 -0.2023
 9224SOL    HW139308   1.923   1.499   4.706  1.9845 -0.1656 -0.6538
 9224SOL    HW239309   1.995   1.613   4.768 -1.1645  0.6810  0.9483
 9225SOL     OW39310   1.090   0.442  11.665 -0.1470  0.7193  0.0719
 9225SOL    HW139311   1.161   0.490  11.709 -0.3006  2.5491 -1.6284
 9225SOL    HW239312   1.020   0.508  11.668  1.1225  2.0639  0.2555
 9226SOL     OW39313   4.543   2.909   5.621 -0.0468  0.2910 -0.4072
 9226SOL    HW139314   4.568   2.842   5.556 -0.9625 -0.9612  0.5432
 9226SOL    HW239315   4.477   2.953   5.567 -1.8572  0.2905  1.8202
 9227SOL     OW39316   0.964   0.457   4.103 -0.5583 -0.1976 -0.2087
 9227SOL    HW139317   0.897   0.459   4.035  0.0374 -1.6228 -0.8390
 9227SOL    HW239318   0.976   0.365   4.125  2.9966 -0.1373 -1.9552
 9228SOL     OW39319   1.679   0.628   5.131 -0.1117  0.1311  0.0877
 9228SOL    HW139320   1.751   0.681   5.164 -1.6325  1.7934  0.7196
 9228SOL    HW239321   1.674   0.653   5.038  0.5149 -1.3385 -0.3367
 9229SOL     OW39322   1.577   3.971   3.679  0.0338 -0.3876  0.5371
 9229SOL    HW139323   1.670   3.956   3.668 -0.1025  1.6355 -3.3411
 9229SOL    HW239324   1.544   3.895   3.631  0.0229 -0.8291  1.2506
 9230SOL     OW39325   1.168   1.062   8.122  0.3290  0.2473 -0.5040
 9230SOL    HW139326   1.083   1.105   8.111  0.1223  0.3227  1.3756
 9230SOL    HW239327   1.187   1.030   8.034 -1.9955  1.8552 -1.6068
 9231SOL     OW39328   2.804   3.837   3.992 -0.0396  0.3403 -0.5215
 9231SOL    HW139329   2.818   3.835   3.898 -1.2831  1.5159 -0.7333
 9231SOL    HW239330   2.723   3.786   4.005  0.3341 -0.0276  0.4360
 9232SOL     OW39331   0.705   3.056   6.947 -0.8385 -0.1793 -0.3332
 9232SOL    HW139332   0.767   3.004   6.998 -1.9175 -1.4241 -0.2845
 9232SOL    HW239333   0.755   3.136   6.932  1.0093 -1.2981 -0.1861
 9233SOL     OW39334   3.512   1.469  10.840  0.3787 -0.0184 -0.1412
 9233SOL    HW139335   3.574   1.396  10.832 -0.3677 -0.7022  0.2156
 9233SOL    HW239336   3.484   1.481  10.750  0.2869 -0.3102 -0.1514
 9234SOL     OW39337   2.740   4.328   9.007  0.4574 -0.4429  0.4108
 9234SOL    HW139338   2.696   4.246   9.029 -1.2869  0.4109  0.0462
 9234SOL    HW239339   2.802   4.298   8.939 -1.1907 -0.2571 -1.1710
 9235SOL     OW39340   3.005   2.968   6.138 -0.3673 -0.1922  0.2014
 9235SOL    HW139341   2.961   2.883   6.141 -0.4792 -0.1209  0.6401
 9235SOL    HW239342   3.093   2.941   6.111  0.1423  1.7330 -0.1126
 9236SOL     OW39343   4.519   1.583   5.256  0.6222 -0.2437 -0.5498
 9236SOL    HW139344   4.600   1.633   5.268  0.5575  0.0102 -1.1658
 9236SOL    HW239345   4.474   1.634   5.189  0.2259 -0.7639 -0.6737
 9237SOL     OW39346   1.327   4.423   7.201  0.3779 -0.1932 -0.0995
 9237SOL    HW139347   1.383   4.420   7.123  0.4054  1.5645 -0.1497
 9237SOL    HW239348   1.343   4.511   7.235  0.7906 -0.0286 -0.7028
 9238SOL     OW39349   1.670   4.410   3.128 -0.4821  0.4262 -0.2381
 9238SOL    HW139350   1.696   4.475   3.062 -0.0397 -0.3700 -0.8451
 9238SOL    HW239351   1.583   4.383   3.101  0.4575  1.3161 -4.1764
 9239SOL     OW39352   4.212   1.134   7.676 -0.0005 -0.6455  0.1242
 9239SOL    HW139353   4.233   1.050   7.634  1.5417 -0.0004 -0.4110
 9239SOL    HW239354   4.153   1.098   7.742 -0.9081 -1.0821 -0.9301
 9240SOL     OW39355   1.714   3.234   4.809 -0.9404  0.9408 -0.3684
 9240SOL    HW139356   1.655   3.278   4.748  0.0797  1.3664 -1.0349
 9240SOL    HW239357   1.761   3.306   4.851  0.9669 -0.5916  0.1062
 9241SOL     OW39358   4.385   1.447   6.457  0.1868  0.1806  0.4755
 9241SOL    HW139359   4.423   1.523   6.412  1.3506 -0.8216 -0.2226
 9241SOL    HW239360   4.436   1.460   6.537 -1.0867  0.0900  1.3020
 9242SOL     OW39361   0.522   0.174   9.166  0.3782 -0.3624  0.1493
 9242SOL    HW139362   0.454   0.107   9.177  0.2244 -0.2882 -0.3275
 9242SOL    HW239363   0.581   0.134   9.102 -0.3094  0.2082 -0.8361
 9243SOL     OW39364   2.254   3.301   0.346  0.5045  0.1096 -0.5649
 9243SOL    HW139365   2.170   3.315   0.391 -1.5863 -4.8018 -2.9531
 9243SOL    HW239366   2.314   3.358   0.393  1.7075 -1.3113 -0.3782
 9244SOL     OW39367   1.775   0.135   9.405 -0.2534  0.2551 -0.5004
 9244SOL    HW139368   1.841   0.190   9.363  2.2898 -0.5482  2.4026
 9244SOL    HW239369   1.817   0.083   9.474  0.8875  0.4928 -1.0195
 9245SOL     OW39370   0.626   4.542   2.131  0.3864  0.1841  0.4943
 9245SOL    HW139371   0.548   4.545   2.187  1.2090  0.4512  1.6456
 9245SOL    HW239372   0.608   4.621   2.080 -0.8156  0.1885  0.9027
 9246SOL     OW39373   4.380   1.381  13.185  0.1505 -0.0690 -0.2318
 9246SOL    HW139374   4.290   1.389  13.218  0.4152 -0.5237  0.6013
 9246SOL    HW239375   4.430   1.430  13.250  0.3515 -0.6840  0.0836
 9247SOL     OW39376   4.459   1.120   6.035  0.3041 -0.6946  0.1457
 9247SOL    HW139377   4.461   1.104   6.130  0.1262 -1.5301  0.0054
 9247SOL    HW239378   4.425   1.209   6.035  1.4483 -0.2588  0.8383
 9248SOL     OW39379   3.052   0.178  17.363  0.2649  0.2240  0.5186
 9248SOL    HW139380   3.014   0.251  17.412  0.3880 -1.6160  3.3029
 9248SOL    HW239381   2.983   0.152  17.302  0.9953 -2.1971  0.7570
 9249SOL     OW39382   0.095   4.353   2.305 -0.2354 -0.3119 -0.1676
 9249SOL    HW139383   0.157   4.375   2.374 -0.3119 -2.0926  0.4858
 9249SOL    HW239384   0.021   4.408   2.328  1.0109  1.3789 -0.2152
 9250SOL     OW39385   2.740   3.419   5.081 -0.2119  0.2705  0.1073
 9250SOL    HW139386   2.652   3.456   5.088 -0.5014 -0.5556  0.9154
 9250SOL    HW239387   2.747   3.381   4.993 -3.9661 -1.0008  0.3482
 9251SOL     OW39388   2.511   1.932   9.110  0.4724 -0.3255 -0.4850
 9251SOL    HW139389   2.547   1.975   9.187 -0.1443 -1.7760  0.6069
 9251SOL    HW239390   2.565   1.971   9.041 -0.0715  0.0288 -0.7188
 9252SOL     OW39391   2.795   1.201   7.801 -0.3037 -0.5402  0.4381
 9252SOL    HW139392   2.795   1.294   7.776 -0.4121 -0.7540 -0.3394
 9252SOL    HW239393   2.793   1.197   7.897  1.9695 -0.9424  0.4690
 9253SOL     OW39394   4.609   2.344   8.660  0.1086 -0.4694  0.2263
 9253SOL    HW139395   4.542   2.292   8.616  1.1164 -0.6691 -1.0616
 9253SOL    HW239396   4.564   2.428   8.661  0.6666 -0.1863  1.3991
 9254SOL     OW39397   3.583   2.448   1.991 -0.3449 -0.9785 -0.2570
 9254SOL    HW139398   3.651   2.389   2.024 -0.6485 -0.8715  0.5677
 9254SOL    HW239399   3.615   2.534   2.019  1.5244 -1.8848  0.3718
 9255SOL     OW39400   2.759   1.797  11.473 -0.4033 -0.1458 -0.5393
 9255SOL    HW139401   2.731   1.731  11.536 -0.4580 -0.0515 -0.4643
 9255SOL    HW239402   2.692   1.865  11.484  0.5060  1.0465 -2.3094
 9256SOL     OW39403   2.665   2.094  11.820 -0.7937 -0.6732 -0.6698
 9256SOL    HW139404   2.603   2.166  11.834 -0.4419 -0.4057 -0.4771
 9256SOL    HW239405   2.743   2.144  11.842 -2.5020  1.5856  0.2841
 9257SOL     OW39406   2.385   0.552   6.890  0.0427  0.5363  0.3808
 9257SOL    HW139407   2.401   0.607   6.814 -1.3224 -1.3572 -1.2577
 9257SOL    HW239408   2.353   0.609   6.960  0.4426  0.1233  0.9091
 9258SOL     OW39409   4.212   4.469   5.847 -0.4681 -0.0001  0.0772
 9258SOL    HW139410   4.212   4.542   5.784  1.4692  1.5271  1.8857
 9258SOL    HW239411   4.199   4.530   5.919  2.9726  0.9102 -0.0721
 9259SOL     OW39412   2.423   2.902   4.943  0.6118  0.5114 -0.0025
 9259SOL    HW139413   2.421   2.997   4.949 -0.3170  0.4858  0.0953
 9259SOL    HW239414   2.395   2.879   5.031  4.6701  1.1599  1.4542
 9260SOL     OW39415   4.623   0.264  14.899 -0.3830 -0.0650 -0.6606
 9260SOL    HW139416   4.611   0.309  14.983  0.5665  0.8318 -0.9946
 9260SOL    HW239417   4.659   0.335  14.845  0.5297 -0.0633 -0.0557
 9261SOL     OW39418   3.941   0.348  11.734  0.8960  0.7451 -0.5524
 9261SOL    HW139419   3.894   0.383  11.658  0.7667 -0.7768 -1.1621
 9261SOL    HW239420   3.973   0.433  11.762  2.0876  0.6050 -1.4953
 9262SOL     OW39421   3.146   3.621  10.956  0.2967 -0.0472  0.5157
 9262SOL    HW139422   3.126   3.544  11.010  0.0474 -0.6698 -0.4693
 9262SOL    HW239423   3.226   3.599  10.909  0.0337  1.7515 -0.7703
 9263SOL     OW39424   2.133   3.833   0.465  0.2936 -0.1158  0.3957
 9263SOL    HW139425   2.143   3.745   0.429 -1.4348  0.3260 -1.1770
 9263SOL    HW239426   2.198   3.880   0.412  1.2892 -0.5834  1.1990
 9264SOL     OW39427   2.099   0.036   3.553  0.3769 -0.0143 -0.4325
 9264SOL    HW139428   2.143   0.040   3.468 -2.4539 -0.8051 -1.9225
 9264SOL    HW239429   2.163   0.087   3.603 -0.3164 -0.3277  0.7664
 9265SOL     OW39430   2.896   2.259  10.299  0.6654 -0.5096 -0.1334
 9265SOL    HW139431   2.821   2.259  10.240 -0.1526  2.7624  0.9148
 9265SOL    HW239432   2.921   2.350  10.313  0.1295 -0.7912  2.7688
 9266SOL     OW39433   0.515   1.721   5.645 -0.3310 -0.7311  0.0854
 9266SOL    HW139434   0.548   1.765   5.567  1.6102 -2.1091  0.1015
 9266SOL    HW239435   0.548   1.782   5.711  0.4802 -2.1048  0.9592
 9267SOL     OW39436   2.454   4.354  14.895 -0.0905  0.0740  0.0657
 9267SOL    HW139437   2.448   4.312  14.809 -0.2622  2.6856 -1.2167
 9267SOL    HW239438   2.374   4.405  14.880  0.0558  1.0742  2.8298
 9268SOL     OW39439   0.335   0.844   5.635 -0.0065 -0.2486 -0.6075
 9268SOL    HW139440   0.372   0.757   5.622 -0.9533 -1.1444  2.5443
 9268SOL    HW239441   0.278   0.825   5.710 -1.8439  1.5274 -1.5555
 9269SOL     OW39442   4.638   3.259   3.060 -0.1744  0.3268 -0.1873
 9269SOL    HW139443   4.652   3.353   3.071 -1.5707  0.5087  0.0303
 9269SOL    HW239444   4.566   3.244   3.121 -2.0042  0.9234 -2.2045
 9270SOL     OW39445   1.633   0.657  13.652 -0.0247 -0.4021 -0.3479
 9270SOL    HW139446   1.621   0.565  13.629 -1.5686 -0.1628 -0.4830
 9270SOL    HW239447   1.543   0.688  13.661 -0.0268 -0.6545  0.5169
 9271SOL     OW39448   1.377   2.140   7.756  0.0512  0.0502 -0.2321
 9271SOL    HW139449   1.426   2.063   7.728  0.2012  0.0141  0.1341
 9271SOL    HW239450   1.441   2.205   7.727  2.5371 -2.6615 -0.7034
 9272SOL     OW39451   2.218   0.428   8.054 -0.2031 -0.0905  0.2812
 9272SOL    HW139452   2.308   0.397   8.064  0.8993  1.7873 -4.0678
 9272SOL    HW239453   2.191   0.408   7.965  1.6722  1.9543 -0.7462
 9273SOL     OW39454   0.048   2.407   1.607  0.2306  0.1965  0.1977
 9273SOL    HW139455   0.107   2.467   1.652  0.8480 -2.2364  2.6690
 9273SOL    HW239456   4.704   2.451   1.612  0.1391  0.1324 -0.8721
 9274SOL     OW39457   0.431   0.280  16.523 -0.5584  0.1603  0.2689
 9274SOL    HW139458   0.354   0.334  16.542 -0.1840  0.2490  1.5239
 9274SOL    HW239459   0.511   0.324  16.554  0.3011  0.2192 -2.0428
 9275SOL     OW39460   0.773   2.940   3.975 -0.5552  0.0111 -0.1531
 9275SOL    HW139461   0.838   2.997   3.934  0.0791  0.9014  2.0968
 9275SOL    HW239462   0.691   2.986   3.961 -0.5494  0.1566  0.2887
 9276SOL     OW39463   3.139   1.150   8.283 -0.2470 -0.5384  0.4009
 9276SOL    HW139464   3.142   1.063   8.323  0.9379 -1.2741 -1.2566
 9276SOL    HW239465   3.064   1.132   8.226  0.2855 -0.4085 -0.3471
 9277SOL     OW39466   1.813   0.113   9.102  0.4487 -0.2014  0.4622
 9277SOL    HW139467   1.848   0.024   9.115  0.4426  0.0101  2.0173
 9277SOL    HW239468   1.879   0.164   9.149  0.3706 -0.1319  0.4955
 9278SOL     OW39469   1.275   3.376   6.309 -0.0193 -0.2929 -0.5103
 9278SOL    HW139470   1.188   3.361   6.271 -1.7854  0.4688  3.2959
 9278SOL    HW239471   1.277   3.302   6.369  0.6294 -0.2231 -0.4447
 9279SOL     OW39472   3.280   4.657   4.748 -0.0905 -0.1825  0.4788
 9279SOL    HW139473   3.273   4.649   4.653 -1.8445 -1.0392  0.6712
 9279SOL    HW239474   3.187   4.667   4.768 -0.4691  1.4188 -2.1062
 9280SOL     OW39475   4.050   0.244   8.398 -0.4173 -0.2159 -0.2716
 9280SOL    HW139476   4.108   0.317   8.419 -1.1314  1.0464 -2.6652
 9280SOL    HW239477   4.060   0.196   8.480 -0.4886 -1.8988 -1.2390
 9281SOL     OW39478   4.602   1.239  16.403  0.3652  0.2317  0.6419
 9281SOL    HW139479   4.525   1.226  16.458 -0.7025  0.5085 -0.7708
 9281SOL    HW239480   4.569   1.211  16.317 -1.5605 -0.2190  1.5326
 9282SOL     OW39481   2.205   2.988  16.065  0.9560  0.2207 -0.1389
 9282SOL    HW139482   2.227   3.027  16.150  1.1848  0.8917 -0.5008
 9282SOL    HW239483   2.275   2.923  16.060  1.1789  0.2607  2.0901
 9283SOL     OW39484   4.370   0.366   3.720  0.7239 -0.0139 -0.0298
 9283SOL    HW139485   4.441   0.417   3.759  1.1993 -0.4809 -0.2650
 9283SOL    HW239486   4.412   0.347   3.636  1.1705 -0.7734  0.3557
 9284SOL     OW39487   2.402   4.621   1.111  0.3010 -0.0850  0.0557
 9284SOL    HW139488   2.351   4.702   1.116  1.9961  0.9638  0.3642
 9284SOL    HW239489   2.488   4.662   1.097  0.0044  1.3830  2.3839
 9285SOL     OW39490   2.307   1.333   3.886  0.3636  0.2182 -0.3065
 9285SOL    HW139491   2.308   1.243   3.919 -2.2359  0.6468  0.9417
 9285SOL    HW239492   2.256   1.374   3.955 -0.6126 -1.5501  0.0245
 9286SOL     OW39493   0.044   2.125  10.022 -0.1506 -0.4011  0.2751
 9286SOL    HW139494   0.125   2.113  10.072 -0.1492 -0.4424  0.2631
 9286SOL    HW239495   4.713   2.131  10.085  0.0355  0.3668  0.4176
 9287SOL     OW39496   3.643   3.228   7.758 -0.4110  0.0269  0.1079
 9287SOL    HW139497   3.574   3.247   7.822 -1.4854 -0.6150 -0.8510
 9287SOL    HW239498   3.704   3.298   7.779 -2.2994  1.6395  0.2443
 9288SOL     OW39499   4.221   0.300   1.563  0.4338 -0.5535 -0.4245
 9288SOL    HW139500   4.223   0.391   1.593 -2.0452  0.0580 -2.0809
 9288SOL    HW239501   4.135   0.297   1.522  0.3407  0.7521 -0.3433
 9289SOL     OW39502   1.989   1.498   2.657  0.1915  0.2874  0.3779
 9289SOL    HW139503   2.058   1.564   2.667 -0.8187  1.2024  1.4005
 9289SOL    HW239504   2.033   1.423   2.617 -1.5183  0.4986 -1.8681
 9290SOL     OW39505   4.386   3.648   8.444  0.7429  0.0990 -0.0050
 9290SOL    HW139506   4.405   3.651   8.350  0.3688  1.3398 -0.0502
 9290SOL    HW239507   4.307   3.703   8.440  1.0913  0.5341 -0.9599
 9291SOL     OW39508   4.500   2.642   8.635 -0.8016 -0.4090 -0.2590
 9291SOL    HW139509   4.404   2.643   8.629 -0.8269 -0.0232  0.2200
 9291SOL    HW239510   4.518   2.643   8.541  1.6755 -1.4439  0.2104
 9292SOL     OW39511   2.359   2.115   4.785  0.4706 -0.4412 -0.5617
 9292SOL    HW139512   2.375   2.201   4.744  0.5495  1.0226  2.5286
 9292SOL    HW239513   2.442   2.111   4.832 -0.2377  2.2278  0.9436
 9293SOL     OW39514   2.731   3.600   8.748  0.2632  0.3856  0.2653
 9293SOL    HW139515   2.822   3.632   8.746 -0.1478  1.6507  1.7234
 9293SOL    HW239516   2.708   3.602   8.841  2.8083  0.8558  0.8883
 9294SOL     OW39517   4.377   2.175   2.042 -0.1516  0.2725 -0.1450
 9294SOL    HW139518   4.300   2.123   2.062  0.2334  0.3133  1.4770
 9294SOL    HW239519   4.376   2.243   2.110 -1.2088  0.2527 -0.1415
 9295SOL     OW39520   2.987   0.517  15.245 -0.0817  0.0200 -0.5120
 9295SOL    HW139521   3.022   0.606  15.244  2.4115 -0.9424 -2.2824
 9295SOL    HW239522   2.961   0.501  15.154 -1.0962  0.1972 -0.2428
 9296SOL     OW39523   4.246   4.315   7.329  0.2534  0.2951  0.5169
 9296SOL    HW139524   4.208   4.361   7.404 -3.7882 -0.4799 -1.0220
 9296SOL    HW239525   4.168   4.266   7.301  0.8943 -0.1800 -0.4583
 9297SOL     OW39526   2.843   2.479   1.553 -0.0878 -0.1621  0.3349
 9297SOL    HW139527   2.899   2.421   1.606  1.7501  0.6446 -0.7362
 9297SOL    HW239528   2.820   2.414   1.486 -1.1005  0.5731 -0.0234
 9298SOL     OW39529   0.380   2.398   2.222 -0.6461  0.2980  0.1440
 9298SOL    HW139530   0.308   2.461   2.235 -0.9170 -0.1299  0.7240
 9298SOL    HW239531   0.340   2.311   2.221 -1.2305  0.5901 -1.7099
 9299SOL     OW39532   2.609   0.021  17.760 -0.2270 -0.2858 -0.1778
 9299SOL    HW139533   2.661   0.092  17.723 -2.4279  1.2844 -0.2534
 9299SOL    HW239534   2.665   4.724   0.067  1.1613 -0.2441 -1.3096
 9300SOL     OW39535   3.875   1.540   4.490 -0.2968  0.1640 -0.1809
 9300SOL    HW139536   3.868   1.631   4.462  1.3003 -0.4625 -2.6483
 9300SOL    HW239537   3.923   1.511   4.412  0.5437 -0.6825  0.6590
 9301SOL     OW39538   2.803   4.738   2.871 -0.2431 -0.7914 -0.1017
 9301SOL    HW139539   2.808   0.020   2.964  0.7157 -0.6250 -0.1937
 9301SOL    HW239540   2.893   0.014   2.844  0.2073 -0.7847  1.4424
 9302SOL     OW39541   2.458   3.028   3.550 -0.0278 -0.0785 -0.3660
 9302SOL    HW139542   2.402   3.105   3.543 -0.7007 -0.3404  1.8555
 9302SOL    HW239543   2.481   3.002   3.461 -0.0199  0.5809 -0.5547
 9303SOL     OW39544   0.391   4.341   7.005 -0.5762 -0.1120 -0.2496
 9303SOL    HW139545   0.343   4.408   7.054  0.6361  1.4943 -1.2560
 9303SOL    HW239546   0.426   4.391   6.931  2.3769  0.3858  1.4941
 9304SOL     OW39547   2.729   1.205   4.530  0.1756  0.0680  0.6929
 9304SOL    HW139548   2.677   1.215   4.610 -0.9085  0.0083 -0.0061
 9304SOL    HW239549   2.801   1.149   4.557  2.2612  1.4118 -1.9980
 9305SOL     OW39550   1.243   3.590   7.157 -0.1891  0.9437 -0.4010
 9305SOL    HW139551   1.295   3.632   7.088  3.4877  0.5265  2.0830
 9305SOL    HW239552   1.231   3.670   7.208 -0.8425 -1.2244  2.8302
 9306SOL     OW39553   2.588   4.122   9.043 -0.5745  0.1738 -0.0000
 9306SOL    HW139554   2.508   4.082   9.010  0.3471 -2.7479  1.3202
 9306SOL    HW239555   2.644   4.045   9.039 -0.4965  0.4076 -3.4335
 9307SOL     OW39556   1.710   4.476   2.466  0.1356 -1.3906  0.3909
 9307SOL    HW139557   1.788   4.506   2.420 -0.9359  0.4200 -0.2486
 9307SOL    HW239558   1.664   4.432   2.395  3.1377  0.4235 -2.6373
 9308SOL     OW39559   4.139   2.553   1.414  0.3814 -0.3634 -0.2209
 9308SOL    HW139560   4.076   2.507   1.469 -0.9350  2.8304  0.9197
 9308SOL    HW239561   4.209   2.571   1.477  1.6537 -1.5422 -1.2955
 9309SOL     OW39562   3.649   0.533   4.315 -0.4207 -1.0918 -0.1244
 9309SOL    HW139563   3.659   0.576   4.400  1.2222  1.0780 -1.4307
 9309SOL    HW239564   3.555   0.547   4.303 -0.5118 -0.8510  0.8590
 9310SOL     OW39565   0.244   1.839   9.682  0.0728  0.6255 -0.4013
 9310SOL    HW139566   0.174   1.883   9.730  0.4262 -0.1474  0.8404
 9310SOL    HW239567   0.321   1.889   9.710  0.2580  1.6385 -2.7288
 9311SOL     OW39568   3.662   0.798  11.190 -0.1924  0.1462 -0.2684
 9311SOL    HW139569   3.649   0.784  11.097 -1.6088 -1.1814  0.1270
 9311SOL    HW239570   3.584   0.852  11.204 -0.0851  0.3727 -0.5416
 9312SOL     OW39571   4.128   3.124   3.783 -0.0023  0.2171  0.1365
 9312SOL    HW139572   4.177   3.206   3.792 -1.7436  1.5072 -1.9101
 9312SOL    HW239573   4.112   3.102   3.874  1.0261  0.9782  0.4999
 9313SOL     OW39574   2.407   0.420   3.842  0.4608 -0.5885  0.5609
 9313SOL    HW139575   2.341   0.362   3.881  1.4215 -0.6442  2.1235
 9313SOL    HW239576   2.359   0.482   3.788 -0.0525  1.2535  3.1381
 9314SOL     OW39577   3.073   1.221   5.981  0.5842  0.4286 -0.1679
 9314SOL    HW139578   3.020   1.242   6.058 -1.5079 -4.0426 -0.3827
 9314SOL    HW239579   3.049   1.280   5.910  1.9915 -0.2886 -1.2270
 9315SOL     OW39580   2.872   3.220   5.218 -0.3497 -0.0652 -0.0872
 9315SOL    HW139581   2.906   3.165   5.147 -0.3537 -0.2786  0.0789
 9315SOL    HW239582   2.851   3.304   5.177  0.9509  0.8238  1.0842
 9316SOL     OW39583   4.335   0.337   5.942 -0.2773 -0.3868  0.3286
 9316SOL    HW139584   4.275   0.344   6.016  2.1237  2.3172  2.0145
 9316SOL    HW239585   4.314   0.248   5.914 -0.7765 -0.3616  0.6278
 9317SOL     OW39586   4.631   0.310  15.306 -0.8634 -0.4112 -0.2099
 9317SOL    HW139587   4.691   0.239  15.329 -0.3771  0.6971  1.9120
 9317SOL    HW239588   4.579   0.310  15.386 -1.5966  0.8214 -0.6993
 9318SOL     OW39589   4.466   2.525  12.630  0.2212 -0.4527 -0.1287
 9318SOL    HW139590   4.421   2.499  12.710 -1.5056  0.8945 -0.6571
 9318SOL    HW239591   4.414   2.599  12.598 -1.9127 -1.5183  0.9252
 9319SOL     OW39592   2.389   2.297   7.442 -0.1450  0.2782 -0.0620
 9319SOL    HW139593   2.428   2.282   7.528  3.3031 -0.5204 -1.7648
 9319SOL    HW239594   2.317   2.348   7.480 -0.0015  0.2921  0.1900
 9320SOL     OW39595   1.043   0.642  14.649  0.5356  0.3343  0.0704
 9320SOL    HW139596   1.030   0.712  14.585  0.5311 -0.4864 -0.8276
 9320SOL    HW239597   0.987   0.669  14.722 -0.1072 -1.6616  0.2970
 9321SOL     OW39598   2.380   3.000   0.014 -0.2722  0.5446  0.1736
 9321SOL    HW139599   2.363   2.926   0.072 -0.9332 -0.8861 -1.8445
 9321SOL    HW239600   2.298   2.996  17.726  0.4207  0.4899 -0.9708
 9322SOL     OW39601   0.380   3.206   6.549 -0.5063  0.7830 -0.1304
 9322SOL    HW139602   0.469   3.213   6.582 -0.7271  0.0933  0.6143
 9322SOL    HW239603   0.362   3.300   6.537  2.1818  1.1950 -0.7857
 9323SOL     OW39604   2.115   1.847  17.549 -0.1411  0.0112  1.0584
 9323SOL    HW139605   2.044   1.854  17.613 -2.4838  0.9511 -1.6439
 9323SOL    HW239606   2.086   1.773  17.496  0.3012  0.6696 -0.1141
 9324SOL     OW39607   0.277   3.434  10.696 -0.0633 -0.2585  0.2850
 9324SOL    HW139608   0.194   3.397  10.727 -1.3802  1.1304 -1.6186
 9324SOL    HW239609   0.299   3.498  10.763 -0.0106  2.0966 -2.0178
 9325SOL     OW39610   4.554   0.557   3.086 -0.1679  0.4708  0.4582
 9325SOL    HW139611   4.648   0.561   3.103  0.1550 -0.6852 -1.0248
 9325SOL    HW239612   4.528   0.636   3.133  1.9341  2.0437 -1.0327
 9326SOL     OW39613   1.792   1.924   1.378  0.0654  0.0457  0.5686
 9326SOL    HW139614   1.785   2.018   1.398  0.7606  0.5278 -1.4592
 9326SOL    HW239615   1.872   1.928   1.325 -0.6596 -2.5454 -0.7243
 9327SOL     OW39616   2.698   1.478  13.008  0.1731 -0.0473  0.2646
 9327SOL    HW139617   2.605   1.502  13.010  0.0308 -0.7066  1.6970
 9327SOL    HW239618   2.710   1.435  13.093 -0.9907  2.6183  1.7621
 9328SOL     OW39619   1.865   1.774   8.440  0.3066 -0.6937 -0.2703
 9328SOL    HW139620   1.827   1.833   8.375 -1.1053 -0.7670  0.4776
 9328SOL    HW239621   1.807   1.698   8.437  0.1621 -0.4977 -2.6346
 9329SOL     OW39622   3.467   3.231  10.162 -0.9595  0.0064 -0.3989
 9329SOL    HW139623   3.533   3.299  10.174 -0.3241 -0.9797  1.6268
 9329SOL    HW239624   3.505   3.156  10.208 -1.5154  1.2646  2.1007
 9330SOL     OW39625   4.068   4.604   7.269 -0.3515  0.3775  0.1374
 9330SOL    HW139626   4.111   4.565   7.346 -2.0981 -1.2900  0.2740
 9330SOL    HW239627   4.118   4.685   7.260  1.2706 -0.5808  0.3840
 9331SOL     OW39628   0.920   2.483   7.373  0.0528 -0.1922  0.1261
 9331SOL    HW139629   1.013   2.459   7.371 -0.6430 -2.9337  1.0940
 9331SOL    HW239630   0.874   2.408   7.335 -1.3966 -0.0335  1.5999
 9332SOL     OW39631   0.724   1.288   4.970 -0.1610  0.3597 -0.1193
 9332SOL    HW139632   0.648   1.276   5.026 -0.8305 -1.1428 -1.3591
 9332SOL    HW239633   0.774   1.214   5.004 -1.6990  0.2441  1.8597
 9333SOL     OW39634   1.027   3.915   2.336  0.1703 -0.3871  0.7134
 9333SOL    HW139635   1.074   3.977   2.279  0.4898 -0.6214  0.7210
 9333SOL    HW239636   1.102   3.867   2.371  0.2420  0.4285  1.6823
 9334SOL     OW39637   2.237   1.799  10.968  0.5192  0.9986  0.3958
 9334SOL    HW139638   2.173   1.779  10.900 -0.5064 -0.8522  1.9300
 9334SOL    HW239639   2.278   1.879  10.935  1.1058  0.8729  0.8301
 9335SOL     OW39640   4.493   3.858   4.238 -0.0902 -0.4788 -0.0040
 9335SOL    HW139641   4.439   3.883   4.313  0.1703 -1.0384  0.3702
 9335SOL    HW239642   4.444   3.889   4.162  1.6290  3.0326  0.2655
 9336SOL     OW39643   0.497   2.814  10.820  0.2194  0.1683 -0.1949
 9336SOL    HW139644   0.551   2.791  10.895 -2.9169 -0.5575  1.8566
 9336SOL    HW239645   0.413   2.796  10.863  0.2231  1.3329  0.3068
 9337SOL     OW39646   2.287   0.599   3.683 -0.4317 -0.5006  0.2516
 9337SOL    HW139647   2.268   0.683   3.641  0.2591 -0.6276 -0.2961
 9337SOL    HW239648   2.202   0.583   3.726  1.1110 -0.9578  3.1350
 9338SOL     OW39649   1.298   1.094  11.460  0.3979  0.3417  0.2260
 9338SOL    HW139650   1.276   1.004  11.486  2.1471 -0.1655 -0.0582
 9338SOL    HW239651   1.349   1.078  11.381  0.5147  2.5395 -0.1291
 9339SOL     OW39652   2.695   3.697   6.214 -0.0773 -0.4029 -0.2759
 9339SOL    HW139653   2.618   3.677   6.161  0.5732  0.2379 -1.4805
 9339SOL    HW239654   2.662   3.663   6.297  0.9554 -2.3229 -0.6574
 9340SOL     OW39655   3.413   4.217   1.629  0.1869  0.0092  0.2366
 9340SOL    HW139656   3.351   4.244   1.696  0.6494  1.6264 -0.0037
 9340SOL    HW239657   3.414   4.296   1.575 -2.5556  0.2327  0.5011
 9341SOL     OW39658   1.176   2.171   2.701 -0.2565 -0.2772  0.4360
 9341SOL    HW139659   1.252   2.113   2.700  1.8876  2.4933  1.4515
 9341SOL    HW239660   1.121   2.160   2.624  1.3827 -1.0167 -0.6276
 9342SOL     OW39661   3.580   2.848   8.918 -0.5015  0.3048 -0.2737
 9342SOL    HW139662   3.601   2.765   8.875 -1.2584  1.5469 -2.9966
 9342SOL    HW239663   3.494   2.843   8.877 -1.2498 -0.1404  1.3528
 9343SOL     OW39664   3.301   4.093  10.968  0.1741 -0.2919 -0.2280
 9343SOL    HW139665   3.317   4.167  11.026  0.6672  0.4168 -1.2794
 9343SOL    HW239666   3.387   4.053  10.982 -0.5983 -1.3813  1.5086
 9344SOL     OW39667   3.521   1.607   8.045 -0.1202 -0.2145  0.7165
 9344SOL    HW139668   3.541   1.694   8.010  0.1547 -0.3064  0.6451
 9344SOL    HW239669   3.587   1.557   7.998  2.6625  3.1127  1.1440
 9345SOL     OW39670   2.174   4.230   7.183 -0.1375  0.2598  0.0271
 9345SOL    HW139671   2.151   4.322   7.172  3.9658  1.3623  0.8752
 9345SOL    HW239672   2.093   4.190   7.152  0.3254 -1.9336  1.6717
 9346SOL     OW39673   2.223   2.223   5.527  0.0357 -0.0958 -0.0555
 9346SOL    HW139674   2.165   2.147   5.532 -0.8585  0.6318  0.7946
 9346SOL    HW239675   2.228   2.242   5.434  0.4435  2.4040  0.4551
 9347SOL     OW39676   4.689   3.281  15.043  0.1402  0.5464  0.2754
 9347SOL    HW139677   4.726   3.201  15.079 -0.3084  0.0166 -0.4370
 9347SOL    HW239678   0.030   3.327  15.024 -0.5663  1.8833  0.4645
 9348SOL     OW39679   4.580   3.957  12.297  0.2650 -0.3223 -0.1541
 9348SOL    HW139680   4.544   3.871  12.319  2.8033 -1.5814 -0.9907
 9348SOL    HW239681   4.671   3.935  12.314  0.1104 -0.3413  0.6755
 9349SOL     OW39682   3.062   3.365   9.568 -0.0480  0.3638  0.0500
 9349SOL    HW139683   3.051   3.394   9.477 -1.1191 -4.1550 -1.2818
 9349SOL    HW239684   2.975   3.388   9.601  0.2271  0.3088  0.8039
 9350SOL     OW39685   4.575   2.453  14.244 -0.1377 -0.0020  0.0776
 9350SOL    HW139686   4.489   2.469  14.205  0.4327 -0.6790 -1.4572
 9350SOL    HW239687   4.578   2.539  14.286  1.1843 -0.3633  0.7167
 9351SOL     OW39688   1.461   3.893   7.852 -0.0874  0.1835  0.0771
 9351SOL    HW139689   1.531   3.840   7.889  0.5588  1.4713  0.7257
 9351SOL    HW239690   1.402   3.888   7.928  0.8750 -1.8337  0.6732
 9352SOL     OW39691   1.794   2.117   6.484 -0.4222 -0.6208  0.4609
 9352SOL    HW139692   1.749   2.034   6.473  0.7132 -1.1569 -0.0827
 9352SOL    HW239693   1.742   2.160   6.552  0.5410  3.0232 -1.0941
 9353SOL     OW39694   2.937   3.268   5.483 -0.3091 -0.0229  0.1520
 9353SOL    HW139695   2.990   3.344   5.458  0.2825 -0.7823 -0.9061
 9353SOL    HW239696   2.912   3.248   5.393 -0.5504 -1.7611  0.6206
 9354SOL     OW39697   3.752   1.268   3.889 -0.3181 -0.1684  0.0851
 9354SOL    HW139698   3.688   1.320   3.937 -0.4373  0.7066 -1.0137
 9354SOL    HW239699   3.708   1.245   3.807 -0.2606  1.9193 -0.5289
 9355SOL     OW39700   4.660   4.499   5.418 -0.3697 -0.1191  1.3299
 9355SOL    HW139701   4.690   4.565   5.355  0.7893 -2.2777 -0.3902
 9355SOL    HW239702   4.715   4.514   5.495 -1.2992 -0.5399  2.0756
 9356SOL     OW39703   3.709   3.393   7.387 -0.3976  0.6509  0.4145
 9356SOL    HW139704   3.744   3.379   7.299  1.5039 -0.8810  1.4128
 9356SOL    HW239705   3.726   3.314   7.437  0.5136  1.0137  0.6905
 9357SOL     OW39706   3.101   0.083  13.782 -0.2058  0.3964 -0.1173
 9357SOL    HW139707   3.190   0.070  13.750 -0.7033  1.5749 -1.9609
 9357SOL    HW239708   3.050   0.013  13.744 -1.8614  0.2710  2.3348
 9358SOL     OW39709   4.472   2.086   5.134 -0.2122  0.1869  0.1146
 9358SOL    HW139710   4.557   2.083   5.178  0.3148  1.2440 -0.8254
 9358SOL    HW239711   4.504   2.119   5.050 -0.0546  3.2606  1.4104
 9359SOL     OW39712   4.269   1.780   0.668  0.2888  0.5751  0.0815
 9359SOL    HW139713   4.231   1.762   0.582  0.2857  2.5481 -0.3323
 9359SOL    HW239714   4.291   1.691   0.695  0.8990  0.8610  0.5061
 9360SOL     OW39715   3.806   1.380  15.738 -0.4437  0.2754 -0.3473
 9360SOL    HW139716   3.867   1.453  15.726  1.3250 -0.8610  1.9345
 9360SOL    HW239717   3.795   1.353  15.646 -0.4942 -3.3808  0.7460
 9361SOL     OW39718   1.517   1.920   5.703  0.5309  0.6653  0.1229
 9361SOL    HW139719   1.425   1.917   5.729  0.9829 -0.8028  1.5416
 9361SOL    HW239720   1.497   1.940   5.611  0.6921  2.0290  0.3867
 9362SOL     OW39721   2.366   4.404   2.654 -0.0929 -0.3446  0.6194
 9362SOL    HW139722   2.386   4.455   2.733 -0.1368  1.7301 -0.7284
 9362SOL    HW239723   2.298   4.344   2.686 -2.3182  2.5842  1.4030
 9363SOL     OW39724   4.149   2.247  14.451 -0.6451 -0.2846 -0.0440
 9363SOL    HW139725   4.169   2.290  14.535 -1.7241 -0.9851  0.5730
 9363SOL    HW239726   4.119   2.325  14.405 -0.8520 -0.8687 -0.8911
 9364SOL     OW39727   0.382   3.803   0.315  0.1645 -0.3884  0.5616
 9364SOL    HW139728   0.341   3.878   0.359 -2.5394 -1.5671  0.0224
 9364SOL    HW239729   0.441   3.851   0.257 -0.4703 -0.8495 -0.4661
 9365SOL     OW39730   1.474   3.383   7.838 -0.2382  0.2844  0.5785
 9365SOL    HW139731   1.454   3.470   7.872 -2.0040 -0.5103  1.5621
 9365SOL    HW239732   1.405   3.335   7.884 -0.9319  0.3114 -0.4466
 9366SOL     OW39733   0.934   0.864  17.143  0.6133 -0.0714 -0.2023
 9366SOL    HW139734   0.921   0.775  17.176  0.3744  0.0479  0.0309
 9366SOL    HW239735   0.991   0.843  17.070  1.1621 -2.5502  0.9407
 9367SOL     OW39736   3.284   2.971  16.894  0.8511 -0.1521 -0.0604
 9367SOL    HW139737   3.378   2.986  16.909  1.2736 -1.5883 -1.2554
 9367SOL    HW239738   3.250   2.930  16.974  0.0688 -0.1027 -0.3716
 9368SOL     OW39739   4.138   1.779   4.996 -0.1610  0.6567 -0.0511
 9368SOL    HW139740   4.156   1.852   4.938  0.2660  1.4409  1.0721
 9368SOL    HW239741   4.076   1.724   4.947 -0.0582 -0.4188  1.0148
 9369SOL     OW39742   0.427   2.116  12.046  0.0295  0.2577 -0.1542
 9369SOL    HW139743   0.422   2.057  12.121 -1.1670  1.3504  0.6159
 9369SOL    HW239744   0.501   2.074  12.002 -2.5521 -2.4637 -1.9196
 9370SOL     OW39745   0.893   1.144  16.940  0.0482  0.0455  0.0912
 9370SOL    HW139746   0.824   1.196  16.898 -0.8038  0.2592  1.7833
 9370SOL    HW239747   0.916   1.197  17.016  1.0089  0.5648 -0.5580
 9371SOL     OW39748   0.545   1.574   5.997 -0.3034  0.3498 -0.2607
 9371SOL    HW139749   0.525   1.522   5.919 -0.8388 -0.4961  0.4361
 9371SOL    HW239750   0.461   1.590   6.040  0.5895  0.2740  1.4710
 9372SOL     OW39751   3.037   3.011   7.517  0.1223  0.2407  0.3727
 9372SOL    HW139752   3.064   3.079   7.456 -2.6061 -0.1640 -1.2768
 9372SOL    HW239753   3.118   2.999   7.567  1.2043 -2.7924 -2.1168
 9373SOL     OW39754   4.655   1.400  12.694  0.5660 -0.4533  0.2220
 9373SOL    HW139755   4.595   1.475  12.700  2.3742  0.9749  0.5859
 9373SOL    HW239756   4.732   1.446  12.661 -0.0792  0.4463 -0.0590
 9374SOL     OW39757   3.932   2.980   3.034  0.5844 -0.3064  0.2656
 9374SOL    HW139758   3.897   2.893   3.052 -3.7841  1.1751 -1.0911
 9374SOL    HW239759   3.970   3.003   3.119  0.4199 -2.0420  0.8095
 9375SOL     OW39760   2.340   0.271   4.117  0.5872  0.2275  0.4259
 9375SOL    HW139761   2.258   0.243   4.076  0.7476 -0.2099  0.3983
 9375SOL    HW239762   2.323   0.274   4.212  1.0338 -1.0468  0.5514
 9376SOL     OW39763   1.729   2.499   6.774  0.3992  0.1120 -0.5223
 9376SOL    HW139764   1.702   2.574   6.722  0.6626  0.1287 -0.6361
 9376SOL    HW239765   1.816   2.536   6.791 -0.1148  1.2112 -0.3096
 9377SOL     OW39766   2.524   3.153   6.663 -0.7991 -0.1566 -0.4636
 9377SOL    HW139767   2.462   3.221   6.689  0.1263  0.5775 -0.1957
 9377SOL    HW239768   2.562   3.132   6.749 -0.7169  1.0455 -0.2083
 9378SOL     OW39769   4.479   4.225   5.808 -0.2691 -0.1277 -0.3420
 9378SOL    HW139770   4.561   4.204   5.855  0.5107  2.6169 -0.4972
 9378SOL    HW239771   4.442   4.139   5.829  1.7271 -1.5331 -2.5288
 9379SOL     OW39772   4.659   0.740   2.819 -0.6934 -0.1075 -0.7866
 9379SOL    HW139773   4.640   0.757   2.727  0.1017 -0.5795 -1.0303
 9379SOL    HW239774   4.567   0.742   2.847 -0.2940  0.8716  0.4283
 9380SOL     OW39775   2.517   1.478   9.056 -0.3753 -0.1964 -0.3338
 9380SOL    HW139776   2.461   1.526   8.995  0.6558  2.1130  0.5391
 9380SOL    HW239777   2.596   1.530   9.069  0.0257 -1.2668  1.5875
 9381SOL     OW39778   0.040   0.145  10.426  0.1096 -0.2150  0.2083
 9381SOL    HW139779   0.079   0.118  10.343  0.4193 -2.9102  1.1991
 9381SOL    HW239780   0.111   0.194  10.467  0.4484  1.4173 -2.3715
 9382SOL     OW39781   3.390   1.811  16.586 -0.1222 -0.3467  0.3391
 9382SOL    HW139782   3.315   1.841  16.637 -0.3838 -0.9331  0.2999
 9382SOL    HW239783   3.351   1.726  16.565 -4.3345  1.0813  2.4437
 9383SOL     OW39784   1.610   2.467   2.472 -0.0057 -0.1096  0.4305
 9383SOL    HW139785   1.631   2.478   2.564  0.4549  0.9675  0.2040
 9383SOL    HW239786   1.670   2.396   2.449  1.6867  2.0830 -2.0907
 9384SOL     OW39787   2.955   1.380   6.846  0.5389  0.2460 -0.6654
 9384SOL    HW139788   3.031   1.393   6.790  0.1925  0.4288 -1.0904
 9384SOL    HW239789   2.969   1.456   6.903 -0.9294  1.5762 -2.0683
 9385SOL     OW39790   3.240   2.260   6.584 -0.1595 -0.2268  0.9945
 9385SOL    HW139791   3.264   2.171   6.558 -0.5577  0.3207 -1.2637
 9385SOL    HW239792   3.217   2.287   6.495  1.7787 -3.3165 -0.4715
 9386SOL     OW39793   1.778   0.349   7.806  0.4436 -0.2461  0.1581
 9386SOL    HW139794   1.786   0.254   7.793 -2.1716 -0.3890 -0.4610
 9386SOL    HW239795   1.741   0.350   7.894  2.4234  0.1437  0.9819
 9387SOL     OW39796   3.456   3.603  14.082 -0.0942 -0.5943  0.3517
 9387SOL    HW139797   3.546   3.636  14.074 -0.0332 -0.9268 -0.3033
 9387SOL    HW239798   3.417   3.645  14.006  0.2579  0.1460  0.5790
 9388SOL     OW39799   3.214   0.874   3.276  0.2748  0.5625  0.3444
 9388SOL    HW139800   3.187   0.916   3.358 -1.0947  0.4795 -0.0566
 9388SOL    HW239801   3.268   0.803   3.310 -0.4765 -0.9525 -1.6250
 9389SOL     OW39802   0.012   1.310   2.433  0.2459 -0.5261 -0.9480
 9389SOL    HW139803   0.003   1.317   2.528  3.3288 -0.1342 -0.6748
 9389SOL    HW239804   0.058   1.387   2.401  2.8125 -0.8330  1.9377
 9390SOL     OW39805   0.955   4.572   5.421 -0.1920 -0.0771  0.2284
 9390SOL    HW139806   0.871   4.607   5.451  0.5233 -0.2141  2.4258
 9390SOL    HW239807   0.975   4.631   5.349  0.8276 -1.1447 -0.3695
 9391SOL     OW39808   0.368   2.743  11.893 -0.1183  0.1239 -0.0018
 9391SOL    HW139809   0.371   2.686  11.816 -0.0631 -0.3264  0.3334
 9391SOL    HW239810   0.294   2.702  11.937 -1.7347  1.1228 -1.8203
 9392SOL     OW39811   3.667   4.400   4.386  0.5689 -0.3042 -0.3075
 9392SOL    HW139812   3.744   4.435   4.430  1.0203 -0.4156 -1.0142
 9392SOL    HW239813   3.690   4.438   4.302 -0.6816  1.2036  0.0423
 9393SOL     OW39814   1.819   2.632  12.347  0.1239 -0.4516  0.1141
 9393SOL    HW139815   1.751   2.621  12.413 -0.0149  1.9525  0.3670
 9393SOL    HW239816   1.770   2.678  12.279 -0.3739 -0.0788  0.7217
 9394SOL     OW39817   3.485   3.111   4.350 -0.0029  0.0698  0.6139
 9394SOL    HW139818   3.558   3.070   4.396  0.3522  0.9004  0.7869
 9394SOL    HW239819   3.518   3.187   4.303 -1.9031  2.1914  2.6972
 9395SOL     OW39820   2.320   2.345  14.701 -0.6963  0.3887  0.1171
 9395SOL    HW139821   2.366   2.273  14.657 -0.6910  0.9448 -0.7737
 9395SOL    HW239822   2.323   2.305  14.789 -0.4879 -1.4422 -0.7194
 9396SOL     OW39823   1.578   0.628   3.403 -0.0305 -0.4172 -0.4207
 9396SOL    HW139824   1.649   0.680   3.364  1.4926 -0.8245  1.8413
 9396SOL    HW239825   1.538   0.692   3.461  1.6388 -1.3743  1.7822
 9397SOL     OW39826   2.835   2.393  13.923 -0.1109  0.1517  0.0204
 9397SOL    HW139827   2.898   2.376  13.993  1.4190  0.2172 -1.3292
 9397SOL    HW239828   2.885   2.359  13.849 -1.7385 -2.4497  0.1107
 9398SOL     OW39829   0.666   3.547   4.034 -0.1690  0.3036  0.0493
 9398SOL    HW139830   0.749   3.594   4.029 -0.5756  0.9704 -0.3941
 9398SOL    HW239831   0.698   3.459   4.055  1.2508  1.0374  1.0172
 9399SOL     OW39832   1.289   2.129   8.765  0.1814 -0.2786  0.3308
 9399SOL    HW139833   1.235   2.191   8.813 -0.1811 -0.8060  0.5974
 9399SOL    HW239834   1.324   2.180   8.691 -1.0544 -0.4410 -0.3587
 9400SOL     OW39835   1.443   1.467  10.536  0.5098 -0.7942  0.6929
 9400SOL    HW139836   1.400   1.432  10.614 -3.0985  0.1462 -0.8612
 9400SOL    HW239837   1.396   1.550  10.526 -0.1958 -1.3648 -0.6794
 9401SOL     OW39838   1.772   4.681   6.405  0.0591  0.2318 -0.2261
 9401SOL    HW139839   1.816   4.597   6.422 -1.4508 -0.8084 -1.4678
 9401SOL    HW239840   1.837   0.002   6.437 -0.3237 -0.4068  1.8260
 9402SOL     OW39841   4.341   4.412   2.474 -0.3418 -0.0111 -0.5969
 9402SOL    HW139842   4.331   4.321   2.502 -1.1374  0.3216  0.2192
 9402SOL    HW239843   4.266   4.410   2.414 -1.1917 -0.3734  0.4874
 9403SOL     OW39844   0.902   3.423   4.291 -0.1200 -0.3209  0.0699
 9403SOL    HW139845   0.937   3.500   4.247  0.1353 -0.7101 -0.4027
 9403SOL    HW239846   0.836   3.398   4.227  0.2126 -1.9710  0.3848
 9404SOL     OW39847   2.116   3.838   3.536  0.5754  0.3359  0.2427
 9404SOL    HW139848   2.083   3.770   3.478  1.9524 -0.3380  0.2296
 9404SOL    HW239849   2.129   3.908   3.472 -3.0466  0.5719 -0.2267
 9405SOL     OW39850   2.671   2.732  13.772 -0.2154  0.2247  0.3264
 9405SOL    HW139851   2.638   2.650  13.808 -5.1549  1.8103 -0.5980
 9405SOL    HW239852   2.737   2.707  13.707 -2.2327 -1.0264 -1.2382
 9406SOL     OW39853   3.883   2.065  12.000  0.2190  0.1960  0.5929
 9406SOL    HW139854   3.905   2.022  12.083 -0.6866  0.0702  0.7672
 9406SOL    HW239855   3.877   2.157  12.025 -2.1631  0.0282  0.6514
 9407SOL     OW39856   0.395   4.556   8.039 -0.4241  0.6418  0.2452
 9407SOL    HW139857   0.487   4.578   8.057 -0.0189 -1.9112  1.2901
 9407SOL    HW239858   0.385   4.561   7.944 -0.8385  0.6994  0.2915
 9408SOL     OW39859   3.942   3.739  12.075 -0.4186 -0.3703 -0.1821
 9408SOL    HW139860   3.937   3.714  11.983  0.1402 -2.3423  0.3250
 9408SOL    HW239861   4.033   3.725  12.100 -0.6023  0.0493  0.7319
 9409SOL     OW39862   4.563   3.994   5.623 -0.2917  0.2551  0.8698
 9409SOL    HW139863   4.605   4.080   5.617 -0.6573  0.4019  0.4129
 9409SOL    HW239864   4.548   3.963   5.534  0.6883  0.5822  0.5971
 9410SOL     OW39865   3.266   3.839   0.771 -0.1304  0.0499  0.0312
 9410SOL    HW139866   3.198   3.849   0.839 -1.8282 -0.0578 -1.6526
 9410SOL    HW239867   3.257   3.920   0.722  0.1888 -1.5797 -2.6965
 9411SOL     OW39868   0.323   1.330   9.301  0.1608  0.3522 -0.2800
 9411SOL    HW139869   0.354   1.269   9.368 -2.9575  0.2764  1.1176
 9411SOL    HW239870   0.404   1.374   9.275  0.5451 -0.2178 -0.0582
 9412SOL     OW39871   3.995   0.238   1.901 -0.4166  0.1755 -0.1304
 9412SOL    HW139872   4.049   0.211   1.976  1.7908 -0.4637 -1.9413
 9412SOL    HW239873   4.025   0.184   1.828  0.7527 -0.0978  0.5536
 9413SOL     OW39874   2.367   3.062   8.998 -0.0899 -0.2011 -0.0644
 9413SOL    HW139875   2.326   3.103   8.922  1.1126  0.3405 -0.4227
 9413SOL    HW239876   2.386   2.973   8.968  1.4998 -0.2285  1.0183
 9414SOL     OW39877   1.645   1.887   2.052 -0.2846  0.3071  0.3804
 9414SOL    HW139878   1.656   1.879   2.146 -2.1515 -0.1896  0.5391
 9414SOL    HW239879   1.727   1.935   2.035  0.4301 -1.1401 -0.2190
 9415SOL     OW39880   3.774   3.063   6.282  0.1689 -0.3447  0.2108
 9415SOL    HW139881   3.726   3.015   6.350 -1.2992 -1.7711 -1.8028
 9415SOL    HW239882   3.707   3.114   6.237  1.7070  0.9243 -0.6427
 9416SOL     OW39883   1.881   1.330   4.512  0.0324 -0.3763  0.1215
 9416SOL    HW139884   1.870   1.236   4.532 -0.4845  0.1724  2.4226
 9416SOL    HW239885   1.967   1.329   4.472  0.2869  2.5534  0.6277
 9417SOL     OW39886   2.765   1.395   2.588  0.3551  0.7762 -0.2014
 9417SOL    HW139887   2.697   1.462   2.581 -0.4706 -0.2959 -2.4776
 9417SOL    HW239888   2.732   1.314   2.626  1.8898  0.3479  0.2295
 9418SOL     OW39889   3.355   2.944   6.967  0.1547  0.2835  0.8216
 9418SOL    HW139890   3.338   2.912   7.056  3.3146  0.1776  1.4001
 9418SOL    HW239891   3.424   2.883   6.940 -1.5867 -2.1457  1.8978
 9419SOL     OW39892   2.483   1.552   6.086 -1.0424 -0.4228  0.1662
 9419SOL    HW139893   2.492   1.616   6.157  0.6050 -1.2693  0.7161
 9419SOL    HW239894   2.419   1.490   6.123 -0.6708 -0.5837  0.5456
 9420SOL     OW39895   0.945   2.659   3.763 -0.0004 -0.3451  0.3062
 9420SOL    HW139896   1.006   2.622   3.828 -1.2658  0.0803  1.7425
 9420SOL    HW239897   0.984   2.623   3.684 -2.0797  0.1231 -0.9123
 9421SOL     OW39898   2.164   1.193  15.924 -0.1107  0.0583 -0.1336
 9421SOL    HW139899   2.234   1.213  15.861  0.6249 -4.6523 -0.7916
 9421SOL    HW239900   2.217   1.199  16.004  0.3808  0.5803 -0.4994
 9422SOL     OW39901   4.408   0.515  13.010  0.1825  0.0194  0.8793
 9422SOL    HW139902   4.485   0.459  12.998 -1.2543 -1.7728 -0.0495
 9422SOL    HW239903   4.340   0.451  13.031  1.0005 -1.3774 -0.7219
 9423SOL     OW39904   2.574   0.360   6.832  0.2971  0.1911 -0.2094
 9423SOL    HW139905   2.523   0.285   6.860 -1.2440  0.6656 -1.7382
 9423SOL    HW239906   2.514   0.433   6.847  1.8967  1.5467 -0.3859
 9424SOL     OW39907   2.849   0.783   7.616 -0.4300  0.1966 -0.3671
 9424SOL    HW139908   2.908   0.859   7.618 -0.1783 -0.0085  0.2520
 9424SOL    HW239909   2.789   0.798   7.543 -0.0357 -1.0985 -0.9524
 9425SOL     OW39910   0.792   0.797   6.753  0.1935 -0.0521  0.4884
 9425SOL    HW139911   0.824   0.796   6.663  0.7411  0.9403  0.6684
 9425SOL    HW239912   0.773   0.704   6.758  1.4618 -0.2766  1.0519
 9426SOL     OW39913   1.271   0.125   4.827  0.3113  0.0719  0.1972
 9426SOL    HW139914   1.327   0.048   4.840 -1.3684 -0.8399  2.1031
 9426SOL    HW239915   1.329   0.187   4.873  1.5069  0.2405 -1.5382
 9427SOL     OW39916   3.373   1.730   3.638 -0.2182 -0.1612 -0.8692
 9427SOL    HW139917   3.417   1.812   3.615 -1.5178  1.1008  1.1531
 9427SOL    HW239918   3.302   1.733   3.575  0.0237  1.7113 -1.0306
 9428SOL     OW39919   0.717   3.909   5.376  0.0157  0.3717  0.3189
 9428SOL    HW139920   0.641   3.888   5.430 -0.7015 -0.8625 -1.1583
 9428SOL    HW239921   0.703   4.001   5.355  2.8027  0.2127 -2.3508
 9429SOL     OW39922   0.732   1.096  16.583 -0.4599 -0.3538 -0.0107
 9429SOL    HW139923   0.791   1.161  16.621 -1.4544 -0.3815  1.5642
 9429SOL    HW239924   0.693   1.051  16.658  1.0899 -1.5337  0.0983
 9430SOL     OW39925   2.863   0.050   5.140 -0.5341 -0.0937 -0.8826
 9430SOL    HW139926   2.805   4.724   5.176 -0.4546  1.0537  1.3459
 9430SOL    HW239927   2.824   0.072   5.055  0.4633 -0.6996 -1.5047
 9431SOL     OW39928   3.992   2.580   9.442  1.2120 -0.1986  0.1021
 9431SOL    HW139929   4.031   2.666   9.427 -0.8615  0.6303 -0.6491
 9431SOL    HW239930   3.906   2.599   9.480  1.8768 -2.2672  2.6568
 9432SOL     OW39931   4.706   0.802   1.418 -0.4508  0.2338  0.0683
 9432SOL    HW139932   4.627   0.764   1.456 -1.5834  0.0150 -2.4820
 9432SOL    HW239933   4.722   0.762   1.332 -0.7209  1.3652 -0.5099
 9433SOL     OW39934   4.147   0.647  15.501  0.1109 -0.4187 -0.2910
 9433SOL    HW139935   4.123   0.634  15.592  0.5519  0.3646 -0.0639
 9433SOL    HW239936   4.059   0.664  15.468  0.3113  2.3277  0.6264
 9434SOL     OW39937   1.742   3.378  13.079 -0.2089 -0.0977 -0.5015
 9434SOL    HW139938   1.660   3.333  13.059 -0.1399 -0.5478  0.2268
 9434SOL    HW239939   1.728   3.469  13.052 -0.9985  0.0009  0.2802
 9435SOL     OW39940   4.519   2.711  14.339  0.1345 -0.5112  0.0324
 9435SOL    HW139941   4.453   2.733  14.274 -2.0791  1.1526  2.8322
 9435SOL    HW239942   4.531   2.797  14.380 -0.1463  0.5752 -2.1824
 9436SOL     OW39943   3.867   3.757   6.892 -0.1854  0.0573  0.3559
 9436SOL    HW139944   3.814   3.703   6.833 -1.9732  2.1487  0.0715
 9436SOL    HW239945   3.954   3.732   6.860  0.1436  2.7605 -0.8949
 9437SOL     OW39946   0.635   2.662  17.024 -0.1239  0.0408  0.4543
 9437SOL    HW139947   0.623   2.736  16.964  1.1704 -0.5053 -0.4865
 9437SOL    HW239948   0.725   2.677  17.054 -0.0428 -0.2259  0.3455
 9438SOL     OW39949   0.594   4.086   2.751 -0.2678 -0.9027 -0.3403
 9438SOL    HW139950   0.533   4.139   2.700 -2.1977 -2.7805  0.0100
 9438SOL    HW239951   0.587   4.000   2.709 -0.8323 -2.7239  3.4402
 9439SOL     OW39952   3.523   4.265   7.271  0.3300 -0.2178  0.6730
 9439SOL    HW139953   3.563   4.204   7.209  0.0836  1.2331 -0.9085
 9439SOL    HW239954   3.480   4.322   7.208 -0.5988  0.0645  1.5662
 9440SOL     OW39955   1.305   3.989   8.343 -0.2992 -0.2556  0.0322
 9440SOL    HW139956   1.331   3.899   8.365 -2.1384 -1.9465 -4.6630
 9440SOL    HW239957   1.297   4.014   8.435  1.4063 -1.5963  0.5481
 9441SOL     OW39958   0.474   3.700   2.445 -0.2371 -0.3938  0.0321
 9441SOL    HW139959   0.546   3.651   2.485  0.7355  2.0794  1.3202
 9441SOL    HW239960   0.496   3.677   2.355 -0.7777 -3.0484  0.5687
 9442SOL     OW39961   2.917   2.436   7.105  0.0182  0.1149  0.1861
 9442SOL    HW139962   2.933   2.530   7.110  2.7624 -0.2439 -1.8425
 9442SOL    HW239963   2.885   2.414   7.017 -1.4125  6.4392 -0.8771
 9443SOL     OW39964   2.279   4.321   4.701  0.1970 -0.6193 -0.0119
 9443SOL    HW139965   2.354   4.335   4.758  0.6381 -1.9834 -0.2554
 9443SOL    HW239966   2.293   4.228   4.686  5.6696  0.3435 -0.9405
 9444SOL     OW39967   4.258   0.553  14.049  0.5002 -0.2021  0.8348
 9444SOL    HW139968   4.278   0.464  14.079 -1.0116 -0.8088  0.0543
 9444SOL    HW239969   4.277   0.604  14.127  1.2068 -1.6391  1.6148
 9445SOL     OW39970   3.511   0.637   7.996  0.8239  0.1027  0.1349
 9445SOL    HW139971   3.547   0.724   8.014  0.1719  1.1997 -4.0268
 9445SOL    HW239972   3.594   0.590   8.004  1.8217  1.6206 -1.2900
 9446SOL     OW39973   2.952   3.953  16.755 -0.1896  0.1330  0.0123
 9446SOL    HW139974   2.993   3.962  16.841 -0.5223  0.2026  0.1664
 9446SOL    HW239975   3.010   3.894  16.708  0.3678  0.0641  0.7902
 9447SOL     OW39976   0.439   4.317   3.595 -0.2112  0.1135 -0.0530
 9447SOL    HW139977   0.410   4.226   3.589  0.4222 -0.0633 -0.4768
 9447SOL    HW239978   0.511   4.299   3.656  0.3709 -0.9378 -1.0332
 9448SOL     OW39979   4.661   1.958  11.598  0.1578  0.1665  0.3779
 9448SOL    HW139980   4.700   1.985  11.515  0.1316  2.7693  1.1998
 9448SOL    HW239981   4.574   1.943  11.563  0.4215 -2.0630  0.6895
 9449SOL     OW39982   4.438   1.718   1.035 -0.8826 -0.6599  0.3319
 9449SOL    HW139983   4.369   1.668   0.990 -0.6144 -1.0646  0.3761
 9449SOL    HW239984   4.398   1.742   1.119 -0.7232 -0.0816  0.2456
 9450SOL     OW39985   0.516   0.034   2.046  0.0491  0.5719 -0.6157
 9450SOL    HW139986   0.513   0.129   2.043  0.5347  0.6010 -0.1010
 9450SOL    HW239987   0.432   0.023   2.091 -1.3575 -0.2407 -3.4118
 9451SOL     OW39988   1.543   3.611   7.231  0.4088  0.5682 -0.3032
 9451SOL    HW139989   1.605   3.603   7.303  0.7664  0.6209 -0.6062
 9451SOL    HW239990   1.570   3.694   7.193  2.7663  0.4103  1.0407
 9452SOL     OW39991   1.418   0.602   9.197 -0.5570 -0.1628 -0.5345
 9452SOL    HW139992   1.326   0.598   9.225 -0.2068 -2.1791  0.3200
 9452SOL    HW239993   1.459   0.591   9.283 -0.4984  1.5591 -0.3257
 9453SOL     OW39994   4.300   3.960   8.691 -0.4285  0.1921 -0.7731
 9453SOL    HW139995   4.381   3.909   8.702 -1.8590 -1.7654  0.6987
 9453SOL    HW239996   4.341   4.047   8.689 -2.1736  1.0230  0.1914
 9454SOL     OW39997   2.220   3.314  10.633 -0.0132 -0.6364 -0.2477
 9454SOL    HW139998   2.282   3.361  10.689 -1.2181  0.5827  0.0667
 9454SOL    HW239999   2.160   3.272  10.695  0.3311 -2.9292 -1.5006
 9455SOL     OW40000   3.638   2.017   2.990  0.0561  0.6937  0.4037
 9455SOL    HW140001   3.712   1.972   3.029 -1.7518 -2.6116  0.0382
 9455SOL    HW240002   3.679   2.045   2.908 -1.6046  2.6285  0.2379
 9456SOL     OW40003   1.822   3.440   2.191  0.2044 -0.1569 -0.6306
 9456SOL    HW140004   1.818   3.379   2.117  1.8772 -0.6532 -0.3029
 9456SOL    HW240005   1.818   3.522   2.144  2.1641 -1.7252 -3.5051
 9457SOL     OW40006   1.726   0.160   5.063 -0.2912  0.3864  0.1181
 9457SOL    HW140007   1.678   0.077   5.067 -0.6503  0.4938 -1.5622
 9457SOL    HW240008   1.805   0.133   5.109  0.4743  1.1604 -0.7352
 9458SOL     OW40009   2.726   1.293  13.229  0.5733 -0.0578  0.6006
 9458SOL    HW140010   2.689   1.212  13.262  1.2512 -1.6177 -2.4872
 9458SOL    HW240011   2.814   1.285  13.264 -0.0034 -0.1001  2.0158
 9459SOL     OW40012   3.916   0.630  15.336 -0.3392  0.5242  0.3014
 9459SOL    HW140013   3.916   0.551  15.283  0.8040  1.4206 -1.0627
 9459SOL    HW240014   3.940   0.689  15.264  0.5864  0.3214  0.4333
 9460SOL     OW40015   2.990   1.653   2.010  0.2640 -0.4340  0.0867
 9460SOL    HW140016   2.973   1.618   2.097 -1.4911  1.0444  0.3482
 9460SOL    HW240017   3.063   1.599   1.981  1.3179  0.1054  1.7096
 9461SOL     OW40018   1.981   0.696   9.954  0.0151  0.4396  0.5388
 9461SOL    HW140019   1.931   0.654  10.024 -0.5686 -3.4184 -2.2252
 9461SOL    HW240020   1.938   0.780   9.936  0.7171  0.7669  0.3781
 9462SOL     OW40021   0.192   1.001   3.965  0.0932  0.1798  0.4808
 9462SOL    HW140022   0.252   0.927   3.974  1.0498  0.9467  0.3732
 9462SOL    HW240023   0.248   1.079   3.958 -0.5499  0.7949  2.1243
 9463SOL     OW40024   3.039   0.304   6.165 -0.0903 -0.1066  1.1429
 9463SOL    HW140025   3.095   0.235   6.200 -0.8254 -1.9647 -1.3571
 9463SOL    HW240026   2.962   0.249   6.152 -0.9977  1.5365 -0.5387
 9464SOL     OW40027   3.201   4.278   3.322 -0.4215  0.0034 -0.2728
 9464SOL    HW140028   3.204   4.189   3.287 -1.8771 -1.1080  2.4070
 9464SOL    HW240029   3.229   4.265   3.413  0.8216 -2.5612 -1.0221
 9465SOL     OW40030   3.115   0.841   8.934 -0.4985 -0.4190 -0.2899
 9465SOL    HW140031   3.142   0.932   8.935  1.9112 -1.1681  2.9035
 9465SOL    HW240032   3.196   0.798   8.960 -0.7691 -0.5401  0.3415
 9466SOL     OW40033   0.737   0.185  13.369 -0.5821 -0.2670 -0.3092
 9466SOL    HW140034   0.715   0.142  13.287 -0.5477  1.9725 -1.5032
 9466SOL    HW240035   0.823   0.152  13.394 -2.6611 -3.0709  3.2286
 9467SOL     OW40036   2.245   2.639   8.423  0.1607 -0.2096  0.2005
 9467SOL    HW140037   2.204   2.652   8.338  0.7863 -1.4177 -0.2863
 9467SOL    HW240038   2.285   2.722   8.449 -0.1106 -0.1359  0.3878
 9468SOL     OW40039   2.069   1.921   3.127  0.2873  0.0429 -0.6433
 9468SOL    HW140040   2.077   1.874   3.211  0.6139  1.3381  0.0491
 9468SOL    HW240041   2.147   1.974   3.138 -0.7409  1.5923 -0.8139
 9469SOL     OW40042   2.941   3.300   4.027  0.0666  0.2201  0.0366
 9469SOL    HW140043   2.961   3.375   3.971 -0.2814  1.5837  1.7463
 9469SOL    HW240044   2.896   3.241   3.966  1.0202 -1.6477  1.1332
 9470SOL     OW40045   2.800   2.838   4.996 -0.7317 -0.3863 -0.4457
 9470SOL    HW140046   2.884   2.840   4.949 -0.0191  2.1864  0.9225
 9470SOL    HW240047   2.753   2.802   4.921 -0.3355 -2.2242  0.1760
 9471SOL     OW40048   2.222   1.589   1.107  0.4950  0.1195 -0.0502
 9471SOL    HW140049   2.209   1.503   1.147 -1.3401  0.7676  0.7416
 9471SOL    HW240050   2.276   1.626   1.177  0.0619 -1.7810  1.2762
 9472SOL     OW40051   2.615   0.406   8.903  0.3280 -0.3114  0.4867
 9472SOL    HW140052   2.661   0.467   8.960 -0.3800  1.7230 -1.1392
 9472SOL    HW240053   2.650   0.427   8.816 -0.5457 -1.4144 -0.1320
 9473SOL     OW40054   2.212   3.665  13.829  0.8750 -0.7979 -0.2943
 9473SOL    HW140055   2.228   3.589  13.773 -3.0721 -2.1381  0.3626
 9473SOL    HW240056   2.273   3.728  13.791  0.5972  0.9839  2.2059
 9474SOL     OW40057   4.208   1.254  11.039  0.7117 -0.5491 -0.2173
 9474SOL    HW140058   4.248   1.170  11.063  0.1844 -1.4945 -2.6550
 9474SOL    HW240059   4.238   1.312  11.109  0.8353 -0.7174 -0.1314
 9475SOL     OW40060   3.595   3.620   8.002  0.2946  0.1649 -0.4458
 9475SOL    HW140061   3.667   3.663   8.048 -0.3031  0.5083  0.1587
 9475SOL    HW240062   3.611   3.635   7.909 -0.3398  0.8605 -0.4439
 9476SOL     OW40063   0.781   2.831   2.980  0.6056  0.2593 -0.1751
 9476SOL    HW140064   0.787   2.749   2.930  1.9755 -0.3874  1.0782
 9476SOL    HW240065   0.707   2.812   3.037 -1.4774  2.3612 -2.1731
 9477SOL     OW40066   1.832   1.295   1.687 -0.6414  0.3336  0.5895
 9477SOL    HW140067   1.793   1.380   1.665 -0.3256  0.0849 -0.9614
 9477SOL    HW240068   1.834   1.266   1.596  1.0054 -0.9980  1.0578
 9478SOL     OW40069   3.078   0.963   5.164 -0.7810 -0.6658 -0.0285
 9478SOL    HW140070   3.065   1.054   5.192 -1.1787 -1.0533  1.0663
 9478SOL    HW240071   3.150   0.944   5.224 -0.1632  0.8742 -0.2798
 9479SOL     OW40072   3.043   1.469   5.059 -0.0840 -0.3340 -0.1006
 9479SOL    HW140073   3.123   1.516   5.080 -0.1111 -1.1281  1.7892
 9479SOL    HW240074   2.979   1.528   5.099 -0.3429  0.3412 -1.5080
 9480SOL     OW40075   3.778   2.607   4.003 -0.1212 -0.5954 -0.1628
 9480SOL    HW140076   3.742   2.524   4.033  1.0427 -1.1490 -0.2665
 9480SOL    HW240077   3.701   2.647   3.964  0.9971  2.3693  0.6359
 9481SOL     OW40078   1.195   2.659   6.104 -0.0155 -0.4826 -0.6193
 9481SOL    HW140079   1.114   2.614   6.082  0.3928 -0.7180 -1.6405
 9481SOL    HW240080   1.266   2.617   6.056  1.6737  0.7883  0.7142
 9482SOL     OW40081   2.321   4.068   8.405  0.2926  0.5617  0.3979
 9482SOL    HW140082   2.398   4.030   8.448 -0.9097  0.6866  2.6615
 9482SOL    HW240083   2.249   4.044   8.463  0.8307 -1.5216  0.2146
 9483SOL     OW40084   0.549   0.866   5.138  0.5289  0.1428 -0.1498
 9483SOL    HW140085   0.621   0.827   5.089  1.3597 -1.2175  2.1698
 9483SOL    HW240086   0.476   0.851   5.078  0.3349  1.2128 -0.1891
 9484SOL     OW40087   3.054   4.394   4.620  0.0099 -0.5296  0.5325
 9484SOL    HW140088   3.070   4.319   4.564 -0.4194 -0.6457  0.5624
 9484SOL    HW240089   3.031   4.461   4.556  0.8881 -0.4903  0.2555
 9485SOL     OW40090   2.818   2.100   7.682  0.0204  0.2935  0.6411
 9485SOL    HW140091   2.856   2.131   7.764  1.2320  3.6863 -1.1912
 9485SOL    HW240092   2.854   2.012   7.671  2.7502  1.7114 -1.9163
 9486SOL     OW40093   0.383   2.838   2.184  0.2059 -0.3611  0.1456
 9486SOL    HW140094   0.355   2.820   2.094 -0.5662  0.2818  0.2534
 9486SOL    HW240095   0.424   2.925   2.180 -1.4142  0.4534  1.7070
 9487SOL     OW40096   3.540   0.458   2.196  1.4402  0.3183 -0.4385
 9487SOL    HW140097   3.632   0.480   2.179  1.1029  1.4857 -0.7886
 9487SOL    HW240098   3.552   0.365   2.178  1.8464  0.8919 -3.1451
 9488SOL     OW40099   0.213   1.702   9.441  0.6858  0.1245  0.5726
 9488SOL    HW140100   0.290   1.648   9.458 -0.5448 -1.8802 -0.1933
 9488SOL    HW240101   0.228   1.763   9.513  1.8531  0.8850 -0.3341
 9489SOL     OW40102   1.368   2.941   3.739  0.2378 -0.4504  0.0147
 9489SOL    HW140103   1.275   2.943   3.717  0.1266  0.7780  0.6050
 9489SOL    HW240104   1.382   2.850   3.713 -0.4863 -0.2903 -0.9438
 9490SOL     OW40105   3.388   1.068   2.832  0.3416 -0.0477 -0.0684
 9490SOL    HW140106   3.377   1.162   2.817  1.0511  0.0944  0.2797
 9490SOL    HW240107   3.456   1.072   2.900 -0.4918  1.4303  0.7014
 9491SOL     OW40108   0.177   2.174   1.584 -0.1659  0.3174 -0.4784
 9491SOL    HW140109   0.134   2.258   1.599  0.3915  0.2002  1.7543
 9491SOL    HW240110   0.114   2.127   1.530  1.6686 -0.0542 -2.3153
 9492SOL     OW40111   4.600   0.440  16.591 -0.3549 -0.2103  0.1260
 9492SOL    HW140112   4.665   0.452  16.521 -1.4154  0.3233 -0.7766
 9492SOL    HW240113   4.659   0.409  16.659 -0.9890  1.2043  1.3186
 9493SOL     OW40114   1.591   2.412  10.437  0.8902 -0.1498  0.4662
 9493SOL    HW140115   1.652   2.343  10.461  0.6117 -1.5264 -2.8330
 9493SOL    HW240116   1.633   2.456  10.363  0.8776 -2.1361 -0.7396
 9494SOL     OW40117   1.528   4.308   7.034 -0.0193 -0.0373 -0.5274
 9494SOL    HW140118   1.605   4.336   7.084 -1.3414 -1.0878  2.1390
 9494SOL    HW240119   1.567   4.258   6.962 -3.2955  2.0747 -3.7416
 9495SOL     OW40120   0.441   2.348   5.398  0.5119  0.0108  0.0107
 9495SOL    HW140121   0.476   2.292   5.328  2.2797 -0.0343  0.9276
 9495SOL    HW240122   0.351   2.318   5.412  1.1761 -3.0103 -2.1232
 9496SOL     OW40123   3.305   4.208   9.222  0.0514 -0.2744 -0.9091
 9496SOL    HW140124   3.273   4.126   9.258  0.4304 -0.0331 -0.0121
 9496SOL    HW240125   3.316   4.191   9.129 -1.8926 -2.5895 -0.7038
 9497SOL     OW40126   2.522   1.837  10.193 -0.5610  0.0977  0.0189
 9497SOL    HW140127   2.508   1.752  10.152  0.4829  0.7925 -1.7823
 9497SOL    HW240128   2.592   1.807  10.252  0.4563 -0.0932 -1.2839
 9498SOL     OW40129   2.495   0.692   6.650  0.5794  0.7509 -0.4102
 9498SOL    HW140130   2.443   0.765   6.615  1.6612  2.0121  0.6256
 9498SOL    HW240131   2.497   0.625   6.581  0.0599  0.7068 -0.3835
 9499SOL     OW40132   4.269   3.365   3.836 -0.2185 -0.4364  0.0131
 9499SOL    HW140133   4.323   3.406   3.768  0.0505  0.1711  0.6005
 9499SOL    HW240134   4.333   3.362   3.907 -0.5501  0.0678  0.3259
 9500SOL     OW40135   2.002   0.423   5.688 -0.2413  0.3932 -0.3240
 9500SOL    HW140136   2.049   0.452   5.767 -0.3152  0.7642 -0.4141
 9500SOL    HW240137   1.916   0.409   5.728  0.0982  1.2794  0.7380
 9501SOL     OW40138   3.384   4.460   1.538  0.0415 -0.2217 -0.0751
 9501SOL    HW140139   3.338   4.515   1.474  1.0186  0.3498 -0.2947
 9501SOL    HW240140   3.371   4.507   1.620  0.0213 -0.8423  0.2771
 9502SOL     OW40141   1.092   0.697   4.099 -0.1439 -0.0434 -0.6132
 9502SOL    HW140142   1.029   0.628   4.119  0.2623 -0.5043 -0.8954
 9502SOL    HW240143   1.107   0.675   4.007  1.8052  2.5999 -0.9367
 9503SOL     OW40144   1.004   2.423   0.492  0.0995 -0.4049  0.1754
 9503SOL    HW140145   1.035   2.489   0.554  0.5030 -0.9626  0.5670
 9503SOL    HW240146   0.917   2.449   0.462  0.5932  1.4773  0.4100
 9504SOL     OW40147   3.594   0.605   3.569  0.4775 -0.0618  0.3067
 9504SOL    HW140148   3.501   0.596   3.589  0.2832 -0.2328 -0.6575
 9504SOL    HW240149   3.598   0.700   3.568 -1.6713  0.0127 -0.6162
 9505SOL     OW40150   1.271   0.808   8.669  0.4280  0.7832 -0.3095
 9505SOL    HW140151   1.188   0.854   8.657  0.5423  0.7581 -1.1587
 9505SOL    HW240152   1.271   0.738   8.604  2.6766  0.9682 -0.5084
 9506SOL     OW40153   0.219   4.322   4.415 -0.8343 -0.0315 -0.3421
 9506SOL    HW140154   0.267   4.259   4.467 -0.3465  0.8534  0.2829
 9506SOL    HW240155   0.223   4.282   4.328  1.2608  0.0839 -0.2807
 9507SOL     OW40156   1.481   1.043   4.960 -0.1833 -0.3829  0.3745
 9507SOL    HW140157   1.515   0.983   4.893 -0.3647 -0.3699  0.2674
 9507SOL    HW240158   1.390   1.013   4.968 -0.3508 -0.0753 -0.3920
 9508SOL     OW40159   3.091   1.473   0.431  0.2390  0.2553  0.7433
 9508SOL    HW140160   3.002   1.489   0.460 -1.1774 -3.1900 -1.6961
 9508SOL    HW240161   3.129   1.431   0.508 -0.5472 -0.7062  0.6163
 9509SOL     OW40162   1.312   4.178   8.801 -0.4479  0.0027  0.0510
 9509SOL    HW140163   1.289   4.197   8.892  1.1716  2.0652  0.0325
 9509SOL    HW240164   1.396   4.133   8.809 -0.8736 -0.9119 -0.6352
 9510SOL     OW40165   4.210   3.952  11.968  0.0322 -0.1467  0.3322
 9510SOL    HW140166   4.162   3.979  11.889 -1.1462  1.6789  1.6586
 9510SOL    HW240167   4.275   3.888  11.940 -1.0127 -0.2568 -1.8829
 9511SOL     OW40168   2.780   0.912   5.618  0.2630 -0.3893  0.0345
 9511SOL    HW140169   2.851   0.850   5.633 -0.3830 -1.1703 -0.1652
 9511SOL    HW240170   2.827   0.994   5.635  0.2559 -0.1840 -0.9476
 9512SOL     OW40171   3.282   2.293  13.981  0.0870 -0.7491  0.0654
 9512SOL    HW140172   3.340   2.245  13.922  0.0991  0.2346 -0.7212
 9512SOL    HW240173   3.331   2.376  13.982 -0.8662 -0.1811 -0.2593
 9513SOL     OW40174   4.694   3.391   7.966 -0.3001  0.1833 -0.3313
 9513SOL    HW140175   4.697   3.442   8.047 -0.6391 -0.1009 -0.1405
 9513SOL    HW240176   4.718   3.303   7.995 -0.5212  0.4280  0.5936
 9514SOL     OW40177   4.491   3.044   7.187 -0.3873  0.2225 -0.4336
 9514SOL    HW140178   4.480   2.951   7.203  0.3150 -0.3657 -3.5283
 9514SOL    HW240179   4.510   3.085   7.272 -0.9394  1.2998 -0.8291
 9515SOL     OW40180   4.469   4.530   3.843  0.1297 -0.4382 -0.8554
 9515SOL    HW140181   4.480   4.622   3.867  0.5667 -0.3074 -1.5613
 9515SOL    HW240182   4.425   4.540   3.759 -1.6814  0.5834  0.2075
 9516SOL     OW40183   2.397   2.093   0.750 -0.6968 -0.0901 -0.7097
 9516SOL    HW140184   2.387   2.017   0.692  1.5652 -0.2581 -0.8534
 9516SOL    HW240185   2.470   2.134   0.704  2.1670 -1.1839  2.8508
 9517SOL     OW40186   0.377   1.309   5.512  0.0588 -0.1315  0.2408
 9517SOL    HW140187   0.420   1.263   5.440  0.1171 -2.7238  1.9219
 9517SOL    HW240188   0.315   1.239   5.531  0.4080 -0.3434  0.5851
 9518SOL     OW40189   1.477   1.015   5.562  0.1401  0.1812  0.6274
 9518SOL    HW140190   1.552   1.061   5.524 -1.0196  1.3553 -0.2519
 9518SOL    HW240191   1.476   1.046   5.652 -2.9355  1.9302  0.0063
 9519SOL     OW40192   3.595   2.777   7.897  0.1147  0.6992  0.2747
 9519SOL    HW140193   3.685   2.807   7.894  0.4187 -0.1658  0.8186
 9519SOL    HW240194   3.564   2.780   7.807 -0.4612 -0.2276  0.4393
 9520SOL     OW40195   2.975   2.416   0.471 -0.2450 -0.0311  0.1046
 9520SOL    HW140196   2.992   2.426   0.565 -0.1378 -0.5349  0.1418
 9520SOL    HW240197   2.927   2.333   0.482  0.4118 -0.5583 -1.1128
 9521SOL     OW40198   4.511   4.349   7.385 -1.0045 -0.6353  0.4477
 9521SOL    HW140199   4.555   4.376   7.305  0.1607 -2.9390  0.3030
 9521SOL    HW240200   4.420   4.326   7.363 -2.0473  1.0795  2.8815
 9522SOL     OW40201   3.251   3.377  13.875 -0.3365 -0.1503  0.1547
 9522SOL    HW140202   3.268   3.433  13.799  1.2243 -1.0503 -0.1360
 9522SOL    HW240203   3.205   3.443  13.927  1.1785  0.2589  0.9824
 9523SOL     OW40204   3.475   1.147   9.003 -0.5743 -0.0766  0.0214
 9523SOL    HW140205   3.447   1.172   9.092 -0.2450  2.8362 -0.7021
 9523SOL    HW240206   3.486   1.052   9.008 -0.0397 -0.0501 -0.7370
 9524SOL     OW40207   1.017   1.415   4.337  0.6572  0.0456  0.0152
 9524SOL    HW140208   0.981   1.326   4.344  0.5101  0.0254 -1.0913
 9524SOL    HW240209   0.990   1.440   4.249 -1.9312 -2.2081  0.1554
 9525SOL     OW40210   2.649   2.174  17.228 -0.2985  0.3114  0.0518
 9525SOL    HW140211   2.708   2.247  17.246 -1.8511  1.2362  1.4200
 9525SOL    HW240212   2.565   2.216  17.247 -1.2791 -0.7446 -1.9594
 9526SOL     OW40213   3.390   0.307   4.073  0.0793 -0.1657  0.1595
 9526SOL    HW140214   3.453   0.349   4.014 -0.3331 -0.9986 -0.8692
 9526SOL    HW240215   3.446   0.264   4.137 -2.0272  0.9983  2.7915
 9527SOL     OW40216   1.338   1.606  11.324  0.1935  0.8651 -0.9304
 9527SOL    HW140217   1.375   1.607  11.413 -1.3149 -0.2598 -0.2766
 9527SOL    HW240218   1.252   1.642  11.347 -0.2151 -0.6607 -0.0259
 9528SOL     OW40219   2.560   3.072   6.035  0.5542  0.8278  0.3369
 9528SOL    HW140220   2.469   3.049   6.056  0.7554 -0.4987 -0.2095
 9528SOL    HW240221   2.575   3.141   6.100  1.2398 -0.1041  1.1686
 9529SOL     OW40222   3.122   0.146   6.867 -0.3212 -0.6339  0.3313
 9529SOL    HW140223   3.086   0.222   6.913 -0.6361 -0.1280 -0.7533
 9529SOL    HW240224   3.051   0.082   6.874  0.9399 -2.2834 -1.9015
 9530SOL     OW40225   1.383   4.698   6.889 -0.2086 -0.2720  0.2287
 9530SOL    HW140226   1.464   4.688   6.939 -0.4822  0.7108  0.8682
 9530SOL    HW240227   1.382   0.051   6.910 -1.4444 -0.7416  2.1558
 9531SOL     OW40228   0.997   2.504   2.947  0.2327  1.1570  0.1348
 9531SOL    HW140229   1.075   2.489   2.893 -0.8088 -0.4606 -0.8949
 9531SOL    HW240230   0.976   2.579   2.891  1.4737  0.4983 -1.2260
 9532SOL     OW40231   4.227   3.853   3.415  0.8070 -0.5415 -0.5661
 9532SOL    HW140232   4.224   3.929   3.357  1.4677 -0.8202 -0.9654
 9532SOL    HW240233   4.316   3.821   3.427  1.3670  1.6284  1.1258
 9533SOL     OW40234   3.978   2.187   0.010  0.0973  0.4735 -0.1009
 9533SOL    HW140235   4.041   2.182  17.699 -0.4840 -2.0497 -0.4613
 9533SOL    HW240236   4.049   2.180   0.074  0.3027 -1.7797 -0.5534
 9534SOL     OW40237   2.609   2.675   6.001  0.3317  0.7756  0.1558
 9534SOL    HW140238   2.572   2.620   5.931  2.5314 -2.2902  1.4109
 9534SOL    HW240239   2.676   2.718   5.948 -0.1099 -1.0564 -1.9040
 9535SOL     OW40240   4.260   4.131  10.217 -0.3559 -0.2030 -0.3007
 9535SOL    HW140241   4.204   4.062  10.253 -1.9107  0.5367 -1.3022
 9535SOL    HW240242   4.345   4.117  10.257  0.7927  0.5237 -2.4815
 9536SOL     OW40243   1.256   0.402   2.942 -0.1048 -0.1486 -0.4093
 9536SOL    HW140244   1.193   0.371   3.007 -0.1099  1.8123  0.5396
 9536SOL    HW240245   1.315   0.328   2.956  1.0068  0.8549  0.2627
 9537SOL     OW40246   4.422   4.180   9.733  0.1675  0.1184  0.3326
 9537SOL    HW140247   4.475   4.108   9.765 -1.2221 -0.4269  1.3755
 9537SOL    HW240248   4.343   4.141   9.696  0.2127  0.7033 -0.3962
 9538SOL     OW40249   2.921   2.832   0.754 -0.5448 -0.4256  0.4513
 9538SOL    HW140250   2.952   2.761   0.810 -0.5340  1.2163  2.5232
 9538SOL    HW240251   2.955   2.804   0.669  2.6778 -2.2221  2.3375
 9539SOL     OW40252   1.927   2.006   5.146  0.3550  0.1554 -0.2041
 9539SOL    HW140253   1.957   2.015   5.055 -0.8741 -0.3007 -0.6653
 9539SOL    HW240254   1.877   2.088   5.149 -1.0082 -0.5962 -1.9695
 9540SOL     OW40255   0.378   2.587   0.010  0.1450  0.3146 -0.1815
 9540SOL    HW140256   0.341   2.502  17.748 -0.1395  0.8185 -1.5747
 9540SOL    HW240257   0.469   2.556   0.007  0.2934  0.4402  3.0164
 9541SOL     OW40258   4.065   1.599  16.358  0.2612  0.2412 -0.0549
 9541SOL    HW140259   4.157   1.577  16.372  0.2855 -0.0512 -0.7098
 9541SOL    HW240260   4.060   1.589  16.263 -0.7907 -0.4649  0.0808
 9542SOL     OW40261   2.174   3.616   5.118 -0.1881 -0.7064  0.1899
 9542SOL    HW140262   2.217   3.631   5.034  1.7491 -0.8929  1.1413
 9542SOL    HW240263   2.082   3.616   5.092 -0.2113 -0.8940  0.2708
 9543SOL     OW40264   0.586   0.491  15.969 -0.0675  0.2856  0.0949
 9543SOL    HW140265   0.657   0.513  15.909  0.7402  0.8975  1.2629
 9543SOL    HW240266   0.602   0.398  15.980  0.5861  0.4154  0.2414
 9544SOL     OW40267   4.596   3.066   4.747 -0.0572  0.9766 -0.1238
 9544SOL    HW140268   4.654   3.130   4.788  0.9658  0.0996 -0.2007
 9544SOL    HW240269   4.633   2.986   4.785  0.8923  0.4801 -2.0750
 9545SOL     OW40270   1.528   0.613   9.442  0.0027 -0.4850 -0.5619
 9545SOL    HW140271   1.484   0.562   9.511  1.8148 -0.5866  0.5358
 9545SOL    HW240272   1.570   0.682   9.493  0.6743 -0.8415 -0.6406
 9546SOL     OW40273   0.497   0.758   2.624 -0.4502 -0.1595  0.0764
 9546SOL    HW140274   0.591   0.754   2.608 -0.2552 -2.0093  1.7062
 9546SOL    HW240275   0.501   0.841   2.671  1.8473 -0.5450  0.5570
 9547SOL     OW40276   1.289   1.712   4.071 -0.3547 -0.4435 -0.3591
 9547SOL    HW140277   1.344   1.661   4.131 -0.5358  1.4919  1.4325
 9547SOL    HW240278   1.201   1.696   4.107  0.2027  1.3813  1.8098
 9548SOL     OW40279   3.944   1.521  17.054  0.1641  0.4040  0.6836
 9548SOL    HW140280   4.001   1.595  17.033  0.3864  0.0471  0.0039
 9548SOL    HW240281   3.903   1.544  17.137 -0.0369 -2.0678  1.2878
 9549SOL     OW40282   2.575   1.047  13.294  0.1324  0.5721 -0.4792
 9549SOL    HW140283   2.616   0.965  13.266 -0.7333 -0.1646  0.4247
 9549SOL    HW240284   2.490   1.030  13.252  0.4547  0.1134 -0.9489
 9550SOL     OW40285   1.555   1.243   4.525  0.4608 -0.0620  0.1438
 9550SOL    HW140286   1.507   1.256   4.444  0.6067 -0.3255  0.0143
 9550SOL    HW240287   1.594   1.330   4.532  2.6959 -1.1022  0.7137
 9551SOL     OW40288   2.883   1.015   8.644 -0.3431  0.0880 -0.0879
 9551SOL    HW140289   2.911   1.106   8.631  2.5650 -1.0223 -1.6066
 9551SOL    HW240290   2.796   1.025   8.605 -0.9448 -1.3363  0.8897
 9552SOL     OW40291   1.673   2.044   9.203  0.2287 -0.0958  0.3445
 9552SOL    HW140292   1.599   2.099   9.178 -0.6285 -0.3633  2.2870
 9552SOL    HW240293   1.721   2.032   9.122  2.2660 -1.9412  1.8115
 9553SOL     OW40294   1.219   4.687   6.642 -0.3247  0.3730  0.1049
 9553SOL    HW140295   1.179   0.030   6.665  0.6528  0.3198  2.0119
 9553SOL    HW240296   1.278   4.675   6.716  0.2026  1.1709 -0.1789
 9554SOL     OW40297   4.390   1.206   5.162 -0.2505  0.1335  0.3326
 9554SOL    HW140298   4.340   1.272   5.114  1.8120  0.8918 -0.8024
 9554SOL    HW240299   4.442   1.170   5.089 -0.0434 -0.6998  0.8951
 9555SOL     OW40300   0.971   0.372  13.683 -0.0013  0.0012 -0.2747
 9555SOL    HW140301   0.925   0.301  13.638  1.3698 -0.2051 -1.3197
 9555SOL    HW240302   0.975   0.338  13.772  1.9388 -0.5461 -0.5733
 9556SOL     OW40303   0.620   0.420   6.956  0.3410  0.2258 -0.0771
 9556SOL    HW140304   0.696   0.387   7.003  0.4540  0.2389 -0.2501
 9556SOL    HW240305   0.660   0.444   6.872  1.5077 -0.9692  0.1388
 9557SOL     OW40306   0.792   3.008   8.413 -0.1508 -0.1916  0.1151
 9557SOL    HW140307   0.774   2.999   8.507  0.6318  1.7698  0.4486
 9557SOL    HW240308   0.861   2.947   8.384 -0.7184  0.2038 -2.0690
 9558SOL     OW40309   2.278   3.113  16.330  0.0664 -0.0804  0.0200
 9558SOL    HW140310   2.328   3.116  16.411 -2.4293  0.9719  1.5290
 9558SOL    HW240311   2.201   3.167  16.351 -0.6497 -1.5561  1.2331
 9559SOL     OW40312   0.600   2.761   2.351 -0.8252 -0.3830 -0.0396
 9559SOL    HW140313   0.606   2.697   2.280 -1.1854 -1.3073  0.7532
 9559SOL    HW240314   0.518   2.801   2.323 -0.9538 -0.9267 -0.4318
 9560SOL     OW40315   2.935   3.136   2.215 -0.7428 -0.3740 -0.6383
 9560SOL    HW140316   2.963   3.135   2.123  0.8585 -2.9810 -0.1251
 9560SOL    HW240317   2.894   3.222   2.215 -1.1231 -0.5749  1.3829
 9561SOL     OW40318   1.928   4.159   7.513 -0.0267  0.4306 -0.6420
 9561SOL    HW140319   1.944   4.238   7.565 -2.1364  0.3759  0.0690
 9561SOL    HW240320   1.861   4.112   7.563  0.9525 -0.5531 -0.2496
 9562SOL     OW40321   1.088   4.180  12.214 -0.9832 -0.1738  0.4860
 9562SOL    HW140322   1.067   4.087  12.203  1.4140 -0.6649  0.1201
 9562SOL    HW240323   1.105   4.200  12.122 -2.8914 -2.1776 -0.3168
 9563SOL     OW40324   2.268   0.595   2.615 -0.4334  0.0901 -0.3139
 9563SOL    HW140325   2.355   0.572   2.647 -1.3213 -0.4428  1.6904
 9563SOL    HW240326   2.218   0.571   2.693  3.0914 -2.1658  1.2195
 9564SOL     OW40327   2.753   3.787  16.625  0.1348 -0.0565 -0.7035
 9564SOL    HW140328   2.814   3.832  16.683 -0.1139  1.6807 -1.7649
 9564SOL    HW240329   2.742   3.847  16.550 -1.8609 -0.5911 -0.8274
 9565SOL     OW40330   3.666   3.029   0.385 -0.0512 -0.1227 -0.1981
 9565SOL    HW140331   3.689   2.948   0.338  0.4730 -0.1672  0.1356
 9565SOL    HW240332   3.747   3.077   0.399 -0.3745 -0.0560  1.4075
 9566SOL     OW40333   0.400   2.135   2.818  0.4429  0.3964 -0.1400
 9566SOL    HW140334   0.360   2.175   2.740  0.7670 -1.1633 -1.1190
 9566SOL    HW240335   0.342   2.141   2.894 -1.9833 -1.1206 -1.8512
 9567SOL     OW40336   2.824   0.904  15.727  0.0578  0.4457 -0.2599
 9567SOL    HW140337   2.831   0.900  15.632 -2.2428 -1.4618 -0.3717
 9567SOL    HW240338   2.894   0.848  15.760 -1.3815 -1.4979 -0.4418
 9568SOL     OW40339   3.174   0.733  17.252  0.0744 -0.1686  0.7467
 9568SOL    HW140340   3.234   0.806  17.266 -1.5724  1.3622 -0.0666
 9568SOL    HW240341   3.087   0.771  17.269 -0.1270 -0.7139  0.9201
 9569SOL     OW40342   3.077   1.864   2.421 -0.2925 -0.1950 -0.0487
 9569SOL    HW140343   3.085   1.949   2.464  0.4816 -1.0080  1.4205
 9569SOL    HW240344   3.061   1.894   2.332 -1.3304 -0.4886  0.0425
   4.74086   4.74086  17.76079
