Membrane in water
40344
    1TMC1    C1    1   3.812   4.229  11.601  0.2768 -0.2740  0.0790
    1TMC1    C2    2   3.931   4.243  11.536 -0.6139 -0.8366 -0.6214
    1TMC1    C3    3   3.947   4.354  11.453  0.1727  0.2122 -0.0336
    1TMC1    C4    4   3.716   4.334  11.607 -0.1715 -0.1786 -0.1780
    1TMC1    C5    5   3.739   4.436  11.526 -0.8605  0.9377 -0.4802
    1TMC1    C6    6   3.852   4.448  11.449  0.5530  0.6391  0.0241
    1TMC1     C    7   3.783   4.109  11.679  0.1549 -0.6772  0.4619
    1TMC1     O    8   3.717   4.125  11.783  0.0665  0.6471 -0.5613
    1TMC1     H    9   4.010   4.174  11.562  1.3029  1.4381 -0.3689
    1TMC1    H1   10   3.615   4.326  11.644  0.1606  3.3235  1.5181
    1TMC1    H2   11   3.855   4.532  11.380 -0.9660  0.2266 -0.5431
    1TMC1    C7   12   3.626   4.516  11.497 -0.3732  0.2102  0.1853
    1TMC1    C8   13   4.070   4.369  11.381  0.5933 -0.5511 -0.2348
    1TMC1    O1   14   3.511   4.476  11.523  0.0953  0.0750 -0.2327
    1TMC1    O2   15   4.105   4.483  11.355 -0.1024  0.3149 -0.0081
    1TMC1    O3   16   3.666   4.643  11.483 -0.3282 -0.0584 -0.2200
    1TMC1    H3   17   3.762   4.656  11.502 -0.1560 -1.0525 -0.3889
    1TMC1    O5   18   4.070   4.272  11.293 -0.4470  0.3815 -0.0452
    1TMC1    H5   19   4.055   4.184  11.334  0.4834  0.9933  1.5685
    2MPD2     C   20   3.716   3.591  11.690  0.0445  0.6740 -0.1885
    2MPD2    C1   21   3.651   3.693  11.764  0.8029 -0.5561  0.3670
    2MPD2    C2   22   3.686   3.829  11.745  0.2256 -0.3486 -0.2056
    2MPD2    C3   23   3.773   3.859  11.642 -0.2499 -0.0152 -0.0138
    2MPD2    C4   24   3.831   3.753  11.564 -0.2822 -0.0404 -0.1082
    2MPD2    C5   25   3.806   3.622  11.592  0.3829  0.1731  0.8623
    2MPD2     H   26   3.637   3.901  11.810 -0.8575  0.0602 -1.4677
    2MPD2    H1   27   3.899   3.772  11.481  0.0372  0.7248  0.3272
    2MPD2    H2   28   3.704   3.489  11.723  0.9531  0.4660 -0.5019
    2MPD2    H3   29   3.858   3.538  11.548 -0.3359 -0.5765  1.4483
    2MPD2     N   30   3.808   3.992  11.609  0.2893  0.3009 -0.0819
    2MPD2    H5   31   3.871   3.993  11.529 -3.5652 -3.5476 -3.1096
    2MPD2    N1   32   3.547   3.667  11.864  0.2461 -0.1640 -0.2852
    2MPD2    H7   33   3.518   3.752  11.911  0.8684 -0.2636  0.2697
    3TMC1    C1   34   2.691   0.433  10.038 -0.2659 -0.4217 -0.2714
    3TMC1    C2   35   2.763   0.516  10.118  0.2994 -0.1398 -0.8515
    3TMC1    C3   36   2.869   0.565  10.059  0.2384  0.3000 -0.0522
    3TMC1    C4   37   2.723   0.408   9.902 -0.1362 -0.0208 -0.0696
    3TMC1    C5   38   2.825   0.475   9.849 -0.2795  0.3498 -0.5765
    3TMC1    C6   39   2.898   0.555   9.928  0.4973  0.1919 -0.5358
    3TMC1     C   40   2.604   0.332  10.097 -0.5606 -0.6729  0.2216
    3TMC1     O   41   2.547   0.257  10.021  0.4614  0.1371 -0.5170
    3TMC1     H   42   2.737   0.546  10.219 -0.6402 -2.5799 -0.3731
    3TMC1    H1   43   2.684   0.325   9.844  2.0215  0.1317 -1.7497
    3TMC1    H2   44   2.988   0.605   9.896  0.5350  0.2907 -0.2727
    3TMC1    C7   45   2.892   0.406   9.741  0.2899 -0.8284  0.1255
    3TMC1    C8   46   2.925   0.694  10.116 -0.2524  0.3770  0.3640
    3TMC1    O1   47   2.884   0.284   9.726  1.3352 -0.1245 -0.7230
    3TMC1    O2   48   2.975   0.789  10.053 -0.1735 -0.5313 -0.0218
    3TMC1    O3   49   2.969   0.482   9.664 -0.4497 -0.5185  0.1602
    3TMC1    H3   50   2.961   0.568   9.711  1.9486 -1.0591  1.5538
    3TMC1    O5   51   2.929   0.672  10.246 -0.8709  0.3051  0.4464
    3TMC1    H5   52   2.918   0.578  10.273 -1.8430  0.3581  0.2242
    4MPD2     C   53   2.407   0.124  10.527 -0.0652 -0.0781 -0.1893
    4MPD2    C1   54   2.457   0.248  10.552 -0.4765  1.1373  0.1175
    4MPD2    C2   55   2.520   0.317  10.447  0.4046 -0.4673 -0.2769
    4MPD2    C3   56   2.527   0.268  10.319  0.1247 -0.3355  0.4034
    4MPD2    C4   57   2.477   0.139  10.303  0.6308 -0.2168  0.2038
    4MPD2    C5   58   2.413   0.070  10.402 -0.4858 -0.3379  0.2531
    4MPD2     H   59   2.557   0.417  10.466 -0.2556 -0.6253  1.8997
    4MPD2    H1   60   2.485   0.085  10.209 -0.6927 -0.4790  0.2446
    4MPD2    H2   61   2.360   0.075  10.612 -0.1184 -1.8893 -1.2737
    4MPD2    H3   62   2.378   4.706  10.386  0.9170 -0.8263  0.3225
    4MPD2     N   63   2.583   0.358  10.227 -0.0987  0.3071  0.3924
    4MPD2    H5   64   2.633   0.434  10.273 -0.1395 -0.7056  2.1334
    4MPD2    N1   65   2.436   0.294  10.681  0.6572  0.3607 -0.0008
    4MPD2    H7   66   2.369   0.247  10.741 -0.4653  0.7246 -0.9843
    5TCq1    O1   67   4.454   1.495  12.101 -0.3171  0.7695  0.3798
    5TCq1    C1   68   4.485   1.535  11.975  0.3814  0.4265  0.3049
    5TCq1    O2   69   4.561   1.465  11.906 -0.3741 -0.4860  0.2226
    5TCq1    C2   70   4.375   1.611  11.918 -0.1700  0.3922  1.0568
    5TCq1    C3   71   4.294   1.684  12.011 -0.0961  0.0901 -0.4317
    5TCq1    C4   72   4.165   1.707  11.973 -0.4017 -0.2572  0.2163
    5TCq1    C5   73   4.119   1.671  11.848  0.0670 -0.3831 -0.6982
    5TCq1    C6   74   4.200   1.601  11.764  0.9335 -0.0539  0.2564
    5TCq1    C7   75   4.333   1.571  11.797 -0.2279 -0.0187 -0.0020
    5TCq1    C8   76   4.146   1.572  11.631 -0.4797 -0.7140 -0.0386
    5TCq1    O4   77   4.228   1.547  11.546 -0.1102 -0.0998 -0.5132
    5TCq1    C9   78   4.073   1.778  12.067  0.7250  0.4042  0.9217
    5TCq1    O5   79   4.104   1.771  12.191  0.2089  0.5872 -0.4275
    5TCq1    O6   80   3.971   1.840  12.016  0.4120  0.1164 -0.1671
    5TCq1    H1   81   4.369   1.537  12.128 -0.4979  0.1301  0.7987
    5TCq1    H2   82   4.331   1.712  12.109  0.1939  0.9896 -0.7965
    5TCq1    H3   83   4.014   1.691  11.829  0.8751  3.0941 -1.4598
    5TCq1    H4   84   4.381   1.502  11.728 -0.0070 -0.2346  0.3682
    6MPD2     C   85   3.820   1.654  11.491 -0.0154 -0.1084  0.5339
    6MPD2    C1   86   3.949   1.618  11.490  0.0356  0.0441  0.3454
    6MPD2    C2   87   4.003   1.592  11.366 -0.0981  0.0088  0.8872
    6MPD2    C3   88   3.931   1.601  11.249  0.4807 -0.4152 -0.7008
    6MPD2    C4   89   3.794   1.637  11.257 -0.2706 -0.3898  0.3141
    6MPD2    C5   90   3.744   1.678  11.378  0.3670  0.3328 -0.2312
    6MPD2     H   91   4.103   1.553  11.356  0.4657  1.4888  0.7730
    6MPD2    H1   92   3.728   1.636  11.171 -0.2817  3.6016  0.2637
    6MPD2    H2   93   3.759   1.658  11.581 -0.2687 -1.5852  0.4337
    6MPD2    H3   94   3.640   1.709  11.387  0.7183  1.3949  0.1178
    6MPD2     N   95   3.997   1.561  11.131 -0.4124  0.6361  0.8920
    6MPD2    H5   96   4.091   1.529  11.153 -1.2691 -0.8019  2.4202
    6MPD2    N1   97   4.015   1.609  11.613 -0.5349  0.4425  0.0946
    6MPD2    H7   98   3.962   1.639  11.694  0.1789 -0.6930  0.9717
    7TCq1    O1   99   1.293   1.977  13.217 -0.1432 -0.6924  0.2850
    7TCq1    C1  100   1.328   1.861  13.274 -0.7495 -0.5852 -0.1310
    7TCq1    O2  101   1.430   1.841  13.338  0.3016  0.1874  0.4075
    7TCq1    C2  102   1.227   1.761  13.258 -0.4745  0.0966 -0.1862
    7TCq1    C3  103   1.138   1.759  13.156 -0.1359  0.6297 -0.4664
    7TCq1    C4  104   1.068   1.646  13.127 -0.4779  0.0881  0.2398
    7TCq1    C5  105   1.105   1.527  13.184  0.0133 -0.8310 -0.3108
    7TCq1    C6  106   1.193   1.533  13.285  0.2718  0.0289 -0.8632
    7TCq1    C7  107   1.260   1.644  13.317  0.2630 -0.4747 -0.0160
    7TCq1    C8  108   1.221   1.398  13.343  0.6072  0.4517 -0.5366
    7TCq1    O4  109   1.131   1.318  13.336  0.0416 -0.2073 -0.6459
    7TCq1    C9  110   0.959   1.652  13.035 -0.4803  0.2404 -0.0049
    7TCq1    O5  111   0.907   1.767  13.015  0.6831 -0.4044  0.2582
    7TCq1    O6  112   0.939   1.547  12.969  0.1915 -0.2368  0.2933
    7TCq1    H1  113   1.202   1.990  13.182 -0.5562 -0.5556  1.3947
    7TCq1    H2  114   1.117   1.846  13.096  0.4321  1.4811  0.5745
    7TCq1    H3  115   1.063   1.435  13.144 -0.4206 -0.4494 -0.7310
    7TCq1    H4  116   1.340   1.651  13.390 -0.3558 -0.9516  0.7091
    8MPD2     C  117   1.500   1.067  13.622  0.2636  0.3157 -0.7590
    8MPD2    C1  118   1.386   1.051  13.551  0.0905  0.7888  0.5486
    8MPD2    C2  119   1.327   1.154  13.480  0.4131  0.4733  0.1639
    8MPD2    C3  120   1.395   1.275  13.477  0.2624 -0.4172 -0.3836
    8MPD2    C4  121   1.519   1.283  13.532 -0.6569  0.1861  0.1895
    8MPD2    C5  122   1.565   1.180  13.612  0.0008  0.4271 -0.3714
    8MPD2     H  123   1.233   1.134  13.430  1.1466 -1.0131 -0.6026
    8MPD2    H1  124   1.584   1.369  13.530  1.0204 -1.1599 -1.9754
    8MPD2    H2  125   1.549   0.988  13.678 -0.8721 -0.0527 -0.2819
    8MPD2    H3  126   1.667   1.186  13.649  0.1990  1.4270 -1.0534
    8MPD2     N  127   1.344   1.392  13.414  0.0328 -0.6553 -0.1445
    8MPD2    H5  128   1.403   1.473  13.404  0.4338 -1.0861 -1.2564
    8MPD2    N1  129   1.321   0.926  13.575 -0.4146 -0.3197 -0.0897
    8MPD2    H7  130   1.364   0.868  13.646 -2.2128 -1.6130 -0.0723
    9TMC1    C1  131   3.292   0.590  11.028  0.9244  0.3269 -0.0047
    9TMC1    C2  132   3.392   0.498  10.993  0.3659 -0.2486 -0.3503
    9TMC1    C3  133   3.482   0.541  10.899 -0.3844  0.5717 -0.4381
    9TMC1    C4  134   3.283   0.719  10.983 -0.2618  0.4881  0.7281
    9TMC1    C5  135   3.385   0.758  10.902  0.1132  0.3886 -0.2521
    9TMC1    C6  136   3.486   0.674  10.858 -0.1226 -0.1475  0.0409
    9TMC1     C  137   3.214   0.558  11.146  0.4904  0.1198 -0.4477
    9TMC1     O  138   3.129   0.642  11.168  0.0353 -0.0906  0.5117
    9TMC1     H  139   3.390   0.395  11.024  1.0293 -0.3007 -0.4760
    9TMC1    H1  140   3.209   0.795  11.003 -0.0796  0.6512  0.7866
    9TMC1    H2  141   3.547   0.721  10.781  0.0506 -0.0366  0.2451
    9TMC1    C7  142   3.397   0.899  10.869  0.3890  0.1538  0.0940
    9TMC1    C8  143   3.588   0.456  10.861 -0.0080 -0.0317 -0.2224
    9TMC1    O1  144   3.302   0.973  10.874 -0.2201 -0.6705 -0.5589
    9TMC1    O2  145   3.572   0.336  10.863  0.0759  0.2301  0.3663
    9TMC1    O3  146   3.519   0.940  10.908  0.3017 -0.1452  0.6059
    9TMC1    H3  147   3.583   0.871  10.937 -0.2916 -0.5039  1.0590
    9TMC1    O5  148   3.706   0.524  10.853 -0.1474  0.5932  0.5896
    9TMC1    H5  149   3.708   0.612  10.896 -0.6737  0.2629  1.2990
   10MPD2     C  150   3.056   0.434  11.355 -1.3541 -0.3770 -0.1715
   10MPD2    C1  151   3.189   0.407  11.338 -0.1719 -0.3151 -0.4978
   10MPD2    C2  152   3.255   0.319  11.426 -0.7062  0.3657  0.7247
   10MPD2    C3  153   3.186   0.248  11.523 -0.3669  0.4978 -0.4239
   10MPD2    C4  154   3.057   0.285  11.540 -0.0780 -0.4501  0.5430
   10MPD2    C5  155   2.987   0.365  11.452 -0.5200  0.2711  0.6989
   10MPD2     H  156   3.362   0.311  11.413 -0.7155 -0.1593  0.9627
   10MPD2    H1  157   2.993   0.245  11.618  0.7631 -0.3645  1.2727
   10MPD2    H2  158   2.999   0.498  11.289  1.5758  2.0547 -0.3368
   10MPD2    H3  159   2.879   0.374  11.458 -0.5377 -0.4372  1.5616
   10MPD2     N  160   3.252   0.163  11.618 -0.0403  0.1213  0.2987
   10MPD2    H5  161   3.194   0.124  11.691 -1.2404  1.2126 -0.0686
   10MPD2    N1  162   3.263   0.460  11.228 -0.0979 -0.1062  0.3490
   10MPD2    H7  163   3.356   0.424  11.208  0.2609  0.8865  0.2400
   11TCq1    O1  164   4.573   0.069  13.753 -0.5243  0.4118  0.1951
   11TCq1    C1  165   4.574   0.078  13.620  0.5087 -0.4857  0.5599
   11TCq1    O2  166   4.487   0.132  13.554 -0.3176 -0.3004  0.2778
   11TCq1    C2  167   4.596   4.683  13.591  0.1989 -0.0299  0.3429
   11TCq1    C3  168   4.707   4.628  13.642  0.0282  0.3262 -0.4100
   11TCq1    C4  169   4.705   4.493  13.662  0.7312  0.2338 -0.3764
   11TCq1    C5  170   4.598   4.420  13.630 -0.0490 -0.6569  0.1257
   11TCq1    C6  171   4.491   4.477  13.574  0.7332 -0.9802  0.2774
   11TCq1    C7  172   4.482   4.613  13.553  0.4330 -0.6210 -0.5182
   11TCq1    C8  173   4.368   4.401  13.562  0.5185  0.3343  0.3179
   11TCq1    O4  174   4.263   4.464  13.591 -0.6800 -0.0586  0.3334
   11TCq1    C9  175   0.085   4.434  13.717 -0.9888  0.1017  0.2489
   11TCq1    O5  176   0.088   4.315  13.759 -0.1562 -0.2126  0.0009
   11TCq1    O6  177   0.187   4.501  13.706 -0.3281 -0.0571  0.3692
   11TCq1    H1  178   4.654   0.027  13.790  0.5567  2.9823  0.6816
   11TCq1    H2  179   0.049   4.693  13.677 -0.4975  0.6906  0.0924
   11TCq1    H3  180   4.595   4.314  13.652  2.3178 -0.9797 -1.0587
   11TCq1    H4  181   4.388   4.652  13.516  0.7614  0.7886  0.1331
   12MPD2     C  182   4.147   4.211  13.492  0.7666 -0.2093 -0.2069
   12MPD2    C1  183   4.282   4.179  13.493  0.0791  0.0324  0.2264
   12MPD2    C2  184   4.312   4.042  13.469  0.2161  0.5776 -0.1075
   12MPD2    C3  185   4.215   3.942  13.465 -0.1153  0.3361  0.2319
   12MPD2    C4  186   4.085   3.980  13.469  0.2563 -0.0445 -0.2175
   12MPD2    C5  187   4.050   4.113  13.478 -0.2738 -0.2012  0.3768
   12MPD2     H  188   4.418   4.019  13.459 -0.0461 -0.7039  0.0609
   12MPD2    H1  189   4.011   3.901  13.471  2.1370 -1.8050 -0.0382
   12MPD2    H2  190   4.116   4.315  13.492  0.9280 -0.1586  0.5575
   12MPD2    H3  191   3.945   4.139  13.488 -0.1658  0.7809 -1.0913
   12MPD2     N  192   4.241   3.806  13.450 -0.4286 -0.3029 -0.1647
   12MPD2    H5  193   4.162   3.746  13.429 -0.2284 -1.1596  1.4745
   12MPD2    N1  194   4.386   4.274  13.522  0.8211  0.3231  0.8248
   12MPD2    H7  195   4.479   4.237  13.509 -0.4847 -2.5593 -0.2351
   13TCq1    O1  196   4.147   0.406  11.635 -0.1375 -0.3812  0.0856
   13TCq1    C1  197   4.187   0.382  11.513 -0.6109 -0.7196 -0.5511
   13TCq1    O2  198   4.274   0.300  11.479  0.2866 -0.5855  0.2311
   13TCq1    C2  199   4.073   0.424  11.429  0.1836 -0.7677  0.2531
   13TCq1    C3  200   4.006   0.546  11.439 -0.0943  0.2972  0.1965
   13TCq1    C4  201   3.913   0.576  11.344  0.0305  0.1089 -0.5104
   13TCq1    C5  202   3.876   0.489  11.248  0.1071  0.4067  0.3378
   13TCq1    C6  203   3.939   0.371  11.242  0.0809 -0.7672 -0.3525
   13TCq1    C7  204   4.048   0.341  11.324 -0.0196  0.0641  0.2551
   13TCq1    C8  205   3.854   0.258  11.196 -0.3836 -0.0661 -0.7171
   13TCq1    O4  206   3.729   0.270  11.197  0.2853  0.1054 -0.0435
   13TCq1    C9  207   3.855   0.711  11.341  0.4019 -0.0816 -0.3211
   13TCq1    O5  208   3.741   0.727  11.291 -0.0678  0.0531 -0.5852
   13TCq1    O6  209   3.931   0.810  11.367  0.1962 -0.4476  0.5474
   13TCq1    H1  210   4.061   0.453  11.642  1.6831  3.0301 -0.3161
   13TCq1    H2  211   4.033   0.613  11.520  1.5031 -0.1010 -0.0197
   13TCq1    H3  212   3.791   0.506  11.183 -0.8285  0.7898  1.6503
   13TCq1    H4  213   4.093   0.244  11.312 -0.4244 -0.1100  0.1447
   14MPD2     C  214   3.963   4.650  11.108 -0.5872 -0.1506  0.1924
   14MPD2    C1  215   3.869   0.017  11.131 -0.4423 -0.2522  0.5832
   14MPD2    C2  216   3.731   4.721  11.132  0.7849  0.1377  0.1397
   14MPD2    C3  217   3.690   4.598  11.095  0.6839 -0.0437 -1.0851
   14MPD2    C4  218   3.776   4.511  11.053  0.3100 -0.0905 -0.7550
   14MPD2    C5  219   3.916   4.535  11.060 -0.3800  0.0609 -0.1655
   14MPD2     H  220   3.660   0.059  11.164  1.4643  0.1451  1.6082
   14MPD2    H1  221   3.753   4.417  11.005  0.3774 -0.4489 -0.0851
   14MPD2    H2  222   4.065   4.682  11.089 -0.2476 -1.1239  0.4278
   14MPD2    H3  223   3.996   4.473  11.020 -1.4984 -1.1348 -0.5734
   14MPD2     N  224   3.554   4.567  11.094 -0.0702 -0.0152  0.8950
   14MPD2    H5  225   3.496   4.647  11.114 -0.0547  0.1971  0.0664
   14MPD2    N1  226   3.922   0.146  11.163 -0.2647 -0.4324  0.6691
   14MPD2    H7  227   4.022   0.158  11.164 -0.2163 -0.8726  0.9750
   15TCq1    O1  228   2.115   4.427   1.262  0.2084  0.0792  0.3491
   15TCq1    C1  229   1.988   4.387   1.232  0.1244  0.1101 -0.1726
   15TCq1    O2  230   1.925   4.425   1.133  0.2865  0.1088  0.1945
   15TCq1    C2  231   1.952   4.273   1.313  0.1636  0.0172  0.0261
   15TCq1    C3  232   2.031   4.226   1.413 -0.2717 -0.4198 -0.0716
   15TCq1    C4  233   1.983   4.125   1.492 -0.6361  0.2956 -0.2294
   15TCq1    C5  234   1.857   4.066   1.471 -0.0691  0.8625  0.3798
   15TCq1    C6  235   1.785   4.120   1.367  0.2017 -0.6064 -0.5909
   15TCq1    C7  236   1.831   4.218   1.285 -0.2723 -0.6530 -0.0250
   15TCq1    C8  237   1.669   4.045   1.328  0.0633 -0.9430 -0.2939
   15TCq1    O4  238   1.670   3.937   1.384  0.2478 -0.4122  0.4332
   15TCq1    C9  239   2.073   4.073   1.592 -0.0296 -0.8204  0.2347
   15TCq1    O5  240   2.027   3.987   1.672 -0.1537 -0.1015  0.5657
   15TCq1    O6  241   2.192   4.081   1.555  0.1047 -0.2142  0.0732
   15TCq1    H1  242   2.147   4.402   1.351  4.9452 -1.0591 -1.7322
   15TCq1    H2  243   2.131   4.263   1.434 -0.5232  0.2787 -0.1076
   15TCq1    H3  244   1.826   3.985   1.536  1.6827  2.3548  3.1210
   15TCq1    H4  245   1.768   4.267   1.212  0.1786 -1.1935 -0.7781
   16MPD2     C  246   1.396   4.060   1.074  0.6174 -0.6463 -0.1717
   16MPD2    C1  247   1.496   4.004   1.151 -0.4593 -0.3590 -0.2169
   16MPD2    C2  248   1.518   3.864   1.158  0.7267  0.0068 -0.2958
   16MPD2    C3  249   1.437   3.783   1.085 -0.1542  1.2569  0.2357
   16MPD2    C4  250   1.333   3.844   1.019 -0.5884 -0.5851  0.5230
   16MPD2    C5  251   1.316   3.974   1.007 -0.3514 -0.1718 -0.0244
   16MPD2     H  252   1.602   3.821   1.211  0.4818 -0.3857 -0.2251
   16MPD2    H1  253   1.269   3.782   0.956 -2.5735  0.4256  1.5340
   16MPD2    H2  254   1.375   4.165   1.056 -4.1564 -1.6597 -0.5897
   16MPD2    H3  255   1.236   4.017   0.947 -1.2665  0.3171  1.5202
   16MPD2     N  256   1.452   3.639   1.071  0.1230 -0.0386 -0.0618
   16MPD2    H5  257   1.542   3.605   1.104  0.6376 -0.3155 -1.7466
   16MPD2    N1  258   1.584   4.093   1.226 -0.5342 -0.0321 -0.5831
   16MPD2    H7  259   1.600   4.189   1.198 -0.3416  0.5658  1.5231
   17TMC1    C1  260   3.493   3.773  11.393  0.4790 -0.5328  0.4683
   17TMC1    C2  261   3.419   3.766  11.512 -0.0544 -0.1866 -0.2455
   17TMC1    C3  262   3.407   3.879  11.586  0.2399 -0.3172 -0.6832
   17TMC1    C4  263   3.539   3.889  11.340 -0.0311  0.3666 -0.7137
   17TMC1    C5  264   3.512   3.999  11.416 -0.1525  0.0507  0.2774
   17TMC1    C6  265   3.449   3.999  11.541  0.0331  0.1763 -0.1424
   17TMC1     C  266   3.483   3.651  11.310 -0.1159  0.8932  0.3342
   17TMC1     O  267   3.393   3.573  11.337  0.5144  0.4512  0.6841
   17TMC1     H  268   3.377   3.675  11.553  1.6352 -1.0353 -0.4319
   17TMC1    H1  269   3.588   3.903  11.244 -0.5346  0.2006 -0.9976
   17TMC1    H2  270   3.451   4.085  11.607  1.1666  0.4079 -0.4862
   17TMC1    C7  271   3.551   4.125  11.361  0.0939 -0.3794  0.0813
   17TMC1    C8  272   3.342   3.877  11.709 -0.0552  0.7825 -0.0819
   17TMC1    O1  273   3.640   4.143  11.277  0.4913  0.0397  0.3148
   17TMC1    O2  274   3.369   3.954  11.802 -0.0817 -0.1354 -0.0203
   17TMC1    O3  275   3.444   4.209  11.380 -0.0719 -0.4453 -0.5181
   17TMC1    H3  276   3.370   4.168  11.431  0.4568 -0.1023  0.5331
   17TMC1    O5  277   3.235   3.797  11.694  0.3959  0.2491  0.5105
   17TMC1    H5  278   3.217   3.779  11.599  0.2706 -0.4244  0.6637
   18MPD2     C  279   3.480   3.451  11.091 -0.5584  0.1733 -0.0804
   18MPD2    C1  280   3.572   3.557  11.095  0.4249 -0.0139  0.2485
   18MPD2    C2  281   3.666   3.566  10.994 -0.3727  0.0887 -0.2912
   18MPD2    C3  282   3.684   3.471  10.896  0.1592  1.1314 -0.5362
   18MPD2    C4  283   3.593   3.365  10.904 -0.2700  0.1737  0.3892
   18MPD2    C5  284   3.500   3.357  11.003 -0.4177  0.1532  0.5665
   18MPD2     H  285   3.721   3.660  10.994  1.2501 -0.8634  0.6369
   18MPD2    H1  286   3.597   3.281  10.837 -0.6076 -0.8110  1.6111
   18MPD2    H2  287   3.406   3.428  11.167 -0.9827  1.2199 -0.1797
   18MPD2    H3  288   3.435   3.272  10.990  0.7429 -0.8455  1.3013
   18MPD2     N  289   3.765   3.474  10.779 -0.2883 -0.1268  0.0898
   18MPD2    H5  290   3.767   3.396  10.715  0.4662 -1.1382  1.3665
   18MPD2    N1  291   3.575   3.653  11.203  0.4322  0.1369 -0.7481
   18MPD2    H7  292   3.643   3.727  11.192 -1.9430  2.4940  0.4150
   19TMC2    C1  293   0.741   4.581  13.827 -0.7465  0.6246  0.1978
   19TMC2    C2  294   0.651   4.676  13.784  0.6729  0.0870 -0.6362
   19TMC2    C3  295   0.521   4.630  13.778 -1.2789  0.1882  0.4559
   19TMC2    C4  296   0.712   4.446  13.858  0.6584  0.7624  0.5030
   19TMC2    C5  297   0.582   4.410  13.845 -0.5717 -0.0219  0.2205
   19TMC2    C6  298   0.486   4.501  13.808  0.0998  0.2648  0.1158
   19TMC2     C  299   0.881   4.614  13.794 -0.3555  0.3587 -0.2065
   19TMC2     O  300   0.899   4.679  13.694 -0.3866  0.4856  0.2933
   19TMC2     H  301   0.685   0.039  13.757 -0.9907  0.7867 -0.1420
   19TMC2    H1  302   0.789   4.370  13.861  0.6123  0.6614 -0.8653
   19TMC2    H2  303   0.383   4.472  13.793  0.1065 -0.5758  1.6058
   19TMC2    C7  304   0.542   4.271  13.870  0.0468 -0.1899 -0.1849
   19TMC2    C8  305   0.430   0.003  13.768  0.6998  0.0808 -0.3694
   19TMC2    O1  306   0.621   4.202  13.941 -0.4852 -0.4337 -0.1732
   19TMC2    O2  307   0.469   0.115  13.756  0.3044 -0.3270  0.0561
   19TMC2    O5  308   0.312   4.700  13.812  0.3293 -0.3967  0.2912
   19TMC2    H5  309   0.297   4.613  13.769  3.0899 -0.0690 -1.3784
   20MPD2     C  310   1.182   4.651  13.792 -0.1754 -0.5579  0.1604
   20MPD2    C1  311   1.110   4.588  13.889 -0.2690 -0.6127 -0.3593
   20MPD2    C2  312   1.165   4.537  13.998 -0.2553 -0.1848 -0.2186
   20MPD2    C3  313   1.302   4.534  14.021 -0.1207 -0.2307 -0.1244
   20MPD2    C4  314   1.378   4.602  13.925  0.3677  0.0285 -0.1026
   20MPD2    C5  315   1.319   4.659  13.819 -0.3915 -0.6831  0.1186
   20MPD2     H  316   1.107   4.496  14.080 -1.2366  1.0075 -0.3307
   20MPD2    H1  317   1.484   4.610  13.947  0.4366  1.6605 -1.0160
   20MPD2    H2  318   1.142   4.703  13.705  1.9742  1.3508  0.3216
   20MPD2    H3  319   1.383   4.712  13.750 -0.0058  0.8475  1.6560
   20MPD2     N  320   1.364   4.454  14.122  0.2754  0.0233  0.4957
   20MPD2    H5  321   1.465   4.450  14.132  0.1684  0.3535  1.6965
   20MPD2    N1  322   0.973   4.569  13.882 -0.4575  0.1460  0.1749
   20MPD2    H7  323   0.938   4.526  13.967  1.3453 -0.1183  0.7815
   21TMC2    C1  324   2.757   0.249  14.664  0.2228  0.0069 -0.1852
   21TMC2    C2  325   2.837   0.156  14.723  0.8712  0.2749  0.5199
   21TMC2    C3  326   2.876   0.177  14.849 -0.0692 -0.4601 -0.3407
   21TMC2    C4  327   2.706   0.359  14.733 -0.0936  0.4212  0.7515
   21TMC2    C5  328   2.726   0.357  14.868 -0.5516 -0.1989 -0.2009
   21TMC2    C6  329   2.817   0.269  14.923 -0.6654 -0.0848  0.1563
   21TMC2     C  330   2.761   0.248  14.518  0.8037 -0.0594 -0.2757
   21TMC2     O  331   2.861   0.205  14.468 -0.1482  0.2720 -0.6468
   21TMC2     H  332   2.862   0.062  14.676  0.0922  0.5088 -0.3426
   21TMC2    H1  333   2.652   0.441  14.686 -2.6002 -2.3654 -1.2613
   21TMC2    H2  334   2.819   0.262  15.031 -1.0914 -0.3776  0.1449
   21TMC2    C7  335   2.690   0.475  14.943 -0.0531  0.2085 -0.1466
   21TMC2    C8  336   2.969   0.086  14.907 -0.0254  0.4914  0.5743
   21TMC2    O1  337   2.771   0.511  15.029 -0.0488 -0.1076  0.8081
   21TMC2    O2  338   3.018   4.719  14.861  0.6502  0.0636 -0.7443
   21TMC2    O5  339   3.003   0.136  15.024  0.2878 -0.8311  0.1146
   21TMC2    H5  340   2.992   0.233  15.032  2.0737 -0.4036 -2.6632
   22MPD2     C  341   2.729   0.565  14.124 -0.0064  0.6300 -0.5858
   22MPD2    C1  342   2.834   0.523  14.205 -0.9605 -0.9724  0.2227
   22MPD2    C2  343   2.817   0.440  14.312 -0.4710  0.2321 -0.6333
   22MPD2    C3  344   2.689   0.409  14.351 -0.9900 -0.0648 -0.5372
   22MPD2    C4  345   2.583   0.454  14.276  0.7509  0.2011 -0.4342
   22MPD2    C5  346   2.600   0.529  14.162  0.5540  0.3901  0.0402
   22MPD2     H  347   2.902   0.405  14.370 -0.4720 -0.9366 -1.3211
   22MPD2    H1  348   2.482   0.429  14.306  0.2225 -0.2836 -2.6220
   22MPD2    H2  349   2.733   0.633  14.039  2.6553 -0.4176 -1.2884
   22MPD2    H3  350   2.516   0.569  14.106  1.2730 -1.4097 -2.2845
   22MPD2     N  351   2.671   0.332  14.465 -0.0211 -0.1595  0.9767
   22MPD2    H5  352   2.579   0.329  14.506  0.0945  0.2833  1.2623
   22MPD2    N1  353   2.963   0.571  14.191  0.5270 -0.6929  0.0063
   22MPD2    H7  354   3.026   0.544  14.266 -0.6559 -1.4734  0.7238
   23TMC2    C1  355   3.727   1.597  14.805  0.0717 -0.6755 -0.3937
   23TMC2    C2  356   3.663   1.717  14.788  0.5574  0.1942  0.3801
   23TMC2    C3  357   3.580   1.737  14.685  1.0499  0.2360  1.1482
   23TMC2    C4  358   3.704   1.488  14.726  0.4886 -0.4892  0.3468
   23TMC2    C5  359   3.601   1.514  14.633 -0.9614 -0.2109  0.4190
   23TMC2    C6  360   3.542   1.634  14.600 -0.5432 -0.7628 -0.3955
   23TMC2     C  361   3.805   1.564  14.923 -0.3263  0.1239 -0.4197
   23TMC2     O  362   3.890   1.476  14.916 -0.4536 -0.0815  0.4604
   23TMC2     H  363   3.706   1.800  14.843  0.4010  1.3544 -1.2412
   23TMC2    H1  364   3.739   1.389  14.749 -0.1755 -0.7864  0.0849
   23TMC2    H2  365   3.464   1.648  14.526  0.5407  2.1421 -0.9723
   23TMC2    C7  366   3.572   1.403  14.541  0.0069  0.5309 -0.3937
   23TMC2    C8  367   3.537   1.864  14.637  0.4766 -0.0276 -0.8335
   23TMC2    O1  368   3.655   1.322  14.505  0.0148 -0.1332 -0.6633
   23TMC2    O2  369   3.477   1.878  14.534 -0.1215 -0.3948  0.6183
   23TMC2    O5  370   3.510   1.945  14.746 -0.0117  0.4832 -0.1606
   23TMC2    H5  371   3.564   1.933  14.827 -1.0960  1.3184  0.6788
   24MPD2     C  372   3.919   1.690  15.414 -0.5217  0.0371 -0.1688
   24MPD2    C1  373   3.975   1.602  15.330  0.1190 -0.8124  0.3831
   24MPD2    C2  374   3.929   1.595  15.199 -0.2957  0.4099 -0.0429
   24MPD2    C3  375   3.824   1.665  15.153  1.0032 -1.1341  0.8373
   24MPD2    C4  376   3.761   1.747  15.242 -0.5710 -0.2580  0.7780
   24MPD2    C5  377   3.810   1.759  15.372 -0.8263 -0.1013 -0.2508
   24MPD2     H  378   3.975   1.535  15.121  0.0685  0.0481  0.4532
   24MPD2    H1  379   3.682   1.816  15.214 -0.7633  0.3067  2.7250
   24MPD2    H2  380   3.959   1.717  15.511  0.0290  0.1242 -0.4192
   24MPD2    H3  381   3.760   1.826  15.441 -0.1793 -1.3778  1.4506
   24MPD2     N  382   3.766   1.644  15.031  0.7791 -0.1961 -0.5783
   24MPD2    H5  383   3.675   1.684  15.011  1.1092  0.7914 -0.1334
   24MPD2    N1  384   4.081   1.516  15.369 -0.4803 -0.0054  0.7855
   24MPD2    H7  385   4.134   1.463  15.300 -0.3949 -1.7612  2.1973
   25TMC2    C1  386   3.450   3.120  11.555 -0.3054 -0.7080 -1.1168
   25TMC2    C2  387   3.574   3.134  11.602  0.2087  0.1481 -0.2484
   25TMC2    C3  388   3.596   3.148  11.735 -0.2636 -0.2098 -0.1027
   25TMC2    C4  389   3.340   3.133  11.638  0.5345  0.4572  0.8504
   25TMC2    C5  390   3.365   3.167  11.766  0.9629 -0.0407 -0.5205
   25TMC2    C6  391   3.492   3.168  11.821 -0.4413 -0.2417 -0.0932
   25TMC2     C  392   3.431   3.034  11.440  0.1781 -0.0684  0.2713
   25TMC2     O  393   3.518   3.033  11.356  0.7287 -0.5273  0.1549
   25TMC2     H  394   3.656   3.106  11.537 -3.3525 -3.1249 -3.3622
   25TMC2    H1  395   3.237   3.127  11.604  1.0850  0.1585 -0.7374
   25TMC2    H2  396   3.500   3.178  11.929 -0.1836 -1.1303 -0.0310
   25TMC2    C7  397   3.262   3.226  11.838 -0.2357  0.5974  0.2518
   25TMC2    C8  398   3.730   3.171  11.775  0.3508 -0.4786 -0.3412
   25TMC2    O1  399   3.256   3.195  11.957  0.3434  0.2295  0.4603
   25TMC2    O2  400   3.832   3.107  11.742  0.6323 -0.3545 -0.1004
   25TMC2    O5  401   3.729   3.251  11.884  0.3666 -0.7634 -0.2909
   25TMC2    H5  402   3.655   3.316  11.883 -0.7249 -2.0280 -1.9067
   26MPD2     C  403   3.182   2.683  11.166  0.1140 -0.0473  0.6896
   26MPD2    C1  404   3.131   2.691  11.290 -0.2485 -0.8722 -0.4234
   26MPD2    C2  405   3.182   2.786  11.377 -0.2883  0.3414 -0.0023
   26MPD2    C3  406   3.283   2.874  11.339 -0.3540  0.1158 -0.6237
   26MPD2    C4  407   3.327   2.875  11.213 -0.6144  0.1428 -0.4515
   26MPD2    C5  408   3.279   2.771  11.130  0.2072  0.2979  0.7872
   26MPD2     H  409   3.138   2.787  11.476 -1.2605  0.4209 -0.4404
   26MPD2    H1  410   3.401   2.943  11.172 -0.2083  0.3556  0.6194
   26MPD2    H2  411   3.148   2.608  11.096  1.7140 -1.3394  1.3176
   26MPD2    H3  412   3.319   2.755  11.030 -1.0379 -0.0228  0.3501
   26MPD2     N  413   3.322   2.961  11.445 -0.2149  0.3192  0.1529
   26MPD2    H5  414   3.286   2.951  11.539  1.4354 -0.2036  0.7218
   26MPD2    N1  415   3.031   2.600  11.342  0.7626  0.1303 -0.2955
   26MPD2    H7  416   3.013   2.607  11.441 -1.0404 -1.7636 -0.4838
   27TMC2    C1  417   1.869   0.225  12.000 -0.3718  0.1609  0.9940
   27TMC2    C2  418   1.943   0.205  11.886 -0.4296  0.7747  0.5230
   27TMC2    C3  419   2.074   0.175  11.916  0.5203  0.3776  0.2007
   27TMC2    C4  420   1.917   0.223  12.126  0.5186  0.0962 -1.4805
   27TMC2    C5  421   2.050   0.186  12.143 -1.0385  0.0084 -0.4936
   27TMC2    C6  422   2.129   0.163  12.040  0.1019  0.2898  0.0125
   27TMC2     C  423   1.735   0.272  11.989  0.1848  0.2746 -0.1327
   27TMC2     O  424   1.703   0.305  11.873 -0.3884  0.7130  0.4790
   27TMC2     H  425   1.913   0.221  11.783 -2.9082 -0.9343  0.9745
   27TMC2    H1  426   1.862   0.258  12.212  2.3043 -1.2809  0.2072
   27TMC2    H2  427   2.237   0.165  12.047  0.0689 -0.3316  0.6110
   27TMC2    C7  428   2.113   0.188  12.273 -0.6049 -0.6723  0.1353
   27TMC2    C8  429   2.172   0.153  11.803  0.3247 -0.7584 -0.0403
   27TMC2    O1  430   2.234   0.194  12.267 -0.0931 -0.1581 -0.0366
   27TMC2    O2  431   2.243   0.056  11.795  0.1194 -0.3643 -0.4586
   27TMC2    O5  432   2.207   0.279  11.757 -0.8773  0.1572  0.4012
   27TMC2    H5  433   2.156   0.354  11.793  2.1318  2.1039  0.6075
   28MPD2     C  434   1.310   0.478  12.191 -0.1225 -0.3319 -0.3376
   28MPD2    C1  435   1.349   0.377  12.276 -0.0528 -0.3964 -0.0834
   28MPD2    C2  436   1.448   0.286  12.237  0.3713 -0.0332 -0.5477
   28MPD2    C3  437   1.529   0.321  12.127 -0.2605  0.3558  0.2751
   28MPD2    C4  438   1.488   0.423  12.047 -0.2514 -0.5877 -0.2170
   28MPD2    C5  439   1.378   0.499  12.068 -0.0933  0.3752 -0.2160
   28MPD2     H  440   1.486   0.206  12.299  1.2240 -0.2226 -1.3201
   28MPD2    H1  441   1.529   0.436  11.947 -1.0379 -0.4348 -0.5193
   28MPD2    H2  442   1.224   0.538  12.217  1.0698  1.8397 -1.3958
   28MPD2    H3  443   1.347   0.586  12.011 -0.5587  1.7814  2.1679
   28MPD2     N  444   1.646   0.251  12.102 -0.6365  0.0471  0.4669
   28MPD2    H5  445   1.681   0.180  12.165 -1.4384 -1.5310 -0.8531
   28MPD2    N1  446   1.274   0.367  12.396  0.4122  0.3076 -0.4829
   28MPD2    H7  447   1.203   0.435  12.419  0.1965  0.4244 -1.4846
   29TMC2    C1  448   1.470   3.333  14.344  0.9685 -0.2010 -0.0303
   29TMC2    C2  449   1.396   3.389  14.445 -0.0646 -0.9625 -0.8187
   29TMC2    C3  450   1.448   3.503  14.503 -0.1385  0.2267  0.2854
   29TMC2    C4  451   1.597   3.377  14.308  0.3025 -0.7588 -1.0832
   29TMC2    C5  452   1.644   3.488  14.374 -0.6440  0.1941 -0.3091
   29TMC2    C6  453   1.573   3.543  14.479 -0.2806 -0.0675  0.0413
   29TMC2     C  454   1.425   3.212  14.274  0.3199 -0.4222 -0.0992
   29TMC2     O  455   1.512   3.144  14.227  0.1553 -0.2824  0.1132
   29TMC2     H  456   1.305   3.348  14.486 -0.0455 -1.7261 -1.5359
   29TMC2    H1  457   1.630   3.339  14.212 -1.6692  0.5796 -2.2812
   29TMC2    H2  458   1.611   3.622  14.542 -1.0111 -0.9706  1.6165
   29TMC2    C7  459   1.742   3.563  14.294 -0.3458 -0.1043  0.1107
   29TMC2    C8  460   1.417   3.532  14.636  0.5930 -0.0609  0.0037
   29TMC2    O1  461   1.763   3.512  14.182  0.1541 -0.6507  0.1709
   29TMC2    O2  462   1.358   3.634  14.665 -0.4052  0.3008  0.3661
   29TMC2    O5  463   1.378   3.416  14.696 -0.2286  0.0452 -0.2831
   29TMC2    H5  464   1.457   3.358  14.698  1.1221  1.8945  0.5440
   30MPD2     C  465   1.075   2.891  14.074 -0.3632  0.3960  0.0912
   30MPD2    C1  466   1.202   2.871  14.136 -0.2355  0.0091  0.3377
   30MPD2    C2  467   1.281   2.971  14.183 -0.1802 -0.1327 -0.1127
   30MPD2    C3  468   1.227   3.100  14.188  0.1049  1.0598  0.6254
   30MPD2    C4  469   1.113   3.127  14.122 -0.0133 -0.1698  0.0034
   30MPD2    C5  470   1.041   3.018  14.066 -0.3136 -0.0219 -0.4414
   30MPD2     H  471   1.373   2.958  14.239 -0.2232 -1.1123 -0.2816
   30MPD2    H1  472   1.065   3.223  14.131  1.5204  0.6095 -0.1046
   30MPD2    H2  473   1.004   2.819  14.036  1.1041 -1.1023  0.2003
   30MPD2    H3  474   0.947   3.033  14.013  0.9837  0.3650 -2.6470
   30MPD2     N  475   1.290   3.210  14.241  0.2905 -0.7603  0.3677
   30MPD2    H5  476   1.229   3.289  14.257  1.6742  0.8248 -2.1360
   30MPD2    N1  477   1.250   2.738  14.161 -0.3995 -0.2441  0.4605
   30MPD2    H7  478   1.343   2.736  14.201 -0.9416 -0.2922  1.7011
   31TMC2    C1  479   3.908   2.338  15.693 -0.0276  0.6111 -0.0250
   31TMC2    C2  480   3.785   2.402  15.710  0.3838  0.0994 -0.4986
   31TMC2    C3  481   3.756   2.439  15.835 -0.4630 -0.1336  0.9899
   31TMC2    C4  482   3.995   2.310  15.797  0.2120 -0.0048 -0.2235
   31TMC2    C5  483   3.963   2.365  15.920  1.3337  1.1293 -0.6522
   31TMC2    C6  484   3.847   2.431  15.931  0.0981 -0.1230  0.6145
   31TMC2     C  485   3.957   2.292  15.568  0.4631  0.6972  0.2128
   31TMC2     O  486   3.933   2.352  15.464 -0.3862 -0.4436  0.0679
   31TMC2     H  487   3.716   2.406  15.626 -0.2028 -1.1563 -0.0851
   31TMC2    H1  488   4.095   2.271  15.780 -0.3317 -1.2974 -0.4721
   31TMC2    H2  489   3.832   2.484  16.025  0.9312  0.9213  0.1545
   31TMC2    C7  490   4.032   2.326  16.035 -0.5621 -0.1245  1.1623
   31TMC2    C8  491   3.628   2.496  15.859 -0.6245 -0.5405 -0.1558
   31TMC2    O1  492   4.044   2.207  16.048 -0.4898 -0.1114 -0.4494
   31TMC2    O2  493   3.563   2.549  15.771 -0.2472  0.4705 -0.3528
   31TMC2    O5  494   3.580   2.424  15.962 -0.8935  0.0579 -1.1671
   31TMC2    H5  495   3.644   2.379  16.022 -2.5538 -1.8711 -0.8708
   32MPD2     C  496   4.175   1.943  15.271  0.6407 -0.1419 -0.0663
   32MPD2    C1  497   4.157   2.083  15.254 -0.0540 -0.0147 -0.0388
   32MPD2    C2  498   4.115   2.166  15.361  0.6609 -0.7566  0.1906
   32MPD2    C3  499   4.080   2.101  15.482  0.1717 -0.2986  0.1836
   32MPD2    C4  500   4.112   1.974  15.498  0.8282 -0.9376 -0.4348
   32MPD2    C5  501   4.145   1.899  15.393  0.4917  0.6132  1.0756
   32MPD2     H  502   4.113   2.274  15.353  0.1757 -0.7150  0.8619
   32MPD2    H1  503   4.111   1.923  15.594 -2.8472 -0.5319 -0.2422
   32MPD2    H2  504   4.205   1.877  15.190  1.8841 -1.0483  1.1476
   32MPD2    H3  505   4.180   1.799  15.417 -0.4036 -0.4928 -2.3070
   32MPD2     N  506   4.013   2.171  15.586  0.2412 -0.1846 -0.4167
   32MPD2    H5  507   3.979   2.116  15.664 -1.3866 -0.1575 -1.1177
   32MPD2    N1  508   4.181   2.132  15.122  0.4100 -0.0484 -0.1127
   32MPD2    H7  509   4.198   2.062  15.051 -1.3021  0.5582 -1.1088
   33TMC2    C1  510   3.704   4.196   9.979 -0.2639 -0.4214 -0.8157
   33TMC2    C2  511   3.577   4.154  10.013 -1.0962  0.0836  0.3876
   33TMC2    C3  512   3.484   4.241  10.049  0.3136 -0.7224  0.0394
   33TMC2    C4  513   3.740   4.333   9.970 -0.0510  0.0671  0.2898
   33TMC2    C5  514   3.636   4.412   9.989  0.5156 -0.2303 -0.3013
   33TMC2    C6  515   3.513   4.376  10.027  0.1838 -0.1952  0.7850
   33TMC2     C  516   3.812   4.097  10.009 -0.0614  0.3702 -0.4152
   33TMC2     O  517   3.778   3.974   9.999 -0.0437 -0.1869  0.0809
   33TMC2     H  518   3.563   4.047  10.025  0.0296 -0.0420  0.6053
   33TMC2    H1  519   3.838   4.363   9.935  0.2558  0.9858  1.9044
   33TMC2    H2  520   3.426   4.440  10.018  0.9473  0.4487 -1.9769
   33TMC2    C7  521   3.667   4.555   9.968  0.8020  0.0995 -1.3877
   33TMC2    C8  522   3.343   4.195  10.069  0.2154  0.1334 -0.2310
   33TMC2    O1  523   3.739   4.578   9.872  0.2060 -0.8420  0.0769
   33TMC2    O2  524   3.301   4.094  10.021  1.2344 -0.1466 -0.3090
   33TMC2    O5  525   3.275   4.289  10.140 -0.3176 -0.1338  0.0123
   33TMC2    H5  526   3.340   4.347  10.183 -1.1775  1.1552 -0.4273
   34MPD2     C  527   4.262   3.913  10.162 -0.5758 -0.0207 -0.2248
   34MPD2    C1  528   4.135   3.877  10.192 -0.1491  0.2769  0.5474
   34MPD2    C2  529   4.029   3.950  10.144 -0.1146 -0.1632  0.0443
   34MPD2    C3  530   4.052   4.062  10.066 -0.3849  0.9802  0.5328
   34MPD2    C4  531   4.179   4.103  10.050  0.3865 -0.9590 -0.0179
   34MPD2    C5  532   4.283   4.022  10.083  0.0887  0.5141  0.6680
   34MPD2     H  533   3.926   3.921  10.161 -0.7156  1.8507 -0.1861
   34MPD2    H1  534   4.198   4.203  10.012  0.9883 -0.7996  0.7153
   34MPD2    H2  535   4.348   3.857  10.196 -1.1439  0.7279  2.4522
   34MPD2    H3  536   4.380   4.069  10.070 -0.0714  0.7135  0.2005
   34MPD2     N  537   3.947   4.145  10.021  0.2142  0.0095  0.0999
   34MPD2    H5  538   3.966   4.243  10.003  0.5190 -0.4369 -1.9583
   34MPD2    N1  539   4.120   3.756  10.268 -1.0204  0.3016  0.1844
   34MPD2    H7  540   4.198   3.697  10.296 -0.0146  0.5859 -2.0428
   35TMC2    C1  541   0.763   0.565  11.352  0.5253 -0.4133  0.4247
   35TMC2    C2  542   0.748   0.578  11.220 -0.0295 -0.1717  0.4671
   35TMC2    C3  543   0.688   0.489  11.144  0.8482  0.4672  0.3350
   35TMC2    C4  544   0.710   0.455  11.418  0.1366  0.3274 -0.1829
   35TMC2    C5  545   0.655   0.360  11.334  0.1854  0.0384 -0.9811
   35TMC2    C6  546   0.643   0.372  11.196 -0.2923 -0.1212 -1.0171
   35TMC2     C  547   0.829   0.669  11.425 -0.0498 -0.1647 -0.0749
   35TMC2     O  548   0.838   0.777  11.366 -0.4141  0.2912 -0.1771
   35TMC2     H  549   0.783   0.670  11.174 -1.6412  0.4688  0.5432
   35TMC2    H1  550   0.704   0.452  11.526 -0.4813 -2.1803 -0.2993
   35TMC2    H2  551   0.635   0.287  11.130  0.6768 -1.6987  0.9079
   35TMC2    C7  552   0.618   0.233  11.387 -0.1607  0.0882 -0.0814
   35TMC2    C8  553   0.632   0.520  11.015 -0.0265 -0.3721  0.3601
   35TMC2    O1  554   0.550   0.159  11.311  0.4462  0.4824 -0.3575
   35TMC2    O2  555   0.528   0.464  10.985  0.4194 -0.8885  0.1448
   35TMC2    O5  556   0.662   0.642  10.977  0.6101  0.4995 -0.2600
   35TMC2    H5  557   0.732   0.690  11.027  0.9778  0.1556 -0.4459
   36MPD2     C  558   0.762   0.920  11.854  0.1005  0.1646  0.0015
   36MPD2    C1  559   0.790   0.790  11.888 -0.0192 -0.5557  0.1276
   36MPD2    C2  560   0.828   0.708  11.783 -0.7740 -0.2473 -0.7069
   36MPD2    C3  561   0.826   0.744  11.652 -0.0229 -0.3032  0.3176
   36MPD2    C4  562   0.795   0.876  11.633 -1.1028  0.0991  0.5096
   36MPD2    C5  563   0.770   0.962  11.726  0.6931  0.4319  0.7630
   36MPD2     H  564   0.866   0.609  11.805  1.5324  0.1276 -2.9676
   36MPD2    H1  565   0.798   0.913  11.531  2.6623  0.3611  0.6829
   36MPD2    H2  566   0.742   1.001  11.924  0.4443 -2.7092  3.4363
   36MPD2    H3  567   0.752   1.066  11.701  0.7993 -0.3393 -2.4795
   36MPD2     N  568   0.839   0.646  11.558 -0.0982 -0.9384 -0.6610
   36MPD2    H5  569   0.849   0.550  11.590 -0.2586 -0.1532  1.6916
   36MPD2    N1  570   0.797   0.746  12.015  0.0190 -0.1028 -0.2197
   36MPD2    H7  571   0.747   0.793  12.090 -4.4402 -2.3745 -1.7202
   37TMC2    C1  572   2.771   1.617  11.979 -0.9195 -0.4905 -0.6561
   37TMC2    C2  573   2.662   1.585  11.905  0.2745 -0.4467  0.3190
   37TMC2    C3  574   2.696   1.543  11.773 -0.1074 -0.0259  0.2574
   37TMC2    C4  575   2.899   1.602  11.933  0.2147 -0.1043 -0.6948
   37TMC2    C5  576   2.919   1.547  11.809  1.1528  0.2170  0.4365
   37TMC2    C6  577   2.822   1.516  11.724  0.7351 -0.2860 -0.3854
   37TMC2     C  578   2.748   1.596  12.119  0.4573 -0.9389 -0.1408
   37TMC2     O  579   2.629   1.603  12.161  0.1099 -0.4564 -0.2976
   37TMC2     H  580   2.562   1.575  11.946 -0.0759 -2.5708 -1.0669
   37TMC2    H1  581   2.985   1.648  11.980  0.2913 -1.5228  0.5639
   37TMC2    H2  582   2.838   1.476  11.625 -1.7006  3.1237 -2.1419
   37TMC2    C7  583   3.053   1.483  11.788  0.1573  0.4090  0.1793
   37TMC2    C8  584   2.590   1.481  11.698  0.1554  0.1593 -0.2838
   37TMC2    O1  585   3.123   1.482  11.884 -0.7474  0.0066  0.3699
   37TMC2    O2  586   2.608   1.377  11.633  0.2433 -0.3510 -0.4017
   37TMC2    O5  587   2.496   1.576  11.692 -0.4375  0.5415 -0.4692
   37TMC2    H5  588   2.506   1.660  11.741 -2.1156 -0.6161  1.8847
   38MPD2     C  589   2.891   1.394  12.570 -0.0056  0.4856 -0.4531
   38MPD2    C1  590   2.985   1.360  12.473  0.7034  0.4465 -0.5037
   38MPD2    C2  591   2.986   1.427  12.351 -0.1928  0.0917 -0.1926
   38MPD2    C3  592   2.872   1.496  12.314  0.4345  0.1814 -0.4082
   38MPD2    C4  593   2.773   1.522  12.409 -0.0935  0.5779  0.1164
   38MPD2    C5  594   2.786   1.470  12.535  0.0570 -0.0918  0.4424
   38MPD2     H  595   3.061   1.404  12.276  0.5825  1.4491  0.1795
   38MPD2    H1  596   2.687   1.587  12.396 -0.3791 -0.0205 -1.0500
   38MPD2    H2  597   2.901   1.359  12.672  0.4165  1.3712 -0.1955
   38MPD2    H3  598   2.721   1.500  12.617 -1.0646 -0.3753 -0.3517
   38MPD2     N  599   2.859   1.533  12.174  0.0937 -0.3552 -0.5589
   38MPD2    H5  600   2.942   1.520  12.117  2.6830  0.0083  3.0818
   38MPD2    N1  601   3.094   1.275  12.498 -0.0932 -0.0020  0.6603
   38MPD2    H7  602   3.161   1.276  12.421  0.2929 -0.9193  0.9962
   39TMC2    C1  603   1.603   2.676   1.375 -0.0302 -0.0669 -0.7045
   39TMC2    C2  604   1.665   2.574   1.318  0.1173  0.3506  0.0686
   39TMC2    C3  605   1.802   2.568   1.316 -0.1414  0.1187 -0.0117
   39TMC2    C4  606   1.667   2.779   1.427  0.5986 -0.5022 -0.2428
   39TMC2    C5  607   1.805   2.778   1.419  0.0458  0.7169  0.2117
   39TMC2    C6  608   1.873   2.670   1.374  0.5345  0.0782 -0.4295
   39TMC2     C  609   1.457   2.676   1.400 -0.0841  0.6819  0.3391
   39TMC2     O  610   1.399   2.785   1.411  1.0469 -1.0513  0.0408
   39TMC2     H  611   1.618   2.507   1.247 -0.2346 -0.0218  0.6567
   39TMC2    H1  612   1.605   2.851   1.479  0.2989 -2.3858  2.0082
   39TMC2    H2  613   1.979   2.664   1.397  1.0327  0.4390 -2.6910
   39TMC2    C7  614   1.873   2.865   1.512  0.1981  0.4618 -0.2971
   39TMC2    C8  615   1.872   2.457   1.256 -0.6951  0.1651  0.5046
   39TMC2    O1  616   1.966   2.818   1.575  0.3826 -0.2949 -0.1100
   39TMC2    O2  617   1.852   2.428   1.138  0.2071 -0.2821  0.6371
   39TMC2    O5  618   1.983   2.438   1.330 -0.6287 -0.0278 -0.0412
   39TMC2    H5  619   1.971   2.458   1.425 -0.2286 -0.3992  0.0894
   40MPD2     C  620   1.263   2.374   1.421  0.6855  0.7891  0.1171
   40MPD2    C1  621   1.281   2.510   1.398 -0.1271  0.2181  0.2360
   40MPD2    C2  622   1.170   2.592   1.390 -0.0053 -0.1143 -0.7361
   40MPD2    C3  623   1.045   2.541   1.389  0.0504 -0.1901  0.4036
   40MPD2    C4  624   1.028   2.404   1.400  0.5847 -0.6673 -0.2698
   40MPD2    C5  625   1.138   2.319   1.411  0.5120 -0.7611  0.8083
   40MPD2     H  626   1.191   2.696   1.369 -0.0628 -0.2199 -1.3385
   40MPD2    H1  627   0.928   2.365   1.386 -0.3165  1.0609  1.3512
   40MPD2    H2  628   1.351   2.313   1.438  1.1365  1.8714  1.7303
   40MPD2    H3  629   1.121   2.212   1.415  2.2553 -1.1716 -3.1144
   40MPD2     N  630   0.928   2.613   1.342  0.2899  0.2646  0.0354
   40MPD2    H5  631   0.842   2.559   1.349  1.2997 -1.4206 -0.3927
   40MPD2    N1  632   1.413   2.548   1.397  0.2438  0.1492  0.3647
   40MPD2    H7  633   1.480   2.472   1.406 -0.1219  0.1271  3.1030
   41TMC2    C1  634   0.511   0.924  13.892 -0.2820  0.0330 -0.0640
   41TMC2    C2  635   0.462   0.797  13.905  0.0638  1.0032  0.7909
   41TMC2    C3  636   0.460   0.723  13.785 -0.1554  0.4911 -0.4951
   41TMC2    C4  637   0.550   0.963  13.766 -0.2483  0.0123  0.2794
   41TMC2    C5  638   0.541   0.890  13.650 -0.4516  0.3021 -0.0684
   41TMC2    C6  639   0.497   0.763  13.663  0.0912 -0.1825  0.4949
   41TMC2     C  640   0.540   1.007  14.007 -0.0216  0.3029 -0.1773
   41TMC2     O  641   0.632   1.086  13.988 -0.7617  0.2707 -0.6283
   41TMC2     H  642   0.428   0.750  13.997 -0.7658  0.9304  0.4460
   41TMC2    H1  643   0.597   1.059  13.749  0.4705 -0.5943 -1.1584
   41TMC2    H2  644   0.481   0.697  13.579 -0.6757 -0.0126  0.5106
   41TMC2    C7  645   0.521   0.965  13.530 -0.0329  0.2545 -0.0836
   41TMC2    C8  646   0.406   0.591  13.782  0.1728  0.1286 -0.6528
   41TMC2    O1  647   0.471   1.075  13.541 -0.3783 -0.1315 -0.6476
   41TMC2    O2  648   0.356   0.543  13.682  1.0249 -0.0370 -0.4207
   41TMC2    O5  649   0.410   0.531  13.905  0.2185 -0.3053  0.0072
   41TMC2    H5  650   0.467   0.572  13.973  0.5719 -3.6907  1.7121
   42MPD2     C  651   0.574   1.165  14.245 -0.8004  0.0039 -0.6729
   42MPD2    C1  652   0.450   1.137  14.191 -0.1908  0.5442  0.0380
   42MPD2    C2  653   0.335   1.193  14.245  0.3754  0.4640 -0.7150
   42MPD2    C3  654   0.339   1.285  14.346  0.6839 -0.0009  0.3580
   42MPD2    C4  655   0.469   1.311  14.398 -0.1236  0.7630 -0.1760
   42MPD2    C5  656   0.579   1.256  14.345  0.3394 -0.4415  0.6072
   42MPD2     H  657   0.242   1.148  14.213 -0.1395  0.4505  0.8007
   42MPD2    H1  658   0.480   1.389  14.473  0.9142 -0.7480  1.2455
   42MPD2    H2  659   0.672   1.135  14.211 -0.6636 -2.0636  1.5382
   42MPD2    H3  660   0.683   1.275  14.369 -0.3791  2.7378  1.1969
   42MPD2     N  661   0.225   1.346  14.404 -1.3059  0.1977  0.3179
   42MPD2    H5  662   0.241   1.408  14.482  1.3676 -1.1350  0.8305
   42MPD2    N1  663   0.434   1.036  14.089  0.3500 -0.0851  0.4694
   42MPD2    H7  664   0.344   0.994  14.069 -0.1544  0.2651  1.9420
   43TMC2    C1  665   1.433   4.320   0.386  0.1251  0.1067  0.7490
   43TMC2    C2  666   1.304   4.293   0.347 -0.2497  0.5325 -0.1538
   43TMC2    C3  667   1.221   4.404   0.357  0.4384  0.0240  0.7167
   43TMC2    C4  668   1.470   4.435   0.449 -0.6059  0.3692  0.0769
   43TMC2    C5  669   1.382   4.531   0.476  0.1251  0.4515 -0.4085
   43TMC2    C6  670   1.251   4.521   0.434 -0.3482 -0.3053  1.0826
   43TMC2     C  671   1.522   4.211   0.411  0.8139 -0.0120 -0.1564
   43TMC2     O  672   1.645   4.233   0.417  0.0378 -0.4471 -0.6323
   43TMC2     H  673   1.276   4.194   0.315  0.4798 -0.5098  2.4286
   43TMC2    H1  674   1.577   4.449   0.453 -0.3601 -1.3966 -0.0028
   43TMC2    H2  675   1.177   4.599   0.446  1.9479  2.0781 -0.0855
   43TMC2    C7  676   1.418   4.664   0.523  0.0024  0.1208  0.6200
   43TMC2    C8  677   1.089   4.402   0.295  0.1700  0.0170 -0.0991
   43TMC2    O1  678   1.344   0.016   0.483 -0.1541  0.0923  0.3519
   43TMC2    O2  679   0.993   4.456   0.349 -0.0567 -0.4382  0.3613
   43TMC2    O5  680   1.087   4.322   0.185 -1.0225 -0.6803 -0.3322
   43TMC2    H5  681   1.177   4.289   0.161  0.7864  2.1389  2.5660
   44MPD2     C  682   1.604   3.793   0.705  0.2530 -0.1255 -0.4118
   44MPD2    C1  683   1.697   3.875   0.649  0.6319 -0.6866 -0.2980
   44MPD2    C2  684   1.652   3.980   0.574  0.1309  0.7591 -0.2558
   44MPD2    C3  685   1.518   3.992   0.541 -0.0782 -0.1993  0.0606
   44MPD2    C4  686   1.427   3.903   0.592 -0.2324  0.2017 -0.3562
   44MPD2    C5  687   1.468   3.804   0.669 -0.3148 -0.5283 -0.1489
   44MPD2     H  688   1.725   4.052   0.539  2.2331 -0.3038  1.9129
   44MPD2    H1  689   1.324   3.924   0.564  0.4641  2.3645 -1.2411
   44MPD2    H2  690   1.645   3.696   0.734  0.3675 -0.2509 -0.9910
   44MPD2    H3  691   1.393   3.730   0.696  1.2390 -1.4917  1.5043
   44MPD2     N  692   1.462   4.094   0.455 -0.2688  0.1369  0.0081
   44MPD2    H5  693   1.368   4.065   0.428  0.1225 -2.1532  1.1103
   44MPD2    N1  694   1.840   3.849   0.653 -0.5891  0.1893  0.1934
   44MPD2    H7  695   1.897   3.919   0.606 -0.9127  0.5570  0.3429
   45TMC2    C1  696   2.301   1.227  10.216  0.5398 -0.5251  0.1881
   45TMC2    C2  697   2.418   1.206  10.280  0.5602  0.7212  0.3337
   45TMC2    C3  698   2.446   1.296  10.378  1.0507  0.7167  0.5765
   45TMC2    C4  699   2.224   1.345  10.234  0.3713  0.2356  0.2537
   45TMC2    C5  700   2.255   1.430  10.335 -0.1018  0.8963 -0.1880
   45TMC2    C6  701   2.376   1.406  10.402 -0.0802  0.4696 -0.0291
   45TMC2     C  702   2.244   1.106  10.161  0.0806  0.0570  0.2317
   45TMC2     O  703   2.307   1.010  10.202  0.2336  0.0438 -0.9126
   45TMC2     H  704   2.476   1.115  10.266 -1.8730 -0.8272  0.1923
   45TMC2    H1  705   2.137   1.362  10.172 -0.1345 -0.8962  0.6580
   45TMC2    H2  706   2.404   1.468  10.486  0.9628 -2.1021  1.4752
   45TMC2    C7  707   2.220   1.573  10.325  0.1819  0.1883 -0.8956
   45TMC2    C8  708   2.560   1.255  10.459 -0.7037  0.3045 -0.2461
   45TMC2    O1  709   2.295   1.650  10.380 -0.1606  0.6289  0.4323
   45TMC2    O2  710   2.585   1.140  10.493  0.4795  0.0444 -0.0111
   45TMC2    O5  711   2.621   1.368  10.499 -0.1609 -0.9952  0.1621
   45TMC2    H5  712   2.611   1.424  10.419  1.1492 -1.1813 -0.1433
   46MPD2     C  713   2.145   0.888   9.991  0.4792 -0.2041 -0.6132
   46MPD2    C1  714   2.086   1.017   9.994  0.9698  0.0263  0.1381
   46MPD2    C2  715   1.976   1.037   9.907  0.4541  0.0716  0.2787
   46MPD2    C3  716   1.924   0.944   9.821  0.7663 -0.5233  0.0028
   46MPD2    C4  717   1.970   0.811   9.828  0.3430  0.7239  0.3787
   46MPD2    C5  718   2.083   0.792   9.911 -0.1308 -0.3218 -0.4069
   46MPD2     H  719   1.934   1.137   9.904  0.1138 -0.1027 -0.6280
   46MPD2    H1  720   1.930   0.735   9.762  1.2252  1.7477 -1.3324
   46MPD2    H2  721   2.226   0.854  10.054  0.9743 -0.0395 -1.1689
   46MPD2    H3  722   2.124   0.692   9.913 -0.6788 -0.5197  0.6866
   46MPD2     N  723   1.811   0.991   9.742  0.8455 -0.3968  0.1619
   46MPD2    H5  724   1.793   1.091   9.743 -0.0108 -0.5586  1.5028
   46MPD2    N1  725   2.142   1.121  10.072  0.7399 -0.0774  0.4075
   46MPD2    H7  726   2.117   1.215  10.042  0.4824  0.0606  1.0480
   47TMC2    C1  727   3.504   2.288   8.891 -0.1082 -0.1486 -0.0492
   47TMC2    C2  728   3.391   2.338   8.835  0.0049 -0.2575 -0.6739
   47TMC2    C3  729   3.293   2.385   8.919 -0.4354 -0.1533 -0.9752
   47TMC2    C4  730   3.521   2.272   9.025  0.8731  0.0144 -0.5209
   47TMC2    C5  731   3.414   2.317   9.101 -0.6171  0.4774  0.7574
   47TMC2    C6  732   3.305   2.382   9.052 -0.2434 -0.1382 -0.7114
   47TMC2     C  733   3.587   2.208   8.798 -0.1952  0.3456 -0.3794
   47TMC2     O  734   3.572   2.243   8.679  0.1747  0.2996  0.4871
   47TMC2     H  735   3.395   2.376   8.734  1.4828 -2.3080 -1.3718
   47TMC2    H1  736   3.610   2.232   9.073  1.0325  1.3170  0.2676
   47TMC2    H2  737   3.231   2.431   9.114 -0.1672 -0.2682 -0.5166
   47TMC2    C7  738   3.415   2.278   9.241 -0.2645  0.7443 -0.7539
   47TMC2    C8  739   3.162   2.380   8.872 -0.2289  0.2754 -0.3900
   47TMC2    O1  740   3.304   2.241   9.288 -0.1259  0.0753 -0.6317
   47TMC2    O2  741   3.068   2.422   8.936 -0.5103  0.1273 -0.0958
   47TMC2    O5  742   3.156   2.360   8.743 -0.0051  0.2878  0.2002
   47TMC2    H5  743   3.231   2.301   8.720 -0.5874 -0.3705 -0.0012
   48MPD2     C  744   3.799   2.053   8.661  0.5103 -0.5701  0.0092
   48MPD2    C1  745   3.747   2.022   8.782 -0.2597  0.0750 -0.7589
   48MPD2    C2  746   3.801   1.915   8.854  0.1553  0.3528  0.3939
   48MPD2    C3  747   3.903   1.834   8.801  0.1588 -0.1885 -0.1329
   48MPD2    C4  748   3.947   1.869   8.675 -0.1317  0.0370  0.4166
   48MPD2    C5  749   3.904   1.980   8.605 -0.1224  0.2871 -0.6631
   48MPD2     H  750   3.763   1.898   8.954 -0.4001 -2.1485 -0.2429
   48MPD2    H1  751   4.011   1.798   8.623 -0.9799  0.8820 -1.7981
   48MPD2    H2  752   3.773   2.145   8.609  1.0982  0.2526  1.1782
   48MPD2    H3  753   3.939   2.006   8.506 -1.5059  0.6737 -1.0456
   48MPD2     N  754   3.950   1.721   8.882 -0.1841 -0.4482  0.3168
   48MPD2    H5  755   3.921   1.715   8.979 -1.7821 -0.1840 -0.1328
   48MPD2    N1  756   3.648   2.097   8.850  0.4493  0.8412  0.2154
   48MPD2    H7  757   3.622   2.064   8.942 -0.4305  1.5717  0.2320
   49TMC2    C1  758   1.892   3.363  10.201 -0.1753  0.2873 -0.1684
   49TMC2    C2  759   1.763   3.370  10.142 -0.3786 -0.3129 -0.0844
   49TMC2    C3  760   1.742   3.480  10.061 -0.0127  0.1418  0.0532
   49TMC2    C4  761   1.993   3.456  10.176 -0.7299 -0.3215  0.2690
   49TMC2    C5  762   1.963   3.563  10.093 -0.5604  0.1244  0.1766
   49TMC2    C6  763   1.836   3.572  10.032  0.9175  0.0099 -0.1972
   49TMC2     C  764   1.927   3.257  10.297 -0.4815  0.3154 -0.0333
   49TMC2     O  765   1.869   3.151  10.284  0.0617 -0.1268 -0.2844
   49TMC2     H  766   1.692   3.289  10.155 -0.8878  0.1355 -0.0795
   49TMC2    H1  767   2.094   3.433  10.206 -1.1486 -1.7595  0.6064
   49TMC2    H2  768   1.804   3.664   9.985  4.4912  0.6997 -1.2254
   49TMC2    C7  769   2.053   3.669  10.059 -0.1779 -0.6877  0.8558
   49TMC2    C8  770   1.653   3.463   9.955 -0.4930  0.5022 -0.3434
   49TMC2    O1  771   2.043   3.714   9.946  0.6220  0.1366  0.0458
   49TMC2    O2  772   1.689   3.455   9.840  0.2830 -0.0930 -0.4876
   49TMC2    O5  773   1.529   3.425   9.999 -0.4196 -0.3793 -0.5637
   49TMC2    H5  774   1.532   3.461  10.089  2.7831 -1.1042 -0.3795
   50MPD2     C  775   2.021   3.098  10.532 -0.0629 -0.0826  0.6067
   50MPD2    C1  776   2.051   3.229  10.508  0.6909  0.2003  0.1586
   50MPD2    C2  777   2.123   3.294  10.611  0.5388 -0.4189 -0.6555
   50MPD2    C3  778   2.161   3.231  10.732  0.3961 -0.2941 -0.2265
   50MPD2    C4  779   2.123   3.099  10.754  0.7377 -0.0739 -0.1196
   50MPD2    C5  780   2.050   3.042  10.654 -0.8549 -0.3276  0.4493
   50MPD2     H  781   2.136   3.400  10.597  0.2348 -0.2612  0.2792
   50MPD2    H1  782   2.139   3.054  10.851 -1.8045  2.2652  1.3647
   50MPD2    H2  783   1.962   3.040  10.462 -0.7952  1.0145  0.3083
   50MPD2    H3  784   2.000   2.948  10.676 -1.9678 -0.1318 -1.2382
   50MPD2     N  785   2.235   3.295  10.835 -0.5371 -0.3977  0.2239
   50MPD2    H5  786   2.264   3.226  10.903  2.8821  4.0676  3.3143
   50MPD2    N1  787   2.006   3.304  10.398 -0.0679 -0.1520  0.1029
   50MPD2    H7  788   2.023   3.404  10.398  0.0204 -0.1559  1.4439
   51TMC2    C1  789   3.141   2.891   0.782 -0.3049 -0.7515 -0.3789
   51TMC2    C2  790   3.003   2.918   0.778  0.1984  0.2284  0.4276
   51TMC2    C3  791   2.957   3.004   0.674 -0.4183  0.2803  0.5538
   51TMC2    C4  792   3.226   2.944   0.692  0.1760 -0.3856 -0.1509
   51TMC2    C5  793   3.179   3.013   0.582 -0.1746 -0.2030  0.0956
   51TMC2    C6  794   3.042   3.051   0.580  0.6930 -0.5697 -0.7149
   51TMC2     C  795   3.196   2.786   0.866 -0.7354 -0.1420  0.0937
   51TMC2     O  796   3.298   2.726   0.828 -0.5852  1.4763 -0.2955
   51TMC2     H  797   2.936   2.879   0.854  1.6617 -4.2626 -0.5993
   51TMC2    H1  798   3.331   2.920   0.698  0.3404  0.6533  0.9646
   51TMC2    H2  799   2.999   3.118   0.506  2.0900  1.1496  0.0350
   51TMC2    C7  800   3.266   3.103   0.509 -0.8097  0.2030  0.4227
   51TMC2    C8  801   2.850   3.098   0.698 -0.4921 -0.2849  0.0882
   51TMC2    O1  802   3.205   3.154   0.416  0.4414 -0.2611 -0.0804
   51TMC2    O2  803   2.873   3.216   0.694  0.0388 -0.1941  0.1584
   51TMC2    O5  804   2.773   3.045   0.795 -0.0267 -0.1712  0.1437
   51TMC2    H5  805   2.748   2.952   0.778  0.8651 -0.2137 -0.9537
   52MPD2     C  806   3.163   2.480   1.278 -0.0956 -0.6554  0.6088
   52MPD2    C1  807   3.253   2.487   1.171  0.2564  0.6448  0.2226
   52MPD2    C2  808   3.235   2.575   1.068 -0.3695 -0.1249  0.3027
   52MPD2    C3  809   3.133   2.666   1.074 -0.2341 -0.0470 -0.0896
   52MPD2    C4  810   3.045   2.660   1.178  0.1316  0.1458 -0.0564
   52MPD2    C5  811   3.064   2.572   1.285 -0.1175 -0.3068  0.2413
   52MPD2     H  812   3.314   2.591   0.996  0.6297 -0.9037  1.2193
   52MPD2    H1  813   2.957   2.721   1.194 -0.3875 -0.9940  1.5086
   52MPD2    H2  814   3.184   2.414   1.361  3.0520  0.5586  0.7911
   52MPD2    H3  815   3.005   2.580   1.376  1.0635 -1.5414  1.1180
   52MPD2     N  816   3.113   2.775   0.978  0.1636  0.0402  0.2413
   52MPD2    H5  817   3.047   2.850   0.995  0.6458  0.6663 -0.6907
   52MPD2    N1  818   3.378   2.415   1.158 -0.0253 -0.1726  0.0719
   52MPD2    H7  819   3.435   2.457   1.084  0.7705 -1.3000  0.0533
   53TMC2    C1  820   3.677   1.061  11.822  0.5840 -0.5189  0.0991
   53TMC2    C2  821   3.781   0.974  11.805  0.7260 -0.7811  0.7078
   53TMC2    C3  822   3.868   0.963  11.908  0.6866  0.3069  0.0275
   53TMC2    C4  823   3.666   1.137  11.931 -0.4305 -0.3207  0.5446
   53TMC2    C5  824   3.751   1.114  12.037  0.2408  0.2755  0.4667
   53TMC2    C6  825   3.851   1.025  12.026 -0.7754  0.7222 -0.3111
   53TMC2     C  826   3.590   1.084  11.709  0.3209 -0.3201 -0.1250
   53TMC2     O  827   3.630   1.049  11.597 -0.6102  0.6283  0.6533
   53TMC2     H  828   3.785   0.920  11.711  0.5638 -1.8909  1.3368
   53TMC2    H1  829   3.607   1.228  11.934  2.4459  1.5127  2.4143
   53TMC2    H2  830   3.931   1.016  12.098  0.7164 -1.5764 -2.2705
   53TMC2    C7  831   3.713   1.186  12.159  0.1923  0.0414 -0.2235
   53TMC2    C8  832   3.979   0.866  11.886 -0.1788  0.6219  0.2145
   53TMC2    O1  833   3.616   1.260  12.154  0.1542 -0.5503  0.2208
   53TMC2    O2  834   4.048   0.825  11.979 -0.4618 -0.1056  0.1197
   53TMC2    O5  835   4.023   0.869  11.759  0.0623 -0.0028  0.4971
   53TMC2    H5  836   3.960   0.920  11.704 -0.1415 -0.6179  0.1676
   54MPD2     C  837   3.396   1.205  11.521  0.0420 -0.6030  0.1720
   54MPD2    C1  838   3.385   1.221  11.660  0.8197  0.4784 -0.1798
   54MPD2    C2  839   3.284   1.296  11.712  0.4649 -0.0251  0.3034
   54MPD2    C3  840   3.185   1.349  11.626  0.3680 -0.1807 -0.2727
   54MPD2    C4  841   3.197   1.322  11.489  1.0127  0.2945 -0.6687
   54MPD2    C5  842   3.305   1.260  11.437 -0.1184 -0.0899  0.7408
   54MPD2     H  843   3.278   1.318  11.818 -1.1676  2.0181 -0.2136
   54MPD2    H1  844   3.122   1.355  11.418  0.2356 -0.4582 -0.2015
   54MPD2    H2  845   3.476   1.150  11.472  0.4601 -0.0776  0.2670
   54MPD2    H3  846   3.294   1.235  11.332  0.9326  0.5471  0.4915
   54MPD2     N  847   3.075   1.433  11.665  0.3702  0.1231  0.1032
   54MPD2    H5  848   3.018   1.468  11.589 -0.3678  0.0170  0.6083
   54MPD2    N1  849   3.478   1.161  11.747  0.2006 -0.5307 -0.0284
   54MPD2    H7  850   3.460   1.185  11.844  0.5226  1.7598 -0.5451
   55TMC2    C1  851   4.587   4.119  17.645  0.2823 -0.3967  0.1121
   55TMC2    C2  852   4.542   4.032  17.545  0.4332 -0.3871 -0.4611
   55TMC2    C3  853   4.549   3.896  17.567 -0.7634 -0.3584 -0.0562
   55TMC2    C4  854   4.632   4.068   0.022  0.1130  0.4535 -0.9932
   55TMC2    C5  855   4.631   3.934   0.039 -0.4500  0.8998  0.5068
   55TMC2    C6  856   4.599   3.850  17.680 -0.4750 -0.5754  0.0866
   55TMC2     C  857   4.560   4.270  17.644 -0.6863 -0.1116  0.0334
   55TMC2     O  858   4.576   4.328   0.003 -0.1459  0.5762 -0.1980
   55TMC2     H  859   4.493   4.067  17.455  0.9432 -0.4502 -0.7599
   55TMC2    H1  860   4.665   4.131   0.104 -0.7095  0.5041 -0.6928
   55TMC2    H2  861   4.603   3.742  17.694  1.4205 -0.4038  0.8254
   55TMC2    C7  862   4.659   3.874   0.170  0.1998  0.7013 -0.9130
   55TMC2    C8  863   4.482   3.807  17.474 -0.7434 -0.4560 -0.3164
   55TMC2    O1  864   4.711   3.766   0.164  0.4617 -0.6568  0.4835
   55TMC2    O2  865   4.509   3.688  17.469  0.3225 -0.3165 -0.5006
   55TMC2    O5  866   4.370   3.868  17.429  0.6472 -0.4352 -0.6421
   55TMC2    H5  867   4.345   3.953  17.471  3.7540  0.4672 -0.6046
   56MPD2     C  868   4.496   4.488  17.358 -0.4987 -0.0204  0.2722
   56MPD2    C1  869   4.481   4.440  17.485  0.0026  0.0617  0.4928
   56MPD2    C2  870   4.444   4.527  17.589 -0.0922  0.6382  0.2955
   56MPD2    C3  871   4.398   4.649  17.553  0.6679 -0.8608  0.2933
   56MPD2    C4  872   4.396   4.692  17.426 -0.0892 -0.2003  0.1470
   56MPD2    C5  873   4.448   4.612  17.325 -0.6916 -0.5814 -0.2169
   56MPD2     H  874   4.431   4.488  17.689 -0.3859 -0.6373 -0.2375
   56MPD2    H1  875   4.368   0.058  17.405  0.0514 -0.3121 -0.5998
   56MPD2    H2  876   4.525   4.426  17.274  0.9619  3.8183 -2.0578
   56MPD2    H3  877   4.454   4.649  17.223 -0.6711 -0.7230 -0.2663
   56MPD2     N  878   4.381   0.001  17.666 -0.3719 -1.3872  0.2873
   56MPD2    H5  879   4.405   4.698   0.009 -2.2222  0.2782  1.5342
   56MPD2    N1  880   4.527   4.311  17.520 -0.2519 -0.0479 -0.0864
   56MPD2    H7  881   4.541   4.252  17.438  3.1828  1.3647 -0.5008
   57TMC2    C1  882   3.407   4.213  13.742  0.2770  0.6469 -0.1118
   57TMC2    C2  883   3.508   4.135  13.795  0.0395  0.0893 -0.7388
   57TMC2    C3  884   3.586   4.069  13.707 -0.4623  0.5831  0.2174
   57TMC2    C4  885   3.383   4.216  13.607  0.0934  0.5056 -0.1440
   57TMC2    C5  886   3.468   4.150  13.517  0.6502 -0.4553  1.0297
   57TMC2    C6  887   3.573   4.079  13.573 -0.7202 -0.2396  0.2237
   57TMC2     C  888   3.357   4.333  13.807  0.5324  0.0114 -0.4551
   57TMC2     O  889   3.306   4.422  13.739  0.0433 -0.2620  0.1736
   57TMC2     H  890   3.534   4.137  13.900  0.3143  0.1220 -0.8057
   57TMC2    H1  891   3.303   4.275  13.563  0.7504  0.7723 -0.9722
   57TMC2    H2  892   3.646   4.043  13.502  0.7351 -0.0587  1.6362
   57TMC2    C7  893   3.470   4.190  13.380  0.7795  0.0459 -0.2743
   57TMC2    C8  894   3.685   3.979  13.761  0.8338 -0.4119 -0.0864
   57TMC2    O1  895   3.422   4.300  13.353 -0.5950 -0.4283  0.4559
   57TMC2    O2  896   3.725   3.977  13.877 -0.0123 -0.8850  0.1407
   57TMC2    O5  897   3.715   3.900  13.655  0.4817  0.3714  0.2831
   57TMC2    H5  898   3.644   3.911  13.587  0.7748 -0.4368 -0.1588
   58MPD2     C  899   3.257   4.620  14.220  0.2229 -0.0650  0.2493
   58MPD2    C1  900   3.246   4.645  14.087 -0.6854  0.1734  0.5634
   58MPD2    C2  901   3.288   4.562  13.995  0.3774  0.3818 -0.5055
   58MPD2    C3  902   3.355   4.444  14.034 -0.0036 -0.3245  0.1774
   58MPD2    C4  903   3.376   4.421  14.165  0.2923  0.2267  0.3580
   58MPD2    C5  904   3.325   4.507  14.257 -0.1940 -0.4270 -0.1238
   58MPD2     H  905   3.263   4.579  13.891 -1.9541 -1.8980 -0.3088
   58MPD2    H1  906   3.417   4.329  14.205  0.6694  0.3887  0.3445
   58MPD2    H2  907   3.227   4.693  14.295 -1.5022 -1.4293  0.8786
   58MPD2    H3  908   3.335   4.480  14.362 -1.2497 -0.9649 -0.1697
   58MPD2     N  909   3.390   4.342  13.938  0.2076 -0.1749 -0.4351
   58MPD2    H5  910   3.444   4.267  13.981  0.5660 -0.5020 -1.4582
   58MPD2    N1  911   3.196   0.027  14.033  0.8875  0.3261  0.6867
   58MPD2    H7  912   3.215   0.046  13.935  1.4209  2.0618  1.1301
   59TMC2    C1  913   1.389   4.687  12.904  0.5608 -0.7125  0.0696
   59TMC2    C2  914   1.506   0.005  12.855  0.1601 -0.2141 -0.0025
   59TMC2    C3  915   1.534   0.003  12.720 -0.2850  0.0382  0.3619
   59TMC2    C4  916   1.316   4.605  12.824  0.4469 -0.5728 -0.5438
   59TMC2    C5  917   1.353   4.607  12.688  0.0473 -0.1035  0.0375
   59TMC2    C6  918   1.455   4.678  12.636 -0.4508 -0.0236  0.5742
   59TMC2     C  919   1.336   4.712  13.034 -0.0405 -0.0721  0.3799
   59TMC2     O  920   1.236   4.648  13.065  0.2026 -0.1506 -0.1684
   59TMC2     H  921   1.574   0.055  12.923  1.0885 -1.6770  0.1362
   59TMC2    H1  922   1.231   4.546  12.856  2.2713 -3.3304 -0.7453
   59TMC2    H2  923   1.479   4.670  12.530  1.2531  1.8885  0.8176
   59TMC2    C7  924   1.261   4.542  12.591 -0.5554  0.6868 -0.7139
   59TMC2    C8  925   1.649   0.069  12.657  0.1350  0.1809 -0.6759
   59TMC2    O1  926   1.194   4.447  12.626  0.4898  0.5697  0.0704
   59TMC2    O2  927   1.682   0.041  12.545  0.1202 -0.2243  0.0784
   59TMC2    O5  928   1.654   0.187  12.716  0.3734  0.2481 -0.2474
   59TMC2    H5  929   1.597   0.199  12.795 -0.4087 -1.4849 -0.5540
   60MPD2     C  930   1.321   0.020  13.331 -0.4002  0.5487  0.5275
   60MPD2    C1  931   1.381   0.103  13.244 -0.3580 -0.1506 -0.0262
   60MPD2    C2  932   1.439   0.221  13.293 -0.7034 -0.2551 -0.5101
   60MPD2    C3  933   1.433   0.259  13.424 -0.7522  0.1355  0.0777
   60MPD2    C4  934   1.368   0.171  13.508  0.1899 -0.1063  0.2150
   60MPD2    C5  935   1.311   0.053  13.462 -0.0352  0.5876 -0.7957
   60MPD2     H  936   1.504   0.282  13.230  0.7408 -0.4603  0.7762
   60MPD2    H1  937   1.363   0.181  13.616 -3.0170  0.0749  0.0494
   60MPD2    H2  938   1.278   4.665  13.295  0.1754  0.9680 -1.2240
   60MPD2    H3  939   1.279   4.715  13.533 -1.7820  1.8331 -0.2885
   60MPD2     N  940   1.484   0.378  13.478 -0.3608  0.0288  0.6586
   60MPD2    H5  941   1.486   0.377  13.580 -1.0278 -1.0819  0.6668
   60MPD2    N1  942   1.408   0.065  13.109 -0.5152 -0.3314 -0.5004
   60MPD2    H7  943   1.469   0.130  13.062 -0.0002 -0.4477  0.0047
   61TMC2    C1  944   0.385   1.940  15.565  0.6634 -0.3778  0.5427
   61TMC2    C2  945   0.303   1.912  15.668 -0.2703 -0.1468 -1.0459
   61TMC2    C3  946   0.247   2.019  15.730  0.5072 -0.8568 -0.1196
   61TMC2    C4  947   0.420   2.070  15.530 -1.1478 -0.1845  0.0740
   61TMC2    C5  948   0.373   2.170  15.608  0.2693 -0.3965  0.2403
   61TMC2    C6  949   0.293   2.145  15.712 -0.1513  0.3344 -0.9684
   61TMC2     C  950   0.440   1.832  15.486 -0.3505 -0.3079  0.2396
   61TMC2     O  951   0.392   1.728  15.523  0.1280  0.3390 -0.4960
   61TMC2     H  952   0.264   1.812  15.683 -3.2908  1.1668 -0.1014
   61TMC2    H1  953   0.488   2.097  15.449 -0.4046 -2.5909 -0.1021
   61TMC2    H2  954   0.247   2.222  15.773  2.0237  0.2770  0.7452
   61TMC2    C7  955   0.440   2.301  15.600 -0.4667  0.1132 -0.5048
   61TMC2    C8  956   0.146   1.974  15.825 -0.5557 -0.4510 -0.5677
   61TMC2    O1  957   0.505   2.320  15.497  0.0461 -0.2508 -0.1662
   61TMC2    O2  958   0.106   1.855  15.829 -0.6716  0.1163  0.5222
   61TMC2    O5  959   0.078   2.075  15.875  0.1024  0.2424  0.1107
   61TMC2    H5  960   0.108   2.163  15.845 -1.6367  1.1927  1.1717
   62MPD2     C  961   0.590   1.634  15.319  0.1059 -0.1634 -0.0538
   62MPD2    C1  962   0.611   1.771  15.326  0.8236 -0.0901  0.2786
   62MPD2    C2  963   0.717   1.825  15.252  0.3638 -0.2746 -0.7623
   62MPD2    C3  964   0.785   1.751  15.160  0.4744  0.2013 -0.7447
   62MPD2    C4  965   0.765   1.615  15.161 -0.8173  0.3978 -0.6913
   62MPD2    C5  966   0.669   1.558  15.235 -0.0175  0.1675 -0.6861
   62MPD2     H  967   0.744   1.929  15.262 -3.7579  0.6188  0.9889
   62MPD2    H1  968   0.817   1.553  15.089 -1.6770 -0.4523 -0.5848
   62MPD2    H2  969   0.512   1.582  15.373 -0.2911 -0.1531 -0.6146
   62MPD2    H3  970   0.648   1.456  15.207  2.6639 -1.4198  3.0710
   62MPD2     N  971   0.872   1.819  15.064  0.1164  0.1775 -0.4115
   62MPD2    H5  972   0.861   1.919  15.049  0.2535  0.4148  1.0643
   62MPD2    N1  973   0.540   1.860  15.401 -0.1846  0.1467  0.0976
   62MPD2    H7  974   0.578   1.954  15.406 -0.4987  0.3432 -1.2397
   63TMC2    C1  975   0.080   1.561   9.848 -0.0067  0.3023  0.8726
   63TMC2    C2  976   0.163   1.527   9.950 -0.1663  0.0812  0.9002
   63TMC2    C3  977   0.260   1.618   9.991  0.5223  0.2063  0.0493
   63TMC2    C4  978   0.072   1.688   9.800 -0.1256  0.4315 -0.4836
   63TMC2    C5  979   0.167   1.776   9.844 -0.1357 -0.1004 -0.3646
   63TMC2    C6  980   0.265   1.744   9.932 -0.4600 -0.1315  0.7380
   63TMC2     C  981   4.703   1.468   9.809  0.0139  1.0611 -0.4599
   63TMC2     O  982   4.621   1.523   9.740  0.2159 -0.1921  0.5757
   63TMC2     H  983   0.180   1.425   9.981 -0.5931 -0.5509 -0.9384
   63TMC2    H1  984   4.728   1.722   9.736 -2.9212 -1.1756  2.1825
   63TMC2    H2  985   0.310   1.826   9.987  0.2263  0.0750 -0.1497
   63TMC2    C7  986   0.173   1.906   9.774  0.5153  0.2127 -1.1259
   63TMC2    C8  987   0.356   1.578  10.084  0.0580  0.5851 -0.6401
   63TMC2    O1  988   0.073   1.944   9.725  0.2194  0.6843  0.0189
   63TMC2    O2  989   0.346   1.485  10.168 -0.0810  0.2622  0.1929
   63TMC2    O5  990   0.469   1.630  10.037  0.1190  0.0882 -0.2433
   63TMC2    H5  991   0.448   1.699   9.970 -2.7848 -1.3683 -0.7964
   64MPD2     C  992   4.384   1.097   9.949  0.8308 -1.1330  0.3511
   64MPD2    C1  993   4.512   1.058   9.979 -0.0296  0.4508 -0.0944
   64MPD2    C2  994   4.617   1.145   9.957 -0.2698 -0.3519  0.0320
   64MPD2    C3  995   4.594   1.268   9.893 -0.0059  0.2648 -0.2051
   64MPD2    C4  996   4.463   1.309   9.857  0.2566  0.4099 -0.7074
   64MPD2    C5  997   4.366   1.220   9.886  0.3336  0.5738 -0.4787
   64MPD2     H  998   4.719   1.117   9.983 -0.1994  0.0324  0.1729
   64MPD2    H1  999   4.435   1.405   9.815  0.2016  0.2284 -1.0852
   64MPD2    H2 1000   4.294   1.043   9.976 -1.3207  1.2094 -2.0956
   64MPD2    H3 1001   4.260   1.243   9.884 -0.1303 -1.2657  1.8902
   64MPD2     N 1002   4.706   1.350   9.867  0.0788  0.0866  0.0542
   64MPD2    H5 1003   0.055   1.326   9.916 -0.1660 -0.1692  0.3624
   64MPD2    N1 1004   4.554   0.937  10.039  0.3893 -0.5699 -0.2539
   64MPD2    H7 1005   4.651   0.924  10.066  0.1836 -1.6066 -0.0163
   65TMC2    C1 1006   0.977   1.532  15.704 -0.2183 -0.6730 -0.1036
   65TMC2    C2 1007   0.998   1.513  15.569  0.2063  0.4716  0.3676
   65TMC2    C3 1008   1.019   1.625  15.497  0.9213  0.0365  0.9964
   65TMC2    C4 1009   0.974   1.661  15.760  1.0466 -0.4268  0.5012
   65TMC2    C5 1010   0.970   1.772  15.676  0.2941  0.0736 -0.5971
   65TMC2    C6 1011   0.990   1.749  15.541  0.7419  1.0541  0.4677
   65TMC2     C 1012   0.969   1.412  15.783 -0.1094  0.0940  0.5103
   65TMC2     O 1013   0.970   1.423  15.903  0.7486  0.3179 -0.3470
   65TMC2     H 1014   1.020   1.417  15.522 -1.7751 -0.2205  0.8689
   65TMC2    H1 1015   0.965   1.664  15.868  1.1937  0.4829  0.4938
   65TMC2    H2 1016   0.986   1.831  15.470  2.1565  1.1048  0.4568
   65TMC2    C7 1017   0.993   1.909  15.716 -0.4745  0.5921 -0.2864
   65TMC2    C8 1018   1.051   1.603  15.362  0.3271  0.6947 -0.1693
   65TMC2    O1 1019   0.997   1.986  15.622  0.7989  0.0172  0.3745
   65TMC2    O2 1020   1.066   1.492  15.310 -0.4849  0.2669 -0.1033
   65TMC2    O5 1021   1.112   1.716  15.322 -0.0550  0.0572 -0.4216
   65TMC2    H5 1022   1.134   1.774  15.397  0.4127  0.3998 -0.8251
   66MPD2     C 1023   0.980   1.129  15.897  0.1875 -0.0655  0.3012
   66MPD2    C1 1024   0.948   1.168  15.767  0.0003 -0.2517 -0.0754
   66MPD2    C2 1025   0.909   1.068  15.681 -0.3669 -0.1294 -0.4564
   66MPD2    C3 1026   0.891   0.933  15.722  0.2098  0.0374 -0.8779
   66MPD2    C4 1027   0.931   0.905  15.848  0.4681  0.1750 -0.9661
   66MPD2    C5 1028   0.966   1.000  15.937 -0.1200  0.0452 -0.1685
   66MPD2     H 1029   0.868   1.093  15.584  1.2805 -1.5624 -1.5137
   66MPD2    H1 1030   0.929   0.803  15.887  2.0547 -0.7197 -3.2105
   66MPD2    H2 1031   1.028   1.191  15.972 -1.9179  0.9616  0.7996
   66MPD2    H3 1032   1.004   0.971  16.035 -2.4383  0.3792  0.8376
   66MPD2     N 1033   0.847   0.830  15.637 -1.0942 -0.1604 -0.2016
   66MPD2    H5 1034   0.825   0.743  15.684  2.8290 -0.1472  1.7377
   66MPD2    N1 1035   0.950   1.301  15.714  0.1413 -0.4653  0.3034
   66MPD2    H7 1036   0.941   1.309  15.613  0.2993 -2.1914  0.1495
   67TMC2    C1 1037   1.543   0.032  14.593 -0.0452  0.4811  0.2042
   67TMC2    C2 1038   1.637   4.710  14.676  0.2865 -0.2224  0.0334
   67TMC2    C3 1039   1.707   0.059  14.762  0.3733  0.6345 -0.4052
   67TMC2    C4 1040   1.489   0.155  14.613 -0.0495 -0.2931 -0.0496
   67TMC2    C5 1041   1.562   0.223  14.698  0.7422 -0.3636 -0.2261
   67TMC2    C6 1042   1.671   0.186  14.779 -0.2118 -0.0287  0.6446
   67TMC2     C 1043   1.510   4.692  14.476 -0.8354 -0.1120  0.0485
   67TMC2     O 1044   1.602   4.645  14.410  0.3288  0.1301  0.0446
   67TMC2     H 1045   1.675   4.614  14.646  2.6558  1.3964 -2.0841
   67TMC2    H1 1046   1.405   0.200  14.562 -0.1795  0.6473  0.9920
   67TMC2    H2 1047   1.726   0.250  14.847  0.8734  0.7524 -0.9539
   67TMC2    C7 1048   1.525   0.361  14.696  0.2042 -0.7962  0.4804
   67TMC2    C8 1049   1.827   0.014  14.820  1.1257  0.3208  0.0755
   67TMC2    O1 1050   1.483   0.405  14.589  0.4399  0.1020  0.0379
   67TMC2    O2 1051   1.920   0.083  14.851 -0.2452 -0.0087  0.7556
   67TMC2    O5 1052   1.808   4.627  14.873 -0.2706 -0.2303  0.5729
   67TMC2    H5 1053   1.721   4.583  14.866  0.9626 -2.7087  1.1114
   68MPD2     C 1054   1.480   0.083  14.210 -0.6394  0.0435  0.5918
   68MPD2    C1 1055   1.377   0.054  14.303 -0.6287  0.4629 -0.3284
   68MPD2    C2 1056   1.252   0.090  14.270 -0.1110 -0.1044  0.3390
   68MPD2    C3 1057   1.234   0.154  14.143 -0.8933 -0.7248 -0.6527
   68MPD2    C4 1058   1.337   0.195  14.059  0.0620  0.2337  0.1712
   68MPD2    C5 1059   1.462   0.150  14.094  1.1635 -1.5902 -0.1095
   68MPD2     H 1060   1.166   0.072  14.333  0.7492 -0.1844  1.4718
   68MPD2    H1 1061   1.325   0.246  13.965  1.4864 -0.5619 -0.4512
   68MPD2    H2 1062   1.584   0.068  14.238  0.0170  0.8297 -1.4027
   68MPD2    H3 1063   1.542   0.167  14.023  1.7250 -2.9870  0.1738
   68MPD2     N 1064   1.108   0.178  14.086 -0.1144 -0.2012 -0.3665
   68MPD2    H5 1065   1.103   0.240  14.006  1.9644 -0.9914 -1.1143
   68MPD2    N1 1066   1.394   0.004  14.433  0.0464 -0.7133 -0.6624
   68MPD2    H7 1067   1.323   0.019  14.504  0.2281  0.9255 -0.8347
   69TMC2    C1 1068   3.772   1.655  12.476 -0.1377 -0.4182  0.4833
   69TMC2    C2 1069   3.757   1.792  12.449 -0.0670  0.0751 -0.2465
   69TMC2    C3 1070   3.743   1.819  12.313  0.6801 -0.3598  0.3945
   69TMC2    C4 1071   3.762   1.562  12.380  0.3685  0.0781  0.0648
   69TMC2    C5 1072   3.763   1.606  12.251 -0.2820  0.7251 -1.1725
   69TMC2    C6 1073   3.758   1.731  12.212  0.0137 -0.1695  0.0046
   69TMC2     C 1074   3.764   1.622  12.617 -0.4006 -0.6249 -0.1949
   69TMC2     O 1075   3.734   1.506  12.647  0.0115 -0.2380  0.4478
   69TMC2     H 1076   3.767   1.876  12.517  0.0464  0.4347 -0.7080
   69TMC2    H1 1077   3.765   1.455  12.397 -0.1423  0.2961  1.4681
   69TMC2    H2 1078   3.759   1.758  12.107 -0.0869 -0.4784 -0.0737
   69TMC2    C7 1079   3.827   1.512  12.167 -0.2320 -0.1926 -0.4909
   69TMC2    C8 1080   3.746   1.960  12.286 -0.4086 -0.3852 -0.1150
   69TMC2    O1 1081   3.897   1.425  12.215  0.3372  0.1615  0.3216
   69TMC2    O2 1082   3.700   2.036  12.366  0.4335  0.4312 -0.5135
   69TMC2    O5 1083   3.811   1.987  12.168 -0.2096 -0.5546  0.4608
   69TMC2    H5 1084   3.849   1.911  12.118  2.2237 -2.1045  4.6966
   70MPD2     C 1085   3.939   1.765  12.895  0.2355  0.5148  0.1208
   70MPD2    C1 1086   3.849   1.685  12.835  0.7708  0.2961 -0.3738
   70MPD2    C2 1087   3.783   1.589  12.910  0.0325 -0.2241  0.4219
   70MPD2    C3 1088   3.823   1.558  13.038 -0.5112  0.2553  0.6729
   70MPD2    C4 1089   3.931   1.628  13.091  0.5683  0.3668  0.0477
   70MPD2    C5 1090   3.975   1.738  13.022 -0.9147  0.3529  0.4540
   70MPD2     H 1091   3.698   1.537  12.867  0.2076 -1.5420  1.6470
   70MPD2    H1 1092   3.973   1.600  13.187  1.3519 -1.4623 -0.8369
   70MPD2    H2 1093   3.984   1.849  12.843  1.5895 -0.1818  0.1904
   70MPD2    H3 1094   4.049   1.805  13.066  0.1174 -0.6662  0.2750
   70MPD2     N 1095   3.765   1.458  13.109  0.1822  0.0789  0.1378
   70MPD2    H5 1096   3.820   1.398  13.170 -0.9966 -2.2751 -1.0857
   70MPD2    N1 1097   3.815   1.718  12.699 -0.0140 -0.1301 -0.2704
   70MPD2    H7 1098   3.847   1.802  12.654 -2.1716  0.1771 -1.2065
   71TMC2    C1 1099   0.554   2.166   1.419 -0.1065 -0.5415  0.6086
   71TMC2    C2 1100   0.668   2.184   1.496  0.0013 -0.2666 -0.3589
   71TMC2    C3 1101   0.676   2.120   1.614  0.1881 -0.5048  0.4179
   71TMC2    C4 1102   0.441   2.099   1.470  0.2105  0.1558  0.5262
   71TMC2    C5 1103   0.450   2.030   1.592 -0.2011 -0.6718  0.0587
   71TMC2    C6 1104   0.576   2.031   1.653  0.1107 -0.2181  1.0575
   71TMC2     C 1105   0.560   2.200   1.276 -0.3152 -0.3382  0.1845
   71TMC2     O 1106   0.655   2.251   1.227 -0.2937  0.0728 -0.1435
   71TMC2     H 1107   0.756   2.233   1.456  1.4828 -2.3460  0.3912
   71TMC2    H1 1108   0.344   2.106   1.421  0.4354 -1.7081 -0.1912
   71TMC2    H2 1109   0.589   1.987   1.751 -0.8563 -2.7096  0.0432
   71TMC2    C7 1110   0.338   1.968   1.660  0.0742  0.0829  0.2159
   71TMC2    C8 1111   0.793   2.130   1.694 -0.1696 -0.5635 -0.2867
   71TMC2    O1 1112   0.357   1.928   1.772  0.0935 -0.6924  0.1429
   71TMC2    O2 1113   0.840   2.034   1.755  0.7378 -0.0516 -0.2185
   71TMC2    O5 1114   0.868   2.228   1.642 -0.6450  0.0234  0.7515
   71TMC2    H5 1115   0.816   2.311   1.633 -0.8895 -0.2066  0.0525
   72MPD2     C 1116   0.403   2.160   0.800 -0.7485  0.5768  0.2073
   72MPD2    C1 1117   0.464   2.268   0.862  0.2408 -0.0758 -0.0088
   72MPD2    C2 1118   0.484   2.259   0.999  0.5428  0.8172 -0.1757
   72MPD2    C3 1119   0.446   2.144   1.067 -0.4578 -0.2015 -0.2726
   72MPD2    C4 1120   0.372   2.040   1.007 -0.2508  0.3903  0.3157
   72MPD2    C5 1121   0.355   2.056   0.875 -0.5987 -1.0362  0.6130
   72MPD2     H 1122   0.526   2.341   1.057  0.2622  0.5127  0.4618
   72MPD2    H1 1123   0.339   1.958   1.069  1.9840 -0.7669 -0.0237
   72MPD2    H2 1124   0.396   2.159   0.691 -2.4973  0.3629  0.3143
   72MPD2    H3 1125   0.305   1.975   0.823 -2.9535  0.1855  0.9721
   72MPD2     N 1126   0.459   2.136   1.209  0.5034  1.1347 -0.3653
   72MPD2    H5 1127   0.413   2.062   1.261  1.9384  0.2364 -0.3717
   72MPD2    N1 1128   0.526   2.375   0.801 -0.1627 -0.3614  0.2926
   72MPD2    H7 1129   0.572   2.440   0.864 -0.3321  0.3773 -0.3457
   73TMC2    C1 1130   0.957   3.537  13.936 -0.0167  0.3599 -0.7828
   73TMC2    C2 1131   0.955   3.435  13.837  0.2615  0.9403  0.4572
   73TMC2    C3 1132   1.076   3.369  13.815  0.6575  0.3526 -0.0700
   73TMC2    C4 1133   1.057   3.540  14.030 -0.0714  0.5750  0.0819
   73TMC2    C5 1134   1.170   3.471  14.008  0.3563 -0.5405  0.0226
   73TMC2    C6 1135   1.179   3.374  13.911  0.2031 -0.9796 -0.0418
   73TMC2     C 1136   0.931   3.672  13.887  0.5609  0.0248 -0.0101
   73TMC2     O 1137   1.014   3.747  13.933  0.2136  0.1681 -0.6932
   73TMC2     H 1138   0.871   3.432  13.769  1.3257  0.5251 -0.8552
   73TMC2    H1 1139   1.045   3.604  14.117  0.0662 -0.2330  0.6910
   73TMC2    H2 1140   1.267   3.312  13.904 -0.5481 -1.7267 -3.3202
   73TMC2    C7 1141   1.291   3.533  14.039  0.1848 -0.2337  0.7790
   73TMC2    C8 1142   1.080   3.256  13.724  0.7408 -0.7140 -0.9623
   73TMC2    O1 1143   1.400   3.479  14.034  0.3487  0.3224  0.0204
   73TMC2    O2 1144   0.980   3.192  13.691 -1.3653  0.1483 -0.4743
   73TMC2    O5 1145   1.180   3.289  13.638  0.4394 -0.2338 -0.1613
   73TMC2    H5 1146   1.246   3.351  13.677  0.4912 -0.6014  0.3409
   74MPD2     C 1147   0.737   4.039  13.583 -0.0701  0.0977 -0.5826
   74MPD2    C1 1148   0.845   4.048  13.671 -0.6230 -0.2148 -0.1932
   74MPD2    C2 1149   0.877   3.934  13.744 -0.3061  0.4386  0.1427
   74MPD2    C3 1150   0.806   3.816  13.720  0.3069 -1.0306  0.4313
   74MPD2    C4 1151   0.704   3.808  13.627  0.4977  0.3830  0.6038
   74MPD2    C5 1152   0.669   3.921  13.558 -0.0840  0.1788  0.2653
   74MPD2     H 1153   0.954   3.935  13.819  2.3207  0.5355 -2.5485
   74MPD2    H1 1154   0.642   3.719  13.617  0.7814  0.3257 -0.6944
   74MPD2    H2 1155   0.710   4.129  13.529  4.1678  0.8460 -1.3964
   74MPD2    H3 1156   0.590   3.927  13.485 -0.4907 -1.9691  0.5449
   74MPD2     N 1157   0.825   3.692  13.795  0.2503 -0.1164 -0.4669
   74MPD2    H5 1158   0.756   3.619  13.779 -0.1439  0.1386  0.0421
   74MPD2    N1 1159   0.921   4.160  13.671 -0.0650  0.0349 -0.5244
   74MPD2    H7 1160   0.893   4.226  13.599 -1.2461 -1.2677 -1.2772
   75TMC2    C1 1161   0.870   0.189  14.057 -0.4902  0.5728 -0.0759
   75TMC2    C2 1162   0.751   0.171  14.113 -0.0373  0.7452  0.5252
   75TMC2    C3 1163   0.643   0.215  14.051 -1.1203  0.1412  0.2250
   75TMC2    C4 1164   0.880   0.251  13.928 -0.2777  0.6618  0.2300
   75TMC2    C5 1165   0.760   0.290  13.872 -0.2544  0.5079 -0.4863
   75TMC2    C6 1166   0.638   0.274  13.933  0.2113 -0.2406 -0.3981
   75TMC2     C 1167   0.989   0.132  14.125 -0.3709  0.5635 -0.0088
   75TMC2     O 1168   0.964   0.055  14.219  0.2800  0.0006  0.0729
   75TMC2     H 1169   0.749   0.138  14.216  0.6534  0.5188  0.4657
   75TMC2    H1 1170   0.975   0.272  13.879  0.0031  0.1246  0.5380
   75TMC2    H2 1171   0.543   0.313  13.898  0.3035  0.3684  0.0357
   75TMC2    C7 1172   0.757   0.347  13.741 -0.1507  0.1394  0.1391
   75TMC2    C8 1173   0.536   0.256  14.143  0.2963  0.6510  0.0426
   75TMC2    O1 1174   0.860   0.403  13.700 -0.5185 -0.0734 -0.1176
   75TMC2    O2 1175   0.427   0.295  14.105 -0.5423 -0.3513 -0.3871
   75TMC2    O5 1176   0.598   0.299  14.256 -0.0357  0.4059  0.0717
   75TMC2    H5 1177   0.695   0.290  14.264  0.1830 -0.0289 -2.9201
   76TMC2    C1 1178   0.087   0.306  11.998 -0.5481 -0.2588  0.7680
   76TMC2    C2 1179   0.047   0.245  11.884  0.0901  0.1402 -0.0012
   76TMC2    C3 1180   0.093   0.123  11.854 -0.1115  0.0580  0.0918
   76TMC2    C4 1181   0.171   0.246  12.082  0.6703  0.1832 -0.1688
   76TMC2    C5 1182   0.207   0.116  12.061  0.4285  0.3453 -0.3950
   76TMC2    C6 1183   0.176   0.049  11.942  0.0680 -0.2762 -0.2129
   76TMC2     C 1184   0.063   0.445  12.017  0.0092 -0.0742 -0.3898
   76TMC2     O 1185   0.072   0.513  11.915  0.5533  0.1922 -0.4321
   76TMC2     H 1186   4.728   0.306  11.814  0.4974 -1.3561 -1.6195
   76TMC2    H1 1187   0.193   0.295  12.176  0.9445  1.6092 -0.9706
   76TMC2    H2 1188   0.217   4.691  11.908  0.9936 -0.0990  0.4104
   76TMC2    C7 1189   0.321   0.059  12.138  0.2990 -0.1908  0.3778
   76TMC2    C8 1190   0.091   0.085  11.715 -0.1365 -0.2935  0.6186
   76TMC2    O1 1191   0.358   4.683  12.105  0.5220 -0.3511 -0.3197
   76TMC2    O2 1192   0.081   0.166  11.626  0.1155  0.5890 -0.4338
   76TMC2    O5 1193   0.066   4.693  11.707 -0.1794  0.3976 -0.3035
   76TMC2    H5 1194   0.045   4.647  11.792  1.4078  1.7165  0.7951
   77MPD2     C 1195   4.607   0.838  12.277 -0.3651  0.0816  0.5993
   77MPD2    C1 1196   4.612   0.818  12.138 -0.1824 -0.0593 -0.7133
   77MPD2    C2 1197   4.683   0.711  12.092 -0.9584  0.7398  0.2516
   77MPD2    C3 1198   4.723   0.610  12.183  0.4869 -0.2842  0.5010
   77MPD2    C4 1199   4.705   0.630  12.319 -0.2981  0.5543  0.0740
   77MPD2    C5 1200   4.641   0.740  12.367 -0.2577 -0.3192 -0.3081
   77MPD2     H 1201   4.705   0.693  11.987  2.0541  1.3457  0.7828
   77MPD2    H1 1202   4.730   0.548  12.385  0.1709 -0.5916 -1.5211
   77MPD2    H2 1203   4.549   0.921  12.315 -0.6948 -0.1160  0.5315
   77MPD2    H3 1204   4.628   0.741  12.474  1.6649 -0.4756 -0.0697
   77MPD2     N 1205   0.045   0.485  12.145 -0.2498 -0.0749  0.4248
   77MPD2    H5 1206   0.056   0.412  12.214  0.7581 -0.8235 -0.5293
   77MPD2    N1 1207   4.550   0.916  12.059  0.0301 -0.1730 -0.5527
   77MPD2    H7 1208   4.511   0.997  12.105  2.2961  0.0087  1.0386
   78TMC2    C1 1209   0.447   1.559   1.588  0.0503 -0.4042  0.6271
   78TMC2    C2 1210   0.442   1.471   1.699 -0.2699  0.0975 -0.0289
   78TMC2    C3 1211   0.550   1.467   1.784 -0.2664  0.2390  0.7797
   78TMC2    C4 1212   0.557   1.637   1.569 -0.1752  0.2946  0.5611
   78TMC2    C5 1213   0.663   1.622   1.653  0.4320  0.1950 -0.1684
   78TMC2    C6 1214   0.662   1.543   1.763 -0.4604  0.5310 -0.2461
   78TMC2     C 1215   0.345   1.573   1.487  0.1277 -0.2136  0.1719
   78TMC2     O 1216   0.376   1.623   1.381 -0.6687  0.1520 -0.3353
   78TMC2     H 1217   0.358   1.405   1.717 -0.2264  0.5596  1.8445
   78TMC2    H1 1218   0.562   1.699   1.479 -0.6932  0.1567  0.4373
   78TMC2    H2 1219   0.738   1.547   1.841  1.8022 -2.5073 -2.3152
   78TMC2    C7 1220   0.794   1.667   1.601  0.3002  0.2370 -1.1732
   78TMC2    C8 1221   0.547   1.389   1.906  0.1781 -0.0720  0.4459
   78TMC2    O1 1222   0.799   1.766   1.524  0.9546  0.1219  0.4058
   78TMC2    O2 1223   0.441   1.369   1.966  0.0601  0.3256  0.3957
   78TMC2    O5 1224   0.662   1.313   1.908 -0.0733  0.2196  0.3214
   78TMC2    H5 1225   0.718   1.317   1.828 -1.7473 -2.6245 -0.9721
   79MPD1     C 1226   4.597   1.541   1.347  0.6891  0.4032 -0.1786
   79MPD1    C1 1227   4.708   1.556   1.270  0.7582 -0.0832 -0.2302
   79MPD1    C2 1228   0.096   1.563   1.334  0.0779  0.2393 -0.3196
   79MPD1    C3 1229   0.097   1.568   1.472 -0.2640  0.2395 -0.5327
   79MPD1    C4 1230   4.725   1.544   1.542  0.5498 -0.3994  0.1636
   79MPD1    C5 1231   4.610   1.529   1.477 -0.3388 -0.6254 -0.0826
   79MPD1     H 1232   0.182   1.587   1.273  1.2624 -0.2455  1.1610
   79MPD1    H1 1233   4.725   1.530   1.649  0.9503  1.7788  0.4472
   79MPD1    H2 1234   4.497   1.556   1.310 -0.3945  0.0550  2.5532
   79MPD1    H3 1235   4.526   1.504   1.540  2.4673  1.6775  4.5721
   79MPD1     N 1236   0.219   1.558   1.541  0.1327  0.2718  0.0001
   79MPD1    H5 1237   0.217   1.533   1.639  3.1027  1.1093  0.2853
   79MPD1    N1 1238   4.701   1.560   1.125 -0.2933 -0.2176  0.1561
   79MPD1    H6 1239   4.614   1.519   1.093  0.1071 -0.5332 -0.5175
   79MPD1    H7 1240   0.042   1.528   1.069  0.9666  0.8961  1.2742
   80TMC2    C1 1241   3.454   0.728  11.628 -0.0382 -0.1357 -0.3047
   80TMC2    C2 1242   3.497   0.778  11.504 -0.2226 -0.4327 -1.1780
   80TMC2    C3 1243   3.401   0.814  11.414 -0.3102  0.1903  0.5449
   80TMC2    C4 1244   3.324   0.708  11.658 -0.5322 -0.0408 -0.2029
   80TMC2    C5 1245   3.237   0.737  11.559 -0.3247  0.2338 -0.5335
   80TMC2    C6 1246   3.270   0.792  11.436 -0.0964 -0.5231 -0.3925
   80TMC2     C 1247   3.555   0.729  11.732  0.5365  0.2293 -0.6623
   80TMC2     O 1248   3.667   0.696  11.697 -0.1548 -0.2573  0.3149
   80TMC2     H 1249   3.603   0.791  11.483 -0.4713  0.8702 -1.5903
   80TMC2    H1 1250   3.292   0.676  11.757  1.9091 -1.3799  0.1529
   80TMC2    H2 1251   3.195   0.803  11.359 -2.4251  0.4955  2.0182
   80TMC2    C7 1252   3.087   0.736  11.584 -0.3315  0.0652 -0.5693
   80TMC2    C8 1253   3.428   0.901  11.304 -0.1469 -0.6905  0.0481
   80TMC2    O1 1254   3.022   0.833  11.538  1.3686  0.4900  0.6400
   80TMC2    O2 1255   3.336   0.954  11.245  0.5266 -0.0940  0.1669
   80TMC2    O5 1256   3.559   0.925  11.286 -0.6658 -0.0828  0.1226
   80TMC2    H5 1257   3.615   0.853  11.322  1.6327 -0.0523 -3.3678
   81MPD2     C 1258   3.690   0.686  11.983  0.0426  0.6100 -0.0106
   81MPD2    C1 1259   3.581   0.760  11.978 -0.5072  0.7444 -0.3146
   81MPD2    C2 1260   3.527   0.814  12.094 -0.1424  0.0417 -0.5615
   81MPD2    C3 1261   3.582   0.789  12.218  0.6037 -0.5160  0.0678
   81MPD2    C4 1262   3.691   0.714  12.214  0.6258  0.5922 -0.1457
   81MPD2    C5 1263   3.742   0.656  12.106  0.2102 -0.2906 -0.4242
   81MPD2     H 1264   3.437   0.873  12.077  0.0882  0.4778 -0.2675
   81MPD2    H1 1265   3.734   0.690  12.311  1.5353  2.3799 -0.1233
   81MPD2    H2 1266   3.734   0.634  11.898 -0.9473 -0.3545  0.0627
   81MPD2    H3 1267   3.830   0.595  12.120 -0.9442 -1.2385  2.6736
   81MPD2     N 1268   3.525   0.834  12.342 -0.9094 -0.2231 -0.0762
   81MPD2    H5 1269   3.567   0.811  12.431  1.1781 -0.8415 -1.2146
   81MPD2    N1 1270   3.512   0.776  11.854 -0.0640 -0.0629  0.2845
   81MPD2    H7 1271   3.421   0.819  11.856  0.6117  1.4263 -1.5199
   82TMC2    C1 1272   0.973   4.581  10.742  0.9421  0.2894  0.8667
   82TMC2    C2 1273   1.011   4.675  10.837 -0.2831 -0.4116  0.9192
   82TMC2    C3 1274   1.060   4.629  10.953  0.5559  0.0345 -0.0485
   82TMC2    C4 1275   0.964   4.444  10.767 -0.1311  0.4764  0.2686
   82TMC2    C5 1276   1.015   4.401  10.888 -0.1104  0.2140 -0.6008
   82TMC2    C6 1277   1.067   4.494  10.978 -0.3375  0.3053  0.3381
   82TMC2     C 1278   0.926   4.646  10.624 -0.2851  0.2344  0.2153
   82TMC2     O 1279   0.826   4.603  10.563 -0.2290 -0.2942  0.5254
   82TMC2     H 1280   1.031   0.044  10.820  3.3685 -1.3244 -0.5467
   82TMC2    H1 1281   0.937   4.377  10.686  1.2617 -0.7160  0.7853
   82TMC2    H2 1282   1.124   4.447  11.057 -1.1023  0.6769  1.1159
   82TMC2    C7 1283   1.002   4.262  10.933  0.5344 -1.0241 -0.1862
   82TMC2    C8 1284   1.138   4.713  11.039  0.5399 -0.1547  0.7394
   82TMC2    O1 1285   1.058   4.237  11.041  0.1740 -0.6616  0.7555
   82TMC2    O2 1286   1.228   0.045  10.996  0.1647 -0.3352  0.1448
   82TMC2    O5 1287   1.125   4.666  11.168 -0.1521  0.4022  0.5825
   82TMC2    H5 1288   1.047   4.609  11.183 -0.6772  0.6050 -1.3888
   83MPD2     C 1289   1.009   0.342  10.341 -0.3279  0.8282 -0.6179
   83MPD2    C1 1290   0.918   0.238  10.312 -0.2165 -0.1143 -0.1786
   83MPD2    C2 1291   0.908   0.127  10.395  0.6219  0.3702 -0.1654
   83MPD2    C3 1292   1.001   0.112  10.499 -0.6019 -0.5676 -0.6167
   83MPD2    C4 1293   1.094   0.209  10.521 -0.2648 -0.3141 -0.2354
   83MPD2    C5 1294   1.107   0.312  10.436  0.8947 -0.1991  0.6751
   83MPD2     H 1295   0.837   0.046  10.378  0.2533  0.6184  0.2244
   83MPD2    H1 1296   1.172   0.189  10.593  0.9008  0.7642 -1.1897
   83MPD2    H2 1297   1.022   0.433  10.283 -0.2212  0.7862 -0.6586
   83MPD2    H3 1298   1.191   0.380  10.442  0.7834  0.2479 -2.9214
   83MPD2     N 1299   1.010   0.008  10.593 -0.4005  0.0371 -0.6292
   83MPD2    H5 1300   1.095   0.011  10.648 -0.5997 -1.2101 -0.2471
   83MPD2    N1 1301   0.839   0.256  10.197 -0.0030  0.2121 -0.0755
   83MPD2    H7 1302   0.883   0.313  10.126  1.2346 -1.2076 -0.4494
   84TMC2    C1 1303   2.457   3.656  11.046  0.2969 -0.3501  0.5061
   84TMC2    C2 1304   2.469   3.576  11.159  0.5710 -0.1417 -0.0373
   84TMC2    C3 1305   2.450   3.442  11.159 -0.0396 -0.3356 -0.2594
   84TMC2    C4 1306   2.395   3.610  10.934  0.6724 -0.4101 -0.2215
   84TMC2    C5 1307   2.363   3.473  10.940  0.4489  0.1666 -0.2025
   84TMC2    C6 1308   2.393   3.390  11.049  0.0655  0.4925 -0.3573
   84TMC2     C 1309   2.490   3.794  11.068 -0.0372  0.9949 -0.1558
   84TMC2     O 1310   2.490   3.841  11.181 -0.4949  0.4715  0.3791
   84TMC2     H 1311   2.515   3.621  11.246  0.0450  0.8040 -0.2471
   84TMC2    H1 1312   2.361   3.685  10.863  0.0410 -2.6989 -2.3256
   84TMC2    H2 1313   2.384   3.282  11.048  0.4443  0.4466  3.3670
   84TMC2    C7 1314   2.279   3.429  10.831  0.0475 -0.5268  0.4329
   84TMC2    C8 1315   2.431   3.378  11.286 -0.2486 -0.3754  0.9999
   84TMC2    O1 1316   2.260   3.507  10.740 -0.0489  0.0191 -0.4563
   84TMC2    O2 1317   2.513   3.392  11.374  0.3288  0.5855  0.3167
   84TMC2    O5 1318   2.298   3.386  11.309  0.4255  0.1130 -0.4060
   84TMC2    H5 1319   2.248   3.348  11.234 -0.6338 -2.5203  1.6376
   85TMC2    C1 1320   3.759   2.857  16.029  0.3176 -0.0489 -0.2047
   85TMC2    C2 1321   3.630   2.911  15.999  0.2230 -0.2548  0.3292
   85TMC2    C3 1322   3.633   3.028  15.928  0.8462 -0.2743  0.0272
   85TMC2    C4 1323   3.869   2.912  15.971  0.5473 -0.1604 -0.2841
   85TMC2    C5 1324   3.862   3.019  15.890 -0.1851  0.0421  0.3656
   85TMC2    C6 1325   3.743   3.090  15.874  0.1161  0.4541 -0.3894
   85TMC2     C 1326   3.781   2.741  16.120  0.3132 -0.5729  0.2800
   85TMC2     O 1327   3.897   2.697  16.134  0.1960  0.1497  0.3566
   85TMC2     H 1328   3.535   2.865  16.023 -0.4970  1.6327  1.1277
   85TMC2    H1 1329   3.966   2.868  15.988  0.5693 -0.9116 -2.2502
   85TMC2    H2 1330   3.725   3.159  15.792 -1.4833 -3.4919 -3.4138
   85TMC2    C7 1331   3.977   3.049  15.802 -0.0929  0.0909 -0.1573
   85TMC2    C8 1332   3.508   3.103  15.944  0.7204  0.0698  0.0633
   85TMC2    O1 1333   4.066   2.962  15.797  0.0735  0.4104  0.3399
   85TMC2    O2 1334   3.400   3.045  15.942  0.5499  0.1197  0.3037
   85TMC2    O5 1335   3.522   3.226  15.887 -0.2481  0.2423  0.2689
   85TMC2    H5 1336   3.614   3.259  15.888 -0.7339  1.6417 -1.2656
   86MPD2     C 1337   3.638   2.392  16.459 -0.3602 -0.6877  0.0758
   86MPD2    C1 1338   3.522   2.428  16.382  1.1867 -0.4475  0.0581
   86MPD2    C2 1339   3.536   2.529  16.289 -0.5105 -0.2299  0.1821
   86MPD2    C3 1340   3.655   2.588  16.267  0.2413  0.0186 -0.6841
   86MPD2    C4 1341   3.766   2.560  16.350  0.3991 -0.0386 -0.3630
   86MPD2    C5 1342   3.758   2.458  16.440  0.5334  0.6045 -0.2948
   86MPD2     H 1343   3.451   2.549  16.224 -0.6435  0.1692  0.4796
   86MPD2    H1 1344   3.864   2.607  16.340  1.5878 -2.2871  0.7279
   86MPD2    H2 1345   3.632   2.315  16.536 -0.9817  0.6437  1.3494
   86MPD2    H3 1346   3.850   2.434  16.491  1.0401  1.0528 -0.9870
   86MPD2     N 1347   3.663   2.692  16.166  0.1115  0.3619  0.3444
   86MPD2    H5 1348   3.571   2.722  16.135  0.6466  0.4934 -1.1094
   86MPD2    N1 1349   3.399   2.362  16.392  0.4003  0.4610 -0.0906
   86MPD2    H7 1350   3.332   2.362  16.316  1.0866 -0.9304 -0.7134
   87TMC2    C1 1351   0.877   0.736   0.837 -0.5597 -0.1362 -0.1231
   87TMC2    C2 1352   0.761   0.748   0.768 -0.3378 -0.2103  0.5695
   87TMC2    C3 1353   0.650   0.787   0.838 -0.1969 -0.1677 -0.4576
   87TMC2    C4 1354   0.890   0.773   0.970 -0.0009 -0.2570  0.1811
   87TMC2    C5 1355   0.776   0.826   1.034  0.4794 -0.1092  0.5392
   87TMC2    C6 1356   0.649   0.829   0.969 -0.0525  0.4506 -0.0000
   87TMC2     C 1357   0.996   0.689   0.769 -0.5483 -0.4561 -0.1660
   87TMC2     O 1358   1.099   0.688   0.836 -0.1158 -0.0139 -1.1248
   87TMC2     H 1359   0.750   0.766   0.662  0.4172  0.1467  0.5524
   87TMC2    H1 1360   0.992   0.786   1.006  0.3535  2.0643 -1.7156
   87TMC2    H2 1361   0.561   0.874   1.014 -0.0504 -1.4383  1.8811
   87TMC2    C7 1362   0.789   0.929   1.139  0.6330  0.7446 -0.7789
   87TMC2    C8 1363   0.539   0.814   0.761 -0.1358 -0.4135  0.3631
   87TMC2    O1 1364   0.694   1.004   1.163 -0.0204 -0.3005  0.1003
   87TMC2    O2 1365   0.492   0.749   0.669  0.0348 -0.1085  0.1688
   87TMC2    O5 1366   0.500   0.937   0.794 -0.6044 -0.0307 -0.8262
   87TMC2    H5 1367   0.563   0.990   0.847 -1.3001 -0.1144  0.0841
   88MPD2     C 1368   1.095   1.016   1.328  0.4191 -0.4775  0.4215
   88MPD2    C1 1369   0.972   1.031   1.272 -0.1849 -0.5113 -0.0533
   88MPD2    C2 1370   0.909   1.159   1.278 -0.0096  0.3671  0.4065
   88MPD2    C3 1371   0.979   1.274   1.316  0.4613  0.2392 -0.5316
   88MPD2    C4 1372   1.104   1.255   1.370  0.5751 -0.3273 -0.0389
   88MPD2    C5 1373   1.161   1.128   1.372  0.4315 -0.2764  0.2910
   88MPD2     H 1374   0.811   1.175   1.235  1.0456  0.5279 -1.9255
   88MPD2    H1 1375   1.155   1.348   1.394  0.0689 -0.0810  0.0716
   88MPD2    H2 1376   1.148   0.923   1.310  1.3433  0.1915 -0.2638
   88MPD2    H3 1377   1.268   1.119   1.384  0.3426  0.2312  1.4678
   88MPD2     N 1378   0.935   1.404   1.304  0.2721 -0.2046  0.1623
   88MPD2    H5 1379   0.999   1.481   1.317  0.9055 -0.9090  1.2375
   88MPD2    N1 1380   0.915   0.926   1.190 -0.1524  0.7550 -0.0158
   88MPD2    H7 1381   0.971   0.842   1.176 -1.0226  0.1724  0.0072
   89TMC2    C1 1382   2.213   3.618   1.464 -0.8451  0.0921  0.2298
   89TMC2    C2 1383   2.313   3.696   1.514  0.3929  0.7769  0.6908
   89TMC2    C3 1384   2.326   3.820   1.464 -0.0699 -0.3554 -0.2226
   89TMC2    C4 1385   2.137   3.658   1.358 -0.4780 -0.0135  0.1998
   89TMC2    C5 1386   2.146   3.790   1.321  0.9618 -0.6486 -0.1227
   89TMC2    C6 1387   2.248   3.872   1.360  0.0978  0.2309 -0.6098
   89TMC2     C 1388   2.178   3.504   1.547 -0.6908  0.5278 -0.1980
   89TMC2     O 1389   2.229   3.517   1.659 -0.2645  0.5995 -0.9049
   89TMC2     H 1390   2.369   3.666   1.602  2.8837 -0.2871 -1.2412
   89TMC2    H1 1391   2.049   3.606   1.323  0.5161 -0.7239 -1.2293
   89TMC2    H2 1392   2.278   3.970   1.325 -2.3246  0.5977 -1.6782
   89TMC2    C7 1393   2.055   3.828   1.211  0.2032  0.9474 -0.2418
   89TMC2    C8 1394   2.454   3.884   1.494 -0.1666 -0.5357  0.0211
   89TMC2    O1 1395   1.966   3.749   1.179 -0.0872 -0.1510 -0.0111
   89TMC2    O2 1396   2.559   3.825   1.513  0.8126 -0.3580 -0.1137
   89TMC2    O5 1397   2.436   4.016   1.520  0.4000  0.2732 -0.7188
   89TMC2    H5 1398   2.340   4.037   1.530  0.4535  0.1749  0.0163
   90MPD2     C 1399   1.954   3.074   1.682  0.8017  0.1031  0.0422
   90MPD2    C1 1400   1.921   3.101   1.554 -0.8657  0.0086  0.2472
   90MPD2    C2 1401   1.951   3.223   1.499  0.5699 -0.0279 -0.0741
   90MPD2    C3 1402   2.032   3.307   1.564  0.7189 -0.3649 -0.0169
   90MPD2    C4 1403   2.069   3.280   1.698  0.1133 -0.2927  0.6100
   90MPD2    C5 1404   2.028   3.160   1.753  0.1758 -0.0103 -0.1482
   90MPD2     H 1405   1.937   3.244   1.394 -0.9170  1.0297  0.3339
   90MPD2    H1 1406   2.122   3.351   1.760 -0.6840 -0.4339  1.4543
   90MPD2    H2 1407   1.935   2.977   1.728  2.1996 -0.0906  0.2089
   90MPD2    H3 1408   2.044   3.142   1.858 -0.9996  0.7285  0.1576
   90MPD2     N 1409   2.086   3.414   1.493  0.2438 -0.4396 -0.1086
   90MPD2    H5 1410   2.057   3.423   1.396 -0.0708  1.3810  0.1609
   90MPD2    N1 1411   1.856   2.994   1.479  0.0649  0.7190  0.4231
   90MPD2    H7 1412   1.793   3.003   1.399  0.5791 -0.9170 -0.1755
   91TMC2    C1 1413   3.506   4.175  16.311 -0.1121 -0.5846 -0.0563
   91TMC2    C2 1414   3.558   4.185  16.435 -0.3338 -0.2607  0.0463
   91TMC2    C3 1415   3.480   4.209  16.538 -0.5109 -1.1311 -0.5091
   91TMC2    C4 1416   3.377   4.214  16.284  0.1327 -0.2691  0.1333
   91TMC2    C5 1417   3.304   4.266  16.388  0.4381 -0.2544  0.0383
   91TMC2    C6 1418   3.359   4.262  16.513  0.5139 -0.4543 -0.1919
   91TMC2     C 1419   3.560   4.099  16.200  0.6039  0.1793  0.5902
   91TMC2     O 1420   3.522   4.126  16.086  0.0010 -0.5991 -0.2801
   91TMC2     H 1421   3.663   4.163  16.452 -0.2770 -0.0251 -0.0062
   91TMC2    H1 1422   3.328   4.202  16.188 -1.3268 -0.8359  0.9573
   91TMC2    H2 1423   3.298   4.294  16.597  2.1002  3.5271 -0.5828
   91TMC2    C7 1424   3.164   4.301  16.368  0.0991  0.1772 -0.4166
   91TMC2    C8 1425   3.523   4.196  16.681  0.2009  0.1769  0.1441
   91TMC2    O1 1426   3.100   4.355  16.454  0.4215  0.5447  0.2663
   91TMC2    O2 1427   3.595   4.106  16.717 -0.1972  0.0098 -0.2080
   91TMC2    O5 1428   3.498   4.310  16.750 -0.1452  0.0832  0.2987
   91TMC2    H5 1429   3.466   4.380  16.689  0.5998 -0.6609 -0.9509
   92MPD2     C 1430   3.613   3.866  16.036 -0.9400 -0.2516 -0.2903
   92MPD2    C1 1431   3.689   3.898  16.151 -0.1387  0.1711 -0.1923
   92MPD2    C2 1432   3.797   3.814  16.184 -0.5474 -0.2030 -0.4840
   92MPD2    C3 1433   3.830   3.708  16.101 -0.4289 -0.3509  0.1377
   92MPD2    C4 1434   3.770   3.689  15.982 -0.4290  0.3297 -0.6147
   92MPD2    C5 1435   3.651   3.759  15.951  0.4550 -0.0493 -0.2376
   92MPD2     H 1436   3.839   3.823  16.284  0.7135 -0.7470 -0.9586
   92MPD2    H1 1437   3.807   3.618  15.909  0.9221 -0.8529  1.2436
   92MPD2    H2 1438   3.516   3.911  16.020 -0.7148  1.1940  2.2673
   92MPD2    H3 1439   3.609   3.752  15.852  1.3619 -0.4402 -0.5931
   92MPD2     N 1440   3.939   3.627  16.146 -0.1426 -0.3272  0.0284
   92MPD2    H5 1441   3.995   3.670  16.219 -2.3779 -0.2909  1.7200
   92MPD2    N1 1442   3.643   3.998  16.240 -0.0338 -0.2965 -0.1635
   92MPD2    H7 1443   3.668   4.002  16.338 -1.9279 -0.1558  0.3082
   93TMC2    C1 1444   0.788   2.838  13.671 -0.3089 -0.1855  0.6638
   93TMC2    C2 1445   0.748   2.771  13.556  0.1343 -0.0311  0.3283
   93TMC2    C3 1446   0.846   2.721  13.477  0.3679  0.2182 -0.0387
   93TMC2    C4 1447   0.922   2.855  13.698 -1.0281 -0.1955 -0.1911
   93TMC2    C5 1448   1.016   2.818  13.602  0.5754  0.1481  0.7504
   93TMC2    C6 1449   0.978   2.750  13.488  0.0438  0.2256  0.2949
   93TMC2     C 1450   0.685   2.840  13.775 -0.3752 -0.0721  0.1116
   93TMC2     O 1451   0.726   2.829  13.891  0.8624 -0.4212  0.5012
   93TMC2     H 1452   0.646   2.735  13.541  0.3789 -0.9033  0.7792
   93TMC2    H1 1453   0.951   2.926  13.775 -0.4368 -1.6660  0.9463
   93TMC2    H2 1454   1.050   2.718  13.414 -1.0190  0.7465 -0.9671
   93TMC2    C7 1455   1.151   2.875  13.594 -0.2469 -0.2355 -0.3441
   93TMC2    C8 1456   0.817   2.706  13.335 -0.3598 -0.6051 -0.0668
   93TMC2    O1 1457   1.196   2.870  13.482 -0.6879  0.1871  0.2307
   93TMC2    O2 1458   0.747   2.775  13.264 -0.2167  0.1751 -0.3629
   93TMC2    O5 1459   0.846   2.578  13.314  0.1967  0.6594  0.1023
   93TMC2    H5 1460   0.890   2.531  13.387 -2.2783  1.5400  2.1640
   94MPD2     C 1461   0.427   2.832  13.936  0.1452 -0.9169 -0.2849
   94MPD2    C1 1462   0.437   2.871  13.803 -1.0256  0.3165 -0.1225
   94MPD2    C2 1463   0.320   2.897  13.734 -0.7440 -0.0167  0.5422
   94MPD2    C3 1464   0.197   2.886  13.800  0.2076  0.6431  0.0507
   94MPD2    C4 1465   0.194   2.843  13.933 -0.2047  0.3910  0.4676
   94MPD2    C5 1466   0.309   2.812  13.996  0.1692  0.5284  0.2786
   94MPD2     H 1467   0.337   2.916  13.629 -0.6810 -2.5978  0.0729
   94MPD2    H1 1468   0.104   2.832  13.992  0.4807  2.2729  1.8667
   94MPD2    H2 1469   0.512   2.807  13.997 -2.3477 -0.5863  3.3158
   94MPD2    H3 1470   0.296   2.767  14.093 -2.2153 -0.8983 -0.6990
   94MPD2     N 1471   0.072   2.920  13.738 -0.5122 -0.5510  0.3780
   94MPD2    H5 1472   4.724   2.907  13.793 -0.3930  2.1095  1.1788
   94MPD2    N1 1473   0.562   2.874  13.727  0.0955  0.7302  0.0633
   94MPD2    H7 1474   0.556   2.903  13.631 -0.4074 -0.0117 -0.1312
   95TMC2    C1 1475   4.659   0.161  15.874 -0.7788 -0.0305 -0.0927
   95TMC2    C2 1476   4.543   0.223  15.893 -0.4786 -0.4002 -0.7204
   95TMC2    C3 1477   4.429   0.145  15.886  0.2597 -0.5474 -0.0934
   95TMC2    C4 1478   4.668   0.031  15.821  1.0292 -0.3722  0.3993
   95TMC2    C5 1479   4.549   4.701  15.801  0.2389  0.0726 -0.1739
   95TMC2    C6 1480   4.426   0.014  15.847 -0.5555 -0.6410  0.7862
   95TMC2     C 1481   0.030   0.247  15.835  0.2127  0.6886 -0.2219
   95TMC2     O 1482   0.096   0.230  15.733  0.1423  0.2881  0.1517
   95TMC2     H 1483   4.542   0.328  15.920 -1.7166 -0.6780  0.3201
   95TMC2    H1 1484   0.029   4.723  15.813  1.0473 -0.3994  0.7872
   95TMC2    H2 1485   4.333   4.696  15.837 -0.9665  0.1160  0.4012
   95TMC2    C7 1486   4.567   4.571  15.735 -0.6789 -0.3178  0.6618
   95TMC2    C8 1487   4.307   0.188  15.937  0.5350  0.0450  0.0206
   95TMC2    O1 1488   4.669   4.541  15.679 -0.1652 -0.3037  0.1048
   95TMC2    O2 1489   4.206   0.122  15.924 -0.2341  0.2821 -0.1117
   95TMC2    O5 1490   4.334   0.252  16.048 -0.3939 -0.1552  0.0952
   95TMC2    H5 1491   4.426   0.281  16.064  0.6777 -3.4703 -0.0832
   96MPD2     C 1492   0.319   0.662  15.941 -0.6148 -0.6384  0.1492
   96MPD2    C1 1493   0.335   0.569  15.837  0.0441 -0.0487 -0.6246
   96MPD2    C2 1494   0.247   0.461  15.827 -0.0846  0.1596 -0.0583
   96MPD2    C3 1495   0.154   0.451  15.930 -0.2752 -0.3519 -0.3787
   96MPD2    C4 1496   0.146   0.540  16.035 -0.2857  0.7828 -0.9597
   96MPD2    C5 1497   0.228   0.648  16.043 -0.0588  0.2253  0.6456
   96MPD2     H 1498   0.255   0.388  15.748 -1.3129 -0.5736  0.4995
   96MPD2    H1 1499   0.070   0.537  16.113  0.3373  0.5106 -0.3702
   96MPD2    H2 1500   0.388   0.744  15.957  0.4216 -1.2196 -1.3218
   96MPD2    H3 1501   0.215   0.731  16.111  0.8570 -0.4530  1.6398
   96MPD2     N 1502   0.054   0.345  15.928  0.9434  0.0137 -0.4219
   96MPD2    H5 1503   4.727   0.341  16.007 -1.2801 -0.8984 -2.2445
   96MPD2    N1 1504   0.436   0.586  15.741  0.0757 -0.0432  0.0103
   96MPD2    H7 1505   0.492   0.671  15.740  1.2121 -0.7773  0.3608
   97TMC2    C1 1506   2.946   3.305   0.178 -0.6942 -0.9442  0.5562
   97TMC2    C2 1507   3.031   3.199   0.154  0.3201 -0.4642  0.0070
   97TMC2    C3 1508   3.160   3.229   0.115 -0.3538 -0.0813  0.1830
   97TMC2    C4 1509   2.980   3.432   0.134  0.2553  0.6530 -0.2057
   97TMC2    C5 1510   3.106   3.454   0.086 -0.3789 -0.3588  0.0783
   97TMC2    C6 1511   3.198   3.353   0.075  0.1847  0.3782  0.3138
   97TMC2     C 1512   2.821   3.282   0.249  0.0031  0.0784 -0.5029
   97TMC2     O 1513   2.817   3.175   0.312  0.1826  1.0163 -0.9962
   97TMC2     H 1514   3.013   3.100   0.194  1.1484 -0.7557 -0.3353
   97TMC2    H1 1515   2.919   3.512   0.176 -0.6166  0.6016 -1.3721
   97TMC2    H2 1516   3.304   3.371   0.059 -0.3232  3.6994  0.7007
   97TMC2    C7 1517   3.163   3.586   0.105  0.2254 -0.4707 -0.1310
   97TMC2    C8 1518   3.224   3.113   0.068  0.3834  0.0789  0.8446
   97TMC2    O1 1519   3.274   3.585   0.160  0.1524 -0.0848 -0.0105
   97TMC2    O2 1520   3.197   2.997   0.092 -0.0017  0.8404 -0.2509
   97TMC2    O5 1521   3.270   3.149  17.692  0.0091 -0.0085 -0.4943
   97TMC2    H5 1522   3.269   3.244  17.669 -0.6629 -0.3340 -1.8545
   98MPD2     C 1523   2.328   3.414   0.368 -0.0620 -0.6834 -0.1614
   98MPD2    C1 1524   2.407   3.313   0.418 -0.0348 -0.2398  0.3442
   98MPD2    C2 1525   2.534   3.295   0.366 -0.6340 -0.0445  1.1899
   98MPD2    C3 1526   2.585   3.378   0.266 -0.3557  0.1508 -0.7401
   98MPD2    C4 1527   2.509   3.482   0.225 -0.3112 -0.5256  0.3012
   98MPD2    C5 1528   2.382   3.496   0.274 -0.3390 -0.1348 -0.5122
   98MPD2     H 1529   2.594   3.215   0.409  0.7395  0.5155  0.2812
   98MPD2    H1 1530   2.539   3.552   0.148 -0.1459 -0.8155  0.1041
   98MPD2    H2 1531   2.227   3.443   0.395 -0.8274 -0.4987 -3.1806
   98MPD2    H3 1532   2.327   3.582   0.237  0.4323  1.2244  1.5080
   98MPD2     N 1533   2.719   3.371   0.217 -0.0530 -0.0614  0.9115
   98MPD2    H5 1534   2.738   3.435   0.140 -3.5724 -0.8238 -0.5626
   98MPD2    N1 1535   2.345   3.232   0.516  0.6258 -0.4844  0.0325
   98MPD2    H7 1536   2.248   3.255   0.535  0.0650 -3.4366  0.7637
   99TMC2    C1 1537   2.034   0.229   1.011 -0.1001 -0.4050  0.7931
   99TMC2    C2 1538   2.134   0.314   1.049  0.5244 -0.2898 -0.3797
   99TMC2    C3 1539   2.188   0.297   1.174  0.4413  0.0184 -0.1359
   99TMC2    C4 1540   1.979   0.140   1.101 -0.2307  0.1649 -0.2306
   99TMC2    C5 1541   2.026   0.143   1.230  0.3579  0.8215 -0.5382
   99TMC2    C6 1542   2.135   0.219   1.266 -0.7616  0.2589  0.2768
   99TMC2     C 1543   1.987   0.232   0.873 -0.0841 -0.1017  0.2250
   99TMC2     O 1544   2.032   0.322   0.802 -0.0539  0.6245 -0.0866
   99TMC2     H 1545   2.185   0.373   0.974 -0.7402  0.5395 -0.5796
   99TMC2    H1 1546   1.896   0.073   1.083 -0.0528 -0.2952  0.6792
   99TMC2    H2 1547   2.163   0.215   1.371 -1.0692  1.4200  0.4119
   99TMC2    C7 1548   1.983   0.050   1.332  0.6200  0.3949 -0.2706
   99TMC2    C8 1549   2.326   0.343   1.190 -0.2422  0.1137 -0.0219
   99TMC2    O1 1550   2.037   0.038   1.442  0.1978 -0.0996  0.1913
   99TMC2    O2 1551   2.386   0.421   1.114 -0.0898  0.3712  0.6458
   99TMC2    O5 1552   2.381   0.262   1.284  0.0345  0.1521 -0.4181
   99TMC2    H5 1553   2.331   0.178   1.296  0.3628  0.0314  0.0836
  100MPD2     C 1554   1.770   0.266   0.669 -0.3800 -0.1972 -0.2470
  100MPD2    C1 1555   1.799   0.151   0.727 -0.0909 -0.2739  0.4027
  100MPD2    C2 1556   1.722   0.040   0.695  0.3657  0.3083 -0.9580
  100MPD2    C3 1557   1.617   0.051   0.609  0.5851  0.7921 -0.4857
  100MPD2    C4 1558   1.598   0.169   0.540  0.1849  0.3706 -0.4999
  100MPD2    C5 1559   1.670   0.276   0.574 -0.2622 -0.3018  0.2755
  100MPD2     H 1560   1.736   4.679   0.741 -0.2549  1.4560  1.6488
  100MPD2    H1 1561   1.512   0.196   0.479 -1.2983 -0.9535  0.9798
  100MPD2    H2 1562   1.817   0.360   0.694  0.2425 -0.4356 -0.5297
  100MPD2    H3 1563   1.642   0.375   0.540 -0.2082 -0.5651 -0.5549
  100MPD2     N 1564   1.542   4.672   0.589 -0.2233 -0.8494  0.0949
  100MPD2    H5 1565   1.576   4.583   0.625  0.2669 -0.4681  0.5645
  100MPD2    N1 1566   1.895   0.139   0.833 -0.0748  0.0984 -0.1153
  100MPD2    H7 1567   1.891   0.053   0.886 -1.8631  0.7687  0.8200
  101TMC2    C1 1568   2.197   1.129  13.015 -0.7277  0.4309  0.3650
  101TMC2    C2 1569   2.114   1.154  12.908  0.5107 -0.8812  0.1798
  101TMC2    C3 1570   2.152   1.263  12.829  1.2001  0.0694 -0.4246
  101TMC2    C4 1571   2.308   1.201  13.047 -0.2670 -0.6608 -0.0101
  101TMC2    C5 1572   2.332   1.312  12.968  0.4565 -0.4116  0.6685
  101TMC2    C6 1573   2.256   1.343  12.856 -0.2478 -0.9931  0.3161
  101TMC2     C 1574   2.166   1.010  13.096  0.1090 -0.3072 -0.4375
  101TMC2     O 1575   2.049   0.971  13.087  0.4732  0.2102 -0.2837
  101TMC2     H 1576   2.028   1.088  12.904  0.9249 -1.3177 -1.4055
  101TMC2    H1 1577   2.365   1.179  13.136  1.9979  1.3169 -0.9648
  101TMC2    H2 1578   2.289   1.427  12.795 -0.0307 -0.0688  1.7038
  101TMC2    C7 1579   2.467   1.357  12.958 -0.4685 -0.0918  0.1968
  101TMC2    C8 1580   2.090   1.301  12.702  0.1586 -0.6793 -0.4288
  101TMC2    O1 1581   2.496   1.406  12.850  0.0973 -0.1740 -0.0492
  101TMC2    O2 1582   2.098   1.417  12.658  0.6260 -0.2451 -0.0565
  101TMC2    O5 1583   2.091   1.186  12.629 -0.0621  0.2236 -0.1179
  101TMC2    H5 1584   2.086   1.100  12.676 -0.7187  0.7728  0.8114
  102MPD2     C 1585   2.370   0.840  13.344  0.0331  0.2748  0.2105
  102MPD2    C1 1586   2.259   0.869  13.271 -0.5415  0.0177  0.6903
  102MPD2    C2 1587   2.144   0.814  13.315  0.8607 -0.1465  0.2433
  102MPD2    C3 1588   2.140   0.737  13.425  0.1506  0.1793  0.0974
  102MPD2    C4 1589   2.254   0.709  13.498  0.2966  0.0494 -0.7383
  102MPD2    C5 1590   2.374   0.759  13.453 -0.2121 -0.2186  0.3136
  102MPD2     H 1591   2.058   0.813  13.249  1.1815 -2.5035 -0.1141
  102MPD2    H1 1592   2.253   0.644  13.585  3.8438 -0.3510 -0.9762
  102MPD2    H2 1593   2.466   0.872  13.305 -0.4148  0.3876 -0.8078
  102MPD2    H3 1594   2.462   0.739  13.513 -0.5135 -2.6649 -0.0618
  102MPD2     N 1595   2.011   0.698  13.460 -0.3802 -0.6730  0.0874
  102MPD2    H5 1596   1.929   0.713  13.402 -1.0211  1.8283  1.6119
  102MPD2    N1 1597   2.269   0.953  13.164 -0.1880  0.0146 -0.1642
  102MPD2    H7 1598   2.359   0.998  13.156 -1.6980  2.8676 -1.2499
  103TMC2    C1 1599   0.710   0.514  12.632 -0.2005  0.2505 -0.3633
  103TMC2    C2 1600   0.773   0.606  12.549  0.2481  0.8832 -0.1265
  103TMC2    C3 1601   0.812   0.721  12.604  0.1292 -0.5321 -0.4593
  103TMC2    C4 1602   0.679   0.538  12.763 -0.3742  0.3598 -0.2707
  103TMC2    C5 1603   0.718   0.662  12.811  0.1469  0.1369  0.3141
  103TMC2    C6 1604   0.781   0.760  12.734  0.0896 -0.3077 -0.3354
  103TMC2     C 1605   0.627   0.426  12.556 -0.1257  0.1213  0.1080
  103TMC2     O 1606   0.573   0.473  12.459  0.6823 -0.0199 -0.3760
  103TMC2     H 1607   0.800   0.569  12.450 -1.4099 -1.8268  0.4405
  103TMC2    H1 1608   0.615   0.466  12.814  0.9917  1.3133  2.8263
  103TMC2    H2 1609   0.833   0.849  12.766  3.6636 -2.7929  0.7972
  103TMC2    C7 1610   0.645   0.700  12.934 -0.7039  0.3588  0.0707
  103TMC2    C8 1611   0.940   0.778  12.558 -0.0691 -0.5828  0.9421
  103TMC2    O1 1612   0.632   0.618  13.026 -0.1108  0.1577  1.0712
  103TMC2    O2 1613   1.039   0.798  12.628  0.0741 -0.1686 -0.3916
  103TMC2    O5 1614   0.936   0.754  12.429  0.3302  0.2705  1.0987
  103TMC2    H5 1615   0.853   0.773  12.381  1.2189  1.3353 -0.0232
  104MPD2     C 1616   0.658   0.060  12.509 -0.0500  1.0825  0.1025
  104MPD2    C1 1617   0.608   0.188  12.500  1.0236  0.2813  0.1008
  104MPD2    C2 1618   0.495   0.199  12.430  0.0927 -0.2105  0.9476
  104MPD2    C3 1619   0.448   0.104  12.346 -0.6953  1.0396 -0.1658
  104MPD2    C4 1620   0.502   4.711  12.355  0.9762  0.0620  0.5613
  104MPD2    C5 1621   0.605   4.691  12.441 -0.5116  0.3221  0.2560
  104MPD2     H 1622   0.439   0.292  12.430  1.3308  0.5491 -1.3100
  104MPD2    H1 1623   0.473   4.623  12.299 -2.1038  0.3783  1.7060
  104MPD2    H2 1624   0.753   0.055  12.562 -0.8978  0.6485  1.5848
  104MPD2    H3 1625   0.659   4.598  12.448  0.0298  0.7791  1.9596
  104MPD2     N 1626   0.357   0.145  12.243 -0.1125  0.4576  0.2035
  104MPD2    H5 1627   0.316   0.237  12.253 -1.7360 -0.1454 -0.8155
  104MPD2    N1 1628   0.663   0.290  12.580  0.2586  0.4825  0.0240
  104MPD2    H7 1629   0.736   0.273  12.648  1.2266  1.3016 -0.8222
  105TMC2    C1 1630   0.985   0.205  17.608 -0.5452 -0.0559 -0.0794
  105TMC2    C2 1631   0.856   0.185  17.644 -0.3497 -0.0273 -0.7377
  105TMC2    C3 1632   0.805   0.253  17.746  0.3804 -0.0250  0.5038
  105TMC2    C4 1633   1.060   0.308  17.654  0.2161 -0.0917 -0.1598
  105TMC2    C5 1634   1.002   0.376   0.007 -0.1188  0.3573  0.3699
  105TMC2    C6 1635   0.876   0.354   0.057 -0.4176 -0.0897 -0.8163
  105TMC2     C 1636   1.047   0.136  17.499 -0.5168  0.2257  0.1661
  105TMC2     O 1637   0.994   0.030  17.467  0.5842  0.9085 -0.4233
  105TMC2     H 1638   0.808   0.094  17.610  0.1649 -0.6317  0.1392
  105TMC2    H1 1639   1.165   0.318  17.633  0.6959  1.0043  2.7317
  105TMC2    H2 1640   0.833   0.399   0.146  1.7267  1.5791 -0.6212
  105TMC2    C7 1641   1.093   0.446   0.097 -0.3963 -0.0754 -0.5105
  105TMC2    C8 1642   0.687   0.210   0.067 -0.3764  0.1296 -0.1883
  105TMC2    O1 1643   1.214   0.438   0.073  0.2476  0.3088 -0.4995
  105TMC2    O2 1644   0.664   0.241   0.179 -0.4294 -0.0619  0.0144
  105TMC2    O5 1645   0.607   0.225  17.703  0.2632 -0.2303 -0.5875
  105TMC2    H5 1646   0.658   0.248  17.623  1.0500 -0.0639 -0.0409
  106MPD2     C 1647   1.303   0.140  17.063 -0.9175 -0.1261  0.2108
  106MPD2    C1 1648   1.290   0.270  17.104  0.6125 -0.0939  0.4266
  106MPD2    C2 1649   1.227   0.289  17.229 -0.4248 -0.0178  0.1045
  106MPD2    C3 1650   1.177   0.191  17.301  0.0024  0.3156  0.5921
  106MPD2    C4 1651   1.200   0.061  17.261  0.1569  0.2079 -0.1032
  106MPD2    C5 1652   1.261   0.035  17.144 -0.1218  0.8721 -0.0300
  106MPD2     H 1653   1.230   0.389  17.269  1.3715 -1.1419  2.7769
  106MPD2    H1 1654   1.164   4.717  17.323 -2.2516 -0.3082 -2.1930
  106MPD2    H2 1655   1.349   0.120  16.967 -0.4656 -1.7872  0.7713
  106MPD2    H3 1656   1.255   4.671  17.107 -1.6110  1.0109 -0.1430
  106MPD2     N 1657   1.116   0.226  17.426 -0.0096  0.4098  0.4688
  106MPD2    H5 1658   1.119   0.321  17.462 -2.0008  1.0762 -1.1917
  106MPD2    N1 1659   1.348   0.376  17.047  0.6072 -0.5574 -0.3596
  106MPD2    H7 1660   1.331   0.468  17.085  0.2124 -0.8729  0.2225
  107TMC2    C1 1661   2.329   4.553  11.393 -0.2369 -0.4638  0.1404
  107TMC2    C2 1662   2.411   4.631  11.484 -0.4588 -0.0451  0.0550
  107TMC2    C3 1663   2.539   4.656  11.456  0.3275 -0.1348 -0.0715
  107TMC2    C4 1664   2.384   4.497  11.287 -0.4660 -0.5013 -0.9937
  107TMC2    C5 1665   2.515   4.520  11.269 -0.0391 -0.4889  0.3343
  107TMC2    C6 1666   2.597   4.604  11.345  0.6044  0.3189 -0.8321
  107TMC2     C 1667   2.195   4.532  11.440 -0.4436  0.2390 -0.0777
  107TMC2     O 1668   2.179   4.560  11.558 -0.1436 -0.1744  0.1838
  107TMC2     H 1669   2.376   4.652  11.585  0.8312  0.1018  0.4693
  107TMC2    H1 1670   2.324   4.433  11.223 -1.7078  0.8650 -1.2054
  107TMC2    H2 1671   2.705   4.608  11.337  0.4975  2.6447 -1.0251
  107TMC2    C7 1672   2.582   4.447  11.163 -0.0427  0.0319  0.2604
  107TMC2    C8 1673   2.616   4.706  11.571  0.9989 -0.3026  0.6136
  107TMC2    O1 1674   2.688   4.491  11.126 -0.5152  0.1441 -0.1878
  107TMC2    O2 1675   2.581   4.699  11.687  0.0826 -0.3648  0.3272
  107TMC2    O5 1676   2.714   0.045  11.524  0.3356  0.0037  0.0272
  107TMC2    H5 1677   2.719   0.044  11.426 -0.7136  1.9608 -0.0330
  108MPD2     C 1678   1.882   4.440  11.275  0.2460 -0.1581  0.0019
  108MPD2    C1 1679   1.971   4.443  11.376 -0.3101  0.0254  0.2682
  108MPD2    C2 1680   1.935   4.404  11.505 -0.4957  0.7619 -0.4615
  108MPD2    C3 1681   1.814   4.355  11.534 -0.3974 -0.1225 -0.1371
  108MPD2    C4 1682   1.719   4.357  11.431  0.5616  0.2625 -0.0003
  108MPD2    C5 1683   1.757   4.395  11.301 -0.6222 -0.2110  0.3094
  108MPD2     H 1684   2.013   4.413  11.579 -0.5986  3.3093 -0.6533
  108MPD2    H1 1685   1.616   4.333  11.453  0.6237  0.3425  0.3806
  108MPD2    H2 1686   1.913   4.460  11.173 -0.0658  1.3345  0.2000
  108MPD2    H3 1687   1.689   4.368  11.221 -1.1327 -0.8512  0.9541
  108MPD2     N 1688   1.767   4.323  11.664  0.5222  0.1996 -0.1787
  108MPD2    H5 1689   1.666   4.320  11.676  0.5554 -0.5221 -0.1016
  108MPD2    N1 1690   2.105   4.488  11.346  0.1656 -0.1266 -0.0736
  108MPD2    H7 1691   2.124   4.497  11.247 -2.6243  2.0896 -0.4267
  109TMC2    C1 1692   1.120   2.752   0.490  0.0615 -0.0989  0.3481
  109TMC2    C2 1693   1.057   2.827   0.396  0.6990 -0.8758  0.3921
  109TMC2    C3 1694   1.110   2.955   0.378 -0.7001 -0.1960 -0.0437
  109TMC2    C4 1695   1.232   2.794   0.561 -0.0835  0.6351 -0.0145
  109TMC2    C5 1696   1.278   2.918   0.539  0.9037  0.1002  0.2104
  109TMC2    C6 1697   1.208   3.005   0.457  0.6180  0.3937  0.4874
  109TMC2     C 1698   1.065   2.621   0.526  0.3640  0.1507  0.1882
  109TMC2     O 1699   0.960   2.596   0.472  0.2955  0.0436 -0.2173
  109TMC2     H 1700   0.984   2.779   0.333  0.8007 -1.3596  0.6417
  109TMC2    H1 1701   1.289   2.728   0.626 -1.3416 -0.0052  0.4418
  109TMC2    H2 1702   1.250   3.102   0.436 -2.0898  1.4587 -0.0596
  109TMC2    C7 1703   1.411   2.952   0.591 -0.9222  0.1037  0.4474
  109TMC2    C8 1704   1.033   3.045   0.301 -0.6791 -0.0929 -0.0377
  109TMC2    O1 1705   1.480   2.857   0.618 -0.4054  0.0780 -0.4746
  109TMC2    O2 1706   0.994   3.029   0.191 -0.0412  0.4363  0.3977
  109TMC2    O5 1707   1.033   3.159   0.368  0.0363 -0.6277  0.3517
  109TMC2    H5 1708   1.039   3.135   0.463  1.5405  4.8414  1.6476
  110MPD2     C 1709   1.000   2.208   0.818 -0.0041 -0.0848 -0.2861
  110MPD2    C1 1710   1.105   2.274   0.867  0.1091 -0.4669 -0.3820
  110MPD2    C2 1711   1.146   2.382   0.790  0.0404  0.3581 -0.2210
  110MPD2    C3 1712   1.083   2.424   0.673  0.3221  0.3693  0.6855
  110MPD2    C4 1713   0.982   2.351   0.624 -0.0040  0.1515 -0.0454
  110MPD2    C5 1714   0.939   2.246   0.697 -0.2904 -0.1136  0.1740
  110MPD2     H 1715   1.243   2.425   0.813  0.1095 -0.9152  1.8705
  110MPD2    H1 1716   0.926   2.378   0.535  1.3527  1.4051 -0.5190
  110MPD2    H2 1717   0.954   2.125   0.869 -1.7369  1.1907  0.2111
  110MPD2    H3 1718   0.859   2.187   0.653 -0.4649  0.9785 -0.9926
  110MPD2     N 1719   1.127   2.548   0.618 -0.1847 -0.1900  0.2313
  110MPD2    H5 1720   1.213   2.578   0.663  1.3687 -1.8045 -1.6293
  110MPD2    N1 1721   1.174   2.222   0.975 -0.1998 -0.7682 -0.4183
  110MPD2    H7 1722   1.135   2.140   1.020 -0.5184 -0.4339 -0.0910
  111TMC2    C1 1723   2.447   1.942  12.017  0.5000  0.2002 -0.2257
  111TMC2    C2 1724   2.346   2.002  12.094 -0.3373  0.1298 -0.8147
  111TMC2    C3 1725   2.373   2.026  12.225 -0.6655 -0.2568  0.0152
  111TMC2    C4 1726   2.573   1.934  12.069  0.4839  0.2378  0.1926
  111TMC2    C5 1727   2.596   1.988  12.188  0.6580  0.5473 -0.7868
  111TMC2    C6 1728   2.496   2.026  12.278  0.1961 -0.5303 -0.5627
  111TMC2     C 1729   2.408   1.842  11.916  0.1254  0.4819 -0.4556
  111TMC2     O 1730   2.493   1.792  11.844 -0.2744 -0.2589  0.1651
  111TMC2     H 1731   2.249   2.009  12.046  0.2159  0.2315 -1.9177
  111TMC2    H1 1732   2.654   1.903  12.004 -0.6598  0.0349 -1.1493
  111TMC2    H2 1733   2.517   2.066  12.376  2.7840 -0.9885 -0.9324
  111TMC2    C7 1734   2.730   1.979  12.245 -0.6342 -0.6756 -0.5200
  111TMC2    C8 1735   2.277   2.112  12.295  0.2089 -0.1885 -1.0075
  111TMC2    O1 1736   2.743   1.984  12.369  0.0221  0.6581  0.2393
  111TMC2    O2 1737   2.318   2.225  12.332 -0.4774  0.4447 -0.8979
  111TMC2    O5 1738   2.150   2.072  12.273  0.4779  0.1131 -0.0075
  111TMC2    H5 1739   2.156   1.981  12.238  0.9073 -0.3707  1.3232
  112MPD2     C 1740   2.012   1.582  11.734 -0.4844  0.2483 -0.1501
  112MPD2    C1 1741   2.105   1.669  11.674 -0.0845  0.4182  0.0250
  112MPD2    C2 1742   2.207   1.732  11.749  0.2928 -0.6053  0.3000
  112MPD2    C3 1743   2.214   1.704  11.884 -0.0078  0.1644  0.1106
  112MPD2    C4 1744   2.123   1.618  11.935 -0.4151  1.2102  0.1734
  112MPD2    C5 1745   2.015   1.561  11.868 -0.2234  0.4027 -0.3037
  112MPD2     H 1746   2.275   1.800  11.699 -0.9414  1.4397  1.3552
  112MPD2    H1 1747   2.136   1.587  12.038  0.8632 -0.1373 -0.3966
  112MPD2    H2 1748   1.932   1.533  11.681  1.8648 -2.8674 -0.7995
  112MPD2    H3 1749   1.956   1.493  11.929 -0.6407  0.9381 -0.1043
  112MPD2     N 1750   2.300   1.777  11.964 -0.3912 -0.7681  0.4834
  112MPD2    H5 1751   2.281   1.795  12.062 -1.6338 -0.4590  0.1793
  112MPD2    N1 1752   2.113   1.691  11.532  0.1601  0.0024 -0.2484
  112MPD2    H7 1753   2.191   1.753  11.510  1.5747 -1.3012  1.0948
  113TMC2    C1 1754   0.379   0.045   0.656 -0.2926 -0.2113 -0.0236
  113TMC2    C2 1755   0.283   0.144   0.657 -0.1282 -0.1403  0.5189
  113TMC2    C3 1756   0.170   0.132   0.584  0.8396 -0.2656  0.5286
  113TMC2    C4 1757   0.356   4.665   0.592 -0.4762  0.4065 -0.4891
  113TMC2    C5 1758   0.247   4.655   0.520  0.3890 -0.3349 -0.2984
  113TMC2    C6 1759   0.148   0.014   0.511  0.9152 -0.1718 -0.8517
  113TMC2     C 1760   0.500   0.066   0.738 -0.8358  0.0402  0.7952
  113TMC2     O 1761   0.492   0.147   0.827 -0.9221 -0.4601 -0.0326
  113TMC2     H 1762   0.291   0.234   0.715  0.1823 -0.0642  0.3628
  113TMC2    H1 1763   0.411   4.573   0.611 -0.2015  0.5901 -0.3968
  113TMC2    H2 1764   0.052   4.720   0.473 -0.1664  0.4708  1.3641
  113TMC2    C7 1765   0.199   4.519   0.489 -0.5456  0.5299  0.9158
  113TMC2    C8 1766   0.065   0.223   0.612  0.1770 -0.0150  0.1656
  113TMC2    O1 1767   0.108   4.513   0.406  0.2730 -0.2348  0.0752
  113TMC2    O2 1768   0.040   0.268   0.722 -0.4847  0.2103 -0.3533
  113TMC2    O5 1769   4.713   0.192   0.520  0.0818 -0.1790 -0.1223
  113TMC2    H5 1770   0.019   0.171   0.434 -0.4302 -1.0739 -0.1586
  114MPD2     C 1771   1.001   0.003   0.788  0.1019  0.3501  0.2334
  114MPD2    C1 1772   0.914   0.067   0.868 -0.4290 -0.4469 -0.0269
  114MPD2    C2 1773   0.781   0.067   0.837 -0.3972 -0.0131 -0.2483
  114MPD2    C3 1774   0.732   4.714   0.746 -1.0372 -0.1563 -0.0306
  114MPD2    C4 1775   0.823   4.638   0.677  0.1260  0.2510 -0.5656
  114MPD2    C5 1776   0.961   4.649   0.695 -0.2148 -0.5199  0.3581
  114MPD2     H 1777   0.720   0.146   0.880  0.8256  1.3044 -0.9087
  114MPD2    H1 1778   0.779   4.578   0.598 -0.6453 -0.3580  0.3329
  114MPD2    H2 1779   1.109   0.003   0.796  0.2487  0.2533 -1.7668
  114MPD2    H3 1780   1.025   4.586   0.635  0.9521 -0.2481  1.3101
  114MPD2     N 1781   0.591   4.710   0.709 -0.0118  0.1907  0.2991
  114MPD2    H5 1782   0.564   4.636   0.645  2.2148  0.0701 -0.4678
  114MPD2    N1 1783   0.954   0.161   0.968 -0.1130  0.2594  0.4793
  114MPD2    H7 1784   0.875   0.201   1.018  0.3093  2.2340 -0.4491
  115TMC2    C1 1785   1.615   2.393   0.023 -0.1146  0.1514 -0.0056
  115TMC2    C2 1786   1.703   2.287   0.034 -0.3486 -0.3825  0.0383
  115TMC2    C3 1787   1.826   2.321   0.077 -0.3375  0.2182  0.0962
  115TMC2    C4 1788   1.658   2.521   0.027  0.2481 -0.4782  0.1122
  115TMC2    C5 1789   1.788   2.550   0.055 -0.5931 -0.2209 -0.9945
  115TMC2    C6 1790   1.873   2.449   0.086 -0.0377 -0.6471  0.0517
  115TMC2     C 1791   1.481   2.358  17.718 -0.6458 -0.0316 -0.0840
  115TMC2     O 1792   1.444   2.241  17.735  0.5249 -0.2888 -0.2645
  115TMC2     H 1793   1.673   2.183   0.040  0.6475 -0.8212 -2.4386
  115TMC2    H1 1794   1.589   2.604   0.026 -0.7882 -1.3076  2.5916
  115TMC2    H2 1795   1.974   2.468   0.121 -0.1753  1.8188 -0.8843
  115TMC2    C7 1796   1.844   2.682   0.051 -0.6387  0.3333 -0.1047
  115TMC2    C8 1797   1.930   2.223   0.083 -0.5053 -0.2219 -0.0035
  115TMC2    O1 1798   1.960   2.691   0.087  0.1115 -0.3011  0.0555
  115TMC2    O2 1799   2.041   2.241   0.136 -0.8815 -0.2618 -0.2184
  115TMC2    O5 1800   1.914   2.146  17.722  0.6251  0.0407 -0.0308
  115TMC2    H5 1801   1.820   2.161  17.696 -0.1312 -0.1070  2.6276
  116MPD2     C 1802   1.058   2.437  17.431 -0.5571  0.4687  0.1261
  116MPD2    C1 1803   1.108   2.331  17.501  0.2071  0.2921 -0.8908
  116MPD2    C2 1804   1.230   2.334  17.570  0.1119 -0.5314  0.5256
  116MPD2    C3 1805   1.300   2.453  17.576  0.0780 -0.2882 -0.0275
  116MPD2    C4 1806   1.243   2.561  17.505  0.0029 -0.5324  0.2769
  116MPD2    C5 1807   1.125   2.550  17.429 -0.9684  0.8061  0.1703
  116MPD2     H 1808   1.262   2.240  17.614  1.0818 -0.7257 -0.5722
  116MPD2    H1 1809   1.290   2.659  17.506 -0.2846 -0.4157  1.5934
  116MPD2    H2 1810   0.965   2.420  17.378 -0.2294  0.1204 -0.3363
  116MPD2    H3 1811   1.094   2.638  17.374 -2.0186  0.6019  0.4382
  116MPD2     N 1812   1.424   2.464  17.645 -0.0238  0.1515  0.2109
  116MPD2    H5 1813   1.468   2.556  17.642  0.5913 -0.1662 -0.6279
  116MPD2    N1 1814   1.026   2.214  17.490 -0.0578  0.1924 -0.7858
  116MPD2    H7 1815   0.948   2.227  17.427 -3.0489 -0.1647  2.8826
  117TMC2    C1 1816   0.436   3.388  14.074 -0.5198  0.4460  0.3701
  117TMC2    C2 1817   0.547   3.340  14.124 -0.1045 -0.8757 -0.3710
  117TMC2    C3 1818   0.650   3.428  14.135 -0.4961 -0.1468 -0.5166
  117TMC2    C4 1819   0.420   3.518  14.032 -0.0269  0.2090 -0.3227
  117TMC2    C5 1820   0.520   3.607  14.062 -0.6121 -0.2906  0.4745
  117TMC2    C6 1821   0.633   3.560  14.115  0.3276  0.0415  0.1351
  117TMC2     C 1822   0.322   3.284  14.090  0.7966  0.2009 -0.4208
  117TMC2     O 1823   0.350   3.181  14.142 -0.0611  0.0939 -0.2568
  117TMC2     H 1824   0.559   3.238  14.160  2.4531 -1.3260 -2.4896
  117TMC2    H1 1825   0.324   3.557  14.002 -0.7753 -1.5932 -0.2708
  117TMC2    H2 1826   0.711   3.635  14.122  0.7765 -0.3950 -0.1781
  117TMC2    C7 1827   0.525   3.732  13.993 -0.5984 -0.1400 -0.0380
  117TMC2    C8 1828   0.769   3.387  14.195 -0.4183  0.3076  0.3530
  117TMC2    O1 1829   0.602   3.818  14.035  0.1133  0.1225 -0.0480
  117TMC2    O2 1830   0.842   3.460  14.250 -0.3884  0.1796  0.5824
  117TMC2    O5 1831   0.814   3.294  14.105  0.0545  0.2938 -0.1688
  117TMC2    H5 1832   0.742   3.254  14.053  1.4345 -0.0635 -1.7969
  118MPD2     C 1833   0.326   3.837  13.703  0.4623  0.2424 -0.0910
  118MPD2    C1 1834   0.407   3.852  13.808 -0.1192  0.0152  0.9853
  118MPD2    C2 1835   0.450   3.983  13.835 -0.2768  0.3780  0.4666
  118MPD2    C3 1836   0.398   4.093  13.771 -0.2233  0.0317 -0.0881
  118MPD2    C4 1837   0.300   4.075  13.671 -0.4528  0.3680 -0.6807
  118MPD2    C5 1838   0.271   3.944  13.634  0.2279  0.1990 -0.9426
  118MPD2     H 1839   0.528   3.999  13.909 -0.2156  0.5603  0.3616
  118MPD2    H1 1840   0.244   4.159  13.633  0.0415  0.3970 -1.3543
  118MPD2    H2 1841   0.303   3.739  13.662 -2.1001  0.6949  0.2531
  118MPD2    H3 1842   0.193   3.920  13.563 -1.4356  2.8238 -0.0175
  118MPD2     N 1843   0.445   4.221  13.785 -0.2246 -0.9062  0.2904
  118MPD2    H5 1844   0.404   4.283  13.716 -0.0085  1.4526  2.2977
  118MPD2    N1 1845   0.443   3.735  13.882  0.0584  0.4967 -0.4087
  118MPD2    H7 1846   0.405   3.648  13.845  0.7159 -0.2244  0.5978
  119TMC2    C1 1847   3.178   0.140  13.141 -0.5042 -1.1558 -0.3612
  119TMC2    C2 1848   3.246   0.027  13.103 -0.1738 -0.1730 -0.3627
  119TMC2    C3 1849   3.184   4.677  13.013  0.0156 -0.0305  0.1007
  119TMC2    C4 1850   3.047   0.154  13.111 -0.0594 -0.4739 -0.2017
  119TMC2    C5 1851   2.990   0.059  13.032  0.2566  0.3787 -0.0341
  119TMC2    C6 1852   3.055   4.687  12.971 -0.0009  0.1384  0.0265
  119TMC2     C 1853   3.218   0.199  13.271  0.0913 -0.2380 -1.0213
  119TMC2     O 1854   3.123   0.235  13.344 -0.4812 -0.1898  0.1596
  119TMC2     H 1855   3.350   4.736  13.115  0.3912  2.5367  1.0894
  119TMC2    H1 1856   2.988   0.234  13.155  0.8372  1.8003 -3.1768
  119TMC2    H2 1857   3.006   4.605  12.921 -0.8684 -0.2535  1.5142
  119TMC2    C7 1858   2.861   0.023  13.082 -0.0653 -0.8893 -0.3526
  119TMC2    C8 1859   3.254   4.561  12.975  0.5688 -0.0838 -0.0802
  119TMC2    O1 1860   2.780   4.708  13.004  0.1605 -0.7615  0.0358
  119TMC2    O2 1861   3.312   4.552  12.867  0.3432  0.3721 -0.4271
  119TMC2    O5 1862   3.307   4.511  13.087  0.5417 -0.8770 -0.0619
  119TMC2    H5 1863   3.241   4.545  13.151  0.2075 -0.9935 -0.3423
  120MPD2     C 1864   3.540   0.294  13.665  0.1193 -0.4379 -0.1443
  120MPD2    C1 1865   3.408   0.330  13.652  0.3280 -0.2614 -0.3067
  120MPD2    C2 1866   3.355   0.295  13.525 -0.6685  0.8823  0.2681
  120MPD2    C3 1867   3.413   0.225  13.426 -0.0324  0.4611  0.6497
  120MPD2    C4 1868   3.545   0.196  13.441 -0.5714  0.2172  0.9183
  120MPD2    C5 1869   3.605   0.233  13.560 -0.2985  0.0570 -0.5237
  120MPD2     H 1870   3.254   0.333  13.516 -0.9873 -0.1518 -0.4918
  120MPD2    H1 1871   3.595   0.127  13.373  0.7487 -0.2675  2.3814
  120MPD2    H2 1872   3.604   0.304  13.752 -0.3439 -3.0529  0.4697
  120MPD2    H3 1873   3.710   0.214  13.579 -0.6998 -0.0540  1.5821
  120MPD2     N 1874   3.352   0.175  13.307  0.0313 -0.2881  0.5334
  120MPD2    H5 1875   3.409   0.137  13.231 -0.0820 -0.7976  0.7036
  120MPD2    N1 1876   3.339   0.392  13.762  0.1174  0.1641 -0.3640
  120MPD2    H7 1877   3.392   0.413  13.846 -0.3217 -0.0597 -0.0328
  121TMC2    C1 1878   4.145   1.509  14.424 -0.6438 -0.1399  0.0286
  121TMC2    C2 1879   4.161   1.412  14.523 -0.2682 -0.5337 -0.2534
  121TMC2    C3 1880   4.085   1.302  14.516 -0.2487 -0.7955  0.8886
  121TMC2    C4 1881   4.058   1.497  14.321  0.0327  0.0037 -0.7577
  121TMC2    C5 1882   3.992   1.375  14.317  0.2547 -0.0738  0.4770
  121TMC2    C6 1883   4.000   1.279  14.414 -0.8466  0.3505  0.5885
  121TMC2     C 1884   4.236   1.618  14.440  0.4152 -0.4474  0.1765
  121TMC2     O 1885   4.294   1.623  14.547  0.0306 -0.4086  0.1431
  121TMC2     H 1886   4.244   1.422  14.592  0.5553  0.9159 -1.4365
  121TMC2    H1 1887   4.036   1.582  14.257 -2.4618 -0.8182 -0.9979
  121TMC2    H2 1888   3.943   1.188  14.410  0.7655 -0.6401  0.0767
  121TMC2    C7 1889   3.868   1.373  14.241  0.8340 -0.3428 -0.3330
  121TMC2    C8 1890   4.080   1.203  14.626 -0.6160 -0.0072 -0.1502
  121TMC2    O1 1891   3.844   1.275  14.174  0.6784 -0.3967  0.0980
  121TMC2    O2 1892   4.043   1.084  14.628 -0.0054 -0.6221  0.8946
  121TMC2    O5 1893   4.141   1.261  14.726 -0.1721 -0.1991 -0.5004
  121TMC2    H5 1894   4.152   1.357  14.706 -2.7429 -0.3822 -2.7887
  122MPD2     C 1895   4.465   1.789  14.388 -0.0234 -0.4299  0.1137
  122MPD2    C1 1896   4.358   1.777  14.295 -0.0486 -0.5249 -0.1666
  122MPD2    C2 1897   4.377   1.838  14.171  0.1619 -0.3260 -0.1285
  122MPD2    C3 1898   4.495   1.903  14.135 -0.9951 -0.8425  0.1631
  122MPD2    C4 1899   4.592   1.915  14.225 -0.5846 -0.3879 -0.2280
  122MPD2    C5 1900   4.578   1.868  14.352 -0.6206 -0.3820  0.2270
  122MPD2     H 1901   4.295   1.822  14.101 -0.3765  0.2664  0.3678
  122MPD2    H1 1902   4.691   1.942  14.190 -0.2227  1.2267  2.0623
  122MPD2    H2 1903   4.471   1.746  14.488 -1.1685 -0.7604  0.0393
  122MPD2    H3 1904   4.663   1.882  14.417  0.1533 -2.4382 -0.3185
  122MPD2     N 1905   4.527   1.939  14.006  0.2725  0.1715 -0.8435
  122MPD2    H5 1906   4.622   1.962  13.980  0.7786  0.3896  1.1724
  122MPD2    N1 1907   4.243   1.695  14.327  0.4983  0.2104 -0.1041
  122MPD2    H7 1908   4.173   1.675  14.257  0.7837 -2.3397  0.3308
  123TMC2    C1 1909   2.833   0.125  10.702  0.6594  0.3869 -0.1095
  123TMC2    C2 1910   2.855   0.257  10.657  0.4025  0.0899 -0.2067
  123TMC2    C3 1911   2.870   0.268  10.525 -0.1482  0.0233 -0.8770
  123TMC2    C4 1912   2.826   0.013  10.621 -0.5062 -0.4390 -0.4549
  123TMC2    C5 1913   2.846   0.037  10.483 -0.2205  0.1866  0.3588
  123TMC2    C6 1914   2.845   0.167  10.437  0.0050  0.8470  0.1239
  123TMC2     C 1915   2.760   0.109  10.824 -0.0256 -0.3241  0.3375
  123TMC2     O 1916   2.765   0.202  10.901  0.4098 -0.1876 -0.1761
  123TMC2     H 1917   2.832   0.343  10.719 -0.4350 -0.7159  0.6056
  123TMC2    H1 1918   2.827   4.649  10.660 -0.2806 -0.3900 -0.3370
  123TMC2    H2 1919   2.855   0.195  10.332 -0.1409 -2.1355 -0.6920
  123TMC2    C7 1920   2.777   4.672  10.409 -0.1055  0.8494  0.3020
  123TMC2    C8 1921   2.874   0.403  10.468  0.0549  0.2253 -0.5252
  123TMC2    O1 1922   2.718   4.581  10.473 -0.9531 -0.2548  0.2910
  123TMC2    O2 1923   2.917   0.429  10.354 -0.2131  0.4267 -0.3518
  123TMC2    O5 1924   2.791   0.484  10.535 -0.2864 -1.0084  0.0959
  123TMC2    H5 1925   2.725   0.446  10.597 -1.5802 -0.1829 -0.7648
  124MPD2     C 1926   2.325   4.701  11.018 -0.2742  0.0841  0.3440
  124MPD2    C1 1927   2.347   4.624  10.909  0.3978  0.5098 -0.1201
  124MPD2    C2 1928   2.467   4.647  10.840 -0.2855  0.2433 -0.1811
  124MPD2    C3 1929   2.564   4.727  10.892 -0.7177  0.1108  0.2926
  124MPD2    C4 1930   2.547   0.051  11.012  0.0220 -0.1561  0.8076
  124MPD2    C5 1931   2.415   0.055  11.064 -0.5345  0.6141 -0.2891
  124MPD2     H 1932   2.481   4.587  10.751  0.0961 -1.3207  0.9491
  124MPD2    H1 1933   2.631   0.101  11.058 -0.5664  0.4700  1.2147
  124MPD2    H2 1934   2.236   4.693  11.079 -1.8738 -0.9299 -2.1018
  124MPD2    H3 1935   2.382   0.118  11.145 -1.6322  1.6611 -1.5541
  124MPD2     N 1936   2.679   0.002  10.819  0.0896  0.1358  0.4682
  124MPD2    H5 1937   2.685   4.680  10.737 -0.5549 -0.7870  1.0700
  124MPD2    N1 1938   2.254   4.524  10.866  0.5531  0.0855  0.0706
  124MPD2    H7 1939   2.266   4.489  10.772 -1.3072  2.4622 -1.0603
  125TMC2    C1 1940   3.058   2.068   9.950  0.4561  0.5879 -0.5749
  125TMC2    C2 1941   3.052   1.971  10.044  0.1336  0.2485 -0.4315
  125TMC2    C3 1942   3.167   1.897  10.058 -0.6642  0.3983 -0.5332
  125TMC2    C4 1943   3.177   2.111   9.893 -0.0168  0.7754 -0.2505
  125TMC2    C5 1944   3.292   2.045   9.926 -0.3315 -0.0111 -0.4181
  125TMC2    C6 1945   3.289   1.935  10.004 -0.7164 -0.7379  0.3347
  125TMC2     C 1946   2.934   2.140   9.928 -0.2584  0.1148 -0.3753
  125TMC2     O 1947   2.835   2.096   9.985  0.2271  0.2240 -0.5656
  125TMC2     H 1948   2.961   1.943  10.097  0.6485 -1.0232 -0.2096
  125TMC2    H1 1949   3.190   2.195   9.825 -0.9706  1.0070 -0.1460
  125TMC2    H2 1950   3.379   1.880  10.029  0.4694  1.3778  0.7179
  125TMC2    C7 1951   3.420   2.077   9.864 -0.4752  0.3804 -0.1587
  125TMC2    C8 1952   3.182   1.792  10.153  0.7782 -0.0148 -0.2335
  125TMC2    O1 1953   3.521   2.043   9.930  0.1593 -0.7906 -0.3459
  125TMC2    O2 1954   3.287   1.751  10.195 -0.1195 -0.3225  0.1326
  125TMC2    O5 1955   3.070   1.717  10.142 -0.0937  0.2033  0.0667
  125TMC2    H5 1956   2.993   1.763  10.103  0.9764  1.1711 -0.9074
  126MPD1     C 1957   2.645   2.446   9.651 -0.0133  0.3733 -0.1016
  126MPD1    C1 1958   2.752   2.401   9.574 -0.4224 -0.4890 -0.8178
  126MPD1    C2 1959   2.860   2.339   9.630 -0.4897 -0.2494 -0.4119
  126MPD1    C3 1960   2.844   2.289   9.758  0.3540  0.1471 -0.7647
  126MPD1    C4 1961   2.731   2.329   9.826  0.4656 -0.1807  0.0447
  126MPD1    C5 1962   2.635   2.412   9.780  0.4210  0.0819  0.0007
  126MPD1     H 1963   2.946   2.307   9.573 -0.4380 -1.9620  0.6414
  126MPD1    H1 1964   2.719   2.290   9.927 -1.3797 -1.3362 -0.6214
  126MPD1    H2 1965   2.562   2.507   9.616 -1.1667 -0.5500  1.0212
  126MPD1    H3 1966   2.551   2.450   9.837  0.0432 -2.5781  1.2212
  126MPD1     N 1967   2.946   2.213   9.809  0.1113  0.4431  0.2843
  126MPD1    H5 1968   3.025   2.190   9.749 -0.8490  0.4871 -1.0022
  126MPD1    N1 1969   2.762   2.466   9.449  0.2330 -0.5462 -0.0797
  126MPD1    H6 1970   2.670   2.483   9.407  1.0070 -0.0908 -1.5894
  126MPD1    H7 1971   2.827   2.425   9.383  1.6304  0.4261  0.6885
  127TMC2    C1 1972   3.984   0.620   9.594  0.5814 -0.3824  0.0979
  127TMC2    C2 1973   4.102   0.565   9.626 -0.7973 -0.7762 -0.3374
  127TMC2    C3 1974   4.103   0.478   9.735 -0.0853  0.6392 -0.3514
  127TMC2    C4 1975   3.870   0.596   9.674  0.1987 -0.2024  0.0374
  127TMC2    C5 1976   3.884   0.498   9.773 -0.1975 -0.4330 -0.4645
  127TMC2    C6 1977   3.999   0.442   9.809  0.2675  0.2861  0.3632
  127TMC2     C 1978   3.988   0.734   9.507 -0.2290  0.6441 -0.0495
  127TMC2     O 1979   4.097   0.773   9.463  0.1177  0.1597 -0.4007
  127TMC2     H 1980   4.187   0.590   9.565 -0.2079 -0.6403  0.5460
  127TMC2    H1 1981   3.773   0.645   9.670 -0.1306 -0.8588 -0.0749
  127TMC2    H2 1982   4.013   0.376   9.894  2.6634 -2.2445 -2.0019
  127TMC2    C7 1983   3.756   0.455   9.839 -0.0365 -0.1274 -0.4979
  127TMC2    C8 1984   4.214   0.392   9.754 -0.0551 -0.4905  0.1513
  127TMC2    O1 1985   3.665   0.534   9.848 -0.3372 -0.2938  0.4523
  127TMC2    O2 1986   4.206   0.275   9.798  0.2580 -0.0101  0.1891
  127TMC2    O5 1987   4.318   0.470   9.763  0.2045 -0.0543  0.6213
  127TMC2    H5 1988   4.304   0.563   9.736  1.2254  1.0060  3.7656
  128MPD2     C 1989   3.734   0.993   9.528 -0.5023 -0.6645 -0.6341
  128MPD2    C1 1990   3.845   0.933   9.483  0.2141 -0.2465  0.6832
  128MPD2    C2 1991   3.922   1.012   9.397  0.2324  0.1370 -0.0387
  128MPD2    C3 1992   3.879   1.143   9.358 -0.5483  0.3452  1.1977
  128MPD2    C4 1993   3.766   1.195   9.411 -0.0977 -0.4715  0.2000
  128MPD2    C5 1994   3.694   1.119   9.496 -0.8954  0.5296 -0.2123
  128MPD2     H 1995   4.012   0.967   9.356 -0.4376 -0.1770 -1.1648
  128MPD2    H1 1996   3.740   1.298   9.393 -1.1427 -0.7144  0.3038
  128MPD2    H2 1997   3.662   0.939   9.588  1.4091  1.1953  3.2984
  128MPD2    H3 1998   3.604   1.156   9.542 -0.9056  0.9321 -0.5608
  128MPD2     N 1999   3.977   1.217   9.272  0.0416 -0.3240  0.2517
  128MPD2    H5 2000   4.057   1.171   9.230 -0.2603  0.5607 -1.3218
  128MPD2    N1 2001   3.870   0.799   9.515  0.0958 -0.6899 -0.2962
  128MPD2    H7 2002   3.792   0.746   9.552 -0.3641  0.8572  0.9647
  129TMC2    C1 2003   3.493   1.528   1.887  0.0101 -0.4205  0.3662
  129TMC2    C2 2004   3.428   1.634   1.944 -0.1302  0.1907 -0.0960
  129TMC2    C3 2005   3.298   1.639   1.919 -0.4098 -0.1653  0.0859
  129TMC2    C4 2006   3.428   1.439   1.803 -0.1221  0.6701  0.0144
  129TMC2    C5 2007   3.295   1.460   1.782 -0.1296 -0.4701 -0.0077
  129TMC2    C6 2008   3.227   1.570   1.832 -0.0551  0.0391 -0.2420
  129TMC2     C 2009   3.630   1.554   1.844 -0.5095  0.4006 -0.0419
  129TMC2     O 2010   3.707   1.461   1.862  0.0073 -0.2946 -0.1996
  129TMC2     H 2011   3.475   1.711   2.005 -2.9795  1.7644  0.1093
  129TMC2    H1 2012   3.492   1.369   1.750  2.0160  2.4169  0.2989
  129TMC2    H2 2013   3.118   1.578   1.830 -0.0367  0.1254 -1.3554
  129TMC2    C7 2014   3.212   1.357   1.725  0.1303  0.6258 -0.4315
  129TMC2    C8 2015   3.226   1.749   1.972 -1.0285 -0.2073  0.0028
  129TMC2    O1 2016   3.110   1.389   1.664  0.1590 -0.4611 -0.3095
  129TMC2    O2 2017   3.125   1.798   1.934 -0.4560  0.0836 -0.2685
  129TMC2    O5 2018   3.267   1.766   2.098  0.1649  0.2909  0.2427
  129TMC2    H5 2019   3.319   1.688   2.130  0.6026  0.0540 -1.0752
  130MPD2     C 2020   3.848   1.617   1.646 -0.7866  0.1228  0.2698
  130MPD2    C1 2021   3.744   1.694   1.684  0.3819  0.1185 -0.1026
  130MPD2    C2 2022   3.717   1.802   1.611 -0.8902 -0.3143  0.9855
  130MPD2    C3 2023   3.782   1.843   1.500  0.1144  0.2200 -0.4915
  130MPD2    C4 2024   3.898   1.775   1.473  0.0639 -0.2450 -0.0771
  130MPD2    C5 2025   3.932   1.661   1.549  0.5440  0.6128  0.1258
  130MPD2     H 2026   3.630   1.859   1.643 -1.0059  0.2210 -0.2943
  130MPD2    H1 2027   3.966   1.821   1.403  0.9419 -0.2714  0.7585
  130MPD2    H2 2028   3.878   1.533   1.707 -1.4867  0.0643  0.5350
  130MPD2    H3 2029   4.022   1.603   1.528 -0.4065 -0.3452 -1.3267
  130MPD2     N 2030   3.733   1.959   1.427  0.0402 -0.0483 -0.0179
  130MPD2    H5 2031   3.636   1.987   1.442  0.5705  0.7369  1.9052
  130MPD2    N1 2032   3.641   1.669   1.774 -0.4296 -0.0963 -0.6461
  130MPD2    H7 2033   3.559   1.727   1.761 -0.1550  0.5727  0.6200
  131TMC2    C1 2034   2.109   0.279  10.312 -0.2767  0.6608  0.3872
  131TMC2    C2 2035   2.121   0.353  10.426  0.3973 -0.0793  0.4388
  131TMC2    C3 2036   2.159   0.483  10.419  0.7516 -0.1893  0.4604
  131TMC2    C4 2037   2.182   0.322  10.207  0.4232  0.0884 -0.2017
  131TMC2    C5 2038   2.235   0.445  10.202  0.0749  0.3099  0.0354
  131TMC2    C6 2039   2.217   0.531  10.305 -0.8599 -0.4971  0.5148
  131TMC2     C 2040   2.087   0.141  10.334 -0.3720 -0.7296  0.8179
  131TMC2     O 2041   2.079   0.106  10.449  0.2858 -0.1423 -0.0547
  131TMC2     H 2042   2.055   0.330  10.508  2.2018 -1.3822  1.5307
  131TMC2    H1 2043   2.193   0.267  10.114 -0.0294 -3.2632  1.6958
  131TMC2    H2 2044   2.254   0.632  10.308 -2.0644 -0.0275 -0.8888
  131TMC2    C7 2045   2.272   0.493  10.072 -0.3536  0.4461  0.3352
  131TMC2    C8 2046   2.186   0.543  10.544 -0.5752 -0.2219  0.0359
  131TMC2    O1 2047   2.210   0.448   9.978 -0.1285  0.5706 -0.3140
  131TMC2    O2 2048   2.175   0.478  10.647  0.4177 -0.1805 -0.2029
  131TMC2    O5 2049   2.141   0.667  10.540  0.2227  0.5412 -0.4377
  131TMC2    H5 2050   2.140   0.706  10.450  3.1922  0.2560 -0.5782
  132MPD2     C 2051   1.979   4.594  10.119 -0.1233  0.0351  0.1839
  132MPD2    C1 2052   2.047   4.652  10.222  0.5146  0.6983 -0.6008
  132MPD2    C2 2053   2.083   4.579  10.332  0.6280  0.6369  0.0073
  132MPD2    C3 2054   2.022   4.456  10.353  0.9107 -0.1520  0.4368
  132MPD2    C4 2055   1.951   4.397  10.246  0.0646 -0.5253  0.5144
  132MPD2    C5 2056   1.932   4.465  10.129  0.6204 -0.1371  0.3578
  132MPD2     H 2057   2.150   4.611  10.411  2.6097 -2.2306 -0.5299
  132MPD2    H1 2058   1.894   4.304  10.247  0.0261 -0.4999  0.6443
  132MPD2    H2 2059   1.952   4.645  10.027  1.6512 -0.0349 -0.3618
  132MPD2    H3 2060   1.891   4.416  10.042  1.4395  0.5643 -0.4187
  132MPD2     N 2061   2.030   4.408  10.484 -0.1187  0.1300 -0.2892
  132MPD2    H5 2062   2.085   4.455  10.555 -3.6691  1.4696  1.5933
  132MPD2    N1 2063   2.076   0.060  10.221  0.2995 -0.3167 -0.4244
  132MPD2    H7 2064   2.062   0.112  10.135  0.2520  1.0519  0.4006
  133TMC2    C1 2065   2.120   1.783   9.907  0.6985 -0.0633  0.4842
  133TMC2    C2 2066   2.226   1.717   9.965  0.1581  0.0332 -0.0969
  133TMC2    C3 2067   2.316   1.788  10.040  0.6337 -0.3494  0.4986
  133TMC2    C4 2068   2.120   1.913   9.919  1.1672 -0.1965  0.1664
  133TMC2    C5 2069   2.220   1.986   9.984  0.1957 -0.1478  0.0864
  133TMC2    C6 2070   2.309   1.916  10.061 -0.2757 -0.3892  0.5408
  133TMC2     C 2071   1.996   1.707   9.871  0.1995 -0.0576  0.1564
  133TMC2     O 2072   1.994   1.584   9.884  0.2576  0.2913  0.1446
  133TMC2     H 2073   2.239   1.610   9.953  0.5137  0.2342 -1.5787
  133TMC2    H1 2074   2.043   1.973   9.871 -0.4012 -1.2197  1.4151
  133TMC2    H2 2075   2.380   1.969  10.123 -0.7906 -1.1220  1.7535
  133TMC2    C7 2076   2.195   2.129  10.003  0.5027 -0.2600 -0.5601
  133TMC2    C8 2077   2.431   1.718  10.109  0.0035 -0.5060 -0.2416
  133TMC2    O1 2078   2.088   2.166   9.961 -0.0350 -0.2297 -0.1654
  133TMC2    O2 2079   2.435   1.598  10.130 -0.1328 -0.4409  0.4345
  133TMC2    O5 2080   2.540   1.787  10.095  1.1794 -0.0667 -0.5177
  133TMC2    H5 2081   2.523   1.879  10.063  2.1477 -0.1591 -1.2659
  134MPD2     C 2082   1.696   1.833   9.694 -0.3022  0.1688 -0.4500
  134MPD2    C1 2083   1.784   1.738   9.739  0.4017  0.1762  0.4933
  134MPD2    C2 2084   1.747   1.599   9.731  0.0487 -0.5904  0.0016
  134MPD2    C3 2085   1.627   1.565   9.674  0.3159 -0.0940 -0.3540
  134MPD2    C4 2086   1.546   1.662   9.623 -0.0659 -0.3320 -0.0976
  134MPD2    C5 2087   1.581   1.795   9.622  0.4755  0.5663  0.0308
  134MPD2     H 2088   1.797   1.522   9.788  1.2304  1.3704  1.6145
  134MPD2    H1 2089   1.455   1.643   9.568 -0.1334 -1.5555  0.4347
  134MPD2    H2 2090   1.727   1.936   9.681 -2.1065  0.5692 -1.6718
  134MPD2    H3 2091   1.511   1.860   9.571  0.3084 -0.5957 -1.2017
  134MPD2     N 2092   1.576   1.436   9.668 -0.1804  0.1467  0.2911
  134MPD2    H5 2093   1.477   1.428   9.648 -0.0804  1.6209 -0.7349
  134MPD2    N1 2094   1.903   1.777   9.801  0.7286 -0.2146 -0.1958
  134MPD2    H7 2095   1.927   1.876   9.806  1.2168 -0.2470 -1.8311
  135TMC2    C1 2096   3.372   2.513   9.658  0.0128 -0.3863  0.4917
  135TMC2    C2 2097   3.504   2.550   9.661  0.6386  0.0825  0.2702
  135TMC2    C3 2098   3.574   2.538   9.774 -0.2383 -0.5870 -0.3794
  135TMC2    C4 2099   3.314   2.455   9.767 -0.4058 -0.5370 -0.2361
  135TMC2    C5 2100   3.393   2.441   9.880  0.2847  0.3114 -0.1148
  135TMC2    C6 2101   3.525   2.484   9.889 -0.0313  0.3856 -0.0921
  135TMC2     C 2102   3.288   2.542   9.551  0.0709 -0.8052  0.6180
  135TMC2     O 2103   3.169   2.513   9.566  0.4258  0.1034  0.6151
  135TMC2     H 2104   3.548   2.611   9.583 -1.2231  1.9611  0.6558
  135TMC2    H1 2105   3.211   2.423   9.765 -1.2788  2.3611 -0.7929
  135TMC2    H2 2106   3.578   2.474   9.983  2.0178 -1.6861 -1.4542
  135TMC2    C7 2107   3.326   2.417   9.999 -0.2025 -0.3018  0.5717
  135TMC2    C8 2108   3.692   2.619   9.787 -0.2693 -0.0792  0.4227
  135TMC2    O1 2109   3.209   2.452  10.002 -0.1142  0.5996  0.2609
  135TMC2    O2 2110   3.739   2.631   9.899  0.4940  0.3640  0.2424
  135TMC2    O5 2111   3.762   2.651   9.680  0.5197 -0.1623  0.2580
  135TMC2    H5 2112   3.730   2.626   9.591  1.2718 -0.4378  0.0585
  136MPD2     C 2113   3.173   2.658   9.285  0.0021 -0.3136 -0.3550
  136MPD2    C1 2114   3.309   2.638   9.319 -0.5657 -0.0399  0.0866
  136MPD2    C2 2115   3.405   2.667   9.223 -0.0138  0.1358  0.1929
  136MPD2    C3 2116   3.369   2.725   9.103  0.0784 -0.1157 -1.1287
  136MPD2    C4 2117   3.236   2.756   9.077  0.1333 -0.2968  0.4747
  136MPD2    C5 2118   3.144   2.716   9.171 -0.1570  0.1403 -0.2866
  136MPD2     H 2119   3.507   2.647   9.254  0.4268  0.6955 -0.8850
  136MPD2    H1 2120   3.216   2.797   8.979  0.4904 -1.7220 -0.2068
  136MPD2    H2 2121   3.092   2.626   9.350 -0.5223 -0.0630 -0.8815
  136MPD2    H3 2122   3.038   2.722   9.145  0.0172  0.9657 -0.7989
  136MPD2     N 2123   3.467   2.762   9.007 -0.3493 -0.5319 -0.0433
  136MPD2    H5 2124   3.434   2.815   8.927  0.5325  0.0905  0.0134
  136MPD2    N1 2125   3.360   2.582   9.440  0.5416 -0.3465 -0.4959
  136MPD2    H7 2126   3.461   2.591   9.445  0.3037  2.8537 -1.3834
  137TMC2    C1 2127   2.840   1.983   9.447  0.4134  0.4053 -0.0704
  137TMC2    C2 2128   2.816   2.100   9.380 -0.3041 -0.8807 -0.0163
  137TMC2    C3 2129   2.688   2.122   9.334  0.0257 -0.9828 -0.2712
  137TMC2    C4 2130   2.735   1.906   9.489  0.9239 -0.4765 -0.4080
  137TMC2    C5 2131   2.609   1.932   9.440  0.4453  0.8282  0.6256
  137TMC2    C6 2132   2.579   2.044   9.367 -0.4260  0.5501  0.1996
  137TMC2     C 2133   2.972   1.958   9.486  0.6274 -0.1591 -0.2914
  137TMC2     O 2134   3.063   2.010   9.424 -0.3233  0.1391 -0.2447
  137TMC2     H 2135   2.898   2.167   9.355  0.4998 -0.8777  2.5849
  137TMC2    H1 2136   2.755   1.803   9.515 -0.7344 -1.0619 -1.4855
  137TMC2    H2 2137   2.476   2.061   9.338  0.1321 -0.2141 -2.2908
  137TMC2    C7 2138   2.495   1.863   9.488  0.6150  0.2839 -0.1202
  137TMC2    C8 2139   2.665   2.222   9.231 -0.1205 -0.2398 -0.2394
  137TMC2    O1 2140   2.381   1.881   9.451  0.1544  0.0358 -0.1215
  137TMC2    O2 2141   2.556   2.270   9.214  0.2648 -0.3214  0.1637
  137TMC2    O5 2142   2.766   2.198   9.143  0.2509 -0.0373  0.1154
  137TMC2    H5 2143   2.815   2.121   9.178  0.6508 -0.0706 -0.5266
  138MPD2     C 2144   3.071   1.714   9.742 -0.7583 -0.3952 -0.5217
  138MPD2    C1 2145   3.093   1.804   9.640  0.3045  0.3924  0.1915
  138MPD2    C2 2146   3.221   1.822   9.581  0.1226 -0.6670  0.7971
  138MPD2    C3 2147   3.324   1.740   9.626  0.1702  0.0115 -0.0438
  138MPD2    C4 2148   3.296   1.648   9.728  0.2696  0.5253 -0.2801
  138MPD2    C5 2149   3.170   1.635   9.788 -0.1749  0.0325  0.0624
  138MPD2     H 2150   3.230   1.892   9.499 -2.1064 -0.0885  1.0398
  138MPD2    H1 2151   3.376   1.587   9.767  0.1732  0.7043  0.2069
  138MPD2    H2 2152   2.976   1.693   9.790 -0.3666 -0.0582  0.3995
  138MPD2    H3 2153   3.151   1.569   9.872 -1.7896  1.1988  0.6039
  138MPD2     N 2154   3.451   1.766   9.566  0.2524 -0.2875 -0.0829
  138MPD2    H5 2155   3.469   1.846   9.506 -0.3819 -0.2757 -0.2580
  138MPD2    N1 2156   2.979   1.875   9.595  0.4640  0.2439 -0.0321
  138MPD2    H7 2157   2.893   1.858   9.647 -0.0457  2.5924 -0.1067
  139TMC2    C1 2158   3.731   4.548  12.948 -0.0527  0.0137  0.5667
  139TMC2    C2 2159   3.706   4.520  12.815 -0.4065  0.3017 -0.2303
  139TMC2    C3 2160   3.613   4.604  12.756  0.2538 -0.3582 -0.9437
  139TMC2    C4 2161   3.681   4.663  13.012  0.7989 -0.2776 -0.4733
  139TMC2    C5 2162   3.615   0.015  12.938  0.0851  0.5398 -0.0080
  139TMC2    C6 2163   3.567   4.723  12.810 -0.9873 -0.7275 -0.0383
  139TMC2     C 2164   3.860   4.499  12.999 -0.8535 -0.1254  0.2097
  139TMC2     O 2165   3.911   4.395  12.949 -0.0889 -0.6865 -0.1848
  139TMC2     H 2166   3.757   4.434  12.773  0.1643  0.6176 -0.1771
  139TMC2    H1 2167   3.689   4.675  13.120  0.9688 -1.5198 -0.3444
  139TMC2    H2 2168   3.510   0.059  12.754 -0.2714 -1.7811 -2.1285
  139TMC2    C7 2169   3.560   0.130  13.007  0.0295 -0.2759 -0.3454
  139TMC2    C8 2170   3.568   4.562  12.619  0.9374 -0.0979  0.4699
  139TMC2    O1 2171   3.576   0.138  13.130  0.1477 -0.0250 -0.1098
  139TMC2    O2 2172   3.619   4.461  12.576  0.5953  0.1793  0.4833
  139TMC2    O5 2173   3.437   4.601  12.615  0.2818  0.0905  0.8313
  139TMC2    H5 2174   3.394   4.609  12.703 -0.5101  0.4735  0.4160
  140MPD2     C 2175   4.091   4.691  13.204  0.3790  0.1519  0.1831
  140MPD2    C1 2176   4.046   4.584  13.139  0.3259  0.0264  0.2562
  140MPD2    C2 2177   4.129   4.475  13.116 -0.2140  0.8201 -0.2632
  140MPD2    C3 2178   4.250   4.468  13.172 -0.0779  0.2071 -0.3402
  140MPD2    C4 2179   4.295   4.571  13.248  0.4253  0.3902 -0.4814
  140MPD2    C5 2180   4.214   4.681  13.269  0.5111 -0.1143 -0.0970
  140MPD2     H 2181   4.105   4.396  13.046 -2.4480 -1.1731  2.7916
  140MPD2    H1 2182   4.390   4.561  13.299  0.3195  0.7065 -0.2239
  140MPD2    H2 2183   4.015   0.027  13.230  0.2818  0.4664 -0.9971
  140MPD2    H3 2184   4.245   0.025  13.335 -2.3598  0.6219  0.3378
  140MPD2     N 2185   4.313   4.342  13.154 -0.3954  0.6493 -0.0751
  140MPD2    H5 2186   4.266   4.276  13.093 -1.1332  0.5584  0.6045
  140MPD2    N1 2187   3.920   4.597  13.081 -0.7088  0.0405 -0.4594
  140MPD2    H7 2188   3.878   4.689  13.092  1.8049  1.0809  0.3789
  141TMC2    C1 2189   0.005   1.395  14.450 -0.1020 -0.0362 -0.0587
  141TMC2    C2 2190   4.639   1.325  14.508 -0.1581 -0.2859 -0.7261
  141TMC2    C3 2191   4.566   1.386  14.605 -0.4331 -0.1772 -0.0769
  141TMC2    C4 2192   0.047   1.514  14.495 -0.8096 -0.3932 -0.5738
  141TMC2    C5 2193   4.700   1.569  14.585 -0.1361  0.0488 -0.6310
  141TMC2    C6 2194   4.584   1.517  14.644 -0.1173 -0.2422 -0.0325
  141TMC2     C 2195   0.094   1.317  14.371 -0.9496  0.9363 -0.3275
  141TMC2     O 2196   0.045   1.253  14.278  0.3866  0.2428  0.1108
  141TMC2     H 2197   4.626   1.222  14.475  2.4897 -0.2736 -1.8674
  141TMC2    H1 2198   0.111   1.576  14.433  1.0407 -2.2124 -0.4858
  141TMC2    H2 2199   4.528   1.567  14.722  1.0916  3.5472 -1.6174
  141TMC2    C7 2200   4.733   1.696  14.624  0.2952  0.2535 -1.0589
  141TMC2    C8 2201   4.483   1.309  14.694  0.4804  0.2554  0.0898
  141TMC2    O1 2202   4.639   1.761  14.671 -0.2339 -0.3179 -0.0893
  141TMC2    O2 2203   4.441   1.354  14.799  0.1241 -0.2907 -0.3248
  141TMC2    O5 2204   4.436   1.198  14.634  0.4324  0.2583  0.5475
  141TMC2    H5 2205   4.471   1.196  14.542 -3.5070 -0.4082 -0.9219
  142TMC2    C1 2206   2.147   4.058  10.351 -0.4647  0.5240  0.1074
  142TMC2    C2 2207   2.072   4.039  10.237  0.0241 -0.0153 -0.2520
  142TMC2    C3 2208   2.116   4.099  10.124 -0.5871 -0.5604  0.7986
  142TMC2    C4 2209   2.247   4.155  10.360  0.8285 -0.2817 -0.0184
  142TMC2    C5 2210   2.278   4.225  10.245  0.2222  0.1549 -0.5298
  142TMC2    C6 2211   2.214   4.199  10.127  0.0875  0.0489 -0.2947
  142TMC2     C 2212   2.110   3.975  10.463  0.0052 -0.2531 -0.2231
  142TMC2     O 2213   2.045   3.875  10.432  0.5123 -0.5201  0.1162
  142TMC2     H 2214   1.986   3.973  10.239  0.4395 -0.6282 -2.1794
  142TMC2    H1 2215   2.268   4.203  10.455  0.1855  2.3298 -1.1851
  142TMC2    H2 2216   2.239   4.252  10.036  0.3362  3.3073  1.6901
  142TMC2    C7 2217   2.385   4.325  10.249  0.4451 -0.2337  0.6506
  142TMC2    C8 2218   2.019   4.099  10.013 -0.0874  0.2222  0.0941
  142TMC2    O1 2219   2.408   4.365  10.364  0.0024  0.3047  0.6124
  142TMC2    O2 2220   1.900   4.086  10.035  0.2235  0.0033  0.8523
  142TMC2    O5 2221   2.076   4.164   9.910  0.2197  0.8229  0.4375
  142TMC2    H5 2222   2.173   4.151   9.903 -0.4740 -3.0840 -1.4614
  143MPD2     C 2223   2.100   3.857  10.969  0.5416  0.0723  0.3731
  143MPD2    C1 2224   2.049   3.781  10.865 -0.6526  0.2632  0.7090
  143MPD2    C2 2225   2.079   3.830  10.734 -0.4360  0.1585 -0.1176
  143MPD2    C3 2226   2.143   3.953  10.713  0.4752 -0.7036 -0.2864
  143MPD2    C4 2227   2.195   4.021  10.824 -0.3179  0.3612 -0.0991
  143MPD2    C5 2228   2.178   3.969  10.951  0.9082 -0.5025 -0.0089
  143MPD2     H 2229   2.037   3.777  10.649  3.7712 -1.7245 -1.0553
  143MPD2    H1 2230   2.242   4.117  10.812  0.2419 -0.0822 -1.4475
  143MPD2    H2 2231   2.084   3.826  11.072 -0.7416 -1.9157 -0.4217
  143MPD2    H3 2232   2.216   4.028  11.033  0.8800  0.5739 -0.7637
  143MPD2     N 2233   2.168   4.008  10.584 -0.3394  0.1265 -0.0709
  143MPD2    H5 2234   2.238   4.082  10.583 -1.5782  1.2728 -2.2341
  143MPD2    N1 2235   1.985   3.659  10.897 -0.6629 -0.7538 -0.2365
  143MPD2    H7 2236   1.978   3.637  10.996 -1.8709  3.8211  0.6819
  144TMC2    C1 2237   0.703   3.446   0.980  0.1230  0.0070 -0.0846
  144TMC2    C2 2238   0.697   3.306   0.968  0.5231 -0.3367  0.2172
  144TMC2    C3 2239   0.799   3.227   1.011 -0.1522 -0.4359  1.2405
  144TMC2    C4 2240   0.819   3.507   1.019 -0.5392  0.4249 -0.3445
  144TMC2    C5 2241   0.921   3.429   1.063  0.0727  0.7104  0.1410
  144TMC2    C6 2242   0.908   3.295   1.064  0.0011  0.0970 -0.0539
  144TMC2     C 2243   0.637   3.510   0.862  0.0867  0.8711  0.3531
  144TMC2     O 2244   0.610   3.429   0.773 -0.0951  0.1710 -0.0180
  144TMC2     H 2245   0.614   3.246   0.932  0.4667  0.3320 -0.7467
  144TMC2    H1 2246   0.828   3.614   1.035  0.9201  0.3581 -0.6578
  144TMC2    H2 2247   0.981   3.235   1.119 -1.3493 -2.8075 -1.4232
  144TMC2    C7 2248   1.024   3.483   1.147  0.0498 -0.3218 -0.7443
  144TMC2    C8 2249   0.763   3.089   1.031  0.5776 -0.0265  0.2633
  144TMC2    O1 2250   1.085   3.404   1.216 -0.6368  1.0421 -0.2324
  144TMC2    O2 2251   0.649   3.050   1.015 -0.0403  0.5902 -0.0713
  144TMC2    O5 2252   0.859   3.021   1.099 -0.3990 -0.1343  0.4245
  144TMC2    H5 2253   0.949   3.059   1.101  0.4046 -1.8476 -3.1405
  145MPD2     C 2254   0.497   3.900   0.565  0.2773  0.0311 -1.2644
  145MPD2    C1 2255   0.519   3.769   0.524 -0.1051 -0.4682 -0.6640
  145MPD2    C2 2256   0.566   3.681   0.619 -0.1797 -0.1464 -0.6790
  145MPD2    C3 2257   0.590   3.725   0.750  0.6356  1.1311  0.3737
  145MPD2    C4 2258   0.572   3.855   0.783  0.3445  0.2194 -0.0456
  145MPD2    C5 2259   0.537   3.946   0.685 -0.2709  0.4251 -0.3148
  145MPD2     H 2260   0.581   3.577   0.592  1.7904 -0.7329  2.6155
  145MPD2    H1 2261   0.595   3.898   0.880  0.8084  2.2761 -1.0768
  145MPD2    H2 2262   0.467   3.972   0.490  0.7832  1.4247 -0.1188
  145MPD2    H3 2263   0.530   4.049   0.717 -0.9668  0.4636 -0.5851
  145MPD2     N 2264   0.629   3.648   0.868 -0.7437 -0.1040  0.4199
  145MPD2    H5 2265   0.660   3.691   0.955  0.3276 -0.8699  0.4112
  145MPD2    N1 2266   0.501   3.720   0.390 -0.1115  0.1550 -0.1833
  145MPD2    H7 2267   0.534   3.626   0.367  2.3290  1.0253 -0.2190
  146TMC2    C1 2268   1.917   2.135  12.871 -0.1821  0.0917 -0.2483
  146TMC2    C2 2269   1.817   2.088  12.802  0.1108 -0.1859 -0.0185
  146TMC2    C3 2270   1.844   2.041  12.679 -0.4037  0.7228 -0.0508
  146TMC2    C4 2271   2.046   2.129  12.831  0.2779 -0.0414  0.2921
  146TMC2    C5 2272   2.071   2.081  12.701 -0.1666  0.1336 -0.3029
  146TMC2    C6 2273   1.967   2.039  12.618  0.0075  0.8049  0.2417
  146TMC2     C 2274   1.884   2.206  12.998  0.1898  0.2967 -0.0033
  146TMC2     O 2275   1.785   2.273  13.000 -0.0249 -0.5391 -0.1096
  146TMC2     H 2276   1.716   2.073  12.839  0.4354 -0.4441  0.7709
  146TMC2    H1 2277   2.130   2.166  12.890  2.7107 -0.4723 -2.8815
  146TMC2    H2 2278   1.979   1.989  12.522 -0.8040 -0.9448  1.0579
  146TMC2    C7 2279   2.202   2.049  12.656  0.0998 -0.5958  0.2306
  146TMC2    C8 2280   1.740   1.973  12.601  0.5289 -0.3303  0.5245
  146TMC2    O1 2281   2.208   2.002  12.545 -0.2657  0.0807  0.3982
  146TMC2    O2 2282   1.636   1.933  12.645 -0.2971 -0.4898  0.2576
  146TMC2    O5 2283   1.745   2.030  12.476 -0.0761 -0.3745 -0.0423
  146TMC2    H5 2284   1.805   2.107  12.467  0.7081 -0.8892  0.8445
  147MPD2     C 2285   2.653   1.839  12.721  0.0655  0.0536  0.6639
  147MPD2    C1 2286   2.599   1.854  12.847 -0.6638  0.9720  0.2031
  147MPD2    C2 2287   2.474   1.924  12.862 -0.2004 -0.4877 -0.1838
  147MPD2    C3 2288   2.412   1.977  12.753  0.2140  0.1723 -0.5017
  147MPD2    C4 2289   2.468   1.960  12.629 -1.0190  0.7626  0.1989
  147MPD2    C5 2290   2.582   1.887  12.616 -0.3160 -0.2228 -0.4428
  147MPD2     H 2291   2.422   1.949  12.954  0.5660 -0.6242  0.2848
  147MPD2    H1 2292   2.425   2.001  12.538 -0.0773  1.3699  0.0217
  147MPD2    H2 2293   2.742   1.783  12.696  1.9821  2.3105  2.3874
  147MPD2    H3 2294   2.620   1.880  12.515  3.0799  1.0671  0.7493
  147MPD2     N 2295   2.278   2.028  12.767 -0.9541  0.3542 -0.3367
  147MPD2    H5 2296   2.245   2.051  12.861  0.2519  2.3928 -0.4065
  147MPD2    N1 2297   2.671   1.801  12.958 -0.2762 -0.0580  0.5704
  147MPD2    H7 2298   2.760   1.759  12.932  1.0436  2.3100  1.2172
  148TMC2    C1 2299   1.723   0.831  10.650 -1.3511 -0.0668  0.1466
  148TMC2    C2 2300   1.790   0.917  10.732  0.1748  0.2205  0.1755
  148TMC2    C3 2301   1.887   0.870  10.816  0.5706 -0.1422  0.0308
  148TMC2    C4 2302   1.757   0.694  10.653 -0.2420  0.0777 -0.0322
  148TMC2    C5 2303   1.841   0.650  10.751  0.1592 -0.9398  0.1413
  148TMC2    C6 2304   1.909   0.735  10.835 -0.1741 -0.0554 -0.3987
  148TMC2     C 2305   1.639   0.888  10.548  0.5212  0.6439  0.0711
  148TMC2     O 2306   1.661   0.997  10.504 -0.2974  0.0565  0.2934
  148TMC2     H 2307   1.768   1.023  10.728  0.4437  0.2754  0.1544
  148TMC2    H1 2308   1.724   0.629  10.574 -0.0190 -1.0031  0.7564
  148TMC2    H2 2309   1.973   0.701  10.916  0.5443  2.1220 -0.0582
  148TMC2    C7 2310   1.869   0.508  10.747  0.0908 -0.4544  0.2900
  148TMC2    C8 2311   1.916   0.949  10.924  0.5260 -0.9571 -0.3268
  148TMC2    O1 2312   1.830   0.459  10.642  0.1382  0.2239 -0.4549
  148TMC2    O2 2313   1.835   1.037  10.953 -0.3740  0.1194 -0.6033
  148TMC2    O5 2314   2.051   0.967  10.921  0.3327 -0.2705  0.0720
  148TMC2    H5 2315   2.104   0.890  10.893  2.4910  0.9523  0.8633
  149MPD2     C 2316   1.422   0.954  10.347 -0.7101 -0.0854  0.2699
  149MPD2    C1 2317   1.465   0.826  10.381 -0.4727 -0.2262 -0.2805
  149MPD2    C2 2318   1.410   0.720  10.313  0.2700  0.2170 -0.4907
  149MPD2    C3 2319   1.337   0.744  10.197  0.3158  0.0234 -0.3964
  149MPD2    C4 2320   1.299   0.875  10.165  0.1288  1.0760  0.6460
  149MPD2    C5 2321   1.340   0.980  10.242  0.2426 -0.3597 -0.8996
  149MPD2     H 2322   1.437   0.620  10.344  1.3174  0.5214 -0.4233
  149MPD2    H1 2323   1.233   0.892  10.080  1.6879  0.3174 -0.7139
  149MPD2    H2 2324   1.445   1.043  10.404 -0.0983 -0.6512  0.9025
  149MPD2    H3 2325   1.305   1.081  10.226  3.2569  0.7390 -0.5252
  149MPD2     N 2326   1.284   0.649  10.115 -0.2739 -0.4698  0.4315
  149MPD2    H5 2327   1.249   0.679  10.025 -0.6119  1.9306  1.3627
  149MPD2    N1 2328   1.547   0.797  10.489  0.3562 -0.2918  0.7365
  149MPD2    H7 2329   1.568   0.699  10.508  0.0533 -0.5186 -0.1260
  150TMC2    C1 2330   4.396   0.089  12.114  0.5363  0.0147  0.0895
  150TMC2    C2 2331   4.327   0.205  12.132 -0.4024 -0.5871  0.0173
  150TMC2    C3 2332   4.385   0.317  12.185 -1.1955 -0.1881 -0.3215
  150TMC2    C4 2333   4.524   0.084  12.172 -0.4543 -0.4507 -0.2955
  150TMC2    C5 2334   4.568   0.186  12.244 -0.0550  0.0645  0.1967
  150TMC2    C6 2335   4.504   0.308  12.248 -0.0968 -0.4456  0.4840
  150TMC2     C 2336   4.318   4.707  12.103  0.3781 -0.5588 -0.3887
  150TMC2     O 2337   4.378   4.608  12.139 -0.3152 -0.0747  0.0332
  150TMC2     H 2338   4.228   0.211  12.088 -0.2436  1.0754 -0.1163
  150TMC2    H1 2339   4.586   4.734  12.153  2.7882  1.6699  0.5204
  150TMC2    H2 2340   4.551   0.392  12.298 -1.3861  0.7149 -0.2711
  150TMC2    C7 2341   4.687   0.172  12.326  0.5312 -0.5600 -0.4913
  150TMC2    C8 2342   4.313   0.438  12.205  0.6481 -0.2009 -0.6622
  150TMC2    O1 2343   0.011   0.273  12.349 -0.6225  0.1551 -0.3254
  150TMC2    O2 2344   4.287   0.491  12.314 -0.8812  0.3011  0.5701
  150TMC2    O5 2345   4.303   0.495  12.081 -0.1710 -0.6534 -0.5919
  150TMC2    H5 2346   4.355   0.449  12.012  0.4065 -1.0503  0.1045
  151MPD2     C 2347   3.938   4.392  11.983 -0.5927  0.1693  0.2356
  151MPD2    C1 2348   3.901   4.522  11.954 -0.4393 -0.1634  0.4159
  151MPD2    C2 2349   3.991   4.621  11.973  0.0695  0.7212 -0.7674
  151MPD2    C3 2350   4.112   4.600  12.027  0.3177  0.3773  0.1003
  151MPD2    C4 2351   4.148   4.475  12.071  0.3393 -0.5515  0.2391
  151MPD2    C5 2352   4.061   4.369  12.043  0.3525  0.7326  0.2655
  151MPD2     H 2353   3.957   4.722  11.953 -1.6960  0.0347 -1.2842
  151MPD2    H1 2354   4.238   4.448  12.125  0.6201 -3.1911 -1.5597
  151MPD2    H2 2355   3.871   4.307  11.968 -1.6714  0.9575  0.5884
  151MPD2    H3 2356   4.100   4.270  12.059 -1.4197 -0.0142 -0.0340
  151MPD2     N 2357   4.193   4.713  12.041  0.3225  0.4247 -0.7243
  151MPD2    H5 2358   4.167   0.060  11.991 -1.3693 -0.1862 -0.8512
  151MPD2    N1 2359   3.764   4.546  11.918  0.0941 -0.1726 -0.1235
  151MPD2    H7 2360   3.705   4.463  11.921  0.2118 -0.4115 -3.9415
  152TMC2    C1 2361   3.925   4.674  12.365 -0.1211  0.3344  0.2614
  152TMC2    C2 2362   3.971   4.548  12.364 -0.1350 -0.0662  0.4717
  152TMC2    C3 2363   4.089   4.525  12.429  0.5651  0.3142 -0.9641
  152TMC2    C4 2364   3.995   0.042  12.421 -0.1424  0.2423 -0.2727
  152TMC2    C5 2365   4.113   0.016  12.480 -1.0112 -0.2343 -0.0420
  152TMC2    C6 2366   4.168   4.625  12.479 -0.3647 -0.3312  0.0647
  152TMC2     C 2367   3.802   4.692  12.291  0.3583 -0.0263  0.7064
  152TMC2     O 2368   3.723   4.599  12.273  0.3799  0.1657 -0.2194
  152TMC2     H 2369   3.931   4.465  12.307 -1.5271  0.5586  0.5423
  152TMC2    H1 2370   3.945   0.138  12.434 -0.7015 -0.0804 -0.0675
  152TMC2    H2 2371   4.268   4.608  12.515 -0.0781 -0.3751 -0.7744
  152TMC2    C7 2372   4.194   0.133  12.497  0.1649  0.1890 -0.6280
  152TMC2    C8 2373   4.158   4.400  12.405  0.0907  0.6312 -0.2240
  152TMC2    O1 2374   4.146   0.243  12.461 -0.1967  0.0316  1.0061
  152TMC2    O2 2375   4.281   4.392  12.406  0.1385 -0.0951 -0.1543
  152TMC2    O5 2376   4.069   4.298  12.438 -0.8223  0.0876 -0.4261
  152TMC2    H5 2377   3.977   4.325  12.458 -1.4266 -0.7543 -2.1206
  153MPD2     C 2378   3.720   0.209  12.051  0.1999  1.2650 -0.1772
  153MPD2    C1 2379   3.690   0.111  12.140 -0.1299 -1.0134 -0.6532
  153MPD2    C2 2380   3.561   0.075  12.162  0.0892  0.3842  0.2050
  153MPD2    C3 2381   3.462   0.142  12.101 -1.3921  0.4065  0.3814
  153MPD2    C4 2382   3.490   0.236  12.005 -0.7873  0.3740 -0.4877
  153MPD2    C5 2383   3.620   0.274  11.982  0.2283 -0.5061 -0.3085
  153MPD2     H 2384   3.533   0.008  12.241  1.1421 -1.3705 -0.9106
  153MPD2    H1 2385   3.413   0.272  11.937  0.9791  0.7596 -2.2972
  153MPD2    H2 2386   3.819   0.248  12.030  0.9323 -0.9987 -0.8765
  153MPD2    H3 2387   3.644   0.358  11.918 -1.4794  0.7034  0.6542
  153MPD2     N 2388   3.334   0.112  12.155 -0.5938 -0.2619  0.5084
  153MPD2    H5 2389   3.317   0.058  12.239 -2.1078 -0.0765  0.3115
  153MPD2    N1 2390   3.801   0.065  12.218  0.4381 -0.6583  0.9209
  153MPD2    H7 2391   3.889   0.116  12.215  1.0499 -1.8511 -1.2772
  154TMC2    C1 2392   0.843   0.244   0.513 -0.6455  0.1492 -0.1950
  154TMC2    C2 2393   0.944   0.298   0.587 -0.4079  0.9362 -0.1773
  154TMC2    C3 2394   1.074   0.274   0.554  0.0574 -0.7995 -0.0403
  154TMC2    C4 2395   0.865   0.167   0.405  0.1119  0.0961 -0.9407
  154TMC2    C5 2396   0.999   0.153   0.363  0.0843  0.1510 -0.5290
  154TMC2    C6 2397   1.108   0.196   0.441 -0.3864 -0.2755 -0.1801
  154TMC2     C 2398   0.709   0.285   0.552  0.5153  0.0335 -0.0822
  154TMC2     O 2399   0.703   0.353   0.654  0.1550  0.1227  0.2137
  154TMC2     H 2400   0.920   0.360   0.673  0.1242  0.9855 -0.0598
  154TMC2    H1 2401   0.789   0.105   0.357 -0.2416 -0.9036  0.8977
  154TMC2    H2 2402   1.212   0.186   0.410 -0.6915 -0.4123 -1.1738
  154TMC2    C7 2403   1.026   0.065   0.250 -0.3819 -0.1961 -0.1321
  154TMC2    C8 2404   1.172   0.299   0.659 -0.8523 -0.6305 -0.0459
  154TMC2    O1 2405   0.928   0.046   0.179 -0.4681  0.3735  0.3192
  154TMC2    O2 2406   1.144   0.369   0.754 -0.0479 -0.2890 -0.2069
  154TMC2    O5 2407   1.267   0.198   0.659  0.1392 -0.0202  0.2089
  154TMC2    H5 2408   1.265   0.142   0.578  0.9308  0.8313 -0.3992
  155MPD2     C 2409   0.416   0.329   0.332  0.6209 -0.1389  0.0741
  155MPD2    C1 2410   0.491   0.336   0.448 -1.0305  0.1913 -0.0964
  155MPD2    C2 2411   0.437   0.413   0.551 -0.2489 -0.4641 -0.4931
  155MPD2    C3 2412   0.313   0.474   0.542 -0.2142  0.5043 -0.0431
  155MPD2    C4 2413   0.237   0.454   0.431 -0.3923  0.4133 -0.4677
  155MPD2    C5 2414   0.290   0.378   0.333  0.5168 -0.2268  0.0690
  155MPD2     H 2415   0.490   0.433   0.643 -0.9801  2.8255 -0.7786
  155MPD2    H1 2416   0.143   0.504   0.412 -0.8084  0.1684  0.9147
  155MPD2    H2 2417   0.453   0.288   0.239 -3.4211 -0.1658 -1.5421
  155MPD2    H3 2418   0.239   0.372   0.238 -1.5198 -3.0946  1.3350
  155MPD2     N 2419   0.267   0.552   0.643  0.0861  0.5674  0.1542
  155MPD2    H5 2420   0.335   0.547   0.717  0.1695  3.9878  0.3230
  155MPD2    N1 2421   0.624   0.273   0.448  0.0633  0.8922  0.2244
  155MPD2    H7 2422   0.646   0.234   0.357  1.9341  0.0140  1.0621
  156TMC2    C1 2423   4.210   1.952  11.528  0.2284  0.4154 -0.5623
  156TMC2    C2 2424   4.281   1.917  11.415 -0.0871  0.3103  0.2448
  156TMC2    C3 2425   4.213   1.896  11.301  0.2978  0.2021  0.8088
  156TMC2    C4 2426   4.071   1.961  11.526  0.1294  0.0324 -0.0624
  156TMC2    C5 2427   4.008   1.939  11.406 -0.0828  0.2464  0.5702
  156TMC2    C6 2428   4.080   1.911  11.295  0.0432  0.0164 -0.0923
  156TMC2     C 2429   4.271   1.961  11.657  1.0322  0.0917 -0.4432
  156TMC2     O 2430   4.201   2.017  11.742 -0.2927 -0.1328  0.1751
  156TMC2     H 2431   4.386   1.893  11.425  0.0040  2.7487  4.9403
  156TMC2    H1 2432   4.010   2.003  11.605 -2.0867 -2.3400 -0.5143
  156TMC2    H2 2433   4.032   1.893  11.200 -0.0115  1.9153 -0.4340
  156TMC2    C7 2434   3.871   1.984  11.388  0.0878 -0.1955 -0.4220
  156TMC2    C8 2435   4.282   1.850  11.182 -0.0475 -0.2047 -0.0601
  156TMC2    O1 2436   3.844   2.038  11.279 -0.1705 -0.0182 -0.2092
  156TMC2    O2 2437   4.235   1.772  11.104 -0.2083  0.1074 -0.1388
  156TMC2    O5 2438   4.403   1.902  11.174 -0.0940  0.2822  0.2854
  156TMC2    H5 2439   4.430   1.971  11.239 -1.3283 -2.1666  3.4070
  157MPD2     C 2440   4.603   1.854  11.766  0.3523  0.4648 -0.2678
  157MPD2    C1 2441   4.479   1.911  11.783 -0.0051 -0.5358 -0.8293
  157MPD2    C2 2442   4.451   1.981  11.897  0.1043  0.0521 -0.1319
  157MPD2    C3 2443   4.538   1.985  12.006 -0.2099 -0.1918  0.0625
  157MPD2    C4 2444   4.657   1.927  11.987  0.1569  0.6562 -0.4896
  157MPD2    C5 2445   4.693   1.868  11.871  0.0002 -0.1240  0.6777
  157MPD2     H 2446   4.354   2.028  11.907 -0.2528 -0.9475  1.1494
  157MPD2    H1 2447   4.727   1.923  12.069 -1.7539  1.1315  1.1537
  157MPD2    H2 2448   4.643   1.810  11.675 -4.0123 -1.3135 -1.2988
  157MPD2    H3 2449   0.056   1.828  11.870  0.4944  1.1020  1.3700
  157MPD2     N 2450   4.496   2.052  12.118  0.1853  0.1248 -0.2216
  157MPD2    H5 2451   4.420   2.117  12.104  0.9377  1.0604  0.0587
  157MPD2    N1 2452   4.397   1.900  11.669  0.2147 -0.5725 -0.5033
  157MPD2    H7 2453   4.433   1.845  11.591  1.6730  0.6265 -0.6828
  158TMC2    C1 2454   4.143   1.710  13.719 -0.3954  0.3129 -0.0495
  158TMC2    C2 2455   4.172   1.845  13.698  0.2500 -0.0710 -0.6871
  158TMC2    C3 2456   4.084   1.911  13.614 -0.6296  0.2873 -0.2816
  158TMC2    C4 2457   4.034   1.648  13.657 -0.4365 -0.1148 -0.0460
  158TMC2    C5 2458   3.959   1.723  13.568  0.2090 -0.0552 -0.6025
  158TMC2    C6 2459   3.983   1.854  13.543 -0.0408 -0.5494  0.1947
  158TMC2     C 2460   4.233   1.649  13.809 -0.5079 -0.0894  0.0532
  158TMC2     O 2461   4.336   1.708  13.818 -0.8003  0.2641 -0.2408
  158TMC2     H 2462   4.250   1.898  13.750 -1.3742 -0.2177  1.8965
  158TMC2    H1 2463   4.009   1.547  13.689 -2.9781  0.6656  0.3666
  158TMC2    H2 2464   3.920   1.912  13.477  0.5696  0.7534  0.7550
  158TMC2    C7 2465   3.833   1.678  13.506  0.6662  0.0224  0.1497
  158TMC2    C8 2466   4.104   2.059  13.596  0.7443 -0.1255  0.0494
  158TMC2    O1 2467   3.760   1.762  13.457 -0.7178 -0.2351 -0.1892
  158TMC2    O2 2468   4.063   2.136  13.510  0.3929 -0.2740  0.4743
  158TMC2    O5 2469   4.157   2.101  13.712  0.3575  0.2833  0.8255
  158TMC2    H5 2470   4.161   2.026  13.775  1.5252 -0.4006 -0.0679
  159MPD2     C 2471   4.426   1.332  14.161  0.6879  0.3847  0.6303
  159MPD2    C1 2472   4.295   1.297  14.129 -0.4238 -0.4283 -0.4445
  159MPD2    C2 2473   4.219   1.359  14.030 -0.1767 -0.7327  0.3615
  159MPD2    C3 2474   4.266   1.471  13.968 -0.2449 -0.0009  0.0558
  159MPD2    C4 2475   4.394   1.514  14.014  0.2234 -0.2937 -0.1938
  159MPD2    C5 2476   4.466   1.449  14.113  0.4505  0.2520  0.4534
  159MPD2     H 2477   4.122   1.316  14.006  1.0568 -2.5972 -1.3828
  159MPD2    H1 2478   4.437   1.609  13.982 -0.7753 -0.7836 -2.9155
  159MPD2    H2 2479   4.484   1.269  14.228  1.0330  3.1086  2.9157
  159MPD2    H3 2480   4.563   1.489  14.139  0.2642  1.9397 -1.4483
  159MPD2     N 2481   4.186   1.530  13.865  0.6222 -0.4232 -0.1862
  159MPD2    H5 2482   4.103   1.484  13.829  0.2530  0.5245 -0.5226
  159MPD2    N1 2483   4.239   1.186  14.193  0.2157  1.0473 -0.2831
  159MPD2    H7 2484   4.158   1.149  14.145  0.8712 -2.5804  1.4236
  160TMC2    C1 2485   4.221   4.202   1.508 -0.0461 -0.2651 -0.1875
  160TMC2    C2 2486   4.256   4.107   1.602 -0.4363 -0.0135  0.4568
  160TMC2    C3 2487   4.357   4.017   1.576  0.1480 -0.4060 -0.0345
  160TMC2    C4 2488   4.301   4.212   1.397  0.6207  0.0170  0.2085
  160TMC2    C5 2489   4.400   4.123   1.376  0.2087 -0.0636  0.2223
  160TMC2    C6 2490   4.421   4.011   1.452  0.2097  0.4142  0.8332
  160TMC2     C 2491   4.168   4.319   1.579 -0.4894  0.2003  0.0624
  160TMC2     O 2492   4.199   4.333   1.696 -0.0803  0.4464 -0.0431
  160TMC2     H 2493   4.204   4.093   1.696  0.7698  1.9585  1.4171
  160TMC2    H1 2494   4.284   4.303   1.340 -1.8608 -0.5475  0.0457
  160TMC2    H2 2495   4.494   3.935   1.428  3.2665  2.9327  2.0877
  160TMC2    C7 2496   4.484   4.130   1.261  0.5386  0.2416  0.0801
  160TMC2    C8 2497   4.384   3.929   1.686  0.3807  0.1744  0.4614
  160TMC2    O1 2498   4.535   4.029   1.211 -0.0169  0.4725  0.2937
  160TMC2    O2 2499   4.307   3.909   1.782  0.4564 -0.3665 -0.0895
  160TMC2    O5 2500   4.506   3.880   1.678 -0.2597  0.1031  0.6492
  160TMC2    H5 2501   4.571   3.941   1.637 -2.9348  2.1765 -0.5005
  161MPD2     C 2502   4.061   4.568   1.683  0.5699  0.6594 -0.1038
  161MPD2    C1 2503   4.040   4.517   1.553  0.2291  0.1457  0.0499
  161MPD2    C2 2504   3.972   4.602   1.460  1.1973 -0.4627  0.4731
  161MPD2    C3 2505   3.940   4.736   1.482 -0.3068 -0.2521 -0.0687
  161MPD2    C4 2506   3.968   0.040   1.607 -0.2323  0.5934 -0.3105
  161MPD2    C5 2507   4.017   4.698   1.707  0.9203 -0.5229  0.4274
  161MPD2     H 2508   3.951   4.559   1.363  0.9342  0.5023  0.1040
  161MPD2    H1 2509   3.947   0.144   1.630  2.0251  1.1036 -0.5762
  161MPD2    H2 2510   4.116   4.521   1.764 -1.0946 -2.2709 -0.7096
  161MPD2    H3 2511   4.044   0.009   1.801  0.1091 -0.6715  0.7357
  161MPD2     N 2512   3.879   0.088   1.392  0.0254 -0.1786  0.3089
  161MPD2    H5 2513   3.864   0.181   1.431 -1.5310 -1.2926  2.3826
  161MPD2    N1 2514   4.081   4.395   1.508  0.5175  0.5495 -0.2470
  161MPD2    H7 2515   4.064   4.368   1.412 -1.7119 -0.2029  0.3557
  162TMC2    C1 2516   1.782   1.363   1.113 -0.5443  0.5310 -0.3355
  162TMC2    C2 2517   1.664   1.421   1.160  0.0109 -0.6751 -0.1896
  162TMC2    C3 2518   1.665   1.499   1.271 -0.2303 -0.0850  0.1264
  162TMC2    C4 2519   1.897   1.379   1.189  0.0032 -0.2766 -0.1309
  162TMC2    C5 2520   1.891   1.466   1.297  0.2462  0.8878  0.1677
  162TMC2    C6 2521   1.779   1.526   1.346 -0.2221 -0.1423 -0.4219
  162TMC2     C 2522   1.792   1.332   0.970  0.4608  1.1061  0.5144
  162TMC2     O 2523   1.904   1.346   0.918  0.7175  0.3910  0.0615
  162TMC2     H 2524   1.593   1.448   1.083 -0.1619 -1.5402 -0.3356
  162TMC2    H1 2525   1.989   1.359   1.136 -0.9320 -3.3916 -0.6086
  162TMC2    H2 2526   1.776   1.581   1.439  1.5192  0.6969 -0.8573
  162TMC2    C7 2527   2.000   1.463   1.392 -0.8486  1.0881 -0.2183
  162TMC2    C8 2528   1.553   1.593   1.294  1.0360  0.0148  0.3057
  162TMC2    O1 2529   1.998   1.547   1.479  0.3583  0.2682  0.4372
  162TMC2    O2 2530   1.561   1.687   1.373 -0.8213  0.1454  0.4390
  162TMC2    O5 2531   1.442   1.533   1.243  0.2164 -0.4740  0.1364
  162TMC2    H5 2532   1.453   1.437   1.226 -0.1996 -0.5446  0.2558
  163MPD2     C 2533   1.562   1.176   0.529  0.4826 -0.4467  0.3778
  163MPD2    C1 2534   1.684   1.236   0.548 -0.1454 -0.5421 -0.5623
  163MPD2    C2 2535   1.721   1.267   0.683  0.4082  1.0470  0.4177
  163MPD2    C3 2536   1.644   1.231   0.795 -0.3795 -0.0273  0.2684
  163MPD2    C4 2537   1.521   1.170   0.772 -0.0331  0.0694 -0.5841
  163MPD2    C5 2538   1.490   1.141   0.640 -0.4787 -0.0099 -0.3545
  163MPD2     H 2539   1.825   1.295   0.693  0.6024  0.4618  0.0620
  163MPD2    H1 2540   1.458   1.130   0.850 -1.5046  3.2474 -0.1299
  163MPD2    H2 2541   1.528   1.137   0.433 -0.1948 -1.7664  1.1485
  163MPD2    H3 2542   1.403   1.079   0.619 -0.2670 -1.1147  1.9942
  163MPD2     N 2543   1.676   1.273   0.925  0.2414 -0.5136 -0.5110
  163MPD2    H5 2544   1.602   1.267   0.995 -0.0370  0.7354 -0.6996
  163MPD2    N1 2545   1.772   1.253   0.436 -0.7766 -0.6942 -0.2013
  163MPD2    H7 2546   1.758   1.209   0.346 -0.8307 -1.2841  0.0964
  164TMC2    C1 2547   2.466   0.409  10.878  0.7475 -0.2376 -0.8751
  164TMC2    C2 2548   2.575   0.416  10.958 -0.0936 -0.2803 -0.1568
  164TMC2    C3 2549   2.547   0.421  11.095  0.3781 -0.0492 -0.4496
  164TMC2    C4 2550   2.333   0.430  10.920  0.4762 -0.2778  0.7075
  164TMC2    C5 2551   2.319   0.435  11.059 -0.3053 -0.3852 -0.4075
  164TMC2    C6 2552   2.424   0.444  11.146  0.1136 -0.1556 -0.0480
  164TMC2     C 2553   2.498   0.400  10.734  0.6237 -0.9431 -0.1051
  164TMC2     O 2554   2.598   0.453  10.698  0.0054 -0.0821 -0.0670
  164TMC2     H 2555   2.669   0.417  10.905 -0.8703 -2.1695 -1.5697
  164TMC2    H1 2556   2.252   0.439  10.849 -0.0410  2.0981  1.6225
  164TMC2    H2 2557   2.417   0.443  11.254 -0.5034  1.4950 -0.0777
  164TMC2    C7 2558   2.199   0.493  11.104  0.4673  0.7599 -0.2384
  164TMC2    C8 2559   2.657   0.437  11.182  0.2118 -0.1363 -0.3787
  164TMC2    O1 2560   2.125   0.541  11.021  0.2674  0.2995 -0.2152
  164TMC2    O2 2561   2.655   0.490  11.291 -0.1905  0.2197 -0.1614
  164TMC2    O5 2562   2.734   0.331  11.147  0.6965 -0.7205  0.4869
  164TMC2    H5 2563   2.727   0.295  11.056  0.4105  3.0110 -0.9647
  165TMC2    C1 2564   3.785   3.551   0.932  0.1389 -0.1994  0.5435
  165TMC2    C2 2565   3.729   3.642   1.020 -0.2474  0.1071  0.0812
  165TMC2    C3 2566   3.820   3.729   1.079  0.5511 -0.1379 -0.4409
  165TMC2    C4 2567   3.920   3.540   0.906 -0.1782 -0.4247 -0.1522
  165TMC2    C5 2568   4.011   3.623   0.970 -0.7931 -0.7243 -0.0689
  165TMC2    C6 2569   3.960   3.718   1.060  0.5210 -0.3809  0.2425
  165TMC2     C 2570   3.690   3.475   0.854  0.1682 -0.2516 -0.5166
  165TMC2     O 2571   3.593   3.426   0.912 -0.0895 -0.4614  0.1808
  165TMC2     H 2572   3.623   3.647   1.039 -0.1690 -0.1546  0.5825
  165TMC2    H1 2573   3.945   3.482   0.818  2.6787 -1.0232  1.0596
  165TMC2    H2 2574   4.026   3.778   1.122  1.0563 -2.9306  2.1572
  165TMC2    C7 2575   4.146   3.605   0.970  0.3833  0.4849  0.3498
  165TMC2    C8 2576   3.765   3.827   1.169  0.1895 -0.5285 -0.1343
  165TMC2    O1 2577   4.220   3.689   1.021  0.1755 -0.9777 -0.2729
  165TMC2    O2 2578   3.684   3.797   1.253 -0.2358 -0.0835  0.1822
  165TMC2    O5 2579   3.762   3.941   1.097  0.0318 -0.0707  0.0944
  165TMC2    H5 2580   3.818   3.943   1.016  0.4452 -0.3647  0.3786
  166MPD2     C 2581   3.491   3.283   0.415 -0.4985 -0.0897  0.1835
  166MPD2    C1 2582   3.466   3.247   0.549  0.1575  0.5876  0.4850
  166MPD2    C2 2583   3.537   3.304   0.648  0.2177 -0.0255  0.2303
  166MPD2    C3 2584   3.638   3.394   0.622  0.5673 -0.2981 -0.8630
  166MPD2    C4 2585   3.672   3.420   0.494  0.1585  0.1553 -0.5346
  166MPD2    C5 2586   3.598   3.367   0.387 -0.0982 -0.7575  0.1529
  166MPD2     H 2587   3.516   3.283   0.752 -1.5018 -1.7406 -0.4594
  166MPD2    H1 2588   3.748   3.494   0.470 -1.1390  0.8271 -2.6468
  166MPD2    H2 2589   3.431   3.245   0.332  1.1399  0.9893 -1.4955
  166MPD2    H3 2590   3.636   3.383   0.287  0.6746  2.3992  0.9281
  166MPD2     N 2591   3.713   3.467   0.718 -0.0361  0.3463  0.2686
  166MPD2    H5 2592   3.794   3.513   0.679  0.8164 -1.3874 -0.0032
  166MPD2    N1 2593   3.367   3.157   0.586  0.0678  0.4858  0.2600
  166MPD2    H7 2594   3.369   3.134   0.685 -2.3447  1.9934  0.6535
  167TMC2    C1 2595   2.542   0.252  12.866 -1.1375  0.7719  0.3611
  167TMC2    C2 2596   2.598   0.342  12.948  0.1561  0.8039  0.7231
  167TMC2    C3 2597   2.730   0.363  12.934  0.7498 -0.0397  0.6461
  167TMC2    C4 2598   2.607   0.168  12.781 -0.0380 -0.3655  0.4159
  167TMC2    C5 2599   2.744   0.188  12.767 -1.3185  0.3839  0.0937
  167TMC2    C6 2600   2.804   0.285  12.848 -0.5120 -0.1261  0.1045
  167TMC2     C 2601   2.398   0.246  12.878  0.0182  0.1407  0.1366
  167TMC2     O 2602   2.338   0.289  12.977 -0.2794  0.2804  0.2626
  167TMC2     H 2603   2.539   0.386  13.028 -1.7696 -0.3015 -0.0941
  167TMC2    H1 2604   2.558   0.080  12.741  1.1078  0.3091 -2.4632
  167TMC2    H2 2605   2.909   0.304  12.830 -0.4372 -1.5880 -1.0390
  167TMC2    C7 2606   2.823   0.121  12.668 -0.1870  0.0750 -0.2607
  167TMC2    C8 2607   2.797   0.485  12.984 -0.0261 -0.3284  0.8663
  167TMC2    O1 2608   2.947   0.132  12.669 -0.3801 -0.0021 -0.5548
  167TMC2    O2 2609   2.916   0.483  13.018 -0.0262 -0.5773  0.1179
  167TMC2    O5 2610   2.698   0.553  13.046  0.3762 -0.1916 -0.0811
  167TMC2    H5 2611   2.615   0.562  12.996  1.4102  0.9225 -1.5803
  168MPD2     C 2612   2.103   0.248  12.783 -0.4482  0.2845 -0.0595
  168MPD2    C1 2613   2.211   0.250  12.706  0.2751 -0.9222  0.2674
  168MPD2    C2 2614   2.187   0.226  12.572  0.6410  0.0243 -0.2571
  168MPD2    C3 2615   2.056   0.220  12.518 -0.5141 -0.1056 -0.0206
  168MPD2    C4 2616   1.951   0.227  12.603 -0.3326  0.5955 -0.2433
  168MPD2    C5 2617   1.974   0.248  12.738  0.5172  0.1456  0.0504
  168MPD2     H 2618   2.266   0.229  12.499  0.0192 -1.9708 -1.0012
  168MPD2    H1 2619   1.849   0.229  12.566  0.0317  0.0774 -1.2669
  168MPD2    H2 2620   2.108   0.265  12.890  1.4405  1.8257 -0.3913
  168MPD2    H3 2621   1.896   0.263  12.811 -1.1134  0.0966 -1.6720
  168MPD2     N 2622   2.023   0.189  12.383  0.1962 -0.2383  0.0207
  168MPD2    H5 2623   1.926   0.166  12.368  0.4741 -1.2971 -0.1624
  168MPD2    N1 2624   2.347   0.241  12.748 -0.4894  0.3233  0.1791
  168MPD2    H7 2625   2.420   0.240  12.678 -0.1531  0.1605  0.5300
  169MPD1     C 2626   3.252   0.649  10.248  0.0740 -0.0732  0.6480
  169MPD1    C1 2627   3.294   0.701  10.127 -0.7530 -0.8538  0.4145
  169MPD1    C2 2628   3.294   0.624  10.019  0.2464  0.4469 -0.4343
  169MPD1    C3 2629   3.228   0.501  10.014  0.2175  0.8000  0.6301
  169MPD1    C4 2630   3.180   0.452  10.130 -0.4466  0.5097  0.2887
  169MPD1    C5 2631   3.203   0.518  10.245  0.0747 -0.3046  0.1187
  169MPD1     H 2632   3.352   0.647   9.930  1.8248  0.4087  0.5978
  169MPD1    H1 2633   3.142   0.350  10.137  0.3663  0.2280  0.6278
  169MPD1    H2 2634   3.264   0.706  10.339  0.9280  3.6573 -1.8131
  169MPD1    H3 2635   3.171   0.474  10.339  0.0054  0.3553  0.4117
  169MPD1     N 2636   3.235   0.424   9.893  0.4270  0.5263  0.8168
  169MPD1    H5 2637   3.286   0.471   9.818  0.9376 -1.9668 -0.3840
  169MPD1    N1 2638   3.370   0.815  10.128 -0.8514 -0.1695 -0.7623
  169MPD1    H6 2639   3.366   0.851  10.033 -0.6655 -1.1517 -1.1477
  169MPD1    H7 2640   3.354   0.885  10.200  0.7963 -1.8286  1.2300
  170MPD1     C 2641   3.466   2.528  13.142 -0.9921  0.6169 -0.1501
  170MPD1    C1 2642   3.477   2.637  13.219  0.0018 -0.2812 -0.5563
  170MPD1    C2 2643   3.362   2.701  13.258 -0.5882  0.2500  0.3387
  170MPD1    C3 2644   3.246   2.668  13.198 -0.1442  0.4806 -0.1212
  170MPD1    C4 2645   3.237   2.567  13.103 -0.4923 -0.3722 -0.0171
  170MPD1    C5 2646   3.349   2.488  13.082 -0.0692 -0.1527 -0.0194
  170MPD1     H 2647   3.366   2.786  13.325  2.3121 -0.3101  0.8613
  170MPD1    H1 2648   3.155   2.534  13.040 -1.8851  1.2981  0.9190
  170MPD1    H2 2649   3.548   2.457  13.136 -0.3594  1.1466  2.5625
  170MPD1    H3 2650   3.352   2.404  13.013 -2.3451 -0.3260  0.1096
  170MPD1     N 2651   3.138   2.751  13.239 -0.1631  0.1436  0.4717
  170MPD1    H5 2652   3.162   2.812  13.316  0.0605 -1.9428  2.0611
  170MPD1    N1 2653   3.599   2.659  13.284  0.2927 -0.0140  0.1577
  170MPD1    H6 2654   3.608   2.759  13.300  2.1059 -0.3916  1.4172
  170MPD1    H7 2655   3.679   2.636  13.225 -1.7191 -2.5331 -1.6168
  171MPD1     C 2656   1.262   4.199  15.051 -0.0832  0.0369 -0.5065
  171MPD1    C1 2657   1.215   4.274  15.157  0.2919 -0.8053  0.5451
  171MPD1    C2 2658   1.263   4.252  15.285  0.1437 -0.1638  0.1806
  171MPD1    C3 2659   1.362   4.154  15.311 -0.5004  0.0972 -0.0997
  171MPD1    C4 2660   1.398   4.068  15.210 -0.2286  0.8582 -0.8963
  171MPD1    C5 2661   1.356   4.098  15.082  0.1505  0.4967 -0.1409
  171MPD1     H 2662   1.218   4.310  15.364  2.7810  0.8020  0.9845
  171MPD1    H1 2663   1.461   3.980  15.216 -2.6517 -0.7663  0.5244
  171MPD1    H2 2664   1.231   4.211  14.948 -1.7972 -3.1809 -0.3595
  171MPD1    H3 2665   1.386   4.031  15.002  0.0180  1.3597 -0.9192
  171MPD1     N 2666   1.407   4.130  15.444 -0.5685 -0.6273  0.3806
  171MPD1    H5 2667   1.481   4.063  15.466  0.1887  0.1290  0.1179
  171MPD1    N1 2668   1.138   4.387  15.135  0.5706  0.1598 -0.3405
  171MPD1    H6 2669   1.089   4.407  15.222 -2.3310  2.9297 -2.5782
  171MPD1    H7 2670   1.075   4.386  15.055  0.5018 -2.5782 -0.2336
  172MPD1     C 2671   1.354   4.391   0.839 -0.3148  0.1763  0.2153
  172MPD1    C1 2672   1.352   4.267   0.789 -0.2354 -0.0193 -0.0451
  172MPD1    C2 2673   1.233   4.217   0.743  0.8650 -0.1131 -0.0309
  172MPD1    C3 2674   1.113   4.286   0.762  0.0906  0.6308 -0.3107
  172MPD1    C4 2675   1.114   4.401   0.835  0.2160  0.2283  0.3443
  172MPD1    C5 2676   1.234   4.450   0.876  0.2092  0.4746  0.5916
  172MPD1     H 2677   1.226   4.125   0.687 -0.2792 -0.4031  0.5981
  172MPD1    H1 2678   1.023   4.455   0.860  1.2141  2.7740 -1.5663
  172MPD1    H2 2679   1.452   4.425   0.871 -0.7050  1.5384 -0.0479
  172MPD1    H3 2680   1.243   4.551   0.914 -1.1144  1.8020 -2.5418
  172MPD1     N 2681   0.990   4.243   0.710  0.0848  0.3710  0.2524
  172MPD1    H5 2682   0.905   4.285   0.745 -2.6356 -2.2889 -3.2105
  172MPD1    N1 2683   1.478   4.200   0.795  0.0168  0.1946 -0.2271
  172MPD1    H6 2684   1.521   4.188   0.886  0.0849  1.5587 -0.0921
  172MPD1    H7 2685   1.465   4.105   0.758 -0.4595  0.8917 -1.8588
  173MPD1     C 2686   2.837   3.491  14.374 -0.0791  0.4485  0.2964
  173MPD1    C1 2687   2.782   3.479  14.501 -0.0481  0.3928 -0.0309
  173MPD1    C2 2688   2.650   3.469  14.512  0.1968  0.2199  0.5209
  173MPD1    C3 2689   2.563   3.483  14.404 -0.3751  0.0754  0.9555
  173MPD1    C4 2690   2.616   3.515  14.279  0.9218  1.6451 -1.0076
  173MPD1    C5 2691   2.755   3.512  14.266 -0.2353 -0.6062 -0.5262
  173MPD1     H 2692   2.611   3.453  14.612  1.8410  0.7396  1.2406
  173MPD1    H1 2693   2.560   3.529  14.188 -0.6529 -0.4202 -0.3509
  173MPD1    H2 2694   2.944   3.486  14.361 -0.3244 -0.4695 -1.3188
  173MPD1    H3 2695   2.791   3.502  14.164  0.3784 -0.2830 -0.3410
  173MPD1     N 2696   2.425   3.468  14.433  0.4119 -0.4093  0.0785
  173MPD1    H5 2697   2.396   3.450  14.528 -1.4752 -2.3711 -0.8762
  173MPD1    N1 2698   2.867   3.491  14.610 -0.2242 -0.4753 -0.3471
  173MPD1    H6 2699   2.964   3.468  14.590  0.9079  2.3396  1.9243
  173MPD1    H7 2700   2.830   3.450  14.696 -2.4739  0.3746 -0.9208
  174MPD1     C 2701   1.814   2.913  13.860 -0.0776  0.2791 -0.8656
  174MPD1    C1 2702   1.833   2.861  13.987  0.7897 -0.2334  0.4270
  174MPD1    C2 2703   1.881   2.935  14.090 -0.1089 -0.1296 -0.7959
  174MPD1    C3 2704   1.930   3.061  14.064 -0.2790  0.4299  0.0423
  174MPD1    C4 2705   1.923   3.113  13.936  0.1345 -0.0417  0.2972
  174MPD1    C5 2706   1.869   3.037  13.833 -0.0476  0.4233 -1.2757
  174MPD1     H 2707   1.887   2.896  14.191 -0.2237  1.8539 -0.0083
  174MPD1    H1 2708   1.976   3.202  13.904  1.2957 -0.4312  1.1376
  174MPD1    H2 2709   1.758   2.863  13.781 -1.6283 -0.8469  0.9608
  174MPD1    H3 2710   1.853   3.080  13.735 -1.4654  0.9218 -0.8314
  174MPD1     N 2711   1.999   3.139  14.156  0.2350 -0.0381  0.1084
  174MPD1    H5 2712   2.032   3.230  14.128  0.4955 -0.3626 -0.6270
  174MPD1    N1 2713   1.787   2.731  14.013  0.2019 -0.0164  0.6463
  174MPD1    H6 2714   1.855   2.694  14.079  1.1549  0.7191  0.0737
  174MPD1    H7 2715   1.788   2.672  13.930  0.1986 -1.3957  1.6189
  175MPD1     C 2716   0.414   4.033  15.436  0.1611  0.1774  0.7628
  175MPD1    C1 2717   0.528   4.017  15.513 -0.1797 -0.9955  0.2841
  175MPD1    C2 2718   0.512   4.000  15.645  0.1281 -0.1673 -0.3172
  175MPD1    C3 2719   0.382   3.995  15.700 -0.2069 -0.0460 -0.4466
  175MPD1    C4 2720   0.268   4.008  15.625 -0.4370 -0.2005  0.6457
  175MPD1    C5 2721   0.289   4.030  15.490 -0.0229  0.2078 -0.1980
  175MPD1     H 2722   0.598   3.983  15.709 -2.7344 -4.1589  2.4766
  175MPD1    H1 2723   0.164   4.008  15.657 -0.3164  1.0752  1.0371
  175MPD1    H2 2724   0.420   4.042  15.328 -2.4561  1.7892  0.7541
  175MPD1    H3 2725   0.200   4.037  15.429 -0.7379 -1.5412  0.6248
  175MPD1     N 2726   0.364   3.963  15.836  0.4761 -0.3056  0.3050
  175MPD1    H5 2727   0.264   3.962  15.853  0.1655  0.9603 -1.4081
  175MPD1    N1 2728   0.657   4.039  15.458 -0.7502 -0.3963  0.5613
  175MPD1    H6 2729   0.736   4.002  15.510 -1.6096 -0.5353  1.8004
  175MPD1    H7 2730   0.659   3.995  15.367 -1.5283 -1.2495  0.9575
  176MPD1     C 2731   1.814   1.427  17.655 -0.2996  0.5100  0.2017
  176MPD1    C1 2732   1.851   1.476  17.535 -0.3386  0.0700  0.0780
  176MPD1    C2 2733   1.930   1.591  17.535  0.2850  0.0386  0.1724
  176MPD1    C3 2734   1.958   1.663  17.647 -0.8529 -0.0981 -0.7475
  176MPD1    C4 2735   1.911   1.617   0.015  0.0362 -0.4941 -0.9721
  176MPD1    C5 2736   1.847   1.493   0.021 -0.0817 -0.7178  0.1964
  176MPD1     H 2737   1.952   1.632  17.437  1.0989  0.7999  0.6772
  176MPD1    H1 2738   1.936   1.666   0.109 -1.5645 -1.9527  0.2316
  176MPD1    H2 2739   1.749   1.341  17.659  2.3386 -1.5426 -1.6207
  176MPD1    H3 2740   1.810   1.458   0.117 -0.8830  2.2277  0.9817
  176MPD1     N 2741   2.051   1.774  17.639 -0.6490 -0.7041  0.2594
  176MPD1    H5 2742   2.098   1.793  17.551  0.7691  0.1275  1.2002
  176MPD1    N1 2743   1.801   1.422  17.417 -0.0999  0.3230  0.2705
  176MPD1    H6 2744   1.868   1.424  17.340  0.8375 -3.0697  0.9828
  176MPD1    H7 2745   1.777   1.323  17.423 -4.6574  1.2945 -1.9923
  177MPD1     C 2746   0.070   1.075   9.142  0.3310  0.2011 -0.1431
  177MPD1    C1 2747   4.692   0.996   9.154 -0.4117 -0.1023 -1.1328
  177MPD1    C2 2748   4.573   1.053   9.144 -1.2001 -0.3218  0.0686
  177MPD1    C3 2749   4.556   1.191   9.138 -0.0023  0.2940 -0.2658
  177MPD1    C4 2750   4.668   1.274   9.144  0.1475  0.6280 -0.4427
  177MPD1    C5 2751   0.057   1.211   9.142  0.4265  0.4986 -0.7975
  177MPD1     H 2752   4.488   0.987   9.140 -0.6076 -0.9057 -2.5479
  177MPD1    H1 2753   4.664   1.382   9.141  0.8269  0.6861  0.7765
  177MPD1    H2 2754   0.171   1.038   9.152 -1.2004 -3.6129  1.1752
  177MPD1    H3 2755   0.149   1.268   9.140  1.3755 -1.0225 -0.0677
  177MPD1     N 2756   4.431   1.247   9.120  0.5837  0.3479 -0.1194
  177MPD1    H5 2757   4.350   1.194   9.149 -0.1889  2.3303  1.3611
  177MPD1    N1 2758   4.702   0.855   9.133 -0.1609  0.4405  0.1160
  177MPD1    H6 2759   4.623   0.807   9.176 -0.4821  0.6242 -0.2643
  177MPD1    H7 2760   0.046   0.821   9.184  1.1165  2.4906 -0.5522
  178MPD1     C 2761   2.634   3.585  17.646 -0.2289  0.3162  0.2111
  178MPD1    C1 2762   2.768   3.583  17.617 -0.2668 -0.0305  0.6717
  178MPD1    C2 2763   2.836   3.462  17.597  0.3873 -0.4675 -0.1185
  178MPD1    C3 2764   2.760   3.343  17.578 -0.5659 -0.3314  0.2073
  178MPD1    C4 2765   2.626   3.349  17.599  0.1094 -0.0919  0.3656
  178MPD1    C5 2766   2.566   3.469  17.632  0.7144  0.2726 -0.3351
  178MPD1     H 2767   2.940   3.472  17.569  0.1130  2.7325  0.0300
  178MPD1    H1 2768   2.556   3.268  17.582 -0.6706  0.4239  1.0892
  178MPD1    H2 2769   2.588   3.676  17.681 -0.5927 -0.2685  1.2750
  178MPD1    H3 2770   2.458   3.479  17.638  0.5888 -1.1185 -0.4836
  178MPD1     N 2771   2.815   3.221  17.544 -0.4198  0.4416  0.1925
  178MPD1    H5 2772   2.747   3.146  17.536 -1.3840  1.1872  1.4589
  178MPD1    N1 2773   2.844   3.702  17.621 -0.2309 -0.0952  0.5752
  178MPD1    H6 2774   2.784   3.782  17.603  0.2224  0.0794 -0.1678
  178MPD1    H7 2775   2.903   3.703  17.538  0.3288  2.1737  1.0255
  179MPD1     C 2776   1.589   1.147  16.073  0.0232 -0.1296  0.1021
  179MPD1    C1 2777   1.712   1.100  16.110  0.7141 -0.6959 -0.6214
  179MPD1    C2 2778   1.778   1.007  16.038  0.2087 -0.1137 -0.0255
  179MPD1    C3 2779   1.731   0.969  15.910  0.9389 -0.0052  0.2211
  179MPD1    C4 2780   1.618   1.036  15.862  0.3689 -0.1230 -0.4605
  179MPD1    C5 2781   1.551   1.123  15.945 -0.0651 -0.7707 -0.7579
  179MPD1     H 2782   1.863   0.952  16.078 -1.0910 -2.0983  0.0327
  179MPD1    H1 2783   1.586   1.031  15.759 -0.1115 -1.4980 -0.2443
  179MPD1    H2 2784   1.522   1.211  16.128 -1.2382 -1.0974 -0.3061
  179MPD1    H3 2785   1.465   1.177  15.908 -1.2657 -1.4578  1.0378
  179MPD1     N 2786   1.790   0.880  15.818  0.4725  0.4755  0.5195
  179MPD1    H5 2787   1.737   0.856  15.735  0.4838 -0.3818  0.7671
  179MPD1    N1 2788   1.763   1.134  16.235  0.2932  0.5166  0.0254
  179MPD1    H6 2789   1.730   1.226  16.265  1.2822  0.3041  1.7572
  179MPD1    H7 2790   1.865   1.135  16.229  0.2535 -0.1074 -0.5991
  180MPD1     C 2791   2.841   2.388  15.160 -0.5502  0.4323 -0.0070
  180MPD1    C1 2792   2.878   2.418  15.036  0.4146 -0.1530 -0.0118
  180MPD1    C2 2793   2.809   2.368  14.927 -0.1045  0.3707 -0.3124
  180MPD1    C3 2794   2.700   2.291  14.945  0.2168 -0.0087 -0.3611
  180MPD1    C4 2795   2.653   2.264  15.074  0.8002  0.2723 -0.0149
  180MPD1    C5 2796   2.732   2.311  15.172  0.1858  0.9258 -0.0012
  180MPD1     H 2797   2.848   2.381  14.826 -1.8112  0.1049 -0.9986
  180MPD1    H1 2798   2.564   2.208  15.101  1.6701 -1.6979 -1.1858
  180MPD1    H2 2799   2.898   2.427  15.244 -0.5725 -1.0234  0.6817
  180MPD1    H3 2800   2.696   2.296  15.273 -0.1055 -0.3137 -0.2863
  180MPD1     N 2801   2.636   2.240  14.831 -0.0277 -0.1251 -0.1684
  180MPD1    H5 2802   2.688   2.253  14.744  3.3679 -2.4296  1.5394
  180MPD1    N1 2803   2.995   2.490  15.019  0.7202 -0.0536 -0.5522
  180MPD1    H6 2804   2.996   2.539  14.930 -0.9616 -1.1477 -1.1727
  180MPD1    H7 2805   3.012   2.556  15.094  1.9451 -0.0353 -0.8317
  181MPD1     C 2806   2.733   2.412  10.339 -0.5747  0.2445 -0.1934
  181MPD1    C1 2807   2.773   2.529  10.404  0.0912  0.2301  0.3854
  181MPD1    C2 2808   2.873   2.603  10.347  0.3402 -0.2577 -0.4466
  181MPD1    C3 2809   2.927   2.570  10.223 -0.1309  0.3876  0.1360
  181MPD1    C4 2810   2.881   2.458  10.162 -0.3644  0.5784 -0.2488
  181MPD1    C5 2811   2.790   2.381  10.220 -0.4008  0.1291 -0.2367
  181MPD1     H 2812   2.904   2.701  10.384 -0.0663 -0.2525 -0.1208
  181MPD1    H1 2813   2.916   2.424  10.065 -0.5802  5.4681 -2.0362
  181MPD1    H2 2814   2.647   2.357  10.374  1.0002 -0.0146  3.2960
  181MPD1    H3 2815   2.746   2.302  10.161  0.3945 -0.2171 -0.3651
  181MPD1     N 2816   3.038   2.640  10.160  0.4109 -0.2718  0.0988
  181MPD1    H5 2817   3.076   2.601  10.074  0.0804 -0.4902  0.0536
  181MPD1    N1 2818   2.718   2.560  10.529 -0.1949 -0.3139  0.3431
  181MPD1    H6 2819   2.619   2.537  10.537  0.5765 -3.5687  0.3414
  181MPD1    H7 2820   2.720   2.661  10.544  2.4192 -0.0258 -1.9866
  182MPD1     C 2821   0.122   3.770   1.517  0.1863 -0.1294  0.2931
  182MPD1    C1 2822   0.185   3.643   1.516  0.2152 -0.0610 -0.3593
  182MPD1    C2 2823   0.135   3.537   1.438 -0.4252 -0.7281  0.9098
  182MPD1    C3 2824   0.033   3.560   1.346  0.5967  0.1825 -0.1258
  182MPD1    C4 2825   4.705   3.686   1.347  0.1729 -0.9727 -0.0255
  182MPD1    C5 2826   0.016   3.788   1.431  0.2550  0.2682 -0.3165
  182MPD1     H 2827   0.185   3.441   1.444  2.0436  0.5368  1.0192
  182MPD1    H1 2828   4.614   3.700   1.290  0.3946 -0.4741 -0.2563
  182MPD1    H2 2829   0.167   3.850   1.574 -0.5201 -0.4024  1.2297
  182MPD1    H3 2830   4.716   3.889   1.420  1.9796  0.9383 -0.0186
  182MPD1     N 2831   4.712   3.464   1.264  0.0436 -0.5805  0.3855
  182MPD1    H5 2832   4.625   3.496   1.222  1.5365  0.6884 -1.7922
  182MPD1    N1 2833   0.280   3.619   1.619  1.2283  0.0685 -0.3177
  182MPD1    H6 2834   0.338   3.700   1.641  2.3855 -1.0003  0.5691
  182MPD1    H7 2835   0.330   3.530   1.615  0.5552 -0.3382  0.4835
  183MPD1     C 2836   0.584   3.864   9.522  0.1168  0.0365 -0.2668
  183MPD1    C1 2837   0.453   3.890   9.561 -0.1145  0.1439  0.3552
  183MPD1    C2 2838   0.376   3.775   9.573 -0.2556  0.6326 -0.7934
  183MPD1    C3 2839   0.427   3.649   9.574  0.0594  0.5815 -0.1000
  183MPD1    C4 2840   0.564   3.633   9.539 -0.2336 -0.2349 -0.1275
  183MPD1    C5 2841   0.639   3.738   9.505  0.0268 -0.4082  0.1141
  183MPD1     H 2842   0.269   3.775   9.593 -0.1529  1.7020 -0.2679
  183MPD1    H1 2843   0.620   3.541   9.547  0.4762  0.1965 -0.1856
  183MPD1    H2 2844   0.655   3.944   9.503  0.9794 -0.5364  0.5080
  183MPD1    H3 2845   0.744   3.731   9.478 -0.1939 -0.4335 -0.7377
  183MPD1     N 2846   0.344   3.551   9.616 -0.0045 -0.7681 -0.1045
  183MPD1    H5 2847   0.248   3.578   9.637 -0.1977 -1.1335 -0.5090
  183MPD1    N1 2848   0.395   4.020   9.543 -0.5783  0.9245  0.1930
  183MPD1    H6 2849   0.313   4.044   9.599 -0.0855  0.1094  1.2670
  183MPD1    H7 2850   0.467   4.090   9.558  0.6168 -0.0756 -0.8226
  184MPD1     C 2851   4.542   0.612   9.430 -0.5104  0.4904 -0.3504
  184MPD1    C1 2852   4.427   0.685   9.411 -0.2905  0.2706  0.1787
  184MPD1    C2 2853   4.421   0.817   9.447 -0.1849 -0.2320  0.1690
  184MPD1    C3 2854   4.532   0.877   9.498 -0.2825 -0.0869  0.9839
  184MPD1    C4 2855   4.653   0.812   9.511  0.1622 -0.2180  0.5796
  184MPD1    C5 2856   4.653   0.681   9.476  0.5305  0.1020  0.1483
  184MPD1     H 2857   4.331   0.870   9.419  0.7109  0.3591 -1.5952
  184MPD1    H1 2858   0.003   0.868   9.543  1.1112 -1.6844  0.5273
  184MPD1    H2 2859   4.548   0.508   9.398 -0.0165 -0.2288  2.1195
  184MPD1    H3 2860   0.008   0.624   9.481  0.1597 -0.6132 -1.1346
  184MPD1     N 2861   4.540   1.018   9.521 -0.4018  0.3367  0.3495
  184MPD1    H5 2862   4.629   1.052   9.555 -0.1985 -0.6316  0.7886
  184MPD1    N1 2863   4.318   0.633   9.339  0.3167  0.0178 -0.0010
  184MPD1    H6 2864   4.238   0.693   9.360  1.7428  1.1250  2.2269
  184MPD1    H7 2865   4.295   0.538   9.370 -2.2441  0.7923  0.5405
  185MPD1     C 2866   4.032   1.908   9.153  0.3678 -1.0052 -0.3932
  185MPD1    C1 2867   3.988   1.785   9.202 -0.9471  0.7393  0.1327
  185MPD1    C2 2868   4.069   1.706   9.277 -0.1671  0.3056 -0.1793
  185MPD1    C3 2869   4.204   1.738   9.296  1.0471 -0.2678 -0.3583
  185MPD1    C4 2870   4.244   1.863   9.256 -0.7175  0.3290  0.7226
  185MPD1    C5 2871   4.163   1.949   9.186 -0.6109 -1.1693  0.0601
  185MPD1     H 2872   4.040   1.606   9.307 -0.0227  0.1895 -0.4265
  185MPD1    H1 2873   4.346   1.882   9.288 -0.4754  0.1907  0.0307
  185MPD1    H2 2874   3.971   1.970   9.088  1.0868 -0.7701 -0.8475
  185MPD1    H3 2875   4.205   2.037   9.139 -1.2770 -1.2854 -0.7405
  185MPD1     N 2876   4.293   1.649   9.364 -0.3389  0.5694 -0.3559
  185MPD1    H5 2877   4.389   1.683   9.373  0.1385 -1.0539  0.7828
  185MPD1    N1 2878   3.860   1.741   9.164 -0.0748 -0.1667  0.2922
  185MPD1    H6 2879   3.822   1.669   9.226  1.2652 -1.8373 -0.8464
  185MPD1    H7 2880   3.795   1.820   9.171 -0.9805 -0.9991  1.2688
  186MPD1     C 2881   3.323   0.854  15.998  0.4024 -0.6103 -0.1050
  186MPD1    C1 2882   3.239   0.820  16.105  0.6520  1.0009 -0.2378
  186MPD1    C2 2883   3.185   0.923  16.182 -0.0419 -0.4754 -0.0767
  186MPD1    C3 2884   3.225   1.052  16.164  0.2271  0.6212 -0.3595
  186MPD1    C4 2885   3.333   1.079  16.076  0.1157 -0.1114  0.2432
  186MPD1    C5 2886   3.374   0.980  15.988  0.0297 -0.0061 -0.0190
  186MPD1     H 2887   3.116   0.894  16.260  0.7951 -0.7105  0.5766
  186MPD1    H1 2888   3.365   1.181  16.057 -0.3733 -0.1377 -0.7276
  186MPD1    H2 2889   3.359   0.790  15.918  1.1468  0.3557 -0.5471
  186MPD1    H3 2890   3.435   1.013  15.904 -0.1249 -0.4465 -0.3052
  186MPD1     N 2891   3.189   1.157  16.250 -0.0985 -0.3064 -0.2241
  186MPD1    H5 2892   3.235   1.247  16.242  0.9550 -0.7944  0.3623
  186MPD1    N1 2893   3.185   0.690  16.119 -0.7821 -0.1714 -0.3101
  186MPD1    H6 2894   3.249   0.622  16.077  0.0439  2.1536 -2.8138
  186MPD1    H7 2895   3.160   0.660  16.213  0.3547 -0.0333  0.0335
  187MPD1     C 2896   2.846   2.826   0.064 -0.1797  0.8631 -0.2147
  187MPD1    C1 2897   2.773   2.721  17.743 -0.2877  0.2701 -0.7977
  187MPD1    C2 2898   2.649   2.758  17.695  0.3028  0.0037  0.2282
  187MPD1    C3 2899   2.591   2.881  17.728  0.0012  0.0190  0.0968
  187MPD1    C4 2900   2.663   2.975   0.052  0.1096  0.5573  0.0878
  187MPD1    C5 2901   2.791   2.950   0.084 -0.5215 -0.0208 -0.4121
  187MPD1     H 2902   2.589   2.680  17.649  0.6182 -1.9309  3.0870
  187MPD1    H1 2903   2.620   3.073   0.069 -0.0518  0.9384 -2.5192
  187MPD1    H2 2904   2.945   2.806   0.103  1.1765  0.3908 -3.8470
  187MPD1    H3 2905   2.846   3.024   0.141  1.2132 -0.8273 -1.0533
  187MPD1     N 2906   2.458   2.930  17.686 -0.1059 -0.0218 -0.4937
  187MPD1    H5 2907   2.433   3.020  17.725  1.6215  0.5575 -0.7457
  187MPD1    N1 2908   2.830   2.592  17.728 -0.0816  0.5711  0.2073
  187MPD1    H6 2909   2.894   2.568   0.056  0.2359  1.6406  0.2833
  187MPD1    H7 2910   2.761   2.518  17.720 -0.0185  0.5684 -0.3313
  188MPD1     C 2911   1.902   2.445  10.781 -0.0879 -0.0356 -0.1449
  188MPD1    C1 2912   1.998   2.362  10.831  0.1401  0.0715 -1.1861
  188MPD1    C2 2913   1.992   2.230  10.801  0.5134  0.0903 -0.4198
  188MPD1    C3 2914   1.905   2.185  10.704  0.4203  0.5523  0.1600
  188MPD1    C4 2915   1.811   2.264  10.649 -0.0418 -0.5876  0.5064
  188MPD1    C5 2916   1.803   2.394  10.698  0.4097 -0.2130 -0.1044
  188MPD1     H 2917   2.072   2.169  10.842  1.9583  3.1922  1.3706
  188MPD1    H1 2918   1.735   2.217  10.588 -0.1006  1.3655 -0.9277
  188MPD1    H2 2919   1.878   2.541  10.826 -1.0865 -0.6180  0.5622
  188MPD1    H3 2920   1.722   2.461  10.670  2.1544  1.3261 -1.4991
  188MPD1     N 2921   1.898   2.053  10.668  0.3572  0.2295 -0.8322
  188MPD1    H5 2922   1.829   2.019  10.601  1.1405 -0.9135 -1.0722
  188MPD1    N1 2923   2.102   2.411  10.916  0.1242  0.6001 -0.1451
  188MPD1    H6 2924   2.109   2.512  10.920  0.2299  0.5331  1.0793
  188MPD1    H7 2925   2.192   2.367  10.898 -0.1440 -0.5127  1.2123
  189MPD1     C 2926   4.122   3.655   0.649  0.4424  0.5847 -0.5917
  189MPD1    C1 2927   4.029   3.612   0.548 -0.1138 -0.5408 -0.4651
  189MPD1    C2 2928   3.959   3.709   0.479 -0.2982  0.4436  0.6636
  189MPD1    C3 2929   3.977   3.841   0.511  0.1214 -0.6602 -1.0546
  189MPD1    C4 2930   4.062   3.876   0.613 -0.3190  0.0577  0.0373
  189MPD1    C5 2931   4.148   3.790   0.668 -0.1939  0.3107  0.1859
  189MPD1     H 2932   3.885   3.682   0.405  1.1258 -2.2015  0.2004
  189MPD1    H1 2933   4.064   3.978   0.650 -2.0336  0.0543  0.1737
  189MPD1    H2 2934   4.190   3.584   0.696 -1.0225 -0.5700 -0.1948
  189MPD1    H3 2935   4.225   3.822   0.738 -1.3685  2.0597  0.6970
  189MPD1     N 2936   3.887   3.929   0.451  0.0542  0.0639 -0.2629
  189MPD1    H5 2937   3.814   3.891   0.392  2.0591 -2.1807 -1.3106
  189MPD1    N1 2938   3.994   3.475   0.544 -0.0166  1.0377 -0.4979
  189MPD1    H6 2939   4.071   3.409   0.553  1.5507  2.5511 -2.8611
  189MPD1    H7 2940   3.960   3.449   0.452 -0.9820  0.2401  0.0851
  190MPD1     C 2941   2.491   2.675  15.424 -0.1640 -0.5470 -0.7927
  190MPD1    C1 2942   2.602   2.613  15.376  0.3991  0.2724  0.4128
  190MPD1    C2 2943   2.703   2.593  15.460 -0.3572  1.5363 -0.2068
  190MPD1    C3 2944   2.694   2.603  15.596  0.4541 -0.2040  0.3416
  190MPD1    C4 2945   2.583   2.668  15.644 -0.1426  0.3824 -0.1652
  190MPD1    C5 2946   2.491   2.701  15.553  0.9213  0.3300 -0.2618
  190MPD1     H 2947   2.792   2.545  15.421 -1.0728 -0.1892  0.2828
  190MPD1    H1 2948   2.579   2.705  15.745 -0.2312  1.0545 -0.4124
  190MPD1    H2 2949   2.402   2.695  15.364  0.5347 -1.3676 -2.1104
  190MPD1    H3 2950   2.406   2.756  15.591  0.5858 -0.9717  0.8837
  190MPD1     N 2951   2.801   2.559  15.676  0.1415  0.1380 -0.0743
  190MPD1    H5 2952   2.885   2.532  15.625  0.6826  2.4088 -0.4015
  190MPD1    N1 2953   2.620   2.604  15.232 -0.2539  0.3304  0.0002
  190MPD1    H6 2954   2.530   2.619  15.188 -0.5844  0.3058  0.6652
  190MPD1    H7 2955   2.666   2.518  15.204 -3.1290 -1.0726 -0.3259
  191MPD1     C 2956   2.487   2.919  12.026 -0.7329 -0.4547  0.2469
  191MPD1    C1 2957   2.366   2.941  11.964  0.3294  0.0574  0.0403
  191MPD1    C2 2958   2.352   3.055  11.884  0.5343 -0.0375  0.7779
  191MPD1    C3 2959   2.450   3.153  11.877 -0.0942 -0.0197 -0.0177
  191MPD1    C4 2960   2.569   3.122  11.942 -0.3938  0.1463 -0.1708
  191MPD1    C5 2961   2.591   3.006  12.015 -0.9502  0.0181 -0.5176
  191MPD1     H 2962   2.265   3.066  11.820  0.4249 -0.4800  0.8505
  191MPD1    H1 2963   2.665   3.172  11.932 -0.2006 -0.2744 -0.4462
  191MPD1    H2 2964   2.500   2.830  12.087  0.2642 -1.3745 -1.2820
  191MPD1    H3 2965   2.689   2.983  12.056 -0.0468  0.0564 -2.7003
  191MPD1     N 2966   2.432   3.275  11.804 -0.1401 -0.1764  0.0767
  191MPD1    H5 2967   2.349   3.281  11.746  0.2973  1.1135 -0.4244
  191MPD1    N1 2968   2.268   2.839  11.962  0.0586  0.2002 -0.3313
  191MPD1    H6 2969   2.179   2.888  11.954 -1.3846 -2.4059 -0.3089
  191MPD1    H7 2970   2.265   2.798  12.055 -1.2460 -0.2464 -0.5679
  192MPD1     C 2971   1.808   3.454  11.272 -0.5430 -0.1369  0.1312
  192MPD1    C1 2972   1.861   3.581  11.276 -0.3631 -0.1693  0.9239
  192MPD1    C2 2973   1.980   3.613  11.345 -0.1461  0.0482  0.5146
  192MPD1    C3 2974   2.022   3.521  11.438  0.8476 -0.0224  0.2467
  192MPD1    C4 2975   1.970   3.395  11.439 -0.7933  0.1110  0.6523
  192MPD1    C5 2976   1.865   3.362  11.356  0.2046  0.2513 -0.9045
  192MPD1     H 2977   2.012   3.716  11.340 -1.8499  0.5320 -0.6939
  192MPD1    H1 2978   2.017   3.318  11.499  3.0861  1.9210 -0.0800
  192MPD1    H2 2979   1.731   3.429  11.200 -0.4670 -2.7133  0.9393
  192MPD1    H3 2980   1.825   3.261  11.351  0.8443  0.0808 -2.6246
  192MPD1     N 2981   2.130   3.538  11.522 -0.5758  0.3191  0.1316
  192MPD1    H5 2982   2.149   3.454  11.575  0.0361 -0.2755 -1.0275
  192MPD1    N1 2983   1.823   3.672  11.176 -0.2844 -0.0583 -0.3051
  192MPD1    H6 2984   1.827   3.768  11.208 -0.4124 -0.0591 -0.2834
  192MPD1    H7 2985   1.725   3.648  11.159  0.0547 -1.5197 -0.1860
  193MPD1     C 2986   1.131   3.989  16.100 -0.0092 -1.0741  0.1758
  193MPD1    C1 2987   1.068   4.111  16.099 -0.1299  0.4340  0.4952
  193MPD1    C2 2988   1.116   4.216  16.172 -0.4577  0.6696  0.1764
  193MPD1    C3 2989   1.233   4.198  16.245 -0.2448 -0.8472  0.6122
  193MPD1    C4 2990   1.298   4.075  16.248 -0.0870  0.5148 -0.0374
  193MPD1    C5 2991   1.243   3.970  16.171  0.3579  0.0572 -0.0442
  193MPD1     H 2992   1.063   4.311  16.172 -0.3361  0.7480  1.8436
  193MPD1    H1 2993   1.389   4.064  16.304 -0.3139  0.8748  0.4040
  193MPD1    H2 2994   1.092   3.898  16.056  0.2420 -1.0578 -0.0826
  193MPD1    H3 2995   1.288   3.871  16.174  1.2354  0.4956  1.3078
  193MPD1     N 2996   1.289   4.302  16.316  0.4980 -1.3767  0.7645
  193MPD1    H5 2997   1.369   4.281  16.375  0.1721 -3.3854  0.4921
  193MPD1    N1 2998   0.945   4.128  16.030  0.0022 -0.2070 -0.1720
  193MPD1    H6 2999   0.951   4.222  15.991 -2.6540 -0.0424 -0.1707
  193MPD1    H7 3000   0.912   4.050  15.974  0.8241  2.3313 -4.2205
  194MPD1     C 3001   4.235   1.167  16.944  0.8689  0.1694 -0.0688
  194MPD1    C1 3002   4.104   1.161  16.974  0.1622  0.5435 -0.0877
  194MPD1    C2 3003   4.045   1.042  16.983 -0.5752  0.1576 -0.2161
  194MPD1    C3 3004   4.119   0.924  16.975 -0.5774  0.1653  0.2254
  194MPD1    C4 3005   4.258   0.936  16.967  0.0337  0.4823  0.2402
  194MPD1    C5 3006   4.312   1.058  16.949 -0.8600  0.4769 -0.8629
  194MPD1     H 3007   3.938   1.043  17.001 -0.1913 -0.8692  2.1911
  194MPD1    H1 3008   4.324   0.850  16.960  0.3873  0.7900 -0.1534
  194MPD1    H2 3009   4.281   1.259  16.910  1.7298 -0.4487 -0.5721
  194MPD1    H3 3010   4.413   1.073  16.913  0.6394 -1.4629  2.6054
  194MPD1     N 3011   4.059   0.798  16.968  0.7335  0.4591 -0.5751
  194MPD1    H5 3012   4.128   0.724  16.978 -2.2661 -2.1109  1.1599
  194MPD1    N1 3013   4.036   1.283  16.968  0.4019 -0.0633 -0.1564
  194MPD1    H6 3014   4.094   1.361  16.999 -0.2503 -0.6432  2.4478
  194MPD1    H7 3015   3.949   1.284  17.020  1.3042  2.5792  1.2460
  195MPD1     C 3016   1.660   3.702   0.297  0.0447 -0.5874 -0.5387
  195MPD1    C1 3017   1.793   3.674   0.300 -0.5890 -0.5025 -0.1901
  195MPD1    C2 3018   1.830   3.538   0.320 -0.0881  0.2348 -0.7899
  195MPD1    C3 3019   1.736   3.435   0.340 -0.0519 -0.0304 -0.3558
  195MPD1    C4 3020   1.606   3.469   0.338  0.1233 -0.0212 -0.0988
  195MPD1    C5 3021   1.568   3.600   0.319 -0.3155  0.5782  0.2884
  195MPD1     H 3022   1.937   3.527   0.311 -0.1254 -0.3215 -0.5192
  195MPD1    H1 3023   1.539   3.386   0.352  1.0876 -0.7651  0.1084
  195MPD1    H2 3024   1.621   3.800   0.271 -0.7957 -0.8971 -0.4509
  195MPD1    H3 3025   1.462   3.617   0.309 -0.7039 -1.6719  0.5469
  195MPD1     N 3026   1.781   3.301   0.338  0.7900 -0.5567 -0.1698
  195MPD1    H5 3027   1.709   3.229   0.343 -0.6146  0.8210 -0.6008
  195MPD1    N1 3028   1.880   3.769   0.247  0.2981  0.1175 -0.7011
  195MPD1    H6 3029   1.851   3.865   0.264  1.8787  0.3214  0.8020
  195MPD1    H7 3030   1.978   3.758   0.272  0.0080 -1.8395 -0.4060
  196MPD1     C 3031   0.339   3.164   0.105 -0.2173  0.2259 -0.2457
  196MPD1    C1 3032   0.399   3.043   0.063  0.0494 -0.2880  0.2953
  196MPD1    C2 3033   0.460   2.967   0.168 -0.7023  0.7352 -0.1208
  196MPD1    C3 3034   0.447   2.999   0.302 -0.1915 -0.1572  0.7579
  196MPD1    C4 3035   0.387   3.116   0.339  0.6849 -0.4256 -0.1359
  196MPD1    C5 3036   0.336   3.195   0.242  0.2543 -0.1429 -0.0511
  196MPD1     H 3037   0.521   2.883   0.138 -2.0401 -0.4017  0.3623
  196MPD1    H1 3038   0.385   3.148   0.443 -1.8918  1.2550 -0.7016
  196MPD1    H2 3039   0.288   3.224   0.030 -0.2393  0.2184 -0.2366
  196MPD1    H3 3040   0.305   3.290   0.283  0.1726 -0.6491  1.0772
  196MPD1     N 3041   0.503   2.918   0.407  0.2069  0.0044 -0.5234
  196MPD1    H5 3042   0.501   2.949   0.504  0.6323 -2.4170  0.2728
  196MPD1    N1 3043   0.427   3.021  17.673 -0.0850  0.1039  0.9336
  196MPD1    H6 3044   0.357   3.062  17.612  0.2103  1.0689  1.2407
  196MPD1    H7 3045   0.432   2.922  17.649  1.7564  0.5776 -0.6688
  197MPD1     C 3046   0.495   3.976  17.560 -0.2371 -0.0498 -0.8373
  197MPD1    C1 3047   0.525   4.107  17.604 -0.2750  0.1498  0.2649
  197MPD1    C2 3048   0.517   4.212  17.511  1.0935  0.0511 -0.1544
  197MPD1    C3 3049   0.489   4.189  17.380 -0.1511 -0.8782 -0.5275
  197MPD1    C4 3050   0.457   4.067  17.340  0.0305  0.3369  0.1772
  197MPD1    C5 3051   0.472   3.959  17.424 -0.1366 -0.0133 -0.4473
  197MPD1     H 3052   0.544   4.310  17.547  1.4157 -0.1064  0.0378
  197MPD1    H1 3053   0.424   4.052  17.237 -0.8514 -5.8820  1.4098
  197MPD1    H2 3054   0.501   3.886  17.620  0.5156 -0.1262 -1.0236
  197MPD1    H3 3055   0.458   3.863  17.375  2.3440 -0.3313 -0.5320
  197MPD1     N 3056   0.475   4.297  17.282  1.1339  0.7137  0.3456
  197MPD1    H5 3057   0.460   4.267  17.186  0.8467  0.5986  0.4237
  197MPD1    N1 3058   0.541   4.136  17.741  0.5488  0.1805  0.6001
  197MPD1    H6 3059   0.590   4.062   0.044 -1.7198 -0.7959  1.4105
  197MPD1    H7 3060   0.600   4.218  17.740  2.0005 -0.8812 -0.3832
  198MPD1     C 3061   2.052   3.427  15.922  0.2614  0.2634  1.2521
  198MPD1    C1 3062   2.146   3.433  16.020 -0.4447 -0.3290  0.1534
  198MPD1    C2 3063   2.265   3.503  15.990 -0.5512  0.3182 -0.0118
  198MPD1    C3 3064   2.291   3.556  15.862  0.4323  0.4327  0.0320
  198MPD1    C4 3065   2.192   3.541  15.766 -0.4565  0.2067  0.1143
  198MPD1    C5 3066   2.075   3.471  15.795 -1.3785  0.7800 -0.4136
  198MPD1     H 3067   2.339   3.518  16.068 -2.2002 -1.8880  1.9494
  198MPD1    H1 3068   2.197   3.566  15.660 -1.9138  0.5814  0.1339
  198MPD1    H2 3069   1.950   3.398  15.946 -0.1818 -1.6352 -2.8825
  198MPD1    H3 3070   2.003   3.472  15.714 -0.1344  1.0604 -1.5104
  198MPD1     N 3071   2.414   3.612  15.831  0.4716 -0.3229 -0.9769
  198MPD1    H5 3072   2.474   3.632  15.911  0.0815  2.7096 -1.4471
  198MPD1    N1 3073   2.116   3.381  16.151  0.1559 -0.0008  0.3742
  198MPD1    H6 3074   2.194   3.360  16.212  1.1860  1.6733 -0.3596
  198MPD1    H7 3075   2.060   3.296  16.147 -1.1894  0.7479  3.3602
  199MPD1     C 3076   4.598   4.593   9.322 -0.0759 -0.0496  0.4617
  199MPD1    C1 3077   4.635   4.513   9.431  0.3052  0.5383 -0.2577
  199MPD1    C2 3078   4.546   4.420   9.477 -0.4562 -0.3652 -0.2915
  199MPD1    C3 3079   4.419   4.419   9.424  0.4924 -0.0759 -0.2828
  199MPD1    C4 3080   4.383   4.503   9.324 -0.2282 -0.5960 -0.4210
  199MPD1    C5 3081   4.470   4.586   9.273 -0.1827  0.0875  0.1080
  199MPD1     H 3082   4.570   4.358   9.562 -2.2134  1.3012  1.4418
  199MPD1    H1 3083   4.283   4.509   9.283  0.6425  1.2948 -2.2393
  199MPD1    H2 3084   4.667   4.657   9.269 -1.5622  3.7483  3.1104
  199MPD1    H3 3085   4.446   4.649   9.188 -1.2236 -1.2075 -0.5553
  199MPD1     N 3086   4.308   4.339   9.474  0.3010  0.5259 -0.3368
  199MPD1    H5 3087   4.215   4.344   9.435  0.1592  0.5450  0.0046
  199MPD1    N1 3088   0.031   4.509   9.477 -0.4051 -0.3374 -0.2481
  199MPD1    H6 3089   0.047   4.481   9.573 -1.1955  1.8415  0.5262
  199MPD1    H7 3090   0.066   4.604   9.468  0.0394 -0.2674  2.2965
  200MPD1     C 3091   4.039   4.693  15.190  1.3660 -0.6663  0.0722
  200MPD1    C1 3092   4.067   0.003  15.062  0.2456  0.6424  0.3802
  200MPD1    C2 3093   4.023   0.134  15.032  0.1791  0.0720 -0.4167
  200MPD1    C3 3094   3.962   0.221  15.123  0.0886 -0.4085  0.7018
  200MPD1    C4 3095   3.936   0.165  15.250  0.1501 -0.3600  0.6212
  200MPD1    C5 3096   3.965   0.032  15.274 -0.0330 -0.2484 -1.3757
  200MPD1     H 3097   4.064   0.171  14.939  2.4193  2.0504  1.3566
  200MPD1    H1 3098   3.880   0.220  15.325  0.0179  0.8192 -0.3425
  200MPD1    H2 3099   4.061   4.594  15.227  1.6241  0.0681  1.8751
  200MPD1    H3 3100   3.917   4.722  15.359  2.5416  2.2094  1.4246
  200MPD1     N 3101   3.928   0.348  15.072  0.5587 -0.4930  0.0813
  200MPD1    H5 3102   3.940   0.371  14.974 -1.4080  0.1470 -0.0050
  200MPD1    N1 3103   4.157   4.676  14.977 -0.4713 -0.0242 -0.5085
  200MPD1    H6 3104   4.140   4.576  14.976 -0.9910  0.0588  1.0156
  200MPD1    H7 3105   4.147   4.713  14.882 -3.5102  0.8602  0.1349
  201MPD1     C 3106   1.586   2.182  13.628  1.0187 -0.1143  0.0505
  201MPD1    C1 3107   1.611   2.118  13.506 -0.0474  0.1010  0.3318
  201MPD1    C2 3108   1.543   2.156  13.391  0.5992  0.1787 -0.0603
  201MPD1    C3 3109   1.482   2.273  13.392 -0.2791  0.5528  0.4007
  201MPD1    C4 3110   1.466   2.346  13.509 -0.2518  0.6566  0.0173
  201MPD1    C5 3111   1.516   2.299  13.629 -0.3458  0.8358  0.1536
  201MPD1     H 3112   1.547   2.095  13.301 -2.6601  1.6998 -1.2388
  201MPD1    H1 3113   1.414   2.441  13.497 -0.7121  0.5786  1.3609
  201MPD1    H2 3114   1.597   2.131  13.723 -0.4004  0.5573  0.5736
  201MPD1    H3 3115   1.500   2.346  13.725  0.0208  0.0816  0.5878
  201MPD1     N 3116   1.412   2.311  13.274  0.0724 -0.2910 -0.2772
  201MPD1    H5 3117   1.431   2.255  13.192 -0.4379  1.3467 -1.5263
  201MPD1    N1 3118   1.683   1.999  13.506  0.6011  0.1229  0.0862
  201MPD1    H6 3119   1.725   1.979  13.415  0.7404 -0.7802  0.3543
  201MPD1    H7 3120   1.758   2.006  13.574 -0.1152  0.1228  0.8680
  202MPD1     C 3121   1.576   3.115   9.895  0.5131 -0.3404  0.3969
  202MPD1    C1 3122   1.448   3.159   9.881 -0.0373 -0.6219  0.1231
  202MPD1    C2 3123   1.350   3.063   9.897 -0.2279 -0.9046  0.0587
  202MPD1    C3 3124   1.368   2.951   9.975  0.4080 -0.1013  0.8455
  202MPD1    C4 3125   1.501   2.924  10.017  0.2133  0.7357  0.0611
  202MPD1    C5 3126   1.604   3.000   9.967 -0.0217 -0.2035  0.2212
  202MPD1     H 3127   1.263   3.076   9.835 -1.7425 -5.0799  1.3189
  202MPD1    H1 3128   1.531   2.836  10.072 -2.0826 -0.6933 -0.9952
  202MPD1    H2 3129   1.653   3.185   9.865  1.7581 -0.6135  2.9596
  202MPD1    H3 3130   1.705   2.969   9.993  0.8039  1.2812 -1.2725
  202MPD1     N 3131   1.268   2.847  10.014 -0.2281  0.2002  0.1577
  202MPD1    H5 3132   1.291   2.772  10.079  1.7877  0.6304 -0.0419
  202MPD1    N1 3133   1.423   3.259   9.783 -0.1936  0.2469 -0.1013
  202MPD1    H6 3134   1.481   3.343   9.787  1.1968 -0.6919 -0.2340
  202MPD1    H7 3135   1.328   3.288   9.803  0.1657  1.1288  0.3174
  203MPD1     C 3136   4.631   3.205  12.420  0.5798  0.3541 -0.0616
  203MPD1    C1 3137   4.539   3.112  12.400 -0.3373 -0.3726 -0.0219
  203MPD1    C2 3138   4.546   3.003  12.486 -0.3738 -0.3232 -0.5586
  203MPD1    C3 3139   4.635   2.995  12.583 -0.0692 -0.4659  0.2532
  203MPD1    C4 3140   4.725   3.095  12.614  0.6123 -0.0088  0.3672
  203MPD1    C5 3141   4.721   3.201  12.529 -0.3890  0.4449  0.0334
  203MPD1     H 3142   4.485   2.916  12.464  0.0919 -0.8111  0.1110
  203MPD1    H1 3143   0.061   3.086  12.694  0.6180 -0.2555  0.3339
  203MPD1    H2 3144   4.641   3.289  12.353  4.9749  0.5736  0.8118
  203MPD1    H3 3145   0.055   3.283  12.534 -0.2653  0.4472 -1.7702
  203MPD1     N 3146   4.630   2.865  12.645  0.5388 -0.0095 -0.2406
  203MPD1    H5 3147   4.562   2.796  12.616  1.5732 -0.5136 -1.4676
  203MPD1    N1 3148   4.435   3.135  12.302  0.3056  0.0157 -0.3868
  203MPD1    H6 3149   4.404   3.051  12.252 -0.2172 -0.0871  0.1084
  203MPD1    H7 3150   4.470   3.199  12.231 -1.5944  0.2888 -1.0569
  204MPD1     C 3151   3.750   0.319  17.600  0.3661 -0.6525 -0.0354
  204MPD1    C1 3152   3.769   0.281  17.466  0.6033  0.2885  0.1430
  204MPD1    C2 3153   3.872   0.186  17.443  0.3465 -0.2634 -0.1464
  204MPD1    C3 3154   3.921   0.107  17.548  0.2899 -0.0285 -0.6163
  204MPD1    C4 3155   3.896   0.147  17.679 -0.0755 -0.0601  0.4513
  204MPD1    C5 3156   3.828   0.265  17.701 -0.6241 -0.1720 -0.4001
  204MPD1     H 3157   3.902   0.151  17.345  0.9136 -1.4944  0.4588
  204MPD1    H1 3158   3.940   0.097   0.018 -0.4608 -1.6001 -0.2488
  204MPD1    H2 3159   3.686   0.404  17.623  1.0360 -0.5519  1.4473
  204MPD1    H3 3160   3.807   0.310   0.051 -1.8893  1.0361 -1.2339
  204MPD1     N 3161   3.977   4.721  17.515  0.1014 -0.0348 -0.2492
  204MPD1    H5 3162   3.999   4.715  17.417 -0.7934 -1.9257 -0.3483
  204MPD1    N1 3163   3.718   0.361  17.362 -0.1623 -0.2152  0.2158
  204MPD1    H6 3164   3.717   0.308  17.275  0.6297  1.7476 -0.9981
  204MPD1    H7 3165   3.627   0.403  17.376 -0.1917  0.4324 -1.8887
  205MPD1     C 3166   0.237   3.518   0.610 -0.8005  0.4985 -1.0793
  205MPD1    C1 3167   0.181   3.399   0.575  0.2824  0.3650 -0.0564
  205MPD1    C2 3168   0.124   3.378   0.451 -0.6700 -0.1932 -0.0562
  205MPD1    C3 3169   0.094   3.488   0.367  0.3768 -0.2807 -0.0889
  205MPD1    C4 3170   0.148   3.608   0.403  0.3336 -0.4983  0.5589
  205MPD1    C5 3171   0.216   3.625   0.520  0.2673  0.8883  0.3846
  205MPD1     H 3172   0.081   3.281   0.428  0.2685 -0.4198 -0.8503
  205MPD1    H1 3173   0.123   3.690   0.336  0.0216 -0.7841  0.3251
  205MPD1    H2 3174   0.291   3.530   0.703 -0.2974 -0.4639 -1.2399
  205MPD1    H3 3175   0.245   3.728   0.538 -0.8103  0.7791  2.7839
  205MPD1     N 3176   0.007   3.476   0.260 -0.2286 -0.1491 -0.2116
  205MPD1    H5 3177   4.723   3.560   0.206  0.5873  0.6340  0.6802
  205MPD1    N1 3178   0.192   3.286   0.648  0.1179 -0.8394 -0.0377
  205MPD1    H6 3179   0.124   3.216   0.622 -1.7809  1.0465 -0.1886
  205MPD1    H7 3180   0.193   3.307   0.748 -0.1331  1.4745 -0.5127
  206MPD1     C 3181   4.158   1.394  17.320 -0.3930  0.7000  0.1940
  206MPD1    C1 3182   4.052   1.472  17.287 -0.3333  0.1378 -0.1015
  206MPD1    C2 3183   4.060   1.558  17.182  1.1669  0.2305 -0.2255
  206MPD1    C3 3184   4.172   1.553  17.102 -0.4906 -0.3082 -0.5304
  206MPD1    C4 3185   4.274   1.468  17.133 -0.8598  0.2702 -0.4859
  206MPD1    C5 3186   4.271   1.391  17.249 -0.3520 -0.6766 -0.1927
  206MPD1     H 3187   3.975   1.619  17.154  0.1391 -1.5362 -1.0184
  206MPD1    H1 3188   4.366   1.477  17.076 -0.8499  1.9224 -0.2290
  206MPD1    H2 3189   4.158   1.319  17.399  0.3607 -0.4081 -0.8507
  206MPD1    H3 3190   4.357   1.333  17.279 -0.4493  0.4128  2.1625
  206MPD1     N 3191   4.186   1.620  16.978  0.4050 -0.4816 -0.0270
  206MPD1    H5 3192   4.272   1.603  16.925  1.1913  1.0489  0.7646
  206MPD1    N1 3193   3.946   1.471  17.378 -0.9393  0.1894  0.2831
  206MPD1    H6 3194   3.862   1.483  17.322  0.3091  1.3993 -1.3176
  206MPD1    H7 3195   3.942   1.377  17.418  0.8515 -0.5385 -1.2272
  207MPD1     C 3196   1.400   3.011  10.364  0.6186 -0.2036  0.4619
  207MPD1    C1 3197   1.420   2.949  10.484  0.3106  0.2134  0.4276
  207MPD1    C2 3198   1.501   3.014  10.577  0.4645 -0.1470  0.3927
  207MPD1    C3 3199   1.567   3.126  10.545  0.1175 -0.6849 -0.1144
  207MPD1    C4 3200   1.558   3.186  10.424  0.1124 -0.3543  0.1546
  207MPD1    C5 3201   1.474   3.123  10.335 -0.0098 -0.1623  0.0079
  207MPD1     H 3202   1.516   2.959  10.669 -0.0668  2.2966  1.9305
  207MPD1    H1 3203   1.613   3.276  10.399 -1.2966  0.3446 -0.4500
  207MPD1    H2 3204   1.331   2.971  10.290  1.5642 -1.6838  0.3781
  207MPD1    H3 3205   1.456   3.172  10.240  1.5347  1.2780  0.4607
  207MPD1     N 3206   1.650   3.197  10.639  0.1724  0.3826  0.0335
  207MPD1    H5 3207   1.689   3.285  10.607 -0.0167  0.7934  0.9302
  207MPD1    N1 3208   1.338   2.847  10.523  0.8458  0.6680  0.4615
  207MPD1    H6 3209   1.283   2.800  10.452 -0.1718  0.1060  1.6197
  207MPD1    H7 3210   1.385   2.782  10.586  0.9343 -1.0692 -1.3958
  208MPD1     C 3211   4.230   1.639   0.354 -0.3811  0.1336  0.1708
  208MPD1    C1 3212   4.211   1.717   0.242 -0.1601 -0.4344  0.2288
  208MPD1    C2 3213   4.233   1.852   0.264 -0.6102 -0.3363 -0.7855
  208MPD1    C3 3214   4.300   1.898   0.376  0.6681  0.7509 -0.1249
  208MPD1    C4 3215   4.336   1.809   0.467 -0.1172  0.2358 -0.8174
  208MPD1    C5 3216   4.305   1.678   0.463  0.5268  0.1764 -0.7741
  208MPD1     H 3217   4.201   1.921   0.187 -1.5659 -0.5346 -0.5681
  208MPD1    H1 3218   4.383   1.841   0.559  0.6564  0.0678 -1.1546
  208MPD1    H2 3219   4.202   1.535   0.348  2.0010 -0.4095 -1.4534
  208MPD1    H3 3220   4.311   1.605   0.544 -0.6673  0.9950  0.0509
  208MPD1     N 3221   4.325   2.039   0.384  0.5410  0.0460  0.2468
  208MPD1    H5 3222   4.348   2.090   0.299 -2.2817  0.7470 -0.1256
  208MPD1    N1 3223   4.133   1.669   0.137  0.5263 -0.1108 -0.0097
  208MPD1    H6 3224   4.143   1.571   0.115 -0.6761 -0.0507 -0.8034
  208MPD1    H7 3225   4.153   1.725   0.055 -4.8020 -0.7813 -1.7278
  209MPD1     C 3226   3.044   2.802  12.121 -0.1948  0.2745 -0.4410
  209MPD1    C1 3227   3.083   2.932  12.079  0.8342  0.2544  0.1306
  209MPD1    C2 3228   3.003   2.984  11.972 -0.1763 -0.8100  0.4565
  209MPD1    C3 3229   2.913   2.905  11.899 -0.2738 -0.2596  0.0485
  209MPD1    C4 3230   2.877   2.777  11.939 -0.5417  0.3684  0.5983
  209MPD1    C5 3231   2.947   2.731  12.046 -0.0478 -0.8264 -0.0088
  209MPD1     H 3232   3.029   3.080  11.929  2.4234 -1.2849  0.9944
  209MPD1    H1 3233   2.806   2.719  11.882 -0.5641  0.9989 -0.0230
  209MPD1    H2 3234   3.080   2.752  12.210 -0.1730 -1.3369 -1.3554
  209MPD1    H3 3235   2.928   2.628  12.072 -2.2188  0.0181  1.6985
  209MPD1     N 3236   2.856   2.966  11.784  0.5759  0.5096 -0.0211
  209MPD1    H5 3237   2.878   3.064  11.768 -1.6170  1.5428  3.2055
  209MPD1    N1 3238   3.151   3.025  12.155 -0.0957  0.1471 -0.2732
  209MPD1    H6 3239   3.208   2.985  12.229 -0.9906 -0.9395 -0.1716
  209MPD1    H7 3240   3.210   3.092  12.106 -0.3741  0.8993  0.4335
  210MPD1     C 3241   2.893   3.802  11.462  1.1842 -0.2201  0.1347
  210MPD1    C1 3242   2.992   3.714  11.417  0.0167  0.0020  0.0909
  210MPD1    C2 3243   2.963   3.575  11.415 -0.5745 -0.2530  0.3834
  210MPD1    C3 3244   2.833   3.532  11.422 -0.1487 -0.3272  0.1497
  210MPD1    C4 3245   2.729   3.625  11.449  0.2062  0.5382 -0.3454
  210MPD1    C5 3246   2.771   3.755  11.475 -0.2909  0.6195 -0.1275
  210MPD1     H 3247   3.032   3.499  11.381  0.2290  1.1524 -1.0991
  210MPD1    H1 3248   2.626   3.596  11.463 -0.5647  3.4999  0.0101
  210MPD1    H2 3249   2.917   3.906  11.481  2.8351 -0.4520 -0.5919
  210MPD1    H3 3250   2.694   3.828  11.497  0.1843  0.9477  0.4387
  210MPD1     N 3251   2.793   3.399  11.409 -0.4406 -0.3175  0.1149
  210MPD1    H5 3252   2.692   3.388  11.417 -0.1899 -2.5519  0.4750
  210MPD1    N1 3253   3.128   3.755  11.429  0.2307  0.9067 -0.0335
  210MPD1    H6 3254   3.145   3.849  11.395 -2.5644  0.9653 -1.2980
  210MPD1    H7 3255   3.176   3.693  11.363  0.0806  0.8637 -0.1033
  211MPD1     C 3256   0.145   3.198  15.827 -0.3137  0.5960  0.1028
  211MPD1    C1 3257   0.159   3.273  15.940  0.7241 -0.6521  0.2207
  211MPD1    C2 3258   0.039   3.295  16.009 -0.4110 -0.2575  0.7116
  211MPD1    C3 3259   4.654   3.252  15.963  0.3987 -0.3911  0.1139
  211MPD1    C4 3260   4.649   3.177  15.841 -0.1429  0.9619 -0.1857
  211MPD1    C5 3261   0.031   3.156  15.774 -0.3574 -0.3012  0.5128
  211MPD1     H 3262   0.054   3.356  16.097 -1.3520  0.1235  0.6086
  211MPD1    H1 3263   4.562   3.153  15.781  1.2515 -0.4833 -1.6112
  211MPD1    H2 3264   0.236   3.180  15.771 -0.1398 -0.6753  0.8027
  211MPD1    H3 3265   0.030   3.100  15.681 -1.6786 -1.7098  1.3772
  211MPD1     N 3266   4.539   3.284  16.039  0.3652 -0.6889  0.1903
  211MPD1    H5 3267   4.567   3.335  16.122  1.6385 -0.3440 -0.4499
  211MPD1    N1 3268   0.285   3.294  15.994  0.1584  0.7746  0.0007
  211MPD1    H6 3269   0.293   3.365  16.067 -1.4432 -2.0085  2.9163
  211MPD1    H7 3270   0.354   3.317  15.923  0.1408  0.6387 -0.0609
  212MPD1     C 3271   3.766   2.396  16.773 -0.3293 -0.0113  0.2933
  212MPD1    C1 3272   3.632   2.387  16.811  0.2858  0.1375  0.1409
  212MPD1    C2 3273   3.584   2.278  16.887 -0.5208  0.1748  0.3632
  212MPD1    C3 3274   3.677   2.186  16.943 -1.0140 -0.0700  0.3914
  212MPD1    C4 3275   3.805   2.189  16.888  0.2409 -0.9663 -0.3109
  212MPD1    C5 3276   3.848   2.297  16.815  0.6679  0.6214 -1.0957
  212MPD1     H 3277   3.480   2.268  16.916 -0.3310 -1.2142  0.5766
  212MPD1    H1 3278   3.866   2.104  16.913  0.7907 -0.6142 -0.4498
  212MPD1    H2 3279   3.818   2.478  16.725  2.2520 -1.4989  0.5565
  212MPD1    H3 3280   3.953   2.303  16.786  0.7005  0.1049 -1.0741
  212MPD1     N 3281   3.643   2.068  17.016  0.0684 -0.4038  0.8703
  212MPD1    H5 3282   3.715   1.997  17.026 -0.4997 -0.9137  1.3148
  212MPD1    N1 3283   3.549   2.496  16.786  0.2460  0.1177 -0.1362
  212MPD1    H6 3284   3.577   2.543  16.700 -0.2702  2.1060  0.7983
  212MPD1    H7 3285   3.451   2.476  16.805  0.2213  0.2436 -0.1282
  213MPD1     C 3286   1.912   2.497  16.122  0.1388  0.6419  0.3468
  213MPD1    C1 3287   1.822   2.402  16.079 -0.3043  0.1256  0.4312
  213MPD1    C2 3288   1.808   2.404  15.942  0.7153 -0.3327 -1.1629
  213MPD1    C3 3289   1.830   2.514  15.864  0.1427  0.3120 -0.2794
  213MPD1    C4 3290   1.896   2.617  15.930  0.3951  0.4238 -0.6554
  213MPD1    C5 3291   1.951   2.606  16.048  0.2939  1.1523 -0.5510
  213MPD1     H 3292   1.762   2.321  15.888 -0.2062 -2.0849  2.2893
  213MPD1    H1 3293   1.928   2.697  15.864 -3.1120  1.8381 -0.6356
  213MPD1    H2 3294   1.950   2.490  16.223 -1.8794  0.6389  1.0873
  213MPD1    H3 3295   2.012   2.680  16.099 -1.9683  2.1423  0.7395
  213MPD1     N 3296   1.794   2.511  15.728  0.1892  0.3797  0.1638
  213MPD1    H5 3297   1.768   2.424  15.682 -1.0507  0.1125  1.3613
  213MPD1    N1 3298   1.803   2.281  16.153 -0.1472 -0.0267 -0.1050
  213MPD1    H6 3299   1.810   2.289  16.254 -0.1525  0.0447 -0.1102
  213MPD1    H7 3300   1.719   2.230  16.127 -0.4747  1.1628 -1.3578
  214MPD1     C 3301   1.427   1.953  14.983 -0.3723 -0.1765  0.4433
  214MPD1    C1 3302   1.373   1.988  15.103  0.4591  0.2034  0.4179
  214MPD1    C2 3303   1.414   2.097  15.172 -0.2434 -0.0090  0.6285
  214MPD1    C3 3304   1.524   2.165  15.125  0.0961 -0.0882 -0.0129
  214MPD1    C4 3305   1.587   2.122  15.009 -0.1179 -0.2051  0.2263
  214MPD1    C5 3306   1.539   2.022  14.936  0.6890 -0.2398  0.0679
  214MPD1     H 3307   1.364   2.120  15.265 -3.1444  3.7759 -1.8802
  214MPD1    H1 3308   1.679   2.166  14.971 -0.5868 -0.8387 -1.6223
  214MPD1    H2 3309   1.377   1.878  14.924 -0.3892  2.2819 -2.6928
  214MPD1    H3 3310   1.597   1.985  14.852  1.7268 -0.9591  1.1057
  214MPD1     N 3311   1.591   2.272  15.193  0.1672  0.6888  0.3892
  214MPD1    H5 3312   1.665   2.315  15.139 -0.5552  0.3393 -0.8707
  214MPD1    N1 3313   1.264   1.917  15.148  0.8467 -0.2210  0.2798
  214MPD1    H6 3314   1.270   1.817  15.135  0.8791 -0.0462 -0.9789
  214MPD1    H7 3315   1.250   1.932  15.248 -0.7209 -0.0712  0.0423
  215MPD1     C 3316   0.638   2.599  11.150  0.6299 -0.9827  0.1245
  215MPD1    C1 3317   0.645   2.672  11.268 -0.7572 -0.3330 -0.1533
  215MPD1    C2 3318   0.761   2.733  11.296  0.0370  0.5221  0.3562
  215MPD1    C3 3319   0.868   2.737  11.209 -0.4961 -0.2338 -0.1312
  215MPD1    C4 3320   0.855   2.669  11.085  0.4073  0.0458 -0.0622
  215MPD1    C5 3321   0.744   2.597  11.061 -0.5117  0.3973  1.3082
  215MPD1     H 3322   0.776   2.786  11.389 -1.3985 -3.0492  2.6123
  215MPD1    H1 3323   0.927   2.670  11.004 -0.0027 -0.5547 -0.4264
  215MPD1    H2 3324   0.550   2.541  11.127 -0.5523  0.7935  0.2102
  215MPD1    H3 3325   0.725   2.550  10.964  0.0547 -0.3129  1.5421
  215MPD1     N 3326   0.985   2.818  11.232 -0.3125 -0.6443 -0.7474
  215MPD1    H5 3327   1.012   2.853  11.323 -0.4730 -2.6014  0.0368
  215MPD1    N1 3328   0.524   2.685  11.342  0.0528 -0.1204  0.0171
  215MPD1    H6 3329   0.544   2.708  11.439 -1.3741  1.9546 -0.1749
  215MPD1    H7 3330   0.473   2.597  11.351  0.6745 -0.0829  3.5760
  216MPD1     C 3331   3.847   2.053  17.388  0.0274  0.4382  0.4888
  216MPD1    C1 3332   3.875   1.937  17.318  0.4905 -0.1275 -0.4549
  216MPD1    C2 3333   3.858   1.821  17.381  0.7536 -0.9710  0.2125
  216MPD1    C3 3334   3.806   1.807  17.511 -0.5341  0.2867 -0.2900
  216MPD1    C4 3335   3.784   1.918  17.584  0.2163 -0.1242 -0.2602
  216MPD1    C5 3336   3.802   2.040  17.519  0.7655  0.4599  0.3949
  216MPD1     H 3337   3.885   1.727  17.334  1.5496 -0.3928 -0.4567
  216MPD1    H1 3338   3.747   1.929  17.685  1.0269 -0.1523  0.0457
  216MPD1    H2 3339   3.854   2.152  17.343  0.9627  0.2461  0.2186
  216MPD1    H3 3340   3.795   2.130  17.579 -3.0300 -0.6169  1.5124
  216MPD1     N 3341   3.786   1.679  17.561  0.2494 -0.2743 -0.0469
  216MPD1    H5 3342   3.808   1.605  17.495  1.1447  0.7351 -0.8745
  216MPD1    N1 3343   3.894   1.941  17.178 -0.7767 -0.2362 -0.1025
  216MPD1    H6 3344   3.948   2.024  17.154 -0.8919 -0.4929 -1.2456
  216MPD1    H7 3345   3.942   1.857  17.147 -0.4060  0.2605 -0.8474
  217MPD1     C 3346   3.478   3.511   8.669 -0.0330  0.4260  0.0704
  217MPD1    C1 3347   3.603   3.507   8.728  0.1361  0.0766  0.7075
  217MPD1    C2 3348   3.668   3.384   8.742  0.0174  0.5698  0.1931
  217MPD1    C3 3349   3.598   3.266   8.710  0.2268 -0.3624 -0.1754
  217MPD1    C4 3350   3.472   3.271   8.658 -0.0721  0.2902 -0.0703
  217MPD1    C5 3351   3.414   3.392   8.635  0.3499 -0.2337 -0.8437
  217MPD1     H 3352   3.774   3.374   8.766  0.1174 -0.9784 -0.8035
  217MPD1    H1 3353   3.415   3.178   8.654  1.1722 -0.5021  0.6615
  217MPD1    H2 3354   3.433   3.604   8.637  1.5787  2.0821  2.5770
  217MPD1    H3 3355   3.314   3.399   8.592  0.5529 -1.0350 -1.4507
  217MPD1     N 3356   3.650   3.134   8.731  0.3234 -0.0322  0.2511
  217MPD1    H5 3357   3.582   3.060   8.719  0.2282  0.4574 -2.1110
  217MPD1    N1 3358   3.675   3.623   8.754 -0.6997  0.3219  0.4140
  217MPD1    H6 3359   3.608   3.686   8.796 -1.9425 -0.2765 -0.6580
  217MPD1    H7 3360   3.754   3.599   8.814  0.6917  0.7478 -1.2284
  218MPD1     C 3361   2.168   3.376  12.033  0.6014  0.7994 -0.1204
  218MPD1    C1 3362   2.048   3.411  11.969 -0.1626  0.6399  0.5686
  218MPD1    C2 3363   1.934   3.346  12.003 -0.8662 -0.0129 -0.3629
  218MPD1    C3 3364   1.932   3.262  12.117  0.5147  0.3913  0.1723
  218MPD1    C4 3365   2.048   3.234  12.186 -0.3364  0.1881  0.3592
  218MPD1    C5 3366   2.164   3.292  12.138  0.3416  0.3925  0.1304
  218MPD1     H 3367   1.844   3.367  11.948 -1.0288  2.5842  0.8878
  218MPD1    H1 3368   2.049   3.182  12.281 -3.4207 -1.3052 -0.4199
  218MPD1    H2 3369   2.262   3.420  12.001  0.6453 -0.3321 -1.5656
  218MPD1    H3 3370   2.259   3.278  12.189  0.3354  0.0643  0.0528
  218MPD1     N 3371   1.803   3.208  12.152  0.4875  0.4150  0.2007
  218MPD1    H5 3372   1.722   3.232  12.096  0.9849 -0.6431 -0.9538
  218MPD1    N1 3373   2.052   3.496  11.853 -0.4327 -0.0925 -0.0899
  218MPD1    H6 3374   2.118   3.573  11.864  0.0992 -0.3661 -1.3182
  218MPD1    H7 3375   1.961   3.524  11.819  0.8013  0.1437 -3.1429
  219MPD1     C 3376   1.119   2.598  11.753 -0.1844  0.1028  0.4818
  219MPD1    C1 3377   1.213   2.687  11.727  0.1087  0.0050  0.1232
  219MPD1    C2 3378   1.275   2.747  11.832  0.2846  0.3427 -0.3046
  219MPD1    C3 3379   1.236   2.738  11.967 -0.0551  0.3093 -0.3377
  219MPD1    C4 3380   1.131   2.648  11.985  0.7786 -1.0220  0.6723
  219MPD1    C5 3381   1.078   2.575  11.880  0.5686  0.1920 -0.1421
  219MPD1     H 3382   1.359   2.811  11.810  0.0829  0.0439 -1.9186
  219MPD1    H1 3383   1.099   2.627  12.086  0.7945  0.2568  0.9512
  219MPD1    H2 3384   1.077   2.527  11.682  2.5547 -0.4026 -0.6098
  219MPD1    H3 3385   1.007   2.494  11.897  0.2948  0.8000  1.6740
  219MPD1     N 3386   1.298   2.801  12.079  0.2056  0.0738  0.0235
  219MPD1    H5 3387   1.259   2.784  12.171 -2.5960 -0.5497 -1.2780
  219MPD1    N1 3388   1.266   2.682  11.600 -0.5296  0.3886  0.2383
  219MPD1    H6 3389   1.194   2.654  11.534  2.2963 -0.2372 -2.5545
  219MPD1    H7 3390   1.305   2.772  11.573 -1.0659  0.7362  0.6325
  220MPD1     C 3391   0.923   3.299   9.361 -0.2284  0.3564 -0.3793
  220MPD1    C1 3392   0.808   3.295   9.439 -0.2779 -0.1494 -0.2970
  220MPD1    C2 3393   0.820   3.271   9.576  0.3499  0.1510  0.2839
  220MPD1    C3 3394   0.943   3.276   9.633  0.1990  0.7713  0.0821
  220MPD1    C4 3395   1.058   3.276   9.557 -0.5451  0.7377 -0.1321
  220MPD1    C5 3396   1.048   3.292   9.423 -0.5680 -0.0745 -0.2582
  220MPD1     H 3397   0.734   3.254   9.639  0.7723 -0.0585  0.8040
  220MPD1    H1 3398   1.158   3.265   9.598 -0.8895  2.6068  1.2334
  220MPD1    H2 3399   0.925   3.297   9.253  4.1923 -0.8603 -0.2802
  220MPD1    H3 3400   1.136   3.286   9.361  1.3474  0.7421  2.3552
  220MPD1     N 3401   0.948   3.268   9.773 -0.0856 -0.2325  0.0536
  220MPD1    H5 3402   0.855   3.253   9.810  0.1884 -0.1890  0.7501
  220MPD1    N1 3403   0.671   3.299   9.391  0.2244 -0.2112  0.2801
  220MPD1    H6 3404   0.657   3.341   9.299 -3.4165  0.3332  1.0967
  220MPD1    H7 3405   0.615   3.343   9.464  1.9508  0.1831  1.3712
  221MPD1     C 3406   4.232   3.059  16.327  0.4818 -0.7130 -0.2780
  221MPD1    C1 3407   4.324   3.040  16.431  0.5191  0.1755 -0.0184
  221MPD1    C2 3408   4.378   2.916  16.442  0.6284  0.4386 -0.6802
  221MPD1    C3 3409   4.350   2.817  16.346 -0.5105 -0.5358  0.0043
  221MPD1    C4 3410   4.265   2.843  16.248  1.1566  0.7571  0.2313
  221MPD1    C5 3411   4.207   2.966  16.232  0.1242 -0.6347  0.3674
  221MPD1     H 3412   4.444   2.899  16.526 -0.6419  2.0978  0.6330
  221MPD1    H1 3413   4.255   2.772  16.166 -0.3589  1.2841 -0.0488
  221MPD1    H2 3414   4.183   3.153  16.308 -1.6171 -1.3832  1.8065
  221MPD1    H3 3415   4.155   2.988  16.139 -0.7363 -2.1671  0.4888
  221MPD1     N 3416   4.404   2.689  16.344 -0.0745  0.4405  0.5860
  221MPD1    H5 3417   4.372   2.628  16.270 -0.0073  2.0996 -0.8198
  221MPD1    N1 3418   4.334   3.140  16.531 -0.3203  0.2730 -0.2361
  221MPD1    H6 3419   4.339   3.239  16.509 -1.3375  0.8012  1.8821
  221MPD1    H7 3420   4.408   3.129  16.599 -0.8024 -0.7881  0.1205
  222MPD1     C 3421   3.004   1.328   0.606  0.3115  0.1604  0.4308
  222MPD1    C1 3422   3.117   1.357   0.532 -0.1539  0.4846 -0.1491
  222MPD1    C2 3423   3.141   1.483   0.497  0.3432  0.1742  0.1216
  222MPD1    C3 3424   3.087   1.594   0.566 -0.4580 -0.0612  0.3712
  222MPD1    C4 3425   2.969   1.563   0.637  0.7300 -0.3362  1.0930
  222MPD1    C5 3426   2.932   1.434   0.660  0.2861 -0.3605 -0.0762
  222MPD1     H 3427   3.216   1.512   0.424 -1.0282  1.0452 -0.9441
  222MPD1    H1 3428   2.916   1.643   0.686 -0.0380  0.8087 -1.5983
  222MPD1    H2 3429   2.967   1.229   0.629  0.3600  0.2711  0.9685
  222MPD1    H3 3430   2.847   1.417   0.725  0.4916 -0.0423  0.2718
  222MPD1     N 3431   3.120   1.728   0.536  0.7134 -0.7013  0.2260
  222MPD1    H5 3432   3.047   1.797   0.550 -0.2734 -2.1159  2.1036
  222MPD1    N1 3433   3.172   1.251   0.458 -0.4529  1.0831  0.0426
  222MPD1    H6 3434   3.187   1.173   0.521 -0.3358 -0.7574 -2.2778
  222MPD1    H7 3435   3.268   1.271   0.432 -0.8228  0.2184 -1.9822
  223MPD1     C 3436   2.513   2.267   0.571  0.0839 -0.5046 -0.5496
  223MPD1    C1 3437   2.563   2.145   0.616 -0.4128  0.1236  0.2457
  223MPD1    C2 3438   2.693   2.104   0.589  0.0545  0.4357  0.1495
  223MPD1    C3 3439   2.777   2.188   0.512 -0.2618  0.3013 -0.5190
  223MPD1    C4 3440   2.723   2.306   0.462  0.1356  0.1430 -0.1021
  223MPD1    C5 3441   2.592   2.336   0.483 -0.3131 -0.1600  0.1992
  223MPD1     H 3442   2.739   2.011   0.621  1.3051  0.2063 -2.2527
  223MPD1    H1 3443   2.787   2.378   0.412  0.4344 -1.3467 -1.8684
  223MPD1    H2 3444   2.414   2.306   0.594  0.8775 -0.3091  2.5719
  223MPD1    H3 3445   2.551   2.428   0.444 -0.3535  0.4574  1.6890
  223MPD1     N 3446   2.906   2.137   0.485  1.3500 -0.1190 -0.1627
  223MPD1    H5 3447   2.928   2.048   0.529 -0.8491 -0.5232  0.0888
  223MPD1    N1 3448   2.488   2.080   0.715 -0.0208 -0.5559 -0.1062
  223MPD1    H6 3449   2.393   2.095   0.683  0.1658 -0.5868 -0.6812
  223MPD1    H7 3450   2.513   1.981   0.716  3.6781  0.3750  1.3564
  224MPD1     C 3451   3.793   3.877   9.057 -0.0689 -0.2355 -0.2198
  224MPD1    C1 3452   3.685   3.812   9.110  0.3367  0.1675  0.0113
  224MPD1    C2 3453   3.679   3.672   9.102  0.3406  0.0238 -0.0071
  224MPD1    C3 3454   3.790   3.604   9.072 -0.0523  0.3333  0.5512
  224MPD1    C4 3455   3.898   3.670   9.030 -0.3028 -0.0873  0.1266
  224MPD1    C5 3456   3.899   3.808   9.023 -0.6145  0.4380  0.6288
  224MPD1     H 3457   3.591   3.626   9.143  0.8563 -1.2463 -0.3339
  224MPD1    H1 3458   3.987   3.617   8.998 -0.1521 -0.0369  0.4628
  224MPD1    H2 3459   3.786   3.984   9.041 -0.9202 -0.2854 -0.1731
  224MPD1    H3 3460   3.987   3.863   8.993  0.1803 -1.1111  0.1320
  224MPD1     N 3461   3.798   3.463   9.079 -0.0184 -0.3489 -1.0231
  224MPD1    H5 3462   3.893   3.427   9.077 -0.5054 -1.7159  0.0905
  224MPD1    N1 3463   3.570   3.884   9.147  0.6877 -0.5153 -0.1058
  224MPD1    H6 3464   3.591   3.976   9.186  0.1258  0.7171 -2.7109
  224MPD1    H7 3465   3.515   3.833   9.216 -0.6344  0.6559 -0.3006
  225MPD1     C 3466   1.759   3.651  11.687  0.0265 -0.7906 -0.0203
  225MPD1    C1 3467   1.635   3.635  11.621  0.4417 -0.2552  0.5278
  225MPD1    C2 3468   1.510   3.638  11.683  0.8039  0.2406  0.7672
  225MPD1    C3 3469   1.512   3.667  11.818 -0.6460 -0.3845  0.4392
  225MPD1    C4 3470   1.633   3.691  11.882  0.0076  1.1213  0.3666
  225MPD1    C5 3471   1.751   3.695  11.811  0.0003 -0.7420  0.6174
  225MPD1     H 3472   1.418   3.620  11.628  0.3648 -1.2781  1.9959
  225MPD1    H1 3473   1.624   3.721  11.986  0.7640  0.3444  0.6545
  225MPD1    H2 3474   1.856   3.650  11.639  1.4128  1.4858  2.7529
  225MPD1    H3 3475   1.845   3.728  11.854 -0.1630  0.8282 -0.2422
  225MPD1     N 3476   1.395   3.674  11.904  0.1815 -0.7540  0.3740
  225MPD1    H5 3477   1.410   3.685  12.004 -1.2675 -1.2178  0.6438
  225MPD1    N1 3478   1.630   3.611  11.486 -0.0505 -0.1895  0.4148
  225MPD1    H6 3479   1.559   3.543  11.459 -1.3167  1.1459  0.4020
  225MPD1    H7 3480   1.716   3.602  11.433 -0.7491  0.2711 -0.8027
  226MPD1     C 3481   3.286   3.721   9.848 -0.1216 -0.0515 -0.4762
  226MPD1    C1 3482   3.274   3.633   9.740  0.1137  0.7042 -0.1010
  226MPD1    C2 3483   3.376   3.625   9.647  0.1286 -0.3219  0.0107
  226MPD1    C3 3484   3.498   3.702   9.667  0.3007  0.3937 -0.1733
  226MPD1    C4 3485   3.510   3.775   9.789  0.0115 -0.1747  0.7684
  226MPD1    C5 3486   3.406   3.778   9.879  0.0816 -0.1385  0.4536
  226MPD1     H 3487   3.379   3.560   9.560  2.5418 -1.3937  0.8849
  226MPD1    H1 3488   3.599   3.835   9.805 -0.4312  0.2049  1.8061
  226MPD1    H2 3489   3.202   3.734   9.916 -2.8456  2.0602 -4.2788
  226MPD1    H3 3490   3.427   3.837   9.968 -0.4240  1.8439 -0.7668
  226MPD1     N 3491   3.591   3.706   9.557 -0.2369  0.0836  0.2236
  226MPD1    H5 3492   3.569   3.636   9.487 -0.1881  0.5395 -0.2444
  226MPD1    N1 3493   3.153   3.562   9.724 -0.1303 -0.1922  0.1498
  226MPD1    H6 3494   3.148   3.481   9.663 -0.8690 -0.5229  0.6449
  226MPD1    H7 3495   3.115   3.540   9.816 -1.4261  0.9005 -0.1154
  227MPD1     C 3496   4.527   4.144   9.173  0.1551 -0.3691 -0.4154
  227MPD1    C1 3497   4.564   4.020   9.226 -0.7449 -0.5374 -0.7395
  227MPD1    C2 3498   4.453   3.944   9.281 -0.6694  0.2686 -0.1979
  227MPD1    C3 3499   4.322   3.985   9.260 -0.5203 -0.5133  0.2641
  227MPD1    C4 3500   4.296   4.097   9.189 -0.3338 -0.3686  0.0935
  227MPD1    C5 3501   4.397   4.181   9.155 -0.8528  0.4938 -0.0442
  227MPD1     H 3502   4.474   3.851   9.332 -1.4167 -0.3797 -1.0796
  227MPD1    H1 3503   4.200   4.145   9.183 -0.0343  0.2639  0.4425
  227MPD1    H2 3504   4.611   4.205   9.140 -0.3744 -0.0412 -1.1485
  227MPD1    H3 3505   4.377   4.284   9.126  1.3520  1.0693  0.4799
  227MPD1     N 3506   4.212   3.903   9.302  0.3753 -0.4883  0.3326
  227MPD1    H5 3507   4.245   3.825   9.359  1.6550  0.7235  1.2438
  227MPD1    N1 3508   4.695   3.994   9.251  0.3670 -0.2455 -0.4262
  227MPD1    H6 3509   0.023   4.043   9.189 -1.0294  0.9905 -0.9138
  227MPD1    H7 3510   4.723   3.897   9.263  0.0248 -0.0758  1.6458
  228MPD1     C 3511   3.515   1.813  13.001  0.0596 -0.6873 -0.2560
  228MPD1    C1 3512   3.415   1.831  12.916  0.4440 -0.7038  0.0471
  228MPD1    C2 3513   3.284   1.826  12.967 -0.1092 -0.4488  0.2284
  228MPD1    C3 3514   3.255   1.773  13.091 -0.1165  0.6294  0.4180
  228MPD1    C4 3515   3.367   1.745  13.173 -0.9240 -0.7624  0.5590
  228MPD1    C5 3516   3.495   1.773  13.127 -0.1955 -0.6739 -0.4704
  228MPD1     H 3517   3.200   1.870  12.915 -1.4047 -2.4350  0.6182
  228MPD1    H1 3518   3.349   1.710  13.274  1.2539  0.6950  1.4549
  228MPD1    H2 3519   3.616   1.828  12.964 -0.1092 -0.1138 -0.4774
  228MPD1    H3 3520   3.575   1.764  13.200 -0.3709  0.1510 -0.1807
  228MPD1     N 3521   3.121   1.761  13.144 -0.7577  0.0452  0.0240
  228MPD1    H5 3522   3.046   1.790  13.082  0.5882 -0.4946 -1.8378
  228MPD1    N1 3523   3.441   1.883  12.794  0.0442 -0.0343 -0.0267
  228MPD1    H6 3524   3.525   1.841  12.755 -1.2096 -0.7008 -1.9688
  228MPD1    H7 3525   3.368   1.889  12.724  1.5851  0.1995 -1.6222
  229MPD1     C 3526   2.230   1.184  14.519  0.2086 -0.5235  0.2095
  229MPD1    C1 3527   2.262   1.059  14.468  0.2774 -0.2401  0.5735
  229MPD1    C2 3528   2.375   1.000  14.517 -0.4440  0.2893  0.4997
  229MPD1    C3 3529   2.438   1.041  14.632 -0.4637 -0.5310  0.2843
  229MPD1    C4 3530   2.397   1.163  14.687 -0.6150 -0.3174  0.6339
  229MPD1    C5 3531   2.295   1.231  14.626 -1.2904 -0.2726  0.1653
  229MPD1     H 3532   2.413   0.912  14.467 -0.3649  0.7125 -0.1791
  229MPD1    H1 3533   2.449   1.192  14.777  1.0943 -0.8508 -0.1898
  229MPD1    H2 3534   2.144   1.235  14.476 -0.0755 -0.8726  0.3647
  229MPD1    H3 3535   2.261   1.323  14.672 -1.7941 -0.8433  0.9238
  229MPD1     N 3536   2.548   0.973  14.688 -0.2422  1.3616 -0.5625
  229MPD1    H5 3537   2.593   1.019  14.767 -0.9275  0.9557  0.0604
  229MPD1    N1 3538   2.215   1.017  14.341 -0.0888  0.4083  0.6285
  229MPD1    H6 3539   2.244   0.920  14.334 -0.9888  0.0038  2.5510
  229MPD1    H7 3540   2.114   1.025  14.336 -0.1748 -0.8659  0.3182
  230MPD1     C 3541   2.839   1.179  15.458 -0.0683  0.0542 -0.1854
  230MPD1    C1 3542   2.764   1.237  15.351 -0.3166 -0.2473 -0.5261
  230MPD1    C2 3543   2.768   1.182  15.223 -0.4115  0.0959 -0.4313
  230MPD1    C3 3544   2.837   1.062  15.201 -0.4171 -0.3975  0.7827
  230MPD1    C4 3545   2.911   1.011  15.312  0.4311 -0.0352 -0.2802
  230MPD1    C5 3546   2.912   1.069  15.436 -0.7090 -0.1957  0.1350
  230MPD1     H 3547   2.697   1.215  15.149  0.7351  1.0759 -1.0904
  230MPD1    H1 3548   2.963   0.916  15.307 -0.1151 -0.4223  1.4535
  230MPD1    H2 3549   2.847   1.219  15.558  2.5557 -3.3213  0.9383
  230MPD1    H3 3550   2.952   1.022  15.525  1.0555  0.4238 -0.3214
  230MPD1     N 3551   2.821   0.996  15.079  0.3816 -0.3291 -0.4329
  230MPD1    H5 3552   2.776   1.046  15.002  0.3025  1.8344  1.0204
  230MPD1    N1 3553   2.668   1.333  15.382 -0.8133 -0.7305  0.0808
  230MPD1    H6 3554   2.685   1.386  15.467 -0.7215 -0.4222 -0.1300
  230MPD1    H7 3555   2.637   1.396  15.308  0.9415 -0.1127 -0.1328
  231MPD1     C 3556   0.917   2.452  15.599  0.1941  0.0611  0.3547
  231MPD1    C1 3557   0.930   2.393  15.477  0.1172 -0.1378 -0.6116
  231MPD1    C2 3558   1.024   2.461  15.398 -0.5718 -0.0337 -0.2943
  231MPD1    C3 3559   1.109   2.565  15.436 -0.3693  0.3603 -0.3362
  231MPD1    C4 3560   1.095   2.615  15.558 -0.1810 -0.3570 -0.3345
  231MPD1    C5 3561   1.006   2.555  15.641  0.1272 -0.5063 -0.5674
  231MPD1     H 3562   1.036   2.423  15.298  1.8608 -0.5231  0.1913
  231MPD1    H1 3563   1.150   2.698  15.601 -0.6682 -0.2334  0.0506
  231MPD1    H2 3564   0.855   2.412  15.678  2.1218 -4.5124 -0.4736
  231MPD1    H3 3565   0.996   2.589  15.743  0.4057  2.0087 -1.3794
  231MPD1     N 3566   1.203   2.605  15.343  0.4892  0.2825  0.1594
  231MPD1    H5 3567   1.198   2.554  15.255 -2.3067  1.7213 -0.5319
  231MPD1    N1 3568   0.836   2.300  15.426  0.5640  0.5078  1.0909
  231MPD1    H6 3569   0.877   2.248  15.348 -1.2756 -0.7033  0.9497
  231MPD1    H7 3570   0.792   2.237  15.493 -2.1981  0.3865 -0.8363
  232MPD1     C 3571   2.927   1.007   0.364  0.3933  0.6225  0.2736
  232MPD1    C1 3572   2.800   1.048   0.341 -0.1364  0.0299  0.2644
  232MPD1    C2 3573   2.723   0.964   0.266  0.1698  0.3050  0.3268
  232MPD1    C3 3574   2.756   0.839   0.226  0.4148 -0.8308  0.1126
  232MPD1    C4 3575   2.882   0.792   0.253 -0.4054 -0.0078  0.5812
  232MPD1    C5 3576   2.960   0.876   0.331  0.2879  0.2708 -0.2187
  232MPD1     H 3577   2.622   0.993   0.237 -0.3909  0.2870  2.2177
  232MPD1    H1 3578   2.932   0.701   0.222  0.7508  0.5657  0.7458
  232MPD1    H2 3579   3.007   1.059   0.416  0.2607  1.5387 -0.4315
  232MPD1    H3 3580   3.062   0.845   0.352  1.2753  2.2338 -1.9861
  232MPD1     N 3581   2.663   0.768   0.149 -0.9489 -0.4730 -0.0279
  232MPD1    H5 3582   2.574   0.812   0.130 -1.2252 -1.8860 -2.0920
  232MPD1    N1 3583   2.760   1.182   0.363  0.0874 -0.8413  0.4645
  232MPD1    H6 3584   2.802   1.217   0.449  0.0483  1.2997 -0.3803
  232MPD1    H7 3585   2.658   1.187   0.368  0.0238 -0.0681 -1.9294
  233MPD1     C 3586   2.996   3.183   1.035  0.0982 -0.2411 -0.1826
  233MPD1    C1 3587   2.986   3.072   1.114  0.1089  0.1271  0.6881
  233MPD1    C2 3588   3.099   3.032   1.183 -0.4889  0.1513 -0.3052
  233MPD1    C3 3589   3.224   3.096   1.169 -0.3485  0.1105  0.5110
  233MPD1    C4 3590   3.226   3.204   1.083  0.2335 -1.2117 -0.0415
  233MPD1    C5 3591   3.117   3.239   1.010 -0.0391  0.2540 -0.4264
  233MPD1     H 3592   3.090   2.937   1.234  1.2079  0.6619  0.9543
  233MPD1    H1 3593   3.318   3.261   1.076  0.3381 -1.5365 -1.1755
  233MPD1    H2 3594   2.911   3.213   0.975  0.4857 -0.5154 -0.8737
  233MPD1    H3 3595   3.115   3.327   0.947  2.5998  0.5512 -0.0777
  233MPD1     N 3596   3.341   3.044   1.223  0.2488  0.2690 -0.5633
  233MPD1    H5 3597   3.428   3.072   1.180  0.9061 -2.3759 -0.9677
  233MPD1    N1 3598   2.864   3.001   1.104  0.1133 -0.0079 -0.1197
  233MPD1    H6 3599   2.783   3.055   1.075 -1.7848 -3.9723 -2.1839
  233MPD1    H7 3600   2.850   2.939   1.183 -0.6384  0.9283  0.4830
  234MPD1     C 3601   0.134   1.881   9.389 -0.9090  0.1886 -0.4819
  234MPD1    C1 3602   0.063   1.885   9.273 -0.1363  0.6386  0.1624
  234MPD1    C2 3603   0.033   2.008   9.226  0.8607  0.0572  0.3440
  234MPD1    C3 3604   0.095   2.129   9.266 -0.5005  1.0619  0.3517
  234MPD1    C4 3605   0.190   2.117   9.367 -0.1984  0.1527 -0.1863
  234MPD1    C5 3606   0.205   1.993   9.418 -1.2154  0.0375 -0.3157
  234MPD1     H 3607   4.707   2.013   9.137  4.6132  1.4781 -2.2208
  234MPD1    H1 3608   0.244   2.203   9.406 -2.9724  0.6172  2.5873
  234MPD1    H2 3609   0.152   1.786   9.438 -1.0784  0.5549  0.2887
  234MPD1    H3 3610   0.283   1.980   9.492 -0.8392  0.7808 -0.5839
  234MPD1     N 3611   0.049   2.251   9.205  0.5326  0.5019 -0.0713
  234MPD1    H5 3612   4.713   2.243   9.135  0.2068 -0.5996  0.3929
  234MPD1    N1 3613   4.716   1.775   9.243 -0.0524 -0.0041 -0.1471
  234MPD1    H6 3614   4.701   1.766   9.143 -0.2724 -0.5543 -0.0637
  234MPD1    H7 3615   0.016   1.688   9.280  2.0544  0.4002 -1.3135
  235MPD1     C 3616   1.581   3.877  11.335  0.3320  0.7066 -0.4351
  235MPD1    C1 3617   1.675   3.957  11.389  0.1837  0.3023  0.3728
  235MPD1    C2 3618   1.755   4.039  11.311 -0.4173 -0.3263 -0.3429
  235MPD1    C3 3619   1.731   4.041  11.177 -0.0411  0.0087 -0.3928
  235MPD1    C4 3620   1.629   3.964  11.118  0.4476 -1.0469  0.4930
  235MPD1    C5 3621   1.561   3.879  11.199  0.0661 -0.6267  0.4874
  235MPD1     H 3622   1.841   4.093  11.348  0.1019 -1.2242 -0.2299
  235MPD1    H1 3623   1.618   3.954  11.011 -0.0455 -2.4272  0.6739
  235MPD1    H2 3624   1.507   3.825  11.394 -0.8201  0.2202 -2.3200
  235MPD1    H3 3625   1.472   3.825  11.169  0.6914 -1.0144 -0.6634
  235MPD1     N 3626   1.815   4.121  11.093  0.5348  0.1947 -0.1941
  235MPD1    H5 3627   1.900   4.153  11.140 -0.0754  0.1892  0.9087
  235MPD1    N1 3628   1.687   3.956  11.527  0.3957  0.0900  0.2964
  235MPD1    H6 3629   1.785   3.966  11.555 -0.2002 -1.6325  3.0709
  235MPD1    H7 3630   1.655   3.865  11.558  1.4887 -0.7379 -1.0329
  236MPD1     C 3631   1.093   0.513   9.153 -1.2709  0.0496  0.2140
  236MPD1    C1 3632   1.150   0.609   9.224  0.4242 -0.6735 -0.2774
  236MPD1    C2 3633   1.193   0.585   9.360  0.1435 -0.2559  0.4140
  236MPD1    C3 3634   1.198   0.456   9.402  0.9476 -0.4152 -0.2237
  236MPD1    C4 3635   1.170   0.355   9.309  0.4538 -0.5208  0.4111
  236MPD1    C5 3636   1.117   0.384   9.189  0.5520 -0.1233  0.4231
  236MPD1     H 3637   1.227   0.660   9.431 -0.6990  0.1411  0.4004
  236MPD1    H1 3638   1.176   0.254   9.347 -0.8215 -0.5919  0.4168
  236MPD1    H2 3639   1.048   0.531   9.056 -1.7343  1.6871  0.7242
  236MPD1    H3 3640   1.081   0.300   9.130  0.1114 -0.4408  1.1450
  236MPD1     N 3641   1.225   0.422   9.534 -0.1883 -0.0433 -0.5786
  236MPD1    H5 3642   1.237   0.323   9.552 -4.0362 -0.6727 -1.4128
  236MPD1    N1 3643   1.139   0.740   9.176  0.2093 -0.2042  0.3347
  236MPD1    H6 3644   1.145   0.748   9.075 -1.0154  1.1821  0.3608
  236MPD1    H7 3645   1.205   0.808   9.213  0.1106 -0.9942  1.9337
  237MPD1     C 3646   1.724   3.976  14.878 -0.3374 -0.2338  0.0089
  237MPD1    C1 3647   1.714   3.908  14.998  0.4146 -0.2997  0.4161
  237MPD1    C2 3648   1.602   3.828  15.026  0.6567 -0.5081 -0.6938
  237MPD1    C3 3649   1.510   3.801  14.932 -0.5255 -0.1672 -0.0229
  237MPD1    C4 3650   1.530   3.848  14.805 -0.5439 -0.4653  0.0895
  237MPD1    C5 3651   1.635   3.948  14.781  0.5059  0.4149 -0.1062
  237MPD1     H 3652   1.599   3.788  15.127  0.7815  2.3742  0.4628
  237MPD1    H1 3653   1.477   3.818  14.715  0.1830 -0.7135 -0.2566
  237MPD1    H2 3654   1.806   4.045  14.858  2.0623 -3.0060  0.2270
  237MPD1    H3 3655   1.643   3.994  14.683  0.5064 -0.4830 -0.5273
  237MPD1     N 3656   1.394   3.728  14.962  0.3295  0.2263 -0.5716
  237MPD1    H5 3657   1.335   3.707  14.881 -0.0844  1.0574 -0.4817
  237MPD1    N1 3658   1.807   3.953  15.095 -0.3818  0.3183  0.0472
  237MPD1    H6 3659   1.829   3.881  15.164  0.7168  0.6279  0.0232
  237MPD1    H7 3660   1.896   3.982  15.054 -0.8397  2.1437  0.3485
  238MPD1     C 3661   3.234   2.879  14.931  0.1573 -0.4400 -0.3984
  238MPD1    C1 3662   3.219   2.775  14.844 -0.4189 -0.4615 -0.4734
  238MPD1    C2 3663   3.092   2.746  14.806  0.0545 -0.0131 -0.4873
  238MPD1    C3 3664   2.975   2.805  14.856  0.0766  0.7453  0.5392
  238MPD1    C4 3665   2.995   2.913  14.943 -0.3073 -0.1234 -0.4643
  238MPD1    C5 3666   3.120   2.941  14.982  0.0068 -0.2847  0.3066
  238MPD1     H 3667   3.094   2.654  14.750 -1.0310 -0.6370  0.5080
  238MPD1    H1 3668   2.910   2.970  14.979 -0.0821  0.8261 -1.4471
  238MPD1    H2 3669   3.335   2.907  14.960 -0.3590 -0.0115  0.9735
  238MPD1    H3 3670   3.128   3.026  15.049  0.2413  0.8379 -1.1356
  238MPD1     N 3671   2.838   2.767  14.823 -0.3116 -0.3254  0.4774
  238MPD1    H5 3672   2.756   2.807  14.865  0.8580  0.3400  2.1066
  238MPD1    N1 3673   3.329   2.696  14.808 -0.1573  0.1554 -0.0833
  238MPD1    H6 3674   3.308   2.641  14.726 -0.6786  1.9522 -1.1562
  238MPD1    H7 3675   3.412   2.748  14.779  0.7918 -0.7505  1.0227
  239MPD1     C 3676   2.996   4.315  15.014 -0.4144 -0.3860  0.4481
  239MPD1    C1 3677   3.058   4.200  14.997  0.0307 -0.0616 -0.0388
  239MPD1    C2 3678   3.066   4.143  14.869 -0.1198  0.1678 -0.2141
  239MPD1    C3 3679   2.987   4.183  14.768 -0.0785 -0.2492  0.5425
  239MPD1    C4 3680   2.916   4.305  14.784  1.0596  0.1621 -0.4730
  239MPD1    C5 3681   2.926   4.367  14.909  0.0392 -0.6027 -0.0307
  239MPD1     H 3682   3.122   4.051  14.855 -0.2334 -0.0618  0.8297
  239MPD1    H1 3683   2.855   4.347  14.705  0.6543 -1.3627 -0.9609
  239MPD1    H2 3684   2.990   4.370  15.107  3.3611  1.1758 -0.2658
  239MPD1    H3 3685   2.874   4.459  14.932 -0.1061 -0.5619 -0.5198
  239MPD1     N 3686   2.964   4.102  14.654 -0.1043  0.2384  0.3096
  239MPD1    H5 3687   2.890   4.132  14.591 -0.4022 -2.3349 -0.5518
  239MPD1    N1 3688   3.137   4.139  15.096 -0.5167  0.4270  0.1654
  239MPD1    H6 3689   3.101   4.150  15.191 -1.6071 -1.1108 -0.0661
  239MPD1    H7 3690   3.167   4.043  15.082  2.3556  1.5102 -1.1310
  240MPD1     C 3691   2.160   3.147  13.580 -0.7460 -0.1343  0.3052
  240MPD1    C1 3692   2.171   3.009  13.572 -0.3232  0.1903  0.1335
  240MPD1    C2 3693   2.188   2.940  13.698  0.1668 -0.0465 -0.8710
  240MPD1    C3 3694   2.216   3.012  13.816 -0.6039  0.8030 -0.3108
  240MPD1    C4 3695   2.204   3.151  13.809  0.1002 -0.6789  0.0658
  240MPD1    C5 3696   2.173   3.211  13.695 -0.6148 -0.4197  0.4077
  240MPD1     H 3697   2.201   2.833  13.709  1.2303  0.2009  0.2816
  240MPD1    H1 3698   2.190   3.204  13.903  1.3639  0.2162 -0.2515
  240MPD1    H2 3699   2.134   3.204  13.492 -0.3247  0.8832  0.8272
  240MPD1    H3 3700   2.159   3.318  13.697 -0.5908 -0.3629 -1.8570
  240MPD1     N 3701   2.223   2.942  13.939  0.3305 -0.1720 -0.4555
  240MPD1    H5 3702   2.196   2.845  13.927  0.7086 -0.3541  0.1853
  240MPD1    N1 3703   2.170   2.942  13.450  0.3913 -0.4102  0.5343
  240MPD1    H6 3704   2.220   2.854  13.456  1.4108  0.2371  1.3468
  240MPD1    H7 3705   2.226   2.993  13.382 -0.1502  0.7148  0.9318
  241MPD1     C 3706   2.710   3.076  14.839 -0.3209 -0.0215  0.6438
  241MPD1    C1 3707   2.606   2.985  14.857  0.5254 -0.3555  0.3270
  241MPD1    C2 3708   2.526   2.943  14.750 -0.1427  0.0290  0.2770
  241MPD1    C3 3709   2.533   3.002  14.624 -0.2972  0.5980  0.2155
  241MPD1    C4 3710   2.626   3.099  14.606  0.5144  0.2988  0.6619
  241MPD1    C5 3711   2.716   3.130  14.710  0.2557 -1.3741 -0.0092
  241MPD1     H 3712   2.453   2.867  14.776 -2.0660  1.9061  0.3935
  241MPD1    H1 3713   2.647   3.140  14.508  0.7571  0.9665  0.9950
  241MPD1    H2 3714   2.775   3.109  14.919 -0.7592  0.1992  0.9149
  241MPD1    H3 3715   2.792   3.200  14.679  0.3106 -1.2159  0.4900
  241MPD1     N 3716   2.449   2.966  14.519 -0.1048 -0.4235  1.1231
  241MPD1    H5 3717   2.480   2.996  14.428 -0.8213  1.4199  1.4761
  241MPD1    N1 3718   2.611   2.905  14.972  0.2942 -0.6342  0.2757
  241MPD1    H6 3719   2.524   2.865  15.005 -0.4901 -0.2377 -1.3234
  241MPD1    H7 3720   2.662   2.933  15.055  0.1854  0.3155  0.0182
  242MPD1     C 3721   2.117   2.260  15.884 -0.3151 -0.2587 -0.1736
  242MPD1    C1 3722   2.050   2.144  15.899  0.1233  0.2459  0.9043
  242MPD1    C2 3723   2.051   2.053  15.796  0.0348  0.3171 -0.0464
  242MPD1    C3 3724   2.113   2.082  15.677 -0.3055  0.4677 -0.0252
  242MPD1    C4 3725   2.176   2.204  15.660 -0.5106 -0.2353  0.2544
  242MPD1    C5 3726   2.169   2.298  15.762 -0.6391 -0.3073 -0.1836
  242MPD1     H 3727   2.005   1.958  15.821  0.0761 -0.2061 -1.9986
  242MPD1    H1 3728   2.213   2.243  15.566 -0.8489 -2.6214 -0.8638
  242MPD1    H2 3729   2.120   2.329  15.968 -3.2894 -0.8515  0.4281
  242MPD1    H3 3730   2.228   2.388  15.748 -1.8637  0.2607 -1.6799
  242MPD1     N 3731   2.136   1.986  15.570 -0.6271  0.0207 -0.3946
  242MPD1    H5 3732   2.199   2.004  15.492 -0.6669  0.4563 -0.3247
  242MPD1    N1 3733   2.008   2.115  16.035  0.8909 -0.1243 -0.1109
  242MPD1    H6 3734   1.935   2.047  16.016 -0.0228  0.1990  2.2220
  242MPD1    H7 3735   1.967   2.195  16.083 -1.2935 -1.0080 -0.4969
  243MPD1     C 3736   3.288   0.309   0.236 -0.1322  0.3200 -0.6510
  243MPD1    C1 3737   3.427   0.312   0.240  0.0893  0.0034  0.2785
  243MPD1    C2 3738   3.497   0.238   0.142  0.3272 -0.0998  0.3024
  243MPD1    C3 3739   3.431   0.153   0.049 -0.3324 -0.0608  0.3306
  243MPD1    C4 3740   3.293   0.136   0.062  0.1311 -0.0036  0.3113
  243MPD1    C5 3741   3.226   0.224   0.145 -0.2060 -0.2968 -0.4987
  243MPD1     H 3742   3.605   0.239   0.131  0.1664  0.0026 -1.3626
  243MPD1    H1 3743   3.234   0.065   0.005  1.9085 -2.7981  1.9749
  243MPD1    H2 3744   3.231   0.378   0.297 -0.5134 -1.2121  0.7088
  243MPD1    H3 3745   3.121   0.209   0.167  0.1249 -1.5528  0.1877
  243MPD1     N 3746   3.498   0.086  17.693  0.3192  0.2533 -0.2235
  243MPD1    H5 3747   3.599   0.086  17.708  0.3037 -0.5097 -0.0697
  243MPD1    N1 3748   3.495   0.411   0.313  0.8238  0.4686 -0.5036
  243MPD1    H6 3749   3.456   0.442   0.402 -1.4740 -0.9620 -1.0028
  243MPD1    H7 3750   3.591   0.385   0.332  0.2715 -1.0804  0.1482
  244MPD1     C 3751   3.902   3.911  17.652  0.4774  0.0454 -0.6453
  244MPD1    C1 3752   3.863   3.934  17.518  0.2615 -0.1075  0.3548
  244MPD1    C2 3753   3.844   4.058  17.475  0.4960 -0.1014  0.2812
  244MPD1    C3 3754   3.833   4.160  17.569 -0.0188 -0.3130  0.1713
  244MPD1    C4 3755   3.861   4.143  17.701  0.1103 -0.0781 -0.1414
  244MPD1    C5 3756   3.900   4.017  17.740  0.4096  1.1215  0.1723
  244MPD1     H 3757   3.813   4.066  17.371  0.1492 -1.2825  0.2877
  244MPD1    H1 3758   3.851   4.221   0.029 -2.3344  0.4125 -0.9988
  244MPD1    H2 3759   3.938   3.815  17.688 -1.0579  0.7454  2.6452
  244MPD1    H3 3760   3.930   4.010   0.098 -0.2496  0.7630  0.3384
  244MPD1     N 3761   3.788   4.286  17.523 -0.3148  0.8109  0.2097
  244MPD1    H5 3762   3.759   4.279  17.426  1.6798 -3.1890 -0.0922
  244MPD1    N1 3763   3.889   3.830  17.430 -0.0158  0.0344 -0.0474
  244MPD1    H6 3764   3.868   3.739  17.471 -0.2955  0.9314  1.7734
  244MPD1    H7 3765   3.836   3.838  17.344 -0.1917 -1.6038 -0.1004
  245MPD1     C 3766   0.866   4.733  13.235 -0.6318 -0.0773  0.5521
  245MPD1    C1 3767   0.846   0.009  13.368 -0.1847  0.1257 -0.2955
  245MPD1    C2 3768   0.888   0.126  13.422  0.5044  0.0359 -0.4900
  245MPD1    C3 3769   0.976   0.215  13.359 -0.3754 -0.2574  0.4607
  245MPD1    C4 3770   1.000   0.195  13.218 -0.0277 -0.3335 -0.2894
  245MPD1    C5 3771   0.939   0.087  13.165  0.3418 -0.4582  0.2100
  245MPD1     H 3772   0.878   0.142  13.528  1.8946  0.3298 -0.4010
  245MPD1    H1 3773   1.073   0.247  13.157 -1.2022  1.7814  0.0985
  245MPD1    H2 3774   0.830   4.646  13.181 -0.8906  0.8285 -0.7164
  245MPD1    H3 3775   0.956   0.062  13.061  0.5832  0.3180  0.0641
  245MPD1     N 3776   1.022   0.323  13.436  0.0768  0.4052 -0.8377
  245MPD1    H5 3777   0.990   0.336  13.531 -3.2496 -0.9487 -1.8002
  245MPD1    N1 3778   0.770   4.653  13.439  0.2295  0.6657  0.5331
  245MPD1    H6 3779   0.770   4.562  13.393 -0.5432  1.0850 -0.3020
  245MPD1    H7 3780   0.799   4.651  13.536  1.2594  2.0255  0.2473
  246MPD1     C 3781   2.323   2.613  10.107 -0.1597  0.4267  1.0186
  246MPD1    C1 3782   2.436   2.534  10.112 -0.6854 -0.1366  0.0638
  246MPD1    C2 3783   2.427   2.398  10.092  0.1362  0.2960  0.1464
  246MPD1    C3 3784   2.306   2.340  10.067 -0.7964 -0.8624  0.2798
  246MPD1    C4 3785   2.193   2.420  10.045  0.4803 -0.1288 -1.3259
  246MPD1    C5 3786   2.200   2.548  10.072 -0.1713 -0.4562  0.5107
  246MPD1     H 3787   2.514   2.333  10.093 -0.0373  0.0874  1.0128
  246MPD1    H1 3788   2.094   2.375  10.045  1.5705 -2.5052  2.2203
  246MPD1    H2 3789   2.329   2.721  10.111  1.0088  0.3496  1.3849
  246MPD1    H3 3790   2.117   2.614  10.048 -0.1876 -0.3274  0.9193
  246MPD1     N 3791   2.302   2.204  10.050 -0.0520 -0.1541  0.0609
  246MPD1    H5 3792   2.388   2.151  10.060  1.7248  2.7231 -0.0107
  246MPD1    N1 3793   2.569   2.593  10.119  0.0604 -0.0310 -0.4425
  246MPD1    H6 3794   2.635   2.526  10.158  0.5263  1.7207  1.8062
  246MPD1    H7 3795   2.561   2.675  10.178 -0.1932 -0.4877  0.1535
  247MPD1     C 3796   4.427   4.081  15.651 -1.0578 -0.9275  0.3100
  247MPD1    C1 3797   4.542   4.149  15.620  0.8982 -0.2628 -0.1415
  247MPD1    C2 3798   4.560   4.274  15.669  0.7221  0.0916  0.4940
  247MPD1    C3 3799   4.458   4.343  15.728 -0.2242 -0.9919 -0.1865
  247MPD1    C4 3800   4.341   4.276  15.754  0.0856  0.3286 -0.0752
  247MPD1    C5 3801   4.331   4.142  15.721  0.3749  0.3402 -1.1886
  247MPD1     H 3802   4.655   4.321  15.645  0.4823  1.1068  1.5784
  247MPD1    H1 3803   4.264   4.323  15.814  1.1581  0.2065  1.4188
  247MPD1    H2 3804   4.407   3.979  15.619  1.5966 -2.1773  2.5742
  247MPD1    H3 3805   4.238   4.092  15.747  1.2552 -0.7946 -0.2331
  247MPD1     N 3806   4.470   4.479  15.764  0.7114 -0.3007  0.5920
  247MPD1    H5 3807   4.387   4.507  15.816 -0.9794 -0.6257 -1.9103
  247MPD1    N1 3808   4.653   4.081  15.558 -0.2585  0.6063 -0.2410
  247MPD1    H6 3809   4.698   4.151  15.499 -0.8982  1.9619  0.8773
  247MPD1    H7 3810   4.610   4.012  15.496  1.1168 -0.4774  0.0036
  248MPD1     C 3811   1.348   4.536  17.679 -0.1171  0.1695  0.7387
  248MPD1    C1 3812   1.222   4.591  17.660  0.9396 -0.3450 -0.2949
  248MPD1    C2 3813   1.154   4.653   0.020  0.1297 -0.6774 -0.6171
  248MPD1    C3 3814   1.222   4.695   0.127 -0.1436  0.3325 -0.0349
  248MPD1    C4 3815   1.354   4.664   0.137  1.0247 -0.7942 -0.1980
  248MPD1    C5 3816   1.406   4.578   0.043  0.5058 -0.0339 -0.7824
  248MPD1     H 3817   1.049   4.678   0.011  0.6193  1.3865 -0.6369
  248MPD1    H1 3818   1.413   4.692   0.223  1.1366  0.6040 -0.7256
  248MPD1    H2 3819   1.397   4.471  17.607 -1.0288  0.9416 -0.5747
  248MPD1    H3 3820   1.509   4.544   0.056  0.6857  1.4109  1.5393
  248MPD1     N 3821   1.165   0.040   0.232 -0.5883 -0.2387  0.6113
  248MPD1    H5 3822   1.236   0.074   0.297  0.0147 -0.2083 -0.0691
  248MPD1    N1 3823   1.146   4.545  17.548  0.0953  0.2966 -0.3186
  248MPD1    H6 3824   1.208   4.519  17.470  1.8223  0.7859  0.8950
  248MPD1    H7 3825   1.083   4.622  17.526  0.0202 -0.2714 -2.1759
  249MPD1     C 3826   2.468   3.942  10.176  1.1421  0.3088 -0.5017
  249MPD1    C1 3827   2.429   3.875  10.291  0.3498 -0.4567 -0.1251
  249MPD1    C2 3828   2.322   3.789  10.284  0.0470 -0.6086 -0.4316
  249MPD1    C3 3829   2.263   3.765  10.157  0.5056 -0.6217  1.0121
  249MPD1    C4 3830   2.304   3.825  10.044  0.7064  0.2932 -0.2976
  249MPD1    C5 3831   2.412   3.907  10.052  0.2588  0.2295  0.3360
  249MPD1     H 3832   2.279   3.754  10.377  0.5658  0.8997  0.3727
  249MPD1    H1 3833   2.264   3.812   9.944  1.3042  0.8326 -0.5996
  249MPD1    H2 3834   2.554   4.007  10.171  0.3894  1.2420 -1.3885
  249MPD1    H3 3835   2.458   3.959   9.969 -1.1424 -0.7256 -1.0484
  249MPD1     N 3836   2.151   3.686  10.157  0.1747 -0.1733 -0.7227
  249MPD1    H5 3837   2.129   3.632  10.240 -2.1660  0.1490 -1.1411
  249MPD1    N1 3838   2.472   3.911  10.423 -0.0134  0.0516 -0.3137
  249MPD1    H6 3839   2.561   3.960  10.424 -0.0535  0.1990 -2.2351
  249MPD1    H7 3840   2.460   3.837  10.490  0.1830  2.0259  1.8947
  250MPD2     C 3841   4.392   3.447  12.721  0.0419  0.1646 -0.1699
  250MPD2    C1 3842   4.256   3.469  12.718 -0.0592  0.8504 -0.0739
  250MPD2    C2 3843   4.173   3.363  12.700 -0.5111  0.2586  0.5566
  250MPD2    C3 3844   4.230   3.229  12.702  0.2340  0.1068 -0.7046
  250MPD2    C4 3845   4.363   3.214  12.720  0.1619 -0.7348  0.7178
  250MPD2    C5 3846   4.445   3.324  12.733 -0.7439 -0.1620 -0.0316
  250MPD2     H 3847   4.066   3.375  12.697 -0.6887 -1.6486 -0.1346
  250MPD2    H1 3848   4.410   3.116  12.717  1.5230 -0.1295  1.7378
  250MPD2    H2 3849   4.459   3.532  12.732 -0.4595  0.5735 -0.2644
  250MPD2    H3 3850   4.552   3.308  12.730 -0.5527  1.4768 -1.6541
  250MPD2     N 3851   4.158   3.110  12.689  0.4667 -0.0968 -0.0468
  250MPD2    H5 3852   4.210   3.023  12.694 -1.7464 -1.4099  0.1467
  250MPD2    N1 3853   4.216   3.602  12.722  0.1403 -0.0900  0.0839
  250MPD2    H7 3854   4.283   3.678  12.725 -0.9876  0.8784  0.7184
  251TMC3    C1 3855   4.081   3.797  12.711 -0.2135  0.0513  0.4832
  251TMC3    C2 3856   3.970   3.858  12.764 -0.4471 -0.5069  0.1738
  251TMC3    C3 3857   3.966   3.990  12.747 -1.0369 -0.2958  0.0467
  251TMC3    C4 3858   4.180   3.854  12.644 -0.6207 -0.0819  0.3232
  251TMC3    C5 3859   4.175   3.992  12.644 -0.5493 -0.2884  0.8355
  251TMC3    C6 3860   4.069   4.058  12.693 -0.0506 -0.6747 -0.4847
  251TMC3     C 3861   4.086   3.649  12.705  0.0247 -0.1729  0.3467
  251TMC3     O 3862   3.976   3.593  12.724  0.2315  0.3215  0.5276
  251TMC3     H 3863   3.886   3.803  12.804 -0.0196  0.3502  2.2965
  251TMC3    H1 3864   4.263   3.802  12.599 -1.5987  0.0714 -1.6256
  251TMC3    H2 3865   4.057   4.165  12.681  1.4492 -0.5810 -1.0887
  251TMC3    C7 3866   4.304   4.046  12.662 -0.2373  0.1458 -0.6833
  251TMC3    C8 3867   3.841   4.061  12.756 -0.1414 -0.6284  0.0093
  251TMC3    O1 3868   4.401   3.980  12.627 -0.5976 -0.1969 -0.1007
  251TMC3    O2 3869   3.811   4.142  12.671  0.0109 -0.2256  0.6528
  252TMC3    C1 3870   3.224   0.229   9.747  1.0997 -0.5154  0.5157
  252TMC3    C2 3871   3.300   0.291   9.651 -0.1055 -0.2564 -0.1532
  252TMC3    C3 3872   3.394   0.214   9.587 -0.2525 -0.0663 -0.2210
  252TMC3    C4 3873   3.234   0.089   9.770 -0.4948  0.5600  0.2121
  252TMC3    C5 3874   3.327   0.016   9.704  0.3612  0.3792  0.0444
  252TMC3    C6 3875   3.405   0.072   9.603 -0.1410 -0.5638 -0.8573
  252TMC3     C 3876   3.183   0.300   9.871 -0.6540  0.1572 -0.2205
  252TMC3     O 3877   3.119   0.227   9.946  0.0624  0.4082  0.5707
  252TMC3     H 3878   3.282   0.396   9.634  0.3385 -0.2821 -0.7737
  252TMC3    H1 3879   3.165   0.048   9.842 -0.3822  0.4174  0.2368
  252TMC3    H2 3880   3.470   0.008   9.545  0.2823 -0.8883 -0.0291
  252TMC3    C7 3881   3.319   4.606   9.719 -0.0559 -0.0146 -0.7099
  252TMC3    C8 3882   3.494   0.300   9.528 -0.3859 -0.3712 -0.0230
  252TMC3    O1 3883   3.220   4.570   9.783  0.0962 -0.3319  0.2854
  252TMC3    O2 3884   3.463   0.420   9.509  0.8454 -0.3181  0.1568
  253MPD2     C 3885   0.225   3.892  15.092  0.7306  0.2591 -0.0509
  253MPD2    C1 3886   0.091   3.917  15.117 -0.0582 -0.2497 -0.3672
  253MPD2    C2 3887   0.031   3.867  15.223  0.6819  0.6028 -0.1143
  253MPD2    C3 3888   0.098   3.795  15.316 -0.0760  0.4451 -0.4415
  253MPD2    C4 3889   0.226   3.754  15.286 -0.6905 -0.2141  0.3211
  253MPD2    C5 3890   0.291   3.807  15.172 -0.0069  0.4014 -0.2556
  253MPD2     H 3891   4.663   3.891  15.240  0.0297 -3.8121  2.4058
  253MPD2    H1 3892   0.280   3.683  15.348 -2.2974 -1.0348  0.7724
  253MPD2    H2 3893   0.279   3.944  15.013  2.4623  0.5589  1.3225
  253MPD2    H3 3894   0.397   3.786  15.165  0.2262  1.7495 -0.7331
  253MPD2     N 3895   0.044   3.752  15.438  0.1466 -0.1703 -0.5387
  253MPD2    H5 3896   0.117   3.703  15.487  0.9332  0.9625 -0.5719
  253MPD2    N1 3897   0.016   4.003  15.036 -0.9649  0.4888  0.3746
  253MPD2    H7 3898   4.653   4.001  15.055 -1.2779 -0.7567 -1.3841
  254TMC3    C1 3899   4.636   3.713  15.613 -0.7605  0.3584  0.0788
  254TMC3    C2 3900   4.513   3.691  15.669  0.0283  0.3131 -0.0743
  254TMC3    C3 3901   4.504   3.632  15.796 -0.4776 -0.7717 -0.6340
  254TMC3    C4 3902   0.011   3.703  15.699  0.0590 -0.0806  0.0337
  254TMC3    C5 3903   4.734   3.639  15.821  0.7664  0.1697  0.1500
  254TMC3    C6 3904   4.610   3.610  15.872  0.0483  0.2697  1.2653
  254TMC3     C 3905   4.653   3.776  15.485 -0.1786 -0.3736  0.0605
  254TMC3     O 3906   4.552   3.830  15.442  0.0426 -0.3023 -0.1236
  254TMC3     H 3907   4.420   3.715  15.618 -0.6788 -0.4485  0.8777
  254TMC3    H1 3908   0.107   3.743  15.668 -1.1463  1.1299 -2.1300
  254TMC3    H2 3909   4.609   3.554  15.965 -0.1384  0.1456  1.1886
  254TMC3    C7 3910   0.091   3.644  15.929  0.9627  0.2775  0.2493
  254TMC3    C8 3911   4.389   3.658  15.879  0.4824  0.2390 -0.2434
  254TMC3    O1 3912   0.061   3.710  16.025 -0.4734  0.1001 -0.0478
  254TMC3    O2 3913   4.409   3.641  16.003 -0.2278  0.0691  0.0586
  255MPD2     C 3914   4.031   1.495  10.232  0.1616  1.1696 -0.2263
  255MPD2    C1 3915   3.914   1.567  10.215  0.0503 -0.2992  0.3608
  255MPD2    C2 3916   3.895   1.634  10.091  0.6390 -0.1999 -0.2541
  255MPD2    C3 3917   3.986   1.624   9.989 -0.6907 -0.1447 -1.2432
  255MPD2    C4 3918   4.098   1.544  10.006 -0.0936 -0.2799 -0.3628
  255MPD2    C5 3919   4.116   1.480  10.126  0.7761  0.0761 -0.1656
  255MPD2     H 3920   3.808   1.696  10.075 -0.3164 -1.7307 -0.9206
  255MPD2    H1 3921   4.153   1.510   9.919 -1.1201 -0.7258 -0.8285
  255MPD2    H2 3922   4.061   1.432  10.315 -2.0620  0.7496  0.2743
  255MPD2    H3 3923   4.187   1.399  10.135  0.7753  0.0059 -0.7879
  255MPD2     N 3924   3.947   1.679   9.863  0.5245  0.5416  0.3524
  255MPD2    H5 3925   3.851   1.713   9.862  0.5490  0.5710 -1.1961
  255MPD2    N1 3926   3.823   1.580  10.322 -0.6873 -0.8100 -0.9226
  255MPD2    H7 3927   3.833   1.517  10.400 -3.1636 -0.2987 -0.1947
  256TMC3    C1 3928   3.668   1.677  10.465 -0.5475 -0.1361  0.1838
  256TMC3    C2 3929   3.612   1.800  10.492 -0.1181  0.1091  0.3624
  256TMC3    C3 3930   3.497   1.802  10.558 -0.2575 -0.1424 -0.8825
  256TMC3    C4 3931   3.598   1.567  10.505  0.2558  0.6381 -0.5492
  256TMC3    C5 3932   3.485   1.575  10.583 -0.5505  0.2135 -0.2696
  256TMC3    C6 3933   3.433   1.693  10.602  0.5940 -0.3012 -0.7409
  256TMC3     C 3934   3.734   1.682  10.338  0.3699 -0.3256 -0.0243
  256TMC3     O 3935   3.713   1.782  10.273 -0.5457  0.0541  0.0109
  256TMC3     H 3936   3.657   1.893  10.458 -0.1454  0.1715  0.4950
  256TMC3    H1 3937   3.650   1.476  10.475 -0.8603  0.6356 -2.4517
  256TMC3    H2 3938   3.331   1.711  10.634  1.0457  1.1232 -0.1067
  256TMC3    C7 3939   3.390   1.461  10.590 -0.5878 -0.3312  1.0415
  256TMC3    C8 3940   3.410   1.920  10.533 -0.5593 -0.3585 -0.0622
  256TMC3    O1 3941   3.271   1.473  10.619  0.8408 -0.5721  0.4386
  256TMC3    O2 3942   3.307   1.930  10.602  0.1306  0.2741  0.2277
  257MPD2     C 3943   2.562   3.498  12.814  0.7339  0.4229  0.6522
  257MPD2    C1 3944   2.681   3.526  12.874 -0.1660 -0.4774 -0.4364
  257MPD2    C2 3945   2.737   3.441  12.968 -1.1088 -0.0763  0.3368
  257MPD2    C3 3946   2.675   3.324  13.005 -0.3748 -0.8851 -0.4895
  257MPD2    C4 3947   2.561   3.294  12.937  0.3627  0.1693  0.0511
  257MPD2    C5 3948   2.503   3.376  12.845  0.0045  0.9393 -1.2853
  257MPD2     H 3949   2.835   3.457  13.011 -0.6506 -1.3194 -0.2432
  257MPD2    H1 3950   2.504   3.203  12.947 -0.1386  0.5418  0.5795
  257MPD2    H2 3951   2.515   3.563  12.741  3.9063  2.0549  0.0949
  257MPD2    H3 3952   2.422   3.342  12.781  0.3988  1.3686 -2.0234
  257MPD2     N 3953   2.729   3.236  13.098 -0.0233 -0.2202  0.0992
  257MPD2    H5 3954   2.792   3.277  13.167  0.9447 -0.1438 -0.8379
  257MPD2    N1 3955   2.748   3.627  12.815  0.2174  0.4223  0.4507
  257MPD2    H7 3956   2.700   3.662  12.733  1.4933  1.0626 -0.0213
  258TMC3    C1 3957   2.774   3.024  13.197  0.1840  0.0780  0.3537
  258TMC3    C2 3958   2.835   2.904  13.170  0.5383 -0.6013 -0.4342
  258TMC3    C3 3959   2.922   2.846  13.251  0.1829 -0.4266  0.2539
  258TMC3    C4 3960   2.786   3.077  13.321  0.3548 -0.1866  0.4066
  258TMC3    C5 3961   2.883   3.016  13.404  0.0249 -0.6410  0.7872
  258TMC3    C6 3962   2.950   2.901  13.375  0.4138 -0.5323 -0.1128
  258TMC3     C 3963   2.705   3.099  13.096 -0.3879 -0.3395 -0.5415
  258TMC3     O 3964   2.657   3.033  13.001 -0.4941  0.2817  0.5265
  258TMC3     H 3965   2.826   2.873  13.067 -1.3094  0.4364 -0.5960
  258TMC3    H1 3966   2.744   3.171  13.356  2.0543  0.6497  0.2350
  258TMC3    H2 3967   3.011   2.861  13.454 -0.6409 -1.6280  0.1481
  258TMC3    C7 3968   2.914   3.095  13.525 -0.2890 -0.2792  0.1199
  258TMC3    C8 3969   3.013   2.755  13.180  0.0875  0.0937 -0.4358
  258TMC3    O1 3970   2.840   3.192  13.551  0.5010 -0.2131 -0.1353
  258TMC3    O2 3971   2.972   2.687  13.089 -0.1785  0.8702 -0.1906
  259MPD2     C 3972   1.353   0.898   0.400 -0.9258 -0.3861 -0.6065
  259MPD2    C1 3973   1.485   0.897   0.358 -0.3528 -0.5352 -0.6967
  259MPD2    C2 3974   1.512   0.917   0.224 -0.2484  0.6628  0.3225
  259MPD2    C3 3975   1.411   0.928   0.129 -0.2765  0.0472  0.0248
  259MPD2    C4 3976   1.281   0.921   0.180  0.2980 -0.2540  0.0390
  259MPD2    C5 3977   1.253   0.914   0.313 -0.5696 -0.0119 -0.2017
  259MPD2     H 3978   1.611   0.901   0.184 -0.3768 -0.1784  0.3475
  259MPD2    H1 3979   1.196   0.934   0.114  1.5814  0.3389 -1.5127
  259MPD2    H2 3980   1.322   0.869   0.500  0.9434 -0.8042 -0.1648
  259MPD2    H3 3981   1.157   0.931   0.359 -1.2795  0.5436 -1.8917
  259MPD2     N 3982   1.441   0.930  17.740  0.3949 -0.2707 -0.1735
  259MPD2    H5 3983   1.538   0.929  17.711  0.4408 -2.0646  0.0861
  259MPD2    N1 3984   1.591   0.860   0.452 -0.3520  0.5151  0.5602
  259MPD2    H7 3985   1.563   0.837   0.547 -2.5007 -0.1395 -0.2295
  260TMC3    C1 3986   1.427   0.892  17.508  0.8994 -0.0033 -0.1490
  260TMC3    C2 3987   1.529   0.985  17.483 -0.3043 -0.4324 -0.5835
  260TMC3    C3 3988   1.645   0.957  17.416  0.0018  0.6499 -0.1830
  260TMC3    C4 3989   1.436   0.762  17.470  0.4118  0.0032 -0.2661
  260TMC3    C5 3990   1.553   0.736  17.398  0.1298 -0.3423  0.2897
  260TMC3    C6 3991   1.653   0.830  17.360 -0.5598  0.5416 -0.9378
  260TMC3     C 3992   1.352   0.911  17.628  0.1856  0.1987  0.0750
  260TMC3     O 3993   1.230   0.927  17.621  1.0048  0.0927  0.3296
  260TMC3     H 3994   1.512   1.087  17.515  1.5563  0.2512 -1.8224
  260TMC3    H1 3995   1.353   0.694  17.483  0.8221 -0.8655 -2.2846
  260TMC3    H2 3996   1.742   0.809  17.302  0.2728 -2.0967  1.3205
  260TMC3    C7 3997   1.575   0.593  17.364 -0.2125  0.5633 -0.3457
  260TMC3    C8 3998   1.758   1.047  17.440 -0.6106 -0.4457  0.1040
  260TMC3    O1 3999   1.660   0.558  17.281  0.0325 -0.1566  0.2005
  260TMC3    O2 4000   1.741   1.159  17.493  0.0089  0.1069 -0.7406
  261MPD2     C 4001   3.342   2.941  12.554  0.1084  0.0673  0.4247
  261MPD2    C1 4002   3.460   2.996  12.504 -0.2615 -0.7848  0.0767
  261MPD2    C2 4003   3.454   3.112  12.433  0.0725 -0.2512  0.9564
  261MPD2    C3 4004   3.335   3.174  12.413 -0.0665 -0.1840 -0.0209
  261MPD2    C4 4005   3.223   3.129  12.472 -0.2954 -0.0780  1.0619
  261MPD2    C5 4006   3.231   3.011  12.538 -0.5777 -0.1554  0.0514
  261MPD2     H 4007   3.545   3.162  12.399 -0.2838 -0.4917 -0.3514
  261MPD2    H1 4008   3.123   3.170  12.467 -0.3432 -0.3588 -0.3768
  261MPD2    H2 4009   3.348   2.848  12.610 -0.4873  0.7372  1.5927
  261MPD2    H3 4010   3.139   2.977  12.586 -1.1268 -2.2054 -2.4935
  261MPD2     N 4011   3.345   3.288  12.329  0.5268 -0.2208 -0.8571
  261MPD2    H5 4012   3.441   3.308  12.305  0.0800 -0.0717 -2.5427
  261MPD2    N1 4013   3.589   2.948  12.539 -0.4178  0.1490  0.2354
  261MPD2    H7 4014   3.667   2.989  12.488 -0.0456  0.2127  0.8561
  262TMC3    C1 4015   3.285   3.482  12.199 -0.6145  0.3062 -0.5749
  262TMC3    C2 4016   3.219   3.601  12.213  0.0569 -0.0717  0.2070
  262TMC3    C3 4017   3.235   3.693  12.112  0.0312  0.6300  0.0732
  262TMC3    C4 4018   3.373   3.451  12.103  0.1910  0.4477 -0.6615
  262TMC3    C5 4019   3.405   3.554  12.014  0.3722 -0.2000 -0.0836
  262TMC3    C6 4020   3.316   3.665  12.004 -0.1275  0.3104 -0.5732
  262TMC3     C 4021   3.248   3.372  12.291  0.4339 -0.1428  0.1504
  262TMC3     O 4022   3.129   3.370  12.317  0.3487  0.1670  0.0165
  262TMC3     H 4023   3.169   3.620  12.308 -0.6065 -3.0631  0.4514
  262TMC3    H1 4024   3.426   3.357  12.092 -1.9840 -0.7160 -1.1680
  262TMC3    H2 4025   3.301   3.723  11.914 -0.4846 -0.2302 -0.8675
  262TMC3    C7 4026   3.508   3.545  11.913 -0.0874 -0.9159 -0.6124
  262TMC3    C8 4027   3.162   3.816  12.124  0.2679 -0.4895 -0.2446
  262TMC3    O1 4028   3.563   3.440  11.905  0.3786 -0.0336  0.2462
  262TMC3    O2 4029   3.071   3.811  12.204  0.0964  0.2388  0.1865
  263MPD2     C 4030   4.238   2.341  11.740 -0.2417  0.7517 -0.2267
  263MPD2    C1 4031   4.333   2.356  11.642  0.3578 -0.2223  0.1634
  263MPD2    C2 4032   4.302   2.413  11.518  0.0333 -0.0658  0.6416
  263MPD2    C3 4033   4.177   2.462  11.493 -0.0908  0.7765 -0.2806
  263MPD2    C4 4034   4.076   2.444  11.585  0.8418  0.6264  0.5919
  263MPD2    C5 4035   4.110   2.395  11.710  0.1541  0.3807 -0.4816
  263MPD2     H 4036   4.381   2.431  11.446 -0.9540 -0.4100 -0.5353
  263MPD2    H1 4037   3.971   2.472  11.583  0.1367 -2.3349 -3.3394
  263MPD2    H2 4038   4.255   2.283  11.830  2.2578 -0.6284 -1.6008
  263MPD2    H3 4039   4.030   2.373  11.780  0.3220  1.4067  0.0383
  263MPD2     N 4040   4.154   2.524  11.363  0.5258 -0.5101  0.2873
  263MPD2    H5 4041   4.234   2.552  11.308  1.1371 -0.2082  1.3161
  263MPD2    N1 4042   4.457   2.294  11.668 -0.8310 -0.9585  0.2994
  263MPD2    H7 4043   4.467   2.248  11.759  1.3797  1.4147  1.2499
  264TMC3    C1 4044   4.065   2.653  11.196  0.2933 -0.7285 -0.0558
  264TMC3    C2 4045   4.053   2.788  11.208 -0.0531 -0.4225 -1.0436
  264TMC3    C3 4046   4.098   2.861  11.100  0.2727 -0.7843  0.3164
  264TMC3    C4 4047   4.134   2.580  11.098 -0.7587 -0.3008  0.3241
  264TMC3    C5 4048   4.181   2.661  11.000 -0.6898 -1.0660  0.1268
  264TMC3    C6 4049   4.166   2.802  10.999  0.6486  0.4348 -0.0272
  264TMC3     C 4050   4.032   2.583  11.318 -0.2035  0.5165 -0.3142
  264TMC3     O 4051   3.934   2.616  11.375  0.5399 -0.0295  0.2280
  264TMC3     H 4052   3.991   2.836  11.282  1.6611  2.8656 -1.7379
  264TMC3    H1 4053   4.146   2.473  11.099  0.6476 -0.1772 -4.0543
  264TMC3    H2 4054   4.194   2.849  10.905 -1.3500 -0.9896 -1.3367
  264TMC3    C7 4055   4.259   2.608  10.896  0.5140  0.1246 -0.4053
  264TMC3    C8 4056   4.123   3.000  11.109  0.4554  0.1145  0.3009
  264TMC3    O1 4057   4.357   2.676  10.863 -0.6058  0.1103 -0.6031
  264TMC3    O2 4058   4.150   3.054  11.004  0.1677 -0.2272  0.3265
  265MPD2     C 4059   1.639   3.534  15.694  0.5931 -0.3644  0.1524
  265MPD2    C1 4060   1.660   3.654  15.638 -0.0597 -0.2787 -0.7955
  265MPD2    C2 4061   1.736   3.655  15.522  0.1625 -0.2147  0.8689
  265MPD2    C3 4062   1.804   3.542  15.474  0.1601 -0.8129 -0.0672
  265MPD2    C4 4063   1.783   3.420  15.539 -0.1451 -0.3561  0.4101
  265MPD2    C5 4064   1.701   3.419  15.649 -0.7691 -0.0846 -0.0951
  265MPD2     H 4065   1.748   3.751  15.474 -0.2570 -0.5915  0.0121
  265MPD2    H1 4066   1.840   3.334  15.507 -0.6702 -1.4066  2.3194
  265MPD2    H2 4067   1.573   3.521  15.779 -0.6422  1.4122 -0.5278
  265MPD2    H3 4068   1.699   3.329  15.708  1.3129  0.2359  0.4592
  265MPD2     N 4069   1.881   3.538  15.360 -0.1315  0.6430  0.3779
  265MPD2    H5 4070   1.893   3.440  15.334 -1.5261  1.1230 -2.1219
  265MPD2    N1 4071   1.602   3.782  15.682  0.1253  0.5441  0.3348
  265MPD2    H7 4072   1.606   3.860  15.617 -1.5873 -0.4153 -0.9138
  266TMC3    C1 4073   1.452   3.913  15.805  0.3511 -0.5296 -0.5200
  266TMC3    C2 4074   1.475   3.993  15.913 -0.1373 -0.4028 -0.3688
  266TMC3    C3 4075   1.447   4.133  15.911  0.2082 -0.0622 -0.5686
  266TMC3    C4 4076   1.414   3.978  15.688  0.2310 -0.4685 -0.3119
  266TMC3    C5 4077   1.402   4.116  15.683 -1.0868  0.2806  0.5625
  266TMC3    C6 4078   1.411   4.194  15.796  0.1059 -0.2019 -0.1130
  266TMC3     C 4079   1.536   3.790  15.801 -0.0925 -0.0360  0.3054
  266TMC3     O 4080   1.558   3.719  15.899 -0.1787  0.4865 -0.6302
  266TMC3     H 4081   1.509   3.941  16.001 -0.2814  1.0534  0.5429
  266TMC3    H1 4082   1.378   3.918  15.606  1.0647  0.0789 -1.0722
  266TMC3    H2 4083   1.399   4.301  15.783 -1.8442 -0.5405 -1.0536
  266TMC3    C7 4084   1.351   4.178  15.559 -0.6723  0.5766  0.5523
  266TMC3    C8 4085   1.525   4.205  16.013  0.1868  0.5024  0.4923
  266TMC3    O1 4086   1.277   4.278  15.587  0.0929 -0.8090  0.2552
  266TMC3    O2 4087   1.618   4.146  16.067 -0.3170  0.7602  0.8494
  267MPD2     C 4088   4.210   1.190   0.510  0.8588 -0.1806 -0.0786
  267MPD2    C1 4089   4.156   1.104   0.418  0.6564  1.1164  0.1468
  267MPD2    C2 4090   4.038   1.143   0.351  0.6753  0.0841 -0.7317
  267MPD2    C3 4091   3.985   1.270   0.374 -0.0886 -0.2214  0.0404
  267MPD2    C4 4092   4.040   1.355   0.469  0.3371  0.1715  0.7888
  267MPD2    C5 4093   4.155   1.317   0.533  0.3693 -0.1943  0.1225
  267MPD2     H 4094   3.992   1.071   0.284  0.6769 -0.9144  0.3268
  267MPD2    H1 4095   3.980   1.437   0.505 -2.9909 -1.8921 -0.0407
  267MPD2    H2 4096   4.294   1.156   0.569  1.4643  1.6560  0.1092
  267MPD2    H3 4097   4.193   1.374   0.617  1.1615  2.0440 -1.7307
  267MPD2     N 4098   3.876   1.322   0.295  0.7669  0.2961 -0.2881
  267MPD2    H5 4099   3.850   1.420   0.305 -0.5691 -0.2157  1.0696
  267MPD2    N1 4100   4.228   0.990   0.386 -0.2698  0.4778 -0.5232
  267MPD2    H7 4101   4.311   0.973   0.442 -1.6329 -0.4617  1.1964
  268TMC3    C1 4102   4.287   0.795   0.265 -0.0647 -0.2939  0.3907
  268TMC3    C2 4103   4.323   0.740   0.149  0.5644 -0.0980 -0.3912
  268TMC3    C3 4104   4.400   0.625   0.151  0.0739 -0.8084  0.1465
  268TMC3    C4 4105   4.341   0.750   0.388  0.2344 -0.1697 -0.7347
  268TMC3    C5 4106   4.419   0.634   0.378  0.5507 -0.0974 -0.2921
  268TMC3    C6 4107   4.451   0.574   0.265 -0.3684  0.1456  0.1841
  268TMC3     C 4108   4.221   0.925   0.265 -0.0245  0.4672  0.3771
  268TMC3     O 4109   4.169   0.955   0.157  0.1182 -0.0481  0.2834
  268TMC3     H 4110   4.311   0.795   0.056  0.3021  0.1810 -0.1918
  268TMC3    H1 4111   4.300   0.778   0.485 -0.7575 -1.0152 -0.9004
  268TMC3    H2 4112   4.517   0.488   0.260  0.9517  1.2456 -1.3751
  268TMC3    C7 4113   4.467   0.584   0.508  0.3272  0.8064 -0.0952
  268TMC3    C8 4114   4.450   0.569   0.026 -0.2598 -0.0096 -0.1242
  268TMC3    O1 4115   4.471   0.465   0.528 -0.7444 -0.3385  0.0770
  268TMC3    O2 4116   4.556   0.509   0.026 -0.9957  0.4822  0.0924
  269MPD2     C 4117   4.326   4.479  15.378  0.0617 -0.5911  0.2491
  269MPD2    C1 4118   4.209   4.464  15.451 -0.0012  0.5415 -0.8446
  269MPD2    C2 4119   4.155   4.572  15.515  0.3619  0.1425 -0.4110
  269MPD2    C3 4120   4.211   4.693  15.500 -0.5019 -0.5512 -0.4792
  269MPD2    C4 4121   4.329   4.702  15.439 -0.4627 -0.1120  0.6972
  269MPD2    C5 4122   4.389   4.602  15.371  0.1094  0.6568 -0.1475
  269MPD2     H 4123   4.056   4.572  15.559  0.3100 -0.2005 -0.5253
  269MPD2    H1 4124   4.381   0.060  15.427 -2.8966  1.0318 -0.8054
  269MPD2    H2 4125   4.371   4.392  15.331  0.0590 -1.5371  1.9746
  269MPD2    H3 4126   4.485   4.601  15.320  0.2466  1.2009  0.1073
  269MPD2     N 4127   4.154   0.077  15.542  0.0858 -0.0007  0.7428
  269MPD2    H5 4128   4.201   0.160  15.508  0.3208 -0.9159 -1.1747
  269MPD2    N1 4129   4.149   4.334  15.460 -0.8767 -0.1169  0.7592
  269MPD2    H7 4130   4.197   4.258  15.413  0.3893  0.1511  1.6217
  270TMC3    C1 4131   4.003   4.157  15.520  0.8435  1.2033 -0.4360
  270TMC3    C2 4132   3.866   4.113  15.515  0.1156 -0.3222  0.4166
  270TMC3    C3 4133   3.838   3.979  15.488 -0.2135  0.0979 -1.1122
  270TMC3    C4 4134   4.102   4.069  15.489 -0.1148 -0.5659 -0.1094
  270TMC3    C5 4135   4.067   3.940  15.454 -0.2298  0.1617 -0.5232
  270TMC3    C6 4136   3.938   3.891  15.460  0.5952  0.3276  0.8982
  270TMC3     C 4137   4.025   4.298  15.516  0.0670  0.5336  0.2354
  270TMC3     O 4138   3.932   4.369  15.548  0.5184 -0.7042  0.9606
  270TMC3     H 4139   3.789   4.186  15.538 -0.3565 -1.2234  1.7602
  270TMC3    H1 4140   4.207   4.094  15.506 -0.4283  0.2243  0.7205
  270TMC3    H2 4141   3.915   3.787  15.438  3.5660 -0.1220 -0.0577
  270TMC3    C7 4142   4.169   3.849  15.423  0.2523  0.8228  0.1542
  270TMC3    C8 4143   3.707   3.924  15.509  0.0104 -0.1863  0.9139
  270TMC3    O1 4144   4.255   3.829  15.507 -0.1036 -0.2942 -0.1928
  270TMC3    O2 4145   3.707   3.820  15.574 -0.0614  0.0288  0.5084
  271MPD2     C 4146   3.911   3.295  14.232 -0.1899 -0.1378 -0.0033
  271MPD2    C1 4147   3.815   3.363  14.308  0.1248 -0.2324 -0.4368
  271MPD2    C2 4148   3.723   3.448  14.247 -0.2422  0.1485 -0.0224
  271MPD2    C3 4149   3.724   3.474  14.108  0.5905  0.2330  0.1330
  271MPD2    C4 4150   3.818   3.396  14.034  0.6991  0.2167 -0.4910
  271MPD2    C5 4151   3.900   3.306  14.097  1.0964 -0.2419 -0.2603
  271MPD2     H 4152   3.639   3.488  14.304  1.8504 -0.3174  3.3471
  271MPD2    H1 4153   3.813   3.392  13.926  2.6053  0.3059 -0.5721
  271MPD2    H2 4154   3.983   3.224  14.271  1.1698  1.1370 -0.2320
  271MPD2    H3 4155   3.966   3.242  14.039  0.8773 -1.0733  0.4017
  271MPD2     N 4156   3.651   3.574  14.040 -0.0567 -1.1377  0.1037
  271MPD2    H5 4157   3.645   3.565  13.940 -1.3944  2.6162 -0.1566
  271MPD2    N1 4158   3.811   3.339  14.450 -0.2776  0.3409 -0.1294
  271MPD2    H7 4159   3.733   3.381  14.500  0.0249 -0.2992  0.8751
  272TMC3    C1 4160   3.895   3.335  14.672 -0.7613  0.0085  0.2183
  272TMC3    C2 4161   3.987   3.269  14.742 -0.3678 -0.6908 -0.1326
  272TMC3    C3 4162   3.982   3.286  14.872  0.5772 -0.0454  0.5576
  272TMC3    C4 4163   3.805   3.430  14.714 -0.6552  0.6001 -0.1054
  272TMC3    C5 4164   3.810   3.450  14.850  1.0210  0.9113 -0.9724
  272TMC3    C6 4165   3.889   3.368  14.934 -0.8142  0.3002 -0.6630
  272TMC3     C 4166   3.911   3.293  14.534  0.0582  0.2966  0.3372
  272TMC3     O 4167   4.015   3.238  14.499 -0.0891 -0.0421 -0.2963
  272TMC3     H 4168   4.069   3.206  14.709  1.0517  1.2082 -0.1902
  272TMC3    H1 4169   3.744   3.485  14.644  0.0094  0.7286 -0.5837
  272TMC3    H2 4170   3.884   3.386  15.040 -1.2749  0.8231 -0.7694
  272TMC3    C7 4171   3.726   3.543  14.911 -0.4680  0.5410 -0.6584
  272TMC3    C8 4172   4.022   3.174  14.950  0.9338  0.2075 -0.1631
  272TMC3    O1 4173   3.741   3.564  15.032  0.3189  0.0904  0.0245
  272TMC3    O2 4174   3.955   3.151  15.049  0.2348 -0.1085 -0.1992
  273MPD2     C 4175   0.138   0.851  11.725 -0.9168  0.3984  0.2990
  273MPD2    C1 4176   0.172   0.975  11.776 -0.6346 -0.0679  0.2448
  273MPD2    C2 4177   0.180   1.079  11.680  0.2954 -0.7104 -0.4687
  273MPD2    C3 4178   0.168   1.047  11.544 -0.3381  0.6706 -0.7492
  273MPD2    C4 4179   0.132   0.920  11.505 -0.6111 -0.4046 -0.1802
  273MPD2    C5 4180   0.116   0.825  11.598 -0.4126  0.4928 -0.3058
  273MPD2     H 4181   0.188   1.180  11.719 -0.2584 -0.9993  0.4036
  273MPD2    H1 4182   0.103   0.898  11.403  1.4046 -2.2881 -0.3437
  273MPD2    H2 4183   0.113   0.772  11.794  0.1967  0.1176  0.3745
  273MPD2    H3 4184   0.079   0.727  11.572 -0.4106 -0.0161  1.5862
  273MPD2     N 4185   0.204   1.139  11.445 -0.3643 -0.1973  0.1547
  273MPD2    H5 4186   0.182   1.119  11.348 -0.8924  0.4347  0.1429
  273MPD2    N1 4187   0.190   0.990  11.917  0.2882  0.0328  0.2855
  273MPD2    H7 4188   0.174   0.903  11.967 -0.4657  0.4625  0.7928
  274TMC3    C1 4189   0.283   1.340  11.342  0.2308  0.2335 -0.3896
  274TMC3    C2 4190   0.186   1.338  11.242  0.2877 -0.0919 -0.0470
  274TMC3    C3 4191   0.200   1.435  11.144 -0.4758 -0.6667  0.7107
  274TMC3    C4 4192   0.384   1.426  11.341  0.1610  0.8242  0.3152
  274TMC3    C5 4193   0.397   1.520  11.245 -0.3666  0.0294  0.4859
  274TMC3    C6 4194   0.303   1.521  11.139  0.0265 -0.2316 -0.3559
  274TMC3     C 4195   0.268   1.264  11.467  0.3544 -0.1767  0.2422
  274TMC3     O 4196   0.333   1.293  11.568 -0.3036  0.2660  0.6207
  274TMC3     H 4197   0.093   1.282  11.245 -0.6002  1.4263  0.9453
  274TMC3    H1 4198   0.449   1.423  11.428 -1.2998  0.7898  1.4172
  274TMC3    H2 4199   0.297   1.603  11.067  0.5904 -3.0347 -3.6097
  274TMC3    C7 4200   0.444   1.658  11.279 -0.1778 -0.2491 -0.0293
  274TMC3    C8 4201   0.080   1.470  11.070  0.5942 -0.8885 -0.3894
  274TMC3    O1 4202   0.366   1.740  11.234 -0.1050 -0.5060 -0.2390
  274TMC3    O2 4203   0.058   1.587  11.044 -0.3969  0.4038 -0.3814
  275MPD2     C 4204   0.474   4.441  14.275 -0.0418 -0.4771  0.4194
  275MPD2    C1 4205   0.384   4.547  14.269  0.0882  0.0626 -0.0445
  275MPD2    C2 4206   0.256   4.524  14.217 -0.6304 -0.2370  0.9039
  275MPD2    C3 4207   0.226   4.397  14.164  1.2888  0.7616  0.5427
  275MPD2    C4 4208   0.329   4.298  14.150 -0.0819  0.0693  0.0588
  275MPD2    C5 4209   0.455   4.321  14.209 -1.2143  0.3437 -0.5405
  275MPD2     H 4210   0.181   4.603  14.221  1.1296  1.5014 -0.3210
  275MPD2    H1 4211   0.314   4.210  14.089 -2.0214  0.3348  0.1562
  275MPD2    H2 4212   0.573   4.449  14.320  1.1042  1.3168 -2.4936
  275MPD2    H3 4213   0.542   4.257  14.199 -0.4034  1.2404  0.8451
  275MPD2     N 4214   0.100   4.366  14.110 -0.0046  0.9016 -0.0386
  275MPD2    H5 4215   0.089   4.275  14.068  0.9339  0.4714  0.6415
  275MPD2    N1 4216   0.415   4.670  14.323  0.3098  0.6909  0.2602
  275MPD2    H7 4217   0.350   0.009  14.305  1.8588  1.9214 -0.1269
  276TMC3    C1 4218   0.517   0.106  14.444  0.2812  1.2237  0.2820
  276TMC3    C2 4219   0.391   0.162  14.450 -0.5098 -0.5753  0.5094
  276TMC3    C3 4220   0.373   0.285  14.523  0.0111  0.2679  0.0857
  276TMC3    C4 4221   0.621   0.149  14.520 -0.0749 -0.0632 -0.1678
  276TMC3    C5 4222   0.601   0.262  14.592  0.8885  1.0184  0.0887
  276TMC3    C6 4223   0.484   0.336  14.584 -0.6600 -0.0893  0.3963
  276TMC3     C 4224   0.524   4.705  14.400 -0.8077  0.8888  0.2737
  276TMC3     O 4225   0.630   4.648  14.429  0.4344  0.3348 -0.2023
  276TMC3     H 4226   0.310   0.125  14.387 -0.3758 -1.1384  0.6730
  276TMC3    H1 4227   0.719   0.103  14.516 -1.0844 -2.3774  1.8131
  276TMC3    H2 4228   0.470   0.426  14.642 -2.8142 -0.4287  0.4235
  276TMC3    C7 4229   0.673   0.289  14.711  0.3146 -0.0970  0.7038
  276TMC3    C8 4230   0.246   0.300  14.589 -0.0388 -0.3729  0.0289
  276TMC3    O1 4231   0.689   0.405  14.745 -0.7309  0.3160 -0.1152
  276TMC3    O2 4232   0.228   0.400  14.654 -0.1958  0.1627  0.0050
  277MPD2     C 4233   2.363   3.767  13.064  0.1560 -0.1161  0.3240
  277MPD2    C1 4234   2.247   3.836  13.090 -0.5025 -0.3557  0.4611
  277MPD2    C2 4235   2.144   3.760  13.134  0.3554 -0.2099  0.4795
  277MPD2    C3 4236   2.153   3.621  13.143 -0.1547 -0.3564 -0.0501
  277MPD2    C4 4237   2.278   3.557  13.131  0.2511 -0.1351 -0.4726
  277MPD2    C5 4238   2.378   3.629  13.077 -0.1282 -0.2475 -0.2062
  277MPD2     H 4239   2.058   3.816  13.171  1.5339  2.8682 -1.4746
  277MPD2    H1 4240   2.287   3.449  13.135  1.5733 -0.0512 -1.0566
  277MPD2    H2 4241   2.448   3.828  13.036  0.1943  0.0847  0.8751
  277MPD2    H3 4242   2.472   3.578  13.060  0.5891  0.6437  1.0850
  277MPD2     N 4243   2.035   3.545  13.177  0.3230  0.3019 -1.0297
  277MPD2    H5 4244   1.945   3.592  13.169  0.6165  1.0780  0.2237
  277MPD2    N1 4245   2.235   3.976  13.069 -0.4282 -0.0753  0.9691
  277MPD2    H7 4246   2.293   4.012  12.994  0.3078 -2.4678  0.4158
  278TMC3    C1 4247   1.906   3.377  13.261  0.0427 -0.0517  0.2949
  278TMC3    C2 4248   1.818   3.386  13.160  0.0546 -0.3721  0.3371
  278TMC3    C3 4249   1.685   3.349  13.174  0.4034 -0.0689  0.6373
  278TMC3    C4 4250   1.865   3.335  13.387  0.0793  0.6647 -0.3509
  278TMC3    C5 4251   1.728   3.300  13.397 -0.4536  0.1696 -0.7652
  278TMC3    C6 4252   1.641   3.292  13.293  0.5089  0.3884  0.4385
  278TMC3     C 4253   2.040   3.426  13.246  0.1807 -0.5266  0.0096
  278TMC3     O 4254   2.137   3.370  13.295 -0.6571 -0.6256  0.2846
  278TMC3     H 4255   1.853   3.391  13.057 -1.9909  1.1215 -0.2621
  278TMC3    H1 4256   1.939   3.332  13.467 -0.2688  1.0442 -0.0166
  278TMC3    H2 4257   1.536   3.267  13.299  0.8242 -1.1874 -0.5625
  278TMC3    C7 4258   1.685   3.243  13.522  0.0987 -0.1283  0.0144
  278TMC3    C8 4259   1.605   3.316  13.052  0.3452  0.1115 -0.0361
  278TMC3    O1 4260   1.765   3.266  13.614 -0.0741  0.6569 -0.7330
  278TMC3    O2 4261   1.602   3.395  12.962 -0.0481  0.8062 -0.2868
  279MPD2     C 4262   0.918   3.608   0.277 -0.4408  0.3408 -0.6577
  279MPD2    C1 4263   0.898   3.732   0.228 -0.0039  0.5095  0.3266
  279MPD2    C2 4264   0.948   3.758   0.101 -0.1985  0.4194 -0.0479
  279MPD2    C3 4265   1.000   3.658   0.017 -0.7823  0.4407 -0.0342
  279MPD2    C4 4266   1.017   3.530   0.069 -0.2611  0.2290 -0.0154
  279MPD2    C5 4267   0.983   3.514   0.201 -0.4999 -0.3087 -0.0464
  279MPD2     H 4268   0.929   3.859   0.067 -0.6608  1.0839  2.2215
  279MPD2    H1 4269   1.062   3.454   0.007  0.2983  0.5911 -0.0607
  279MPD2    H2 4270   0.887   3.582   0.378 -0.5391 -1.5582 -1.1828
  279MPD2    H3 4271   0.991   3.411   0.234 -1.7495 -0.3702  0.0735
  279MPD2     N 4272   1.045   3.688  17.636  0.7120 -0.1086 -0.0078
  279MPD2    H5 4273   1.041   3.785  17.607 -0.8846 -0.8060 -2.1153
  279MPD2    N1 4274   0.832   3.824   0.308  0.4184 -0.7126  0.1107
  279MPD2    H7 4275   0.830   3.791   0.404 -2.5605  1.4334  0.7557
  280TMC3    C1 4276   0.749   4.033   0.372 -0.3435  0.2718 -0.9473
  280TMC3    C2 4277   0.817   4.025   0.491 -0.3915 -0.1903 -0.2922
  280TMC3    C3 4278   0.818   4.125   0.581 -0.1461  0.3477 -0.4834
  280TMC3    C4 4279   0.697   4.152   0.337 -0.9212 -0.1274 -0.0421
  280TMC3    C5 4280   0.685   4.254   0.432 -0.1536 -0.0885 -0.2840
  280TMC3    C6 4281   0.745   4.240   0.554  0.0789 -0.5281  0.0500
  280TMC3     C 4282   0.779   3.945   0.262  0.7804 -0.0142  0.4601
  280TMC3     O 4283   0.749   3.972   0.146  0.0106  0.2933 -0.2616
  280TMC3     H 4284   0.869   3.933   0.518  0.1337 -0.0837 -0.9297
  280TMC3    H1 4285   0.646   4.156   0.241  0.8456  0.6949 -0.9652
  280TMC3    H2 4286   0.746   4.330   0.614  0.9594 -0.9281  0.6256
  280TMC3    C7 4287   0.607   4.374   0.411  0.9268 -0.7217  0.3826
  280TMC3    C8 4288   0.957   4.146   0.610  0.1716 -0.6606 -1.2293
  280TMC3    O1 4289   0.594   4.457   0.502  0.2407 -0.2192 -0.7696
  280TMC3    O2 4290   1.040   4.080   0.550 -0.3672  0.1720  0.0400
  281TMC3    C1 4291   4.490   4.197  13.129  0.5628 -0.4223 -0.1779
  281TMC3    C2 4292   4.618   4.188  13.084  0.8928  0.6313 -0.2279
  281TMC3    C3 4293   4.668   4.070  13.047 -0.1233 -0.7629  0.0575
  281TMC3    C4 4294   4.413   4.088  13.156 -0.2096 -0.7046 -0.2891
  281TMC3    C5 4295   4.463   3.968  13.123  0.5259 -0.8414 -0.1230
  281TMC3    C6 4296   4.589   3.960  13.064  0.0235 -0.4000 -0.4078
  281TMC3     C 4297   4.450   4.324  13.182  0.2672  0.9215  0.2455
  281TMC3     O 4298   4.533   4.406  13.218 -0.1743 -0.2582 -0.5698
  281TMC3     H 4299   4.676   4.279  13.076 -0.0532  1.3340  0.8338
  281TMC3    H1 4300   4.316   4.094  13.205  0.6555 -3.7159  1.8146
  281TMC3    H2 4301   4.620   3.862  13.030  0.2053  0.0302 -1.4867
  281TMC3    C7 4302   4.371   3.852  13.115  0.0289  0.3495 -0.2070
  281TMC3    C8 4303   0.029   4.065  12.937 -0.0213  0.3008  1.0517
  281TMC3    O1 4304   4.254   3.876  13.088  0.5564 -0.3305 -0.0868
  281TMC3    O2 4305   0.121   3.994  12.967 -0.4680  0.0239  0.2358
  282MPD2     C 4306   1.330   0.786  14.893  0.0253 -1.2664  0.2625
  282MPD2    C1 4307   1.343   0.696  14.999 -0.3371  0.3989 -0.2152
  282MPD2    C2 4308   1.391   0.566  14.974  0.2406 -0.3209 -0.2868
  282MPD2    C3 4309   1.448   0.536  14.854 -0.5402  0.2850 -0.3437
  282MPD2    C4 4310   1.456   0.643  14.759 -0.7027 -0.2312 -0.2177
  282MPD2    C5 4311   1.389   0.759  14.780  0.3424  0.0889 -0.2735
  282MPD2     H 4312   1.401   0.498  15.058 -0.7076 -0.1513 -0.0289
  282MPD2    H1 4313   1.504   0.624  14.664  2.5804  0.2223  1.3871
  282MPD2    H2 4314   1.265   0.873  14.894 -0.5875 -1.7454  3.1114
  282MPD2    H3 4315   1.383   0.827  14.696  0.5437 -0.1110 -0.4498
  282MPD2     N 4316   1.503   0.406  14.823  0.0564  0.2273  0.2097
  282MPD2    H5 4317   1.496   0.339  14.900  0.1566  2.3985  2.1060
  282MPD2    N1 4318   1.318   0.745  15.127  0.1316 -0.1036 -0.5765
  282MPD2    H7 4319   1.326   0.680  15.204 -2.0577 -1.3698 -1.4293
  283TMC3    C1 4320   1.264   0.880  15.310 -0.3946 -0.3183 -0.1723
  283TMC3    C2 4321   1.308   0.996  15.376  0.4121  0.7425 -0.0573
  283TMC3    C3 4322   1.281   1.001  15.515 -0.3059  0.9969 -0.1405
  283TMC3    C4 4323   1.194   0.774  15.374 -0.8620  0.3485  0.0120
  283TMC3    C5 4324   1.180   0.781  15.511  0.0290  0.1185 -0.0032
  283TMC3    C6 4325   1.232   0.891  15.578 -0.0111 -0.2409 -0.2842
  283TMC3     C 4326   1.299   0.873  15.168 -0.3996  0.8743  0.0397
  283TMC3     O 4327   1.341   0.975  15.118  1.0901  0.5016  0.3455
  283TMC3     H 4328   1.363   1.075  15.326 -0.8641  1.4898 -0.2953
  283TMC3    H1 4329   1.145   0.701  15.310  0.9229 -2.0172  1.3422
  283TMC3    H2 4330   1.215   0.889  15.685 -2.8710  0.5897 -0.7253
  283TMC3    C7 4331   1.119   0.673  15.590 -0.5046  0.3561 -0.4377
  283TMC3    C8 4332   1.312   1.122  15.584 -0.0941  0.2305  0.1551
  283TMC3    O1 4333   1.117   0.690  15.714 -0.0379  0.8731 -0.8388
  283TMC3    O2 4334   1.292   1.125  15.706  0.1292  0.0776 -0.4572
  284MPD2     C 4335   0.088   4.026  12.069 -0.1852 -0.6960  0.3885
  284MPD2    C1 4336   0.059   3.998  11.937  0.7304  0.0487  0.7225
  284MPD2    C2 4337   4.717   3.890  11.904  0.2578 -0.1079  0.1357
  284MPD2    C3 4338   4.671   3.802  12.002 -0.6595  0.3531 -0.6020
  284MPD2    C4 4339   4.707   3.831  12.130  0.6566  0.4801 -0.0384
  284MPD2    C5 4340   0.051   3.937  12.161  0.3798  0.1922  0.7432
  284MPD2     H 4341   4.697   3.864  11.801 -1.3845 -0.1786  0.4735
  284MPD2    H1 4342   4.665   3.776  12.214  1.3682  0.0030  0.0052
  284MPD2    H2 4343   0.145   4.112  12.102 -0.6195  0.2572 -1.3539
  284MPD2    H3 4344   0.089   3.955  12.261 -1.4434  1.2910  1.2439
  284MPD2     N 4345   4.590   3.686  11.967 -0.0752  0.3231 -0.0917
  284MPD2    H5 4346   4.587   3.609  12.033  0.7175 -0.5408 -1.0647
  284MPD2    N1 4347   0.104   4.083  11.834 -0.3919 -0.1738  0.4963
  284MPD2    H7 4348   0.060   4.064  11.744  0.4605  0.3336 -0.0255
  285TMC3    C1 4349   0.188   4.271  11.715  0.0532  1.0710  0.8568
  285TMC3    C2 4350   0.123   4.225  11.606 -0.1996  0.6365 -0.3088
  285TMC3    C3 4351   0.134   4.288  11.483  0.0415 -0.5745  0.5521
  285TMC3    C4 4352   0.282   4.367  11.702  0.0308  0.1218  0.9282
  285TMC3    C5 4353   0.283   4.433  11.587  0.2958  0.1385  0.0214
  285TMC3    C6 4354   0.212   4.398  11.476 -0.9159 -0.5469  0.0054
  285TMC3     C 4355   0.185   4.193  11.841  0.0390 -0.3017  0.3231
  285TMC3     O 4356   0.238   4.245  11.938  0.1465  0.3151 -0.0911
  285TMC3     H 4357   0.071   4.130  11.612 -1.9884  1.5383 -1.2990
  285TMC3    H1 4358   0.334   4.398  11.792 -0.8126  1.0739  1.0916
  285TMC3    H2 4359   0.216   4.456  11.384 -0.2074  0.7323  0.8271
  285TMC3    C7 4360   0.350   4.559  11.572  0.0784 -1.1362  0.3092
  285TMC3    C8 4361   0.083   4.217  11.367  0.1900 -0.1247 -0.3185
  285TMC3    O1 4362   0.336   4.619  11.464 -0.4016 -0.5096  0.2848
  285TMC3    O2 4363   0.000   4.131  11.380 -0.1795  0.5392  0.5861
  286MPD2     C 4364   0.644   3.586   1.366 -0.3311  0.6507 -0.0555
  286MPD2    C1 4365   0.552   3.519   1.297  0.0481  0.1688  0.2298
  286MPD2    C2 4366   0.567   3.377   1.288  0.2192 -0.1699 -0.5356
  286MPD2    C3 4367   0.667   3.313   1.358 -0.3172  0.0536  0.2307
  286MPD2    C4 4368   0.759   3.384   1.428  0.1523 -0.7237 -0.6464
  286MPD2    C5 4369   0.747   3.520   1.433 -0.4381  0.0362 -0.4162
  286MPD2     H 4370   0.490   3.325   1.232 -1.1889 -1.0291  2.1728
  286MPD2    H1 4371   0.835   3.330   1.484  0.4287 -1.1740 -1.4483
  286MPD2    H2 4372   0.629   3.693   1.377  0.8376  0.9197 -1.0621
  286MPD2    H3 4373   0.806   3.583   1.497  0.7049 -0.9530 -0.4936
  286MPD2     N 4374   0.672   3.167   1.359  0.1908  0.3780 -0.3458
  286MPD2    H5 4375   0.738   3.128   1.426 -1.4538  0.0613  1.0947
  286MPD2    N1 4376   0.442   3.573   1.227 -0.0061 -0.2699 -0.0320
  286MPD2    H7 4377   0.382   3.510   1.174 -2.2661  0.5773  1.5505
  287TMC3    C1 4378   0.606   2.936   1.319  0.2110  1.2999  0.1213
  287TMC3    C2 4379   0.523   2.860   1.237  0.0584 -0.2595 -0.4051
  287TMC3    C3 4380   0.577   2.744   1.184 -0.2354  0.0615  0.0363
  287TMC3    C4 4381   0.729   2.893   1.355 -0.0863  0.3560  0.0229
  287TMC3    C5 4382   0.782   2.782   1.297 -0.5640  0.1020 -0.6887
  287TMC3    C6 4383   0.707   2.697   1.214 -0.6589 -0.5589 -0.3351
  287TMC3     C 4384   0.575   3.081   1.326 -0.4828  0.1996 -0.5549
  287TMC3     O 4385   0.464   3.117   1.286 -0.1397  0.3626 -0.3261
  287TMC3     H 4386   0.428   2.901   1.207 -0.4692  0.3037  2.0418
  287TMC3    H1 4387   0.785   2.955   1.424  2.1589  0.8671 -2.2744
  287TMC3    H2 4388   0.750   2.617   1.155 -0.8196  0.6138 -2.0434
  287TMC3    C7 4389   0.918   2.750   1.329 -0.7504  0.5523 -0.1155
  287TMC3    C8 4390   0.531   2.701   1.057 -0.4947 -0.1517 -0.6059
  287TMC3    O1 4391   0.992   2.833   1.378  0.2551  0.6194 -0.0833
  287TMC3    O2 4392   0.546   2.582   1.025 -0.2147 -0.0713  0.3880
  288TMC3    C1 4393   2.065   3.213  14.369 -0.0661 -0.9949  0.5545
  288TMC3    C2 4394   2.034   3.224  14.501  0.1958  0.2741  0.2739
  288TMC3    C3 4395   2.081   3.324  14.574  0.7362  0.4297 -0.8138
  288TMC3    C4 4396   2.160   3.300  14.308  0.1688 -0.3327  0.1117
  288TMC3    C5 4397   2.214   3.396  14.389 -1.0419  0.0027  0.6016
  288TMC3    C6 4398   2.176   3.408  14.520  0.2443 -0.0466 -0.0641
  288TMC3     C 4399   1.990   3.115  14.294 -0.3804  0.3759  0.2637
  288TMC3     O 4400   1.917   3.038  14.351 -0.6659 -0.0107  0.3665
  288TMC3     H 4401   1.947   3.169  14.536  0.8411 -0.6411  0.4088
  288TMC3    H1 4402   2.206   3.292  14.210 -2.9870 -0.8414 -1.3291
  288TMC3    H2 4403   2.212   3.493  14.578 -0.2549 -2.0052  3.0967
  288TMC3    C7 4404   2.328   3.459  14.333 -0.0578 -1.0663  0.5105
  288TMC3    C8 4405   1.997   3.388  14.677  0.8623  0.3755 -0.1868
  288TMC3    O1 4406   2.347   3.469  14.211  0.1236 -0.1675  0.2043
  288TMC3    O2 4407   1.972   3.508  14.677 -0.4077  0.4350  0.0764
  289MPD2     C 4408   2.043   2.248  14.405 -0.2964 -0.0731  0.0958
  289MPD2    C1 4409   2.001   2.367  14.352  0.1419  0.4869 -0.2119
  289MPD2    C2 4410   1.868   2.386  14.327 -0.4800  0.3232  0.3038
  289MPD2    C3 4411   1.777   2.285  14.346 -0.1418  0.4517 -0.0452
  289MPD2    C4 4412   1.816   2.167  14.398 -0.0571  0.0814 -0.3303
  289MPD2    C5 4413   1.951   2.148  14.423 -0.3221  0.7761  0.1307
  289MPD2     H 4414   1.831   2.484  14.298  0.7846 -0.9039 -5.2520
  289MPD2    H1 4415   1.749   2.082  14.408  0.3263 -0.0727  1.0155
  289MPD2    H2 4416   2.147   2.241  14.432 -0.6292 -1.0513  1.1464
  289MPD2    H3 4417   1.980   2.054  14.468  1.4920  0.5406 -1.4882
  289MPD2     N 4418   1.637   2.297  14.322  0.1716  0.2968 -0.1082
  289MPD2    H5 4419   1.586   2.209  14.323 -2.1053  1.6571  1.8975
  289MPD2    N1 4420   2.102   2.469  14.334  0.0602  0.4424  0.1267
  289MPD2    H7 4421   2.197   2.453  14.365 -0.1475  0.4786  0.7774
  290TMC3    C1 4422   1.435   2.414  14.276  0.1453 -0.5208  0.4432
  290TMC3    C2 4423   1.381   2.521  14.214 -0.1395  0.2378  0.1517
  290TMC3    C3 4424   1.258   2.508  14.155 -0.3935 -0.4583 -0.3162
  290TMC3    C4 4425   1.361   2.296  14.294  0.2942 -0.2813  0.0099
  290TMC3    C5 4426   1.243   2.286  14.228  0.4403 -0.3108 -0.3867
  290TMC3    C6 4427   1.190   2.392  14.152  0.1896  0.5174 -0.3096
  290TMC3     C 4428   1.572   2.416  14.304  0.0568  0.3757  0.4934
  290TMC3     O 4429   1.614   2.528  14.327 -0.5691 -0.1613 -0.4304
  290TMC3     H 4430   1.437   2.613  14.208 -0.9210  0.7042  0.0592
  290TMC3    H1 4431   1.386   2.220  14.368  1.0201 -2.7946 -2.7823
  290TMC3    H2 4432   1.099   2.381  14.094 -1.3134  0.3617  2.1061
  290TMC3    C7 4433   1.144   2.181  14.265  0.1461  0.5178 -0.3570
  290TMC3    C8 4434   1.185   2.625  14.115  0.5178  0.8721 -0.2987
  290TMC3    O1 4435   1.031   2.225  14.277 -0.2602  0.3467  0.2825
  290TMC3    O2 4436   1.091   2.615  14.034  0.2213 -0.1841 -0.2472
  291MPD2     C 4437   1.279   2.677   0.139  0.5772 -0.6881 -0.2391
  291MPD2    C1 4438   1.360   2.600   0.220 -0.5161 -0.1026  0.2239
  291MPD2    C2 4439   1.464   2.671   0.276 -0.0073 -0.2455  0.0240
  291MPD2    C3 4440   1.496   2.798   0.233 -0.0892 -0.7365  0.7050
  291MPD2    C4 4441   1.426   2.863   0.137  0.2587 -0.7624  0.5272
  291MPD2    C5 4442   1.319   2.794   0.087 -0.9746 -0.1896 -0.2919
  291MPD2     H 4443   1.512   2.625   0.361  0.7667 -1.2011 -0.9359
  291MPD2    H1 4444   1.453   2.960   0.097  0.5128 -1.2496 -0.4967
  291MPD2    H2 4445   1.191   2.639   0.089  0.0809 -0.7054  0.6471
  291MPD2    H3 4446   1.272   2.833  17.743  1.0891  0.3096 -1.1572
  291MPD2     N 4447   1.609   2.873   0.279  0.0329 -0.0656 -0.4957
  291MPD2    H5 4448   1.616   2.966   0.240 -0.2700  0.9553  1.8876
  291MPD2    N1 4449   1.327   2.468   0.263  0.0114 -0.4125 -0.1284
  291MPD2    H7 4450   1.405   2.429   0.315  0.5349  0.0894 -0.5434
  292TMC3    C1 4451   1.210   2.263   0.273 -0.5594  0.1414 -0.1310
  292TMC3    C2 4452   1.267   2.234   0.391  0.4381 -0.5062  0.8236
  292TMC3    C3 4453   1.217   2.118   0.457 -0.1088 -0.0189 -0.0028
  292TMC3    C4 4454   1.104   2.197   0.223  0.0559  0.5577  0.4685
  292TMC3    C5 4455   1.065   2.079   0.280  0.0048  0.1078 -0.3889
  292TMC3    C6 4456   1.131   2.035   0.388  0.6751  0.1324  0.8878
  292TMC3     C 4457   1.210   2.403   0.232  0.1880 -0.7804  0.5625
  292TMC3     O 4458   1.119   2.430   0.160  0.0137 -0.0796  0.6930
  292TMC3     H 4459   1.339   2.291   0.448  0.0940 -0.7896  1.5414
  292TMC3    H1 4460   1.046   2.230   0.138 -3.0960 -2.7192  1.3207
  292TMC3    H2 4461   1.087   1.945   0.430 -0.7895  0.2372 -0.4465
  292TMC3    C7 4462   1.030   1.973   0.195 -0.3440 -0.5530 -0.0912
  292TMC3    C8 4463   1.286   2.058   0.574  1.0608 -0.4452 -0.6024
  292TMC3    O1 4464   1.109   1.882   0.198  0.1631  0.7664 -0.2020
  292TMC3    O2 4465   1.398   2.101   0.598 -0.1602 -0.2353 -0.2402
  293MPD2     C 4466   2.938   3.012  12.765 -0.3949  0.3294 -0.3767
  293MPD2    C1 4467   2.944   3.149  12.749 -0.4549 -0.0945  0.0073
  293MPD2    C2 4468   3.008   3.230  12.839  0.1299  0.0903 -0.3002
  293MPD2    C3 4469   3.059   3.175  12.952  0.2906 -0.5510 -0.5805
  293MPD2    C4 4470   3.057   3.043  12.974  0.5666 -0.3353 -0.3236
  293MPD2    C5 4471   2.996   2.960  12.883  0.5068  0.3289 -0.0110
  293MPD2     H 4472   3.005   3.338  12.827  3.1845  0.5167  2.7832
  293MPD2    H1 4473   3.095   2.998  13.065 -2.2125 -0.4575  0.7849
  293MPD2    H2 4474   2.898   2.945  12.689 -2.1144 -0.2293  1.0389
  293MPD2    H3 4475   2.985   2.854  12.900  0.9475  0.8452  3.6505
  293MPD2     N 4476   3.131   3.257  13.048 -0.1040  0.0735  0.2703
  293MPD2    H5 4477   3.148   3.354  13.024 -0.3619  0.0128 -0.1597
  293MPD2    N1 4478   2.888   3.205  12.631 -0.4466 -0.0568  0.1346
  293MPD2    H7 4479   2.828   3.144  12.577 -0.8172  0.4518 -0.0354
  294TMC3    C1 4480   2.809   3.350  12.479  0.1799  0.0799 -0.4782
  294TMC3    C2 4481   2.683   3.296  12.495 -0.1400 -0.1061 -0.0774
  294TMC3    C3 4482   2.587   3.354  12.424 -0.4109 -0.1691  0.6146
  294TMC3    C4 4483   2.835   3.443  12.382 -0.5423 -0.2775  0.1673
  294TMC3    C5 4484   2.737   3.478  12.297  0.5081 -0.0964 -0.3458
  294TMC3    C6 4485   2.608   3.442  12.328  0.7893 -0.0131 -0.0255
  294TMC3     C 4486   2.906   3.328  12.582 -0.1592  0.1106 -0.0757
  294TMC3     O 4487   2.988   3.415  12.612  0.4967 -0.0669 -0.1331
  294TMC3     H 4488   2.657   3.228  12.576 -3.1735  0.1894 -0.8102
  294TMC3    H1 4489   2.938   3.472  12.365 -0.6152  0.8661  1.7223
  294TMC3    H2 4490   2.528   3.471  12.260  0.4358 -1.7952 -0.3897
  294TMC3    C7 4491   2.769   3.528  12.166 -0.1778  0.2539  0.3658
  294TMC3    C8 4492   2.463   3.286  12.424  0.1078 -0.0550 -0.1329
  294TMC3    O1 4493   2.695   3.604  12.107  0.9185  0.1901 -0.1952
  294TMC3    O2 4494   2.362   3.351  12.408  0.0626 -0.1826 -0.1831
  295MPD2     C 4495   4.271   2.615   0.802  0.5242 -0.0735  0.2409
  295MPD2    C1 4496   4.139   2.607   0.758  0.1040  0.0991 -0.3461
  295MPD2    C2 4497   4.043   2.534   0.824 -0.0289 -0.6874  0.4711
  295MPD2    C3 4498   4.080   2.465   0.946 -0.1167 -0.3510  0.0355
  295MPD2    C4 4499   4.211   2.474   0.985  0.2983  0.3503  0.8509
  295MPD2    C5 4500   4.302   2.541   0.914 -0.1083  0.4700  0.2730
  295MPD2     H 4501   3.943   2.553   0.787  0.9433 -1.4249 -2.6082
  295MPD2    H1 4502   4.242   2.430   1.079  0.4579 -0.1179  0.5800
  295MPD2    H2 4503   4.350   2.678   0.763  2.9032 -1.9742  1.9409
  295MPD2    H3 4504   4.401   2.523   0.952  0.7380 -0.6930 -2.4965
  295MPD2     N 4505   3.981   2.411   1.037  0.5128  0.3598 -0.3611
  295MPD2    H5 4506   4.020   2.374   1.123  0.1422 -1.1283 -0.8482
  295MPD2    N1 4507   4.089   2.657   0.631 -1.0116  0.1905 -0.8157
  295MPD2    H7 4508   3.990   2.661   0.612 -1.3749  2.3048  1.4684
  296TMC3    C1 4509   3.779   2.341   1.135 -0.6356  0.1462  0.3773
  296TMC3    C2 4510   3.653   2.391   1.165  0.0143 -0.4083  0.9321
  296TMC3    C3 4511   3.569   2.308   1.246  0.0026  0.2165  0.9345
  296TMC3    C4 4512   3.820   2.220   1.188  0.0284 -0.7102  0.5975
  296TMC3    C5 4513   3.740   2.141   1.267 -0.3948 -0.2219  0.3606
  296TMC3    C6 4514   3.609   2.185   1.296  0.5586 -0.4314  0.3419
  296TMC3     C 4515   3.847   2.397   1.020 -0.0389 -0.4555 -0.3542
  296TMC3     O 4516   3.773   2.430   0.927  0.1331  0.3634  0.5055
  296TMC3     H 4517   3.621   2.479   1.111 -1.1795 -2.0197 -0.9417
  296TMC3    H1 4518   3.911   2.177   1.146  0.1438  1.4333 -1.3374
  296TMC3    H2 4519   3.546   2.124   1.359 -0.5013  1.6924  1.3526
  296TMC3    C7 4520   3.793   2.015   1.316 -0.0952  0.9757  0.0104
  296TMC3    C8 4521   3.426   2.323   1.250 -0.1823 -0.0771 -0.3114
  296TMC3    O1 4522   3.899   1.975   1.266  0.2391  0.3542  0.4279
  296TMC3    O2 4523   3.365   2.246   1.329 -0.1338 -0.5556  0.5886
  297MPD2     C 4524   0.752   4.189  16.560  0.4124 -0.0647 -0.9108
  297MPD2    C1 4525   0.726   4.200  16.425 -0.2129  0.3135  0.0091
  297MPD2    C2 4526   0.770   4.310  16.356  0.0169 -0.2855  0.3440
  297MPD2    C3 4527   0.829   4.418  16.424  0.0656  0.2756 -0.3758
  297MPD2    C4 4528   0.877   4.395  16.553 -0.0230  0.1685  0.1167
  297MPD2    C5 4529   0.833   4.278  16.623  0.3470 -0.0081 -0.3876
  297MPD2     H 4530   0.743   4.321  16.251  1.8665 -0.2760 -0.1339
  297MPD2    H1 4531   0.940   4.466  16.606 -0.7103 -0.0602  1.2221
  297MPD2    H2 4532   0.717   4.102  16.615  1.7603 -0.3370 -0.4889
  297MPD2    H3 4533   0.853   4.258  16.727 -0.1072  1.0503 -0.0935
  297MPD2     N 4534   0.862   4.533  16.350 -0.2542  0.0529  0.1143
  297MPD2    H5 4535   0.837   4.538  16.252  2.2620  1.5035 -0.4339
  297MPD2    N1 4536   0.643   4.115  16.348  0.0613 -0.1837  0.5068
  297MPD2    H7 4537   0.648   4.140  16.249  0.4448 -1.3790  0.2233
  298TMC3    C1 4538   0.480   3.951  16.298 -0.5550  0.3229 -0.5116
  298TMC3    C2 4539   0.508   3.957  16.169  0.2795 -0.1200  0.4617
  298TMC3    C3 4540   0.413   3.943  16.075  0.1057 -0.4054  0.2357
  298TMC3    C4 4541   0.352   3.944  16.329 -0.7808  0.3607 -0.2377
  298TMC3    C5 4542   0.255   3.922  16.239  0.4916 -0.2909  0.1038
  298TMC3    C6 4543   0.284   3.920  16.104 -0.0818  0.5592 -0.5358
  298TMC3     C 4544   0.561   4.017  16.395  0.7009 -0.5281 -0.8329
  298TMC3     O 4545   0.535   3.996  16.509  0.3148  0.0984  0.5412
  298TMC3     H 4546   0.611   3.978  16.145  0.4410 -2.9501 -1.2921
  298TMC3    H1 4547   0.329   3.954  16.435 -2.0802 -1.1439 -0.3925
  298TMC3    H2 4548   0.208   3.895  16.031  1.2767  1.2278 -2.1669
  298TMC3    C7 4549   0.133   3.991  16.265  0.9019  0.0688  0.1406
  298TMC3    C8 4550   0.462   3.952  15.936 -0.2786  0.7597 -0.4871
  298TMC3    O1 4551   0.130   4.063  16.362  0.2410  0.1549 -0.2450
  298TMC3    O2 4552   0.587   3.963  15.923  0.1958  0.0530  0.4589
  299MPD2     C 4553   0.751   3.198  10.611  0.2660 -0.4986 -0.0958
  299MPD2    C1 4554   0.791   3.312  10.543  0.5268  0.5218 -0.2781
  299MPD2    C2 4555   0.736   3.337  10.417  0.3493  0.1933  0.1447
  299MPD2    C3 4556   0.629   3.259  10.371 -0.0519  0.2881  0.3801
  299MPD2    C4 4557   0.589   3.149  10.444  0.0099  0.5221 -0.3227
  299MPD2    C5 4558   0.646   3.122  10.567  0.7500  0.0583 -0.1913
  299MPD2     H 4559   0.772   3.423  10.361  1.5262  0.5842  1.5097
  299MPD2    H1 4560   0.507   3.090  10.404  0.4914 -1.0338  0.9683
  299MPD2    H2 4561   0.796   3.177  10.707  0.8091 -1.1101 -0.4841
  299MPD2    H3 4562   0.619   3.037  10.628 -0.5084  0.8005  0.2660
  299MPD2     N 4563   0.557   3.283  10.252 -0.0833 -0.0245  0.1405
  299MPD2    H5 4564   0.475   3.224  10.239 -0.9034  1.1967 -0.1988
  299MPD2    N1 4565   0.892   3.392  10.603  0.1100 -0.1617 -0.3839
  299MPD2    H7 4566   0.928   3.366  10.694  0.3343 -0.1419 -0.4673
  300TMC3    C1 4567   0.513   3.378  10.038  0.6831 -0.3473 -0.5814
  300TMC3    C2 4568   0.515   3.503   9.982 -0.7682 -0.0188  0.1774
  300TMC3    C3 4569   0.401   3.566   9.942 -0.2308  0.5645  0.4939
  300TMC3    C4 4570   0.393   3.310  10.037  0.0643 -0.7115  0.3530
  300TMC3    C5 4571   0.276   3.370   9.998 -0.3869  0.4241 -0.1786
  300TMC3    C6 4572   0.279   3.498   9.956  0.1900 -0.6300 -0.0988
  300TMC3     C 4573   0.601   3.367  10.150  0.8272 -0.6721  0.2656
  300TMC3     O 4574   0.711   3.424  10.146 -0.3424 -0.0297 -0.1587
  300TMC3     H 4575   0.611   3.551   9.989 -1.0219  0.3963  0.7124
  300TMC3    H1 4576   0.398   3.208  10.073 -0.8268  0.1598  2.9234
  300TMC3    H2 4577   0.179   3.538   9.938  0.9591  1.3479 -0.0103
  300TMC3    C7 4578   0.159   3.305  10.043  0.1701  0.2603 -0.6333
  300TMC3    C8 4579   0.404   3.710   9.942 -0.1328  1.1349  0.0348
  300TMC3    O1 4580   0.166   3.186  10.017 -0.2067 -0.7477 -0.2524
  300TMC3    O2 4581   0.507   3.758   9.990 -0.9111 -0.7508 -0.0503
  301MPD2     C 4582   3.677   0.901   1.574 -0.1650 -0.0830  0.1981
  301MPD2    C1 4583   3.574   0.859   1.485 -0.0490  0.1457 -0.3224
  301MPD2    C2 4584   3.566   0.731   1.443 -0.1035 -0.2974 -0.2947
  301MPD2    C3 4585   3.671   0.641   1.470 -1.1088 -0.0892  0.4029
  301MPD2    C4 4586   3.769   0.682   1.559 -0.4650 -0.4233  0.0606
  301MPD2    C5 4587   3.767   0.807   1.615  0.5524  0.5365 -0.4636
  301MPD2     H 4588   3.476   0.703   1.391 -0.5004  0.8730 -0.2361
  301MPD2    H1 4589   3.849   0.615   1.585 -1.5574 -1.5942  0.3902
  301MPD2    H2 4590   3.693   1.004   1.604 -1.1718  0.5480 -1.4263
  301MPD2    H3 4591   3.837   0.831   1.695  0.2221 -1.2573  0.3555
  301MPD2     N 4592   3.684   0.522   1.403 -0.1452  0.7670  0.0354
  301MPD2    H5 4593   3.757   0.458   1.433 -1.6066 -1.2240 -0.6525
  301MPD2    N1 4594   3.483   0.949   1.422 -0.1869 -0.2390 -0.3780
  301MPD2    H7 4595   3.418   0.916   1.352  1.8978 -1.2107 -1.8393
  302TMC3    C1 4596   3.633   0.364   1.229 -0.0397 -0.1731 -0.6217
  302TMC3    C2 4597   3.704   0.264   1.292  0.2639  0.4474 -0.1547
  302TMC3    C3 4598   3.730   0.152   1.222  0.0339  0.7074 -0.2897
  302TMC3    C4 4599   3.565   0.343   1.114  1.2006 -0.0870 -0.5866
  302TMC3    C5 4600   3.582   0.223   1.053 -0.1624  0.1684  0.4133
  302TMC3    C6 4601   3.672   0.131   1.102 -0.0630  0.0249 -0.9231
  302TMC3     C 4602   3.605   0.490   1.297 -0.5659 -0.4334 -0.9303
  302TMC3     O 4603   3.497   0.537   1.253  0.5097 -0.6793 -0.4902
  302TMC3     H 4604   3.756   0.289   1.384 -2.1601 -2.0012  1.8918
  302TMC3    H1 4605   3.516   0.419   1.054  3.9059  1.5827 -0.6572
  302TMC3    H2 4606   3.690   0.040   1.046  2.6346  0.8518 -1.4084
  302TMC3    C7 4607   3.541   0.203   0.916 -0.3440  0.6457  0.1292
  302TMC3    C8 4608   3.807   0.050   1.279  0.5286  0.4147 -0.3338
  302TMC3    O1 4609   3.603   0.125   0.843  1.0254  0.2614 -0.4313
  302TMC3    O2 4610   3.804   4.677   1.222 -0.2047 -0.4161 -0.6157
  303MPD2     C 4611   3.517   3.757  10.718 -0.3903 -0.1398 -0.2685
  303MPD2    C1 4612   3.422   3.658  10.718 -0.2526 -0.1785 -0.5019
  303MPD2    C2 4613   3.409   3.592  10.601  0.2026 -0.1332 -0.7874
  303MPD2    C3 4614   3.486   3.622  10.484  0.2453  0.3010  0.2957
  303MPD2    C4 4615   3.589   3.718  10.495  0.7901 -0.0750 -0.6474
  303MPD2    C5 4616   3.594   3.794  10.611 -0.0500 -0.1695  0.4734
  303MPD2     H 4617   3.333   3.515  10.590 -1.3706  1.1273  1.2404
  303MPD2    H1 4618   3.635   3.749  10.402  0.6938 -1.0396 -1.0140
  303MPD2    H2 4619   3.531   3.822  10.803  1.7385 -1.1503  0.1487
  303MPD2    H3 4620   3.666   3.874  10.612 -0.6714  0.4089 -0.9408
  303MPD2     N 4621   3.466   3.556  10.359 -0.2970  0.4180 -0.2898
  303MPD2    H5 4622   3.516   3.600  10.283  1.8703 -2.2639 -0.4125
  303MPD2    N1 4623   3.332   3.652  10.836  0.4557 -0.3174  0.4079
  303MPD2    H7 4624   3.343   3.720  10.910 -2.2389 -1.5193  1.8805
  304TMC3    C1 4625   3.168   3.583  10.981  0.0574 -0.0785 -0.7463
  304TMC3    C2 4626   3.097   3.699  10.970  0.2884 -0.5450 -0.0414
  304TMC3    C3 4627   2.971   3.708  11.018  0.0330  0.2888 -0.3717
  304TMC3    C4 4628   3.116   3.473  11.046  0.2052  0.0595 -0.4004
  304TMC3    C5 4629   2.984   3.483  11.081 -0.4071 -0.8813 -0.9260
  304TMC3    C6 4630   2.910   3.602  11.080  0.0159 -0.1270  0.0658
  304TMC3     C 4631   3.245   3.550  10.862 -0.4130  0.0329 -0.1743
  304TMC3     O 4632   3.229   3.438  10.815 -0.8441 -0.5677 -0.5875
  304TMC3     H 4633   3.133   3.779  10.907 -0.9654 -0.6743 -0.9419
  304TMC3    H1 4634   3.156   3.372  11.039 -1.2244 -0.4942 -0.5714
  304TMC3    H2 4635   2.810   3.610  11.122 -0.9951 -3.4126 -1.6897
  304TMC3    C7 4636   2.891   3.371  11.076 -0.4053  0.0740  0.5032
  304TMC3    C8 4637   2.879   3.769  10.921 -0.3025  0.3941  0.3096
  304TMC3    O1 4638   2.772   3.399  11.043  0.4089  0.8066  0.1032
  304TMC3    O2 4639   2.931   3.862  10.864 -0.1062 -0.3222 -0.1980
  305MPD2     C 4640   1.612   1.066  14.187  0.2133 -0.0012 -0.1860
  305MPD2    C1 4641   1.689   0.959  14.229  0.3142 -0.0739 -0.2344
  305MPD2    C2 4642   1.700   0.849  14.146 -0.0918  0.2350 -0.1339
  305MPD2    C3 4643   1.631   0.849  14.021 -0.4823  0.8913 -0.5357
  305MPD2    C4 4644   1.560   0.963  13.982  0.4234  0.2825 -0.3118
  305MPD2    C5 4645   1.550   1.073  14.062  0.6608  0.0764 -0.2068
  305MPD2     H 4646   1.757   0.760  14.168  0.1786  0.3987 -0.1652
  305MPD2    H1 4647   1.502   0.970  13.891  1.3318 -0.0615 -0.9280
  305MPD2    H2 4648   1.596   1.158  14.243 -1.1229 -0.4067  0.0864
  305MPD2    H3 4649   1.488   1.159  14.037 -0.4762 -1.1694 -1.6837
  305MPD2     N 4650   1.652   0.742  13.937 -0.6118  0.3954 -0.0454
  305MPD2    H5 4651   1.721   0.676  13.972 -0.1865  1.4284  1.0674
  305MPD2    N1 4652   1.743   0.962  14.357 -0.7935 -0.1988  0.5336
  305MPD2    H7 4653   1.724   1.046  14.411  0.5923  0.1552  0.4680
  306TMC3    C1 4654   1.898   0.915  14.532  0.6133 -0.2569  0.5093
  306TMC3    C2 4655   2.021   0.866  14.571 -1.0761 -0.2096  0.9676
  306TMC3    C3 4656   2.049   0.876  14.708  0.4275  0.0588  0.2586
  306TMC3    C4 4657   1.819   0.979  14.630 -0.5034 -0.2856  0.4421
  306TMC3    C5 4658   1.853   0.975  14.758 -0.3567  0.7513  0.1195
  306TMC3    C6 4659   1.972   0.931  14.805 -0.5901 -0.0772  0.7731
  306TMC3     C 4660   1.847   0.884  14.402  0.2799  0.5695  0.0659
  306TMC3     O 4661   1.913   0.804  14.336  0.2441  0.0141  0.9657
  306TMC3     H 4662   2.082   0.812  14.499 -0.2926  1.8216  0.1092
  306TMC3    H1 4663   1.712   0.991  14.616 -0.3419  1.5567  0.8033
  306TMC3    H2 4664   1.988   0.911  14.911 -1.1440 -0.5165  0.7717
  306TMC3    C7 4665   1.769   1.038  14.860 -0.2001  0.2656 -0.9140
  306TMC3    C8 4666   2.165   0.801  14.742 -0.3622 -0.0793 -1.3129
  306TMC3    O1 4667   1.647   1.022  14.847 -0.3858 -0.4546  0.1942
  306TMC3    O2 4668   2.222   0.740  14.656  0.2130 -0.6151 -0.0598
  307MPD2     C 4669   4.616   3.762   0.452  0.3529 -0.3562  0.2057
  307MPD2    C1 4670   4.597   3.895   0.414  0.3513 -0.0664 -0.3198
  307MPD2    C2 4671   4.533   3.988   0.493 -0.2289  0.6354 -0.2960
  307MPD2    C3 4672   4.497   3.955   0.624 -0.0646  0.3635  0.0245
  307MPD2    C4 4673   4.524   3.829   0.673  0.5020  0.5264  0.1188
  307MPD2    C5 4674   4.589   3.739   0.587  0.3629  0.9760  0.1581
  307MPD2     H 4675   4.496   4.081   0.450  1.2901  1.6162  0.5256
  307MPD2    H1 4676   4.502   3.802   0.776 -0.9285  1.4736  0.0584
  307MPD2    H2 4677   4.661   3.688   0.387  0.5922  1.3924 -1.6027
  307MPD2    H3 4678   4.606   3.638   0.623  0.7268  0.4038 -1.6467
  307MPD2     N 4679   4.434   4.052   0.700  0.2063 -0.0102 -0.1124
  307MPD2    H5 4680   4.419   4.146   0.665  1.4031  0.4057  0.4971
  307MPD2    N1 4681   4.617   3.943   0.280 -0.8624  0.0650 -0.3180
  307MPD2    H7 4682   4.591   4.039   0.262 -0.9514 -0.4523 -3.0415
  308TMC3    C1 4683   4.058   4.160   0.871 -0.3172 -0.6201  0.5615
  308TMC3    C2 4684   4.081   4.293   0.838 -0.6498 -0.2431 -0.0279
  308TMC3    C3 4685   4.199   4.340   0.834 -0.3637  0.0034  0.4546
  308TMC3    C4 4686   4.163   4.085   0.896  0.1488  0.2864  0.5257
  308TMC3    C5 4687   4.287   4.130   0.867 -0.9073 -0.6123  0.0276
  308TMC3    C6 4688   4.312   4.262   0.843 -0.6727 -0.2589  1.0192
  308TMC3     C 4689   3.934   4.104   0.845  0.6692 -0.6108  0.0916
  308TMC3     O 4690   3.907   3.985   0.875  0.0365  0.0579  0.1935
  308TMC3     H 4691   4.002   4.367   0.828  1.9172  2.3117 -1.3959
  308TMC3    H1 4692   4.140   3.980   0.912 -1.1265  0.4097 -0.5586
  308TMC3    H2 4693   4.412   4.294   0.816  0.2467 -0.3021  4.4285
  308TMC3    C7 4694   4.381   4.028   0.823 -0.6486 -0.5358  0.0910
  308TMC3    C8 4695   4.217   4.470   0.768  0.1955  0.4811  0.1936
  308TMC3    O1 4696   4.388   3.936   0.899 -0.4371  0.5892 -0.1008
  308TMC3    O2 4697   4.144   4.496   0.674 -0.0798 -0.3301  0.1753
  309MPD2     C 4698   3.588   4.248  17.232 -0.0150  0.0036 -0.3036
  309MPD2    C1 4699   3.577   4.315  17.117  0.1310  0.4098 -0.0309
  309MPD2    C2 4700   3.482   4.415  17.110 -0.2040  0.1012 -0.1024
  309MPD2    C3 4701   3.391   4.445  17.213 -0.5433 -0.7826 -0.2686
  309MPD2    C4 4702   3.406   4.378  17.328 -0.0271 -0.0596  0.6712
  309MPD2    C5 4703   3.501   4.276  17.330 -0.1800 -0.2695 -0.8402
  309MPD2     H 4704   3.473   4.475  17.020 -0.7814 -0.2316 -0.2669
  309MPD2    H1 4705   3.347   4.391  17.418  1.7985 -0.4849  1.9493
  309MPD2    H2 4706   3.644   4.156  17.246  0.1634  0.2884  0.9312
  309MPD2    H3 4707   3.520   4.218  17.420  0.4831 -0.3013 -1.0025
  309MPD2     N 4708   3.286   4.539  17.207  0.0500  0.7242 -0.4770
  309MPD2    H5 4709   3.228   4.540  17.290 -1.6144 -0.7181 -1.6164
  309MPD2    N1 4710   3.669   4.293  17.012  0.1652 -0.1490 -0.0536
  309MPD2    H7 4711   3.640   4.325  16.920 -0.0207  1.4822  0.5760
  310TMC3    C1 4712   3.878   4.255  16.905  0.4591  0.0203  0.1783
  310TMC3    C2 4713   3.842   4.357  16.819  0.3182  0.4501 -0.2100
  310TMC3    C3 4714   3.872   4.346  16.690  0.1976  0.8886  0.0478
  310TMC3    C4 4715   3.963   4.157  16.873 -0.2499 -0.4027  0.2315
  310TMC3    C5 4716   4.003   4.154  16.743 -0.1223 -0.3319 -0.1017
  310TMC3    C6 4717   3.952   4.242  16.648  0.4122 -0.0607  0.1208
  310TMC3     C 4718   3.790   4.226  17.017 -0.2543  0.1197  1.0110
  310TMC3     O 4719   3.822   4.142  17.100 -0.1283 -0.1304 -0.6358
  310TMC3     H 4720   3.778   4.437  16.857 -1.2246 -0.8771 -0.0053
  310TMC3    H1 4721   3.976   4.071  16.939  0.1705  0.9512  1.9337
  310TMC3    H2 4722   3.970   4.232  16.542 -1.3365 -1.0523 -0.0782
  310TMC3    C7 4723   4.066   4.033  16.683 -0.0354 -0.4126 -0.0048
  310TMC3    C8 4724   3.810   4.421  16.585  0.6176  0.7311  0.5372
  310TMC3    O1 4725   4.053   4.013  16.561 -0.7208 -0.0544 -0.3686
  310TMC3    O2 4726   3.696   4.454  16.600 -0.3977 -0.1021  0.5352
  311MPD2     C 4727   0.881   4.534  12.833  0.4763  0.3144 -0.0953
  311MPD2    C1 4728   0.857   4.668  12.839 -0.2068  0.4022  0.3870
  311MPD2    C2 4729   0.729   4.706  12.868  0.0864 -0.5397 -0.1674
  311MPD2    C3 4730   0.632   4.620  12.896  0.3053  0.5572  0.0299
  311MPD2    C4 4731   0.660   4.490  12.899  0.5383  0.9158  0.4103
  311MPD2    C5 4732   0.780   4.446  12.867 -0.4954 -0.6825  0.2011
  311MPD2     H 4733   0.709   0.072  12.894  1.5527  0.0423 -1.3097
  311MPD2    H1 4734   0.590   4.416  12.935  0.3594 -0.0689 -1.9727
  311MPD2    H2 4735   0.976   4.485  12.818 -1.0617 -2.3754 -1.0679
  311MPD2    H3 4736   0.798   4.339  12.860  2.6467 -0.1418 -0.1227
  311MPD2     N 4737   0.504   4.674  12.927  0.3688 -0.3574  0.3318
  311MPD2    H5 4738   0.498   0.038  12.912  0.8152 -0.4824 -0.7316
  311MPD2    N1 4739   0.956   0.020  12.811  0.5292 -0.6601 -0.1891
  311MPD2    H7 4740   1.048   4.718  12.796  0.0052 -1.8176 -0.4163
  312TMC3    C1 4741   0.297   4.695  13.022 -0.3900 -1.1978  0.0702
  312TMC3    C2 4742   0.170   4.692  12.957 -0.3895 -0.6726  0.9223
  312TMC3    C3 4743   0.115   0.083  12.948  1.1037 -0.4030 -0.0660
  312TMC3    C4 4744   0.338   0.066  13.095  0.1114 -0.5233  0.1916
  312TMC3    C5 4745   0.255   0.177  13.095  0.5688 -0.3323 -0.0784
  312TMC3    C6 4746   0.144   0.196  13.015  0.2175  0.0258 -0.1388
  312TMC3     C 4747   0.399   4.607  12.973  0.6338 -0.2724 -0.1117
  312TMC3     O 4748   0.361   4.488  12.975  0.0667 -0.0474  0.2891
  312TMC3     H 4749   0.150   4.606  12.895 -0.8087 -1.0782  1.6133
  312TMC3    H1 4750   0.444   0.068  13.115  0.2688  1.3314 -0.8153
  312TMC3    H2 4751   0.097   0.294  13.017  0.1899 -0.0109  1.0446
  312TMC3    C7 4752   0.331   0.291  13.151  0.0255 -0.2605 -0.4825
  312TMC3    C8 4753   0.001   0.093  12.852 -0.3638  0.0607  0.1202
  312TMC3    O1 4754   0.316   0.398  13.096 -0.4817 -0.8688  0.1855
  312TMC3    O2 4755   4.694   4.729  12.807  0.2586  0.0454 -0.1423
  313MPD2     C 4756   0.032   3.842  10.325 -0.9311 -0.4064 -0.1903
  313MPD2    C1 4757   4.643   3.827  10.358 -0.5760 -0.4251  0.6854
  313MPD2    C2 4758   4.556   3.754  10.282 -0.2937  0.1472 -0.5300
  313MPD2    C3 4759   4.601   3.689  10.171 -0.0284  0.4126 -0.4945
  313MPD2    C4 4760   4.735   3.702  10.132 -0.0451 -0.0601  0.3568
  313MPD2    C5 4761   0.078   3.784  10.211 -0.4234 -0.0548  0.7289
  313MPD2     H 4762   4.458   3.724  10.318 -0.7072  2.2904  0.0902
  313MPD2    H1 4763   0.046   3.650  10.050  0.7521 -0.0341  0.8058
  313MPD2    H2 4764   0.108   3.904  10.371 -1.3197 -0.3470  0.3716
  313MPD2    H3 4765   0.184   3.795  10.193 -0.6847  1.4285  0.1514
  313MPD2     N 4766   4.509   3.612  10.095  0.1162 -0.1100  0.2189
  313MPD2    H5 4767   4.421   3.605  10.145  0.5014 -1.9966  0.6630
  313MPD2    N1 4768   4.584   3.898  10.471  0.0067  0.7233  0.1898
  313MPD2    H7 4769   4.482   3.904  10.473 -0.1025 -1.6641  2.1786
  314TMC3    C1 4770   4.591   4.100  10.587 -0.5957  0.3642 -0.1372
  314TMC3    C2 4771   4.690   4.188  10.587  0.2193  0.4645  0.5528
  314TMC3    C3 4772   4.661   4.306  10.527  0.3183  0.3540 -0.4155
  314TMC3    C4 4773   4.473   4.130  10.526 -0.2235 -0.0163  0.3637
  314TMC3    C5 4774   4.444   4.251  10.472  0.2780  0.0049  0.1842
  314TMC3    C6 4775   4.549   4.340  10.460 -0.8811 -0.0219 -0.3032
  314TMC3     C 4776   4.651   3.965  10.571  0.3647  0.2155  0.4835
  314TMC3     O 4777   0.033   3.951  10.598 -0.9494 -0.9332  0.9212
  314TMC3     H 4778   0.052   4.176  10.629  1.0186 -1.4495 -1.9304
  314TMC3    H1 4779   4.393   4.057  10.521  0.4871 -0.8142  0.5619
  314TMC3    H2 4780   4.533   4.442  10.429  1.3079  0.2263 -0.5879
  314TMC3    C7 4781   4.322   4.281  10.396 -0.3498  0.6996  0.2341
  314TMC3    C8 4782   0.042   4.400  10.524  0.7305 -0.1199  0.4687
  314TMC3    O1 4783   4.223   4.210  10.417 -0.3405 -0.7200 -0.1619
  314TMC3    O2 4784   0.116   4.416  10.623  0.1902  0.1028  0.3433
  315MPD2     C 4785   0.091   3.754  17.388 -0.8812 -0.6527  0.7389
  315MPD2    C1 4786   0.142   3.814  17.501 -0.1735 -0.3420 -0.3226
  315MPD2    C2 4787   0.145   3.951  17.505 -0.0677 -0.2602 -0.0575
  315MPD2    C3 4788   0.106   4.028  17.394 -0.2008 -0.0548  0.1478
  315MPD2    C4 4789   0.060   3.969  17.279 -0.6242  0.1278  0.2816
  315MPD2    C5 4790   0.053   3.829  17.285  0.5120  0.4837  0.5395
  315MPD2     H 4791   0.201   4.003  17.581  0.2057  3.0103 -2.4841
  315MPD2    H1 4792   0.015   4.021  17.195 -0.0994 -2.4509 -1.5966
  315MPD2    H2 4793   0.087   3.646  17.383 -1.0430 -0.5659 -1.3082
  315MPD2    H3 4794   0.023   3.782  17.192 -1.7997  1.7317  0.6471
  315MPD2     N 4795   0.119   4.171  17.410 -0.4177 -0.5022  0.3650
  315MPD2    H5 4796   0.148   4.209  17.500 -0.8111  0.5103  0.0683
  315MPD2    N1 4797   0.198   3.758  17.615 -0.1801 -0.3655 -0.5899
  315MPD2    H7 4798   0.239   3.816  17.687 -0.7970  2.2182 -2.3440
  316TMC3    C1 4799   0.120   4.398  17.334  0.2372 -0.0755 -0.4214
  316TMC3    C2 4800   0.192   4.447  17.434 -0.4956  0.1945 -0.3565
  316TMC3    C3 4801   0.207   4.583  17.450 -0.5615 -0.0880 -0.1757
  316TMC3    C4 4802   0.075   4.490  17.238  0.1770  0.2488  0.3014
  316TMC3    C5 4803   0.094   4.628  17.250  0.0103 -0.0502  0.2311
  316TMC3    C6 4804   0.152   4.673  17.363  0.3154  0.1288  0.1134
  316TMC3     C 4805   0.104   4.259  17.304 -0.4671  0.8823 -0.6101
  316TMC3     O 4806   0.065   4.232  17.191 -0.1090  0.3938 -0.2004
  316TMC3     H 4807   0.226   4.378  17.510 -0.4870 -1.2633 -1.6699
  316TMC3    H1 4808   0.031   4.450  17.148 -0.4024 -1.7221  1.4669
  316TMC3    H2 4809   0.167   0.041  17.385  0.6874 -0.2873  1.8483
  316TMC3    C7 4810   0.002   4.717  17.188 -0.3327 -0.1345 -0.2798
  316TMC3    C8 4811   0.277   4.646  17.564  0.6704 -0.0608 -0.1512
  316TMC3    O1 4812   4.722   0.089  17.237 -0.3342  0.0084  0.2527
  316TMC3    O2 4813   0.273   0.033  17.569  0.2461 -0.2855 -0.1043
  317MPD2     C 4814   1.865   2.313  13.280 -0.7868  0.5805  0.4070
  317MPD2    C1 4815   1.965   2.224  13.234  0.5763  0.3034  0.8093
  317MPD2    C2 4816   2.050   2.169  13.326 -0.0574 -0.1289 -0.3199
  317MPD2    C3 4817   2.017   2.170  13.463 -0.7325  0.0083 -0.4524
  317MPD2    C4 4818   1.915   2.247  13.501 -0.5018  0.4393 -0.2294
  317MPD2    C5 4819   1.842   2.318  13.410 -0.1395  0.7344 -0.8745
  317MPD2     H 4820   2.128   2.102  13.291  1.6572  1.3361  0.7545
  317MPD2    H1 4821   1.887   2.257  13.605  1.4360 -0.4804  0.3921
  317MPD2    H2 4822   1.789   2.358  13.217 -1.2373  0.5557  0.9357
  317MPD2    H3 4823   1.765   2.382  13.452 -1.4749  0.1407 -2.4132
  317MPD2     N 4824   2.080   2.082  13.546  0.3263  0.2945 -0.4345
  317MPD2    H5 4825   2.173   2.052  13.518  0.5598 -0.6805  1.3743
  317MPD2    N1 4826   1.971   2.183  13.100  0.0337  0.3538 -0.5180
  317MPD2    H7 4827   2.048   2.117  13.088 -0.6358 -0.6499  0.6491
  318TMC3    C1 4828   2.118   1.915  13.699 -0.2013 -0.4077 -0.0416
  318TMC3    C2 4829   2.088   1.789  13.706 -0.0303 -0.2391  0.1262
  318TMC3    C3 4830   2.196   1.705  13.691  0.4763  0.0899 -0.1008
  318TMC3    C4 4831   2.248   1.964  13.692 -0.1306  0.3033  0.8856
  318TMC3    C5 4832   2.354   1.881  13.696  1.3636  0.3704  0.1579
  318TMC3    C6 4833   2.333   1.743  13.687 -0.1767 -0.6516  0.4693
  318TMC3     C 4834   2.022   2.013  13.653 -0.0759  0.0435  0.2053
  318TMC3     O 4835   1.902   1.990  13.672 -0.1068 -0.2324  0.2246
  318TMC3     H 4836   1.987   1.757  13.730 -0.4542  1.3081  0.3773
  318TMC3    H1 4837   2.275   2.069  13.698  0.9078  0.0801  0.1668
  318TMC3    H2 4838   2.405   1.667  13.659 -0.1924 -1.0551  1.5195
  318TMC3    C7 4839   2.451   1.935  13.605  0.4289 -0.2662  0.2046
  318TMC3    C8 4840   2.174   1.571  13.640 -0.0313 -0.7684  0.8994
  318TMC3    O1 4841   2.406   1.991  13.507 -0.5573  0.0254 -0.7448
  318TMC3    O2 4842   2.249   1.480  13.683  0.1003  0.1398  0.5724
  319MPD2     C 4843   2.591   4.415  16.887  0.0967 -0.8929 -0.3354
  319MPD2    C1 4844   2.643   4.283  16.882 -0.3834  0.4154 -0.2178
  319MPD2    C2 4845   2.611   4.204  16.775 -0.4388  0.0568  0.2024
  319MPD2    C3 4846   2.533   4.247  16.670  0.4938 -0.4119 -0.0111
  319MPD2    C4 4847   2.486   4.379  16.678 -0.3079 -0.1893  1.3563
  319MPD2    C5 4848   2.510   4.454  16.785  0.3011 -0.0412  0.1201
  319MPD2     H 4849   2.666   4.111  16.772  0.6235  0.5548  3.4130
  319MPD2    H1 4850   2.433   4.423  16.594  1.3607 -1.2018 -0.2006
  319MPD2    H2 4851   2.595   4.477  16.976 -3.0208  1.0482 -1.5676
  319MPD2    H3 4852   2.477   4.557  16.798 -1.1576 -0.6925  1.5436
  319MPD2     N 4853   2.503   4.166  16.557 -0.3445  0.1026 -0.1255
  319MPD2    H5 4854   2.442   4.207  16.488 -0.7609 -0.1795  0.0732
  319MPD2    N1 4855   2.728   4.232  16.983 -0.8585  0.3094  0.0556
  319MPD2    H7 4856   2.764   4.138  16.976  0.8800  0.9462  0.4841
  320TMC3    C1 4857   2.523   3.987  16.400 -0.2719  0.4069  0.0229
  320TMC3    C2 4858   2.397   4.010  16.360  0.0933  0.0618  0.0373
  320TMC3    C3 4859   2.349   3.942  16.249  0.5097 -1.1822  0.1691
  320TMC3    C4 4860   2.597   3.885  16.343 -0.1139  0.1555 -0.1824
  320TMC3    C5 4861   2.557   3.835  16.225 -0.0194 -0.0688  0.1370
  320TMC3    C6 4862   2.425   3.853  16.184  0.2745 -0.2796 -0.2508
  320TMC3     C 4863   2.562   4.046  16.525 -0.2282 -0.0020 -1.0560
  320TMC3     O 4864   2.654   3.984  16.575 -0.1006  0.8720  0.1457
  320TMC3     H 4865   2.332   4.081  16.411  0.2700  0.6764 -0.5881
  320TMC3    H1 4866   2.699   3.868  16.375 -0.9283  0.9565  2.7797
  320TMC3    H2 4867   2.394   3.804  16.092  0.8755 -0.3669 -0.4111
  320TMC3    C7 4868   2.632   3.728  16.150 -0.1907 -0.3282  0.2365
  320TMC3    C8 4869   2.227   3.990  16.188 -0.4720 -0.6720 -0.1566
  320TMC3    O1 4870   2.553   3.655  16.080  0.3407 -0.2538  0.4857
  320TMC3    O2 4871   2.213   4.113  16.197 -0.1260  0.3991 -0.1216
  321TMC3    C1 4872   2.855   4.260  17.190 -0.0746 -0.1541 -0.1681
  321TMC3    C2 4873   2.829   4.127  17.216  0.2701  0.2820  0.7886
  321TMC3    C3 4874   2.845   4.077  17.345 -0.2595 -0.1005 -0.7271
  321TMC3    C4 4875   2.894   4.347  17.293  0.4001  0.4396  0.8091
  321TMC3    C5 4876   2.896   4.297  17.417  0.8410  0.0939 -0.0756
  321TMC3    C6 4877   2.874   4.166  17.442 -0.6509 -0.1195  0.6665
  321TMC3     C 4878   2.787   4.316  17.080  0.3747 -0.4975 -0.0103
  321TMC3     O 4879   2.784   4.438  17.077 -0.3801 -0.2736  0.3636
  321TMC3     H 4880   2.803   4.059  17.137  2.6701  0.5112 -0.2070
  321TMC3    H1 4881   2.897   4.454  17.275 -1.2394  0.3345 -0.0745
  321TMC3    H2 4882   2.860   4.135  17.545  1.3102  0.2679  1.0382
  321TMC3    C7 4883   3.015   4.350  17.489  0.0641 -0.1335 -0.1050
  321TMC3    C8 4884   2.947   3.974  17.364  0.2070 -1.1293  0.5973
  321TMC3    O1 4885   3.045   4.465  17.471 -0.0690 -0.1483  0.0635
  321TMC3    O2 4886   3.038   4.008  17.439  0.5386 -0.0628  0.2495
  322MPD2     C 4887   2.242   4.711  13.049  0.0889  0.2012  0.0242
  322MPD2    C1 4888   2.230   4.670  13.179 -0.1433  0.5984  0.0201
  322MPD2    C2 4889   2.290   4.553  13.224 -0.1879 -0.6568  0.0250
  322MPD2    C3 4890   2.365   4.486  13.130 -0.2614 -1.0491  0.6846
  322MPD2    C4 4891   2.379   4.524  12.998 -0.1537  0.2957 -0.9811
  322MPD2    C5 4892   2.311   4.636  12.954 -0.4031  0.1990 -0.0075
  322MPD2     H 4893   2.275   4.510  13.322 -2.1939 -0.4369 -0.1775
  322MPD2    H1 4894   2.444   4.470  12.929 -2.3337 -1.2504 -1.8278
  322MPD2    H2 4895   2.186   0.064  13.024  1.1799  1.1252  0.9668
  322MPD2    H3 4896   2.321   4.682  12.856 -2.6099 -0.0493 -0.3562
  322MPD2     N 4897   2.438   4.368  13.173  0.4694  0.0293  0.4955
  322MPD2    H5 4898   2.447   4.348  13.272  2.2647  1.0585  0.5366
  322MPD2    N1 4899   2.164   0.023  13.269 -0.5568  0.3048  0.7360
  322MPD2    H7 4900   2.118   0.104  13.231  1.6054 -0.0313 -2.5877
  323TMC3    C1 4901   2.101   0.111  13.472  0.1365  0.4296  0.0762
  323TMC3    C2 4902   2.180   0.217  13.447  0.5235  0.2394 -0.1172
  323TMC3    C3 4903   2.189   0.317  13.546 -0.6772 -0.0319 -0.1984
  323TMC3    C4 4904   2.029   0.094  13.587  0.2234 -0.0079  0.4181
  323TMC3    C5 4905   2.048   0.197  13.683  0.1154  0.3993  0.9479
  323TMC3    C6 4906   2.118   0.305  13.658  0.5743  0.5251  0.3365
  323TMC3     C 4907   2.146   4.729  13.403  0.1740 -0.2120  0.3867
  323TMC3     O 4908   2.168   4.632  13.473 -1.1170 -0.2056  0.3000
  323TMC3     H 4909   2.240   0.236  13.359  1.5498 -0.4283  0.4399
  323TMC3    H1 4910   1.966   0.007  13.601  0.4382 -0.4402 -1.3344
  323TMC3    H2 4911   2.106   0.390  13.725 -0.8148  0.2481  0.4313
  323TMC3    C7 4912   2.082   0.132  13.812 -0.8180 -0.0152 -0.1494
  323TMC3    C8 4913   2.323   0.360  13.572 -0.9526  0.1074  0.1637
  323TMC3    O1 4914   2.018   0.033  13.844  0.1368  0.3806  0.4594
  323TMC3    O2 4915   2.342   0.369  13.690  0.2597  0.1978 -0.3871
  324MPD2     C 4916   3.431   1.234  14.338 -0.7671 -0.0046 -0.1085
  324MPD2    C1 4917   3.369   1.324  14.419 -0.0088 -0.1322 -0.0308
  324MPD2    C2 4918   3.230   1.315  14.439  0.1647 -0.1169 -0.3170
  324MPD2    C3 4919   3.148   1.226  14.369  0.0197 -0.5694 -0.0908
  324MPD2    C4 4920   3.207   1.149  14.269  0.2504 -0.0642  0.0417
  324MPD2    C5 4921   3.345   1.165  14.255  0.4009  0.0099 -0.0485
  324MPD2     H 4922   3.188   1.381  14.515  0.2177 -0.9762  0.4480
  324MPD2    H1 4923   3.146   1.092  14.200  1.1736  0.0870 -0.9041
  324MPD2    H2 4924   3.538   1.241  14.319 -0.3034 -2.5507  1.6078
  324MPD2    H3 4925   3.402   1.113  14.179 -0.4055  1.9705 -1.9945
  324MPD2     N 4926   3.008   1.217  14.387 -0.6982  0.1787 -0.3554
  324MPD2    H5 4927   2.958   1.157  14.322 -2.8594  0.3172  1.1791
  324MPD2    N1 4928   3.443   1.410  14.505 -0.2107 -0.8560  0.7943
  324MPD2    H7 4929   3.383   1.473  14.558  1.4490  1.5806 -0.2217
  325TMC3    C1 4930   2.797   1.236  14.469  0.1919  0.1959 -0.8499
  325TMC3    C2 4931   2.779   1.110  14.419  0.0056 -0.6848 -0.1379
  325TMC3    C3 4932   2.657   1.087  14.357  0.3429 -0.3239 -0.3791
  325TMC3    C4 4933   2.709   1.345  14.446  0.4270 -0.4315 -0.3198
  325TMC3    C5 4934   2.590   1.314  14.388 -0.5596 -0.4951  1.2463
  325TMC3    C6 4935   2.558   1.187  14.342 -0.3300 -0.1284 -0.4986
  325TMC3     C 4936   2.931   1.276  14.487 -0.8870 -0.0725  0.9237
  325TMC3     O 4937   2.962   1.366  14.565  0.2959  0.4596  0.3130
  325TMC3     H 4938   2.844   1.024  14.431 -1.5530 -2.0768 -1.6090
  325TMC3    H1 4939   2.730   1.444  14.485 -1.6094  0.0301 -0.3886
  325TMC3    H2 4940   2.473   1.179  14.275 -0.9343 -1.9995  0.4851
  325TMC3    C7 4941   2.502   1.418  14.334 -0.0958  0.1601 -0.0875
  325TMC3    C8 4942   2.680   0.987  14.253  1.6120 -0.4314 -0.8137
  325TMC3    O1 4943   2.382   1.399  14.322 -0.3815 -0.2299 -0.2110
  325TMC3    O2 4944   2.796   0.966  14.216  0.2253  0.5779 -1.0888
  326MPD2     C 4945   4.237   2.162  11.082  0.4949 -0.0239 -0.1657
  326MPD2    C1 4946   4.299   2.110  10.963 -0.9128 -0.0939  0.1182
  326MPD2    C2 4947   4.424   2.151  10.934 -0.1067  0.7087 -0.0499
  326MPD2    C3 4948   4.487   2.237  11.015 -0.7838  0.8662  0.5424
  326MPD2    C4 4949   4.432   2.287  11.125  0.1302  0.7881  0.6145
  326MPD2    C5 4950   4.303   2.257  11.156 -0.8283  0.1497  0.2344
  326MPD2     H 4951   4.463   2.116  10.839 -3.3578  0.8273 -1.4295
  326MPD2    H1 4952   4.494   2.353  11.185 -0.9401  2.5054 -0.1483
  326MPD2    H2 4953   4.134   2.133  11.102  0.5137 -1.3019 -1.9531
  326MPD2    H3 4954   4.250   2.301  11.240 -0.2006  0.8828  0.2450
  326MPD2     N 4955   4.614   2.285  10.990  0.0032 -0.0452 -0.0536
  326MPD2    H5 4956   4.656   2.346  11.059  0.8150 -0.4368 -0.1968
  326MPD2    N1 4957   4.244   2.017  10.876  0.4377 -0.1479  0.4940
  326MPD2    H7 4958   4.306   1.966  10.814 -0.5668 -0.7904  0.0171
  327TMC3    C1 4959   4.095   1.866  10.799  0.1899 -0.2754 -0.7691
  327TMC3    C2 4960   4.001   1.878  10.700  0.7148 -0.3597 -0.4211
  327TMC3    C3 4961   4.022   1.807  10.586  0.3891 -0.0681 -0.7665
  327TMC3    C4 4962   4.194   1.766  10.799  0.1747  0.0637  0.4479
  327TMC3    C5 4963   4.198   1.683  10.690  0.4547  0.0136  0.8292
  327TMC3    C6 4964   4.113   1.705  10.583  0.3479  0.2934 -0.4120
  327TMC3     C 4965   4.110   1.984  10.885  0.1235 -0.1424 -0.5503
  327TMC3     O 4966   4.015   2.049  10.929 -0.6840 -0.5236  0.1824
  327TMC3     H 4967   3.928   1.958  10.710  1.2338 -0.0505  0.7905
  327TMC3    H1 4968   4.282   1.766  10.864  0.3013 -0.3887  0.2774
  327TMC3    H2 4969   4.128   1.646  10.493  0.7193  2.0166 -1.4671
  327TMC3    C7 4970   4.291   1.568  10.674  0.0284 -0.1473 -0.7896
  327TMC3    C8 4971   3.997   1.897  10.476 -0.4263 -0.0954 -0.5138
  327TMC3    O1 4972   4.269   1.487  10.584  0.2162 -0.1052  0.2579
  327TMC3    O2 4973   3.904   1.971  10.493  0.2155 -0.1992 -0.0617
  328MPD2     C 4974   2.249   2.540  17.302  0.1958 -0.1057 -0.2398
  328MPD2    C1 4975   2.193   2.418  17.286 -0.2148  0.5841  0.4786
  328MPD2    C2 4976   2.089   2.400  17.199  0.7138  0.7369 -0.4267
  328MPD2    C3 4977   2.047   2.510  17.123  0.6963 -0.3319 -0.3184
  328MPD2    C4 4978   2.109   2.628  17.133 -0.0699 -0.2339 -0.0117
  328MPD2    C5 4979   2.215   2.639  17.218  0.4074  0.2052 -0.2146
  328MPD2     H 4980   2.039   2.305  17.186 -1.0085  1.5463  0.2597
  328MPD2    H1 4981   2.088   2.712  17.068  2.5892 -1.1998 -2.0922
  328MPD2    H2 4982   2.331   2.563  17.368  0.3354 -2.2614  0.3151
  328MPD2    H3 4983   2.274   2.730  17.213 -0.3005  0.6735 -0.1680
  328MPD2     N 4984   1.933   2.509  17.039 -0.3703  0.5814  0.4630
  328MPD2    H5 4985   1.909   2.603  17.009  0.4260  0.5723 -0.2288
  328MPD2    N1 4986   2.238   2.316  17.378  0.0007  0.6565 -0.0578
  328MPD2    H7 4987   2.293   2.351  17.455 -1.5332  0.4377  1.1353
  329TMC3    C1 4988   2.233   2.123  17.520  0.1541  0.3676 -0.5297
  329TMC3    C2 4989   2.325   2.178  17.608  0.0989 -0.1753 -0.8723
  329TMC3    C3 4990   2.340   2.127  17.736  0.0569  0.7292  0.6766
  329TMC3    C4 4991   2.154   2.019  17.571  0.1699 -0.3155 -0.2170
  329TMC3    C5 4992   2.180   1.964  17.692 -0.4689  0.1251  0.8980
  329TMC3    C6 4993   2.257   2.022   0.031  0.8867 -0.4662 -0.1826
  329TMC3     C 4994   2.179   2.191  17.401 -0.4315  0.8049 -0.0252
  329TMC3     O 4995   2.094   2.134  17.336 -0.0583  0.0063  1.0522
  329TMC3     H 4996   2.390   2.261  17.585  0.3871 -0.4260 -0.9527
  329TMC3    H1 4997   2.078   1.984  17.502 -0.5595  0.6178  0.1145
  329TMC3    H2 4998   2.287   1.979   0.126 -1.1493 -0.1301  0.6134
  329TMC3    C7 4999   2.091   1.850  17.742  0.1588  0.7276  0.2653
  329TMC3    C8 5000   2.397   2.212   0.087  0.1848 -0.1773 -0.7419
  329TMC3    O1 5001   2.050   1.854   0.109  0.4531 -0.1858  0.3856
  329TMC3    O2 5002   2.516   2.195   0.112 -0.5632  0.2467  0.4614
  330TMC3    C1 5003   4.095   1.549   8.950  0.2853 -0.2751  0.0648
  330TMC3    C2 5004   4.003   1.489   9.036  0.1099 -0.1054 -0.4608
  330TMC3    C3 5005   4.050   1.398   9.128 -0.4764  0.6693  0.3563
  330TMC3    C4 5006   4.226   1.506   8.957  0.1298  0.4747  1.0112
  330TMC3    C5 5007   4.262   1.409   9.048  0.0468 -0.0629  0.3697
  330TMC3    C6 5008   4.177   1.358   9.138  0.4755 -0.3124 -0.4833
  330TMC3     C 5009   4.061   1.653   8.851 -0.3628  0.3315 -0.1098
  330TMC3     O 5010   4.142   1.672   8.760  0.7345 -0.0544  0.2381
  330TMC3     H 5011   3.900   1.523   9.038  0.3570  0.5537  1.5419
  330TMC3    H1 5012   4.306   1.537   8.891 -0.8752 -1.0698 -0.9400
  330TMC3    H2 5013   4.210   1.292   9.218  0.9552  1.9296  1.1466
  330TMC3    C7 5014   4.407   1.378   9.064  0.4054 -0.7760  0.7101
  330TMC3    C8 5015   3.951   1.344   9.218 -0.4257  0.0288  0.1123
  330TMC3    O1 5016   4.483   1.463   9.021  0.0977 -0.0484  0.2031
  330TMC3    O2 5017   3.855   1.415   9.238 -0.2981  0.3437 -0.5845
  331MPD2     C 5018   2.824   0.701  12.732  0.5382  0.5428 -0.3194
  331MPD2    C1 5019   2.946   0.668  12.687  0.5487 -0.1343  0.1966
  331MPD2    C2 5020   2.961   0.559  12.600  0.1625 -0.2471  0.4280
  331MPD2    C3 5021   2.855   0.488  12.556 -0.5839  0.1146 -0.0128
  331MPD2    C4 5022   2.728   0.521  12.598  0.1033  0.0093  0.2242
  331MPD2    C5 5023   2.717   0.622  12.695  0.4723 -0.3907 -0.1742
  331MPD2     H 5024   3.060   0.530  12.566 -0.3213  1.7062 -2.5932
  331MPD2    H1 5025   2.635   0.473  12.570 -0.1847  0.9099 -0.3630
  331MPD2    H2 5026   2.803   0.782  12.802 -1.2170  0.0738 -0.2947
  331MPD2    H3 5027   2.614   0.644  12.721  0.0634 -1.9822 -0.4690
  331MPD2     N 5028   2.865   0.384  12.462  0.4543  0.3655 -0.5533
  331MPD2    H5 5029   2.784   0.327  12.439 -0.0039 -0.2602  2.5660
  331MPD2    N1 5030   3.052   0.766  12.714  0.2749  0.0594  0.7439
  331MPD2    H7 5031   3.027   0.859  12.746  1.8862  0.2626  1.3979
  332TMC3    C1 5032   2.965   0.236  12.310  0.0583 -0.3044 -0.0023
  332TMC3    C2 5033   2.871   0.241  12.208  0.2119 -0.3037 -0.3325
  332TMC3    C3 5034   2.884   0.187  12.084  0.4843 -0.0686  1.0530
  332TMC3    C4 5035   3.084   0.184  12.273 -0.3812 -0.0178 -0.1427
  332TMC3    C5 5036   3.098   0.111  12.157 -0.3437  0.0415 -0.1616
  332TMC3    C6 5037   2.995   0.110  12.062  0.2005 -0.1019 -0.2327
  332TMC3     C 5038   2.978   0.348  12.403  0.0619  0.1031 -0.0088
  332TMC3     O 5039   3.085   0.407  12.390  0.3309 -0.2491  0.2480
  332TMC3     H 5040   2.782   0.299  12.229  1.8790  1.9241  0.6533
  332TMC3    H1 5041   3.173   0.207  12.331  0.9510 -2.0982 -1.3462
  332TMC3    H2 5042   3.003   0.045  11.976  0.0461  0.8553 -0.9663
  332TMC3    C7 5043   3.219   0.142  12.084 -0.7359  0.9860  0.2303
  332TMC3    C8 5044   2.853   0.268  11.967 -0.3476 -0.2239 -0.3055
  332TMC3    O1 5045   3.207   0.193  11.976  0.1313  0.1023 -0.3770
  332TMC3    O2 5046   2.901   0.232  11.855  0.4384 -0.1418 -0.2513
  333MPD2     C 5047   3.096   0.459  10.796 -0.7840 -1.1988  0.2665
  333MPD2    C1 5048   3.190   0.383  10.752 -0.4890  0.6556 -0.2873
  333MPD2    C2 5049   3.210   0.257  10.810  0.0613  0.3424  0.0162
  333MPD2    C3 5050   3.131   0.216  10.914  0.0338 -0.5355 -0.1617
  333MPD2    C4 5051   3.032   0.297  10.957 -0.0360  0.4898 -0.4497
  333MPD2    C5 5052   3.014   0.416  10.895 -0.2498  0.2424  0.9430
  333MPD2     H 5053   3.291   0.188  10.785 -2.3651 -2.0524 -1.2306
  333MPD2    H1 5054   2.956   0.266  11.029  0.6815  1.2612  0.6503
  333MPD2    H2 5055   3.066   0.556  10.756  1.7141 -1.0274 -1.2151
  333MPD2    H3 5056   2.926   0.475  10.920 -0.3195  0.5982 -0.1361
  333MPD2     N 5057   3.161   0.086  10.970 -0.4538 -0.7949 -0.1558
  333MPD2    H5 5058   3.252   0.047  10.948 -0.6365 -0.6789 -1.1393
  333MPD2    N1 5059   3.274   0.432  10.647  0.1355  0.8332  0.4639
  333MPD2    H7 5060   3.253   0.528  10.618  0.8162  0.7799 -0.2050
  334TMC3    C1 5061   3.447   0.431  10.486  0.3206 -0.1002  0.3802
  334TMC3    C2 5062   3.522   0.343  10.405  1.0593 -0.5235  0.3171
  334TMC3    C3 5063   3.626   0.393  10.332  0.3682  0.2426 -0.5569
  334TMC3    C4 5064   3.487   0.556  10.513  0.1236 -0.9711 -0.2024
  334TMC3    C5 5065   3.592   0.605  10.436 -0.0804  0.6891 -0.4306
  334TMC3    C6 5066   3.651   0.528  10.335  0.2320 -0.1508  0.1398
  334TMC3     C 5067   3.354   0.356  10.571  0.0974 -0.4041  0.0200
  334TMC3     O 5068   3.369   0.237  10.577 -0.5324 -0.2775  0.5526
  334TMC3     H 5069   3.485   0.242  10.388 -1.2944  0.4054 -0.0615
  334TMC3    H1 5070   3.450   0.625  10.589  0.4613  1.0903 -1.9080
  334TMC3    H2 5071   3.741   0.566  10.289 -0.6132 -1.0082 -2.2073
  334TMC3    C7 5072   3.646   0.735  10.466  0.4167 -0.2816  0.1423
  334TMC3    C8 5073   3.722   0.295  10.277  0.4763 -0.2463  0.4041
  334TMC3    O1 5074   3.633   0.782  10.578  0.1902 -0.1328 -0.2612
  334TMC3    O2 5075   3.699   0.177  10.298  0.3793  0.0539 -0.3997
  335TMC3    C1 5076   2.976   3.048  17.491  0.0468 -0.1467 -0.5556
  335TMC3    C2 5077   2.875   2.961  17.471  1.3117 -0.9540 -0.1241
  335TMC3    C3 5078   2.910   2.842  17.417  0.3835 -0.0889  0.5313
  335TMC3    C4 5079   3.111   3.025  17.463  0.0312 -0.1195 -0.1069
  335TMC3    C5 5080   3.134   2.894  17.410 -0.2049  0.4939 -0.1403
  335TMC3    C6 5081   3.039   2.801  17.386  0.7605 -0.0365 -0.5951
  335TMC3     C 5082   2.951   3.188  17.532  0.3378  0.6270  0.2898
  335TMC3     O 5083   3.043   3.259  17.562  0.8578  0.0707 -0.2553
  335TMC3     H 5084   2.775   2.970  17.513  0.6863 -0.1830 -1.7970
  335TMC3    H1 5085   3.185   3.103  17.477  0.5696 -0.6476 -0.0306
  335TMC3    H2 5086   3.062   2.708  17.335  1.5903 -0.1451 -0.0333
  335TMC3    C7 5087   3.271   2.849  17.385 -0.0053  0.5249  0.2701
  335TMC3    C8 5088   2.800   2.760  17.379 -0.2727 -0.4958 -0.0909
  335TMC3    O1 5089   3.285   2.750  17.315 -0.0246 -0.1108 -0.4546
  335TMC3    O2 5090   2.707   2.825  17.335 -0.1146  0.1121 -0.2219
  336MPD2     C 5091   2.537   0.545  15.817  0.1815 -0.3116 -0.6196
  336MPD2    C1 5092   2.422   0.480  15.852 -0.6063 -1.0099  0.5936
  336MPD2    C2 5093   2.424   0.378  15.949  0.1423 -0.0706  0.2319
  336MPD2    C3 5094   2.543   0.343  16.013  0.4850 -0.2642 -0.4369
  336MPD2    C4 5095   2.658   0.413  15.983 -0.1272 -0.4470  0.2225
  336MPD2    C5 5096   2.647   0.513  15.890 -0.7695 -0.5544  0.8324
  336MPD2     H 5097   2.337   0.321  15.977 -0.1311  0.1555 -0.1577
  336MPD2    H1 5098   2.758   0.393  16.018 -0.1496 -2.1378 -0.6432
  336MPD2    H2 5099   2.538   0.635  15.756 -0.9901  0.2564  0.2139
  336MPD2    H3 5100   2.737   0.570  15.869 -0.6626 -0.5507  1.3106
  336MPD2     N 5101   2.562   0.226  16.089 -0.0338 -0.0386 -0.1878
  336MPD2    H5 5102   2.651   0.209  16.135 -0.6258 -0.7364  0.7156
  336MPD2    N1 5103   2.299   0.507  15.786 -0.3170 -0.4794 -0.4721
  336MPD2    H7 5104   2.212   0.477  15.829 -0.6081 -0.6416 -1.1847
  337TMC3    C1 5105   2.140   0.607  15.644 -0.2054  0.7084  0.6814
  337TMC3    C2 5106   2.102   0.618  15.512  0.0621  0.5547  0.0679
  337TMC3    C3 5107   1.983   0.681  15.493  0.2057  0.8742 -0.4873
  337TMC3    C4 5108   2.082   0.677  15.749  0.3172  0.0865  0.0700
  337TMC3    C5 5109   1.972   0.758  15.720 -0.2470 -0.7781  0.2716
  337TMC3    C6 5110   1.915   0.748  15.596 -0.2345 -0.0879  0.4808
  337TMC3     C 5111   2.283   0.579  15.668  0.1063  0.3830 -0.1156
  337TMC3     O 5112   2.364   0.600  15.575 -0.6199  0.1835  0.4403
  337TMC3     H 5113   2.153   0.562  15.434 -0.3584  1.8094 -1.1132
  337TMC3    H1 5114   2.145   0.689  15.836 -2.4473  1.4427  1.8732
  337TMC3    H2 5115   1.831   0.814  15.574 -0.8745 -0.6913  1.1030
  337TMC3    C7 5116   1.920   0.834  15.831 -0.6136 -0.2745  0.4054
  337TMC3    C8 5117   1.902   0.677  15.372 -0.5520  0.7862 -0.4221
  337TMC3    O1 5118   2.001   0.848  15.918 -0.0062  0.1270  0.5736
  337TMC3    O2 5119   1.784   0.693  15.393  0.0868  0.1550 -0.4953
  338MPD2     C 5120   2.817   0.053   0.932  0.3972 -0.4454  0.3655
  338MPD2    C1 5121   2.796   0.034   0.801  0.4242 -0.2143  0.2219
  338MPD2    C2 5122   2.662   0.039   0.755  0.3876  0.6123 -0.0573
  338MPD2    C3 5123   2.557   0.055   0.843  1.0638  0.1529  0.1998
  338MPD2    C4 5124   2.587   0.078   0.978 -0.2698  0.5010  0.1893
  338MPD2    C5 5125   2.715   0.081   1.019  0.2079 -0.1567  0.1269
  338MPD2     H 5126   2.638   0.021   0.650  0.4581 -0.6726  0.1467
  338MPD2    H1 5127   2.518   0.085   1.061 -0.1877 -0.3851  0.3340
  338MPD2    H2 5128   2.920   0.054   0.966  0.0799 -0.8114  1.3118
  338MPD2    H3 5129   2.741   0.098   1.123  3.1302  3.2914 -1.1832
  338MPD2     N 5130   2.427   0.029   0.788 -0.1388 -0.5856 -1.1834
  338MPD2    H5 5131   2.414   0.020   0.688 -1.7858 -1.5105 -0.9000
  338MPD2    N1 5132   2.892   0.001   0.706 -0.2757 -0.3035 -0.5992
  338MPD2    H7 5133   2.860   4.737   0.609  0.7852  0.5047 -0.9507
  339TMC3    C1 5134   2.201   4.701   0.779  0.0400  0.0821  0.1519
  339TMC3    C2 5135   2.139   4.581   0.810 -0.2107  0.3451  0.0155
  339TMC3    C3 5136   2.069   4.521   0.712 -0.3736 -0.5426  0.7544
  339TMC3    C4 5137   2.190   0.033   0.665  0.6039 -0.5815  0.2927
  339TMC3    C5 5138   2.132   4.697   0.562 -0.0388  0.3240  0.4363
  339TMC3    C6 5139   2.064   4.575   0.589 -0.1536  0.3877  0.9385
  339TMC3     C 5140   2.313   0.007   0.865 -0.2696 -0.3151  0.3014
  339TMC3     O 5141   2.293   4.731   0.987  0.8340 -0.1089 -0.2353
  339TMC3     H 5142   2.146   4.530   0.905  0.7352 -1.2476 -0.9268
  339TMC3    H1 5143   2.239   0.130   0.662  3.4597 -1.9754  1.9659
  339TMC3    H2 5144   2.014   4.531   0.504 -1.5732  0.4164  1.7505
  339TMC3    C7 5145   2.137   0.030   0.428 -0.0831 -0.1257  0.6670
  339TMC3    C8 5146   2.006   4.398   0.734  0.3494  0.3940  0.1135
  339TMC3    O1 5147   2.186   0.144   0.434  0.1447  0.4095 -0.2163
  339TMC3    O2 5148   1.908   4.370   0.667  0.2829  0.6248 -0.2287
  340MPD2     C 5149   3.259   1.014  10.417 -0.6546  0.0583 -0.4141
  340MPD2    C1 5150   3.204   1.139  10.395  0.2283 -0.0391 -0.5426
  340MPD2    C2 5151   3.267   1.251  10.447 -0.7572 -0.0138  0.0778
  340MPD2    C3 5152   3.385   1.236  10.512  0.4616 -0.1809 -0.2311
  340MPD2    C4 5153   3.443   1.111  10.527  0.6274 -0.8080  0.5349
  340MPD2    C5 5154   3.382   1.004  10.477 -0.4690 -0.5213  0.2832
  340MPD2     H 5155   3.239   1.355  10.432 -0.9132  0.0310  0.7072
  340MPD2    H1 5156   3.538   1.103  10.579  1.1908 -3.7176 -0.9812
  340MPD2    H2 5157   3.213   0.922  10.385  1.1854 -1.8818  2.5215
  340MPD2    H3 5158   3.427   0.906  10.485 -2.8011 -1.4842  1.7808
  340MPD2     N 5159   3.457   1.348  10.553  0.3050  0.3281 -0.2771
  340MPD2    H5 5160   3.556   1.338  10.574  0.5816  2.1347 -0.7368
  340MPD2    N1 5161   3.090   1.145  10.313 -0.5093  0.0496 -0.4024
  340MPD2    H7 5162   3.043   1.060  10.283 -0.9814  0.0803  0.2280
  341TMC3    C1 5163   2.923   1.244  10.171  0.5068  0.0433  0.0714
  341TMC3    C2 5164   2.871   1.119  10.154  0.0206 -0.8253  0.5579
  341TMC3    C3 5165   2.778   1.090  10.054 -0.1270  0.0611 -0.7290
  341TMC3    C4 5166   2.890   1.338  10.076 -0.6848 -0.2851  0.4309
  341TMC3    C5 5167   2.793   1.306   9.982 -0.1746 -0.1681 -0.1376
  341TMC3    C6 5168   2.743   1.180   9.961 -1.0775  0.1787  0.3855
  341TMC3     C 5169   3.033   1.266  10.267  0.3517  0.0026  0.7071
  341TMC3     O 5170   3.075   1.381  10.276  0.2611 -0.0636  0.6075
  341TMC3     H 5171   2.863   1.040  10.228  0.3726  0.2217  1.7117
  341TMC3    H1 5172   2.928   1.439  10.081 -1.9817  0.2419 -0.2011
  341TMC3    H2 5173   2.695   1.162   9.865 -2.7687  1.3203  1.0240
  341TMC3    C7 5174   2.725   1.416   9.910 -0.1633 -0.6999  0.7689
  341TMC3    C8 5175   2.703   0.969  10.055 -0.3485 -0.2256  0.8045
  341TMC3    O1 5176   2.781   1.526   9.914 -0.2583 -0.4064  0.7676
  341TMC3    O2 5177   2.682   0.924  10.167  0.4797  0.0045  0.4056
  342MPD2     C 5178   0.629   0.560  17.570 -0.1560 -0.5288  0.2583
  342MPD2    C1 5179   0.703   0.595  17.459  0.0202 -0.4183 -0.5983
  342MPD2    C2 5180   0.725   0.732  17.451 -0.0583 -0.6774 -0.1895
  342MPD2    C3 5181   0.679   0.832  17.545 -0.4479 -0.6335 -0.5255
  342MPD2    C4 5182   0.616   0.781  17.654  0.0133 -0.5257  0.3092
  342MPD2    C5 5183   0.595   0.649  17.675  0.6772  0.4399  0.4386
  342MPD2     H 5184   0.781   0.768  17.366  3.0866 -1.1761  1.6618
  342MPD2    H1 5185   0.583   0.843  17.736 -0.2277  0.8700 -0.8401
  342MPD2    H2 5186   0.594   0.458  17.576  1.0877 -1.0098 -0.8233
  342MPD2    H3 5187   0.531   0.619   0.011 -1.7881  0.9596 -1.2663
  342MPD2     N 5188   0.723   0.968  17.537  0.3462 -0.0675  0.4567
  342MPD2    H5 5189   0.722   1.011  17.629 -1.3797 -0.1642  0.4960
  342MPD2    N1 5190   0.744   0.506  17.364 -0.1598 -0.1339 -0.1133
  342MPD2    H7 5191   0.770   0.537  17.271 -0.3463  2.9458  0.8556
  343TMC3    C1 5192   0.791   0.312  17.249  0.6321  0.5326  0.0096
  343TMC3    C2 5193   0.850   0.388  17.155  0.9463 -0.2301  0.4453
  343TMC3    C3 5194   0.891   0.315  17.044  0.1711  0.2433  0.7849
  343TMC3    C4 5195   0.785   0.172  17.241  0.3786  0.4317 -0.1862
  343TMC3    C5 5196   0.832   0.112  17.128 -0.2071  0.2750  0.8048
  343TMC3    C6 5197   0.867   0.176  17.023  0.0292  0.0907 -0.0518
  343TMC3     C 5198   0.732   0.372  17.367 -0.6655 -0.5226  0.1329
  343TMC3     O 5199   0.693   0.295  17.456  0.0489 -0.3880 -0.1429
  343TMC3     H 5200   0.855   0.496  17.151  1.7186 -0.1916  2.3496
  343TMC3    H1 5201   0.715   0.131  17.313 -1.2655  2.1379 -0.8093
  343TMC3    H2 5202   0.900   0.122  16.934 -2.2838  0.1548 -0.9465
  343TMC3    C7 5203   0.850   4.705  17.131  0.0508  0.3609 -0.2104
  343TMC3    C8 5204   0.958   0.398  16.938  0.6259  0.0913  0.6614
  343TMC3    O1 5205   0.873   4.644  17.026  0.2973 -0.1311  0.5964
  343TMC3    O2 5206   0.974   0.519  16.945 -0.1883 -0.0505  0.4902
  344MPD2     C 5207   1.180   4.030  10.249 -0.8121 -0.7285 -0.3740
  344MPD2    C1 5208   1.243   4.013  10.375 -0.5293  0.3432  1.1464
  344MPD2    C2 5209   1.341   4.105  10.412 -0.2125  0.3484 -0.5849
  344MPD2    C3 5210   1.372   4.213  10.326 -0.3032 -0.6713  0.0251
  344MPD2    C4 5211   1.307   4.222  10.208  0.4100 -0.4106 -0.4120
  344MPD2    C5 5212   1.212   4.132  10.172  0.0036  0.0160 -0.2561
  344MPD2     H 5213   1.390   4.082  10.506 -0.5581  0.1991 -0.4411
  344MPD2    H1 5214   1.333   4.301  10.139 -0.2063  0.3215  0.2000
  344MPD2    H2 5215   1.098   3.966  10.217  0.1077 -0.4263 -3.2603
  344MPD2    H3 5216   1.167   4.147  10.075 -0.9540  1.9897  0.5036
  344MPD2     N 5217   1.465   4.312  10.368 -0.2946  0.2701  0.2456
  344MPD2    H5 5218   1.493   4.381  10.298  0.5895  0.5860  0.9158
  344MPD2    N1 5219   1.188   3.916  10.462  0.2413  1.1286  0.3146
  344MPD2    H7 5220   1.117   3.857  10.420  0.7221  0.5435  0.3385
  345TMC3    C1 5221   1.597   4.449  10.504  0.1662  0.2496 -0.5477
  345TMC3    C2 5222   1.663   4.458  10.619  0.0694  0.3357 -0.0236
  345TMC3    C3 5223   1.749   4.560  10.624  0.3359  0.6741  0.5757
  345TMC3    C4 5224   1.621   4.534  10.399 -0.7074  0.2455 -0.4628
  345TMC3    C5 5225   1.701   4.640  10.412 -0.3552  0.2533 -0.0923
  345TMC3    C6 5226   1.771   4.649  10.530 -0.2073 -0.2570  0.0151
  345TMC3     C 5227   1.521   4.328  10.495 -0.1735  0.2119  0.5441
  345TMC3     O 5228   1.500   4.273  10.602  1.0708 -0.1402  0.0724
  345TMC3     H 5229   1.637   4.406  10.711 -1.4630 -0.0416 -0.6648
  345TMC3    H1 5230   1.563   4.527  10.307 -1.0657 -1.2489 -0.1235
  345TMC3    H2 5231   1.863   4.706  10.525 -0.7396  0.5311 -0.6131
  345TMC3    C7 5232   1.698   0.028  10.340  0.2745 -0.2224  0.2702
  345TMC3    C8 5233   1.800   4.598  10.755  0.8343 -0.1967  0.4390
  345TMC3    O1 5234   1.749   0.125  10.395 -0.0222  0.1360  0.3798
  345TMC3    O2 5235   1.790   4.524  10.853 -0.3010  0.0135 -0.3450
  346MPD2     C 5236   1.931   1.497  14.450  0.7704  0.1631  0.3398
  346MPD2    C1 5237   2.049   1.507  14.376 -0.2788 -0.0506  1.1882
  346MPD2    C2 5238   2.137   1.608  14.405  0.1524 -0.6140  0.4277
  346MPD2    C3 5239   2.099   1.712  14.495 -0.1458  0.4735  1.0542
  346MPD2    C4 5240   1.975   1.699  14.562  0.3130 -0.5083  1.0833
  346MPD2    C5 5241   1.893   1.595  14.537 -0.3605  0.1240 -0.5339
  346MPD2     H 5242   2.231   1.626  14.354 -0.1715  0.0738  0.0723
  346MPD2    H1 5243   1.929   1.770  14.630 -1.4275  1.2929 -1.9660
  346MPD2    H2 5244   1.860   1.416  14.438 -0.8456  1.3340  1.9728
  346MPD2    H3 5245   1.802   1.580  14.594  0.7673 -1.8033  0.7541
  346MPD2     N 5246   2.200   1.810  14.519  0.6057 -0.3382  0.0772
  346MPD2    H5 5247   2.293   1.805  14.478  2.0705  2.0912  3.0835
  346MPD2    N1 5248   2.086   1.404  14.289 -0.1406 -0.0014  0.3282
  346MPD2    H7 5249   2.185   1.393  14.269 -0.3481  3.0151 -2.2589
  347TMC3    C1 5250   2.276   2.025  14.600  0.7606  0.7565 -1.3297
  347TMC3    C2 5251   2.348   2.022  14.489 -0.3652 -0.1524  0.2821
  347TMC3    C3 5252   2.480   2.060  14.487  0.0335 -0.0426 -0.3224
  347TMC3    C4 5253   2.333   2.066  14.718  0.3545  0.6743  0.6527
  347TMC3    C5 5254   2.462   2.106  14.716 -0.2646 -0.0263 -0.6508
  347TMC3    C6 5255   2.544   2.098  14.603 -0.1559  0.7060 -0.5346
  347TMC3     C 5256   2.181   1.916  14.607  0.4372  0.6647  0.7023
  347TMC3     O 5257   2.108   1.913  14.702  0.2184 -0.1795  0.7893
  347TMC3     H 5258   2.295   1.979  14.405 -1.8679  1.6934  0.2962
  347TMC3    H1 5259   2.282   2.056  14.813  1.4493 -0.2794  1.1339
  347TMC3    H2 5260   2.649   2.124  14.603 -0.4447  1.8811  0.6149
  347TMC3    C7 5261   2.511   2.171  14.841 -0.2918  0.3649  0.8386
  347TMC3    C8 5262   2.571   2.033  14.372 -0.1902 -0.0769  0.3407
  347TMC3    O1 5263   2.434   2.179  14.932 -0.3168  0.8910 -0.1294
  347TMC3    O2 5264   2.683   1.998  14.410 -0.6420  0.0731  0.2357
  348MPD2     C 5265   0.404   0.369  11.767 -0.0639 -0.1374 -0.6590
  348MPD2    C1 5266   0.475   0.477  11.806  0.0630 -0.1138  0.1166
  348MPD2    C2 5267   0.476   0.586  11.717 -0.2260  0.1127 -0.0274
  348MPD2    C3 5268   0.432   0.577  11.584 -0.1246  0.3256 -0.4169
  348MPD2    C4 5269   0.378   0.460  11.548 -0.1301 -0.1907 -0.0144
  348MPD2    C5 5270   0.356   0.361  11.638 -0.5400 -0.2371 -0.6547
  348MPD2     H 5271   0.527   0.677  11.750 -0.3076 -0.1227  0.7606
  348MPD2    H1 5272   0.343   0.440  11.447  1.5551  0.7950 -0.8061
  348MPD2    H2 5273   0.392   0.280  11.827  2.8707  0.3984  0.7270
  348MPD2    H3 5274   0.312   0.269  11.602 -3.2102  0.2399  1.3733
  348MPD2     N 5275   0.452   0.677  11.488 -0.8566  0.0780  0.5726
  348MPD2    H5 5276   0.499   0.758  11.528  0.9335 -2.3462  3.3323
  348MPD2    N1 5277   0.536   0.481  11.934 -0.6100 -0.3367 -0.2187
  348MPD2    H7 5278   0.579   0.568  11.963 -1.2395  0.4231 -1.5573
  349TMC3    C1 5279   0.628   0.415  12.135  0.0266  0.0814 -0.0124
  349TMC3    C2 5280   0.700   0.311  12.175 -0.4786  0.4266 -0.3444
  349TMC3    C3 5281   0.824   0.338  12.226 -0.0677  1.1697 -0.4162
  349TMC3    C4 5282   0.683   0.542  12.128 -0.2586  0.6947  0.4821
  349TMC3    C5 5283   0.810   0.561  12.166  0.2626 -0.2468 -0.1995
  349TMC3    C6 5284   0.884   0.460  12.212 -0.7518  0.1215  0.1246
  349TMC3     C 5285   0.536   0.382  12.034 -0.3971  0.6663  0.7753
  349TMC3     O 5286   0.508   0.267  12.014 -0.0675  0.2563  0.3116
  349TMC3     H 5287   0.665   0.208  12.181 -0.3455  0.4689  1.1395
  349TMC3    H1 5288   0.622   0.631  12.116 -0.3242  0.6507  0.4909
  349TMC3    H2 5289   0.989   0.461  12.238 -0.9359 -1.1452  0.9306
  349TMC3    C7 5290   0.874   0.638  12.059  0.4042  0.5273 -0.2818
  349TMC3    C8 5291   0.900   0.236  12.303  0.2375 -0.1038  0.3585
  349TMC3    O1 5292   0.969   0.580  12.005 -0.2476  0.1632  0.1209
  349TMC3    O2 5293   0.981   0.288  12.382 -0.4993 -0.1537  0.5250
  350MPD2     C 5294   3.673   3.259  10.292 -0.2644 -0.0241  0.2720
  350MPD2    C1 5295   3.701   3.164  10.200 -0.2125 -0.3096 -0.2598
  350MPD2    C2 5296   3.807   3.177  10.115  0.1894  0.1736 -0.4206
  350MPD2    C3 5297   3.883   3.285  10.119  0.4762 -0.3166  0.0745
  350MPD2    C4 5298   3.843   3.385  10.203  0.0352 -0.0180 -0.4178
  350MPD2    C5 5299   3.745   3.376  10.293 -0.0700 -0.2762  0.1564
  350MPD2     H 5300   3.845   3.095  10.055 -0.9383 -0.3174 -0.4500
  350MPD2    H1 5301   3.897   3.479  10.209 -0.2188  0.1132 -0.1703
  350MPD2    H2 5302   3.588   3.253  10.358  0.6307 -2.1307  1.2295
  350MPD2    H3 5303   3.720   3.450  10.368  0.3628  1.5741 -1.5111
  350MPD2     N 5304   3.993   3.300  10.028 -1.1625 -0.2951 -0.3668
  350MPD2    H5 5305   3.999   3.224   9.961  0.1450  0.2143 -0.8260
  350MPD2    N1 5306   3.622   3.047  10.184 -0.5308 -0.0821 -0.1212
  350MPD2    H7 5307   3.663   2.988  10.113  1.1092  0.7883  0.0976
  351TMC3    C1 5308   3.433   2.898  10.165  0.5517  0.1875 -0.4799
  351TMC3    C2 5309   3.455   2.888  10.034 -0.1667 -0.7292 -0.0429
  351TMC3    C3 5310   3.365   2.819   9.964  0.0632  0.6742  0.6519
  351TMC3    C4 5311   3.321   2.848  10.224  0.4473 -0.4864 -0.3459
  351TMC3    C5 5312   3.232   2.781  10.150  0.2376  0.1697 -0.2899
  351TMC3    C6 5313   3.249   2.756  10.015  0.8817 -0.1229  0.4299
  351TMC3     C 5314   3.503   3.010  10.242  0.0846  0.0022 -0.5417
  351TMC3     O 5315   3.432   3.065  10.325 -0.0770 -0.4892 -0.4109
  351TMC3     H 5316   3.542   2.932   9.988 -0.1130  0.0603  0.8263
  351TMC3    H1 5317   3.301   2.870  10.328  0.4069  0.0790 -0.4756
  351TMC3    H2 5318   3.188   2.688   9.957 -0.4697 -0.0310  1.7416
  351TMC3    C7 5319   3.113   2.742  10.223 -0.0792  0.3079  0.1069
  351TMC3    C8 5320   3.386   2.854   9.826 -0.0456 -0.3594 -0.2627
  351TMC3    O1 5321   3.096   2.776  10.338  0.3000  0.0883  0.4503
  351TMC3    O2 5322   3.501   2.866   9.781  0.7908  0.2065 -0.0194
  352MPD2     C 5323   2.954   1.780   1.543 -0.3012  0.8170  0.7952
  352MPD2    C1 5324   2.909   1.683   1.461 -1.0125  0.5507  0.0058
  352MPD2    C2 5325   2.998   1.588   1.418  0.3459  0.1238 -0.0452
  352MPD2    C3 5326   3.133   1.611   1.431  0.1723 -0.5220 -0.0253
  352MPD2    C4 5327   3.176   1.707   1.521  0.2629 -0.1926 -0.2520
  352MPD2    C5 5328   3.088   1.790   1.578 -0.1920 -0.5434  0.0469
  352MPD2     H 5329   2.961   1.496   1.375 -1.1032  0.9799 -0.6673
  352MPD2    H1 5330   3.282   1.720   1.540  0.1867 -2.5115  1.7360
  352MPD2    H2 5331   2.882   1.843   1.594 -0.8218 -0.3327  1.4785
  352MPD2    H3 5332   3.129   1.869   1.640  1.2433  0.0199 -1.6115
  352MPD2     N 5333   3.231   1.527   1.376  0.0979  0.2902  0.5963
  352MPD2    H5 5334   3.329   1.528   1.401  0.9373 -0.8224 -2.6894
  352MPD2    N1 5335   2.769   1.676   1.435  0.1999  0.0486  0.3777
  352MPD2    H7 5336   2.720   1.754   1.478  0.6220 -0.5369  1.9182
  353TMC3    C1 5337   3.325   1.359   1.246 -0.0600 -0.7796 -0.0182
  353TMC3    C2 5338   3.370   1.291   1.358  0.6451  0.0685  0.2613
  353TMC3    C3 5339   3.400   1.164   1.339  0.0023 -0.0238  0.8543
  353TMC3    C4 5340   3.315   1.301   1.123 -0.3834 -0.4794 -0.0709
  353TMC3    C5 5341   3.348   1.173   1.111 -0.1466 -0.9715  0.1926
  353TMC3    C6 5342   3.396   1.105   1.217  0.0999 -0.3787 -0.5548
  353TMC3     C 5343   3.212   1.450   1.268  0.0610 -0.2250  0.2562
  353TMC3     O 5344   3.117   1.440   1.188 -0.4101  0.3591  0.0290
  353TMC3     H 5345   3.360   1.341   1.454 -1.2902 -0.3616  0.2815
  353TMC3    H1 5346   3.273   1.360   1.042 -0.1360 -0.5811 -0.2737
  353TMC3    H2 5347   3.412   0.999   1.200 -0.6110 -0.6085  0.2047
  353TMC3    C7 5348   3.252   1.093   1.031  0.5438  0.0255  0.0053
  353TMC3    C8 5349   3.470   1.088   1.450  0.1619  0.9884  0.4525
  353TMC3    O1 5350   3.296   0.993   0.984 -0.3445  0.3482  0.1338
  353TMC3    O2 5351   3.511   1.156   1.543  0.2014  0.6340 -0.2348
  354TMC3    C1 5352   4.510   2.025  13.796  0.5781 -0.0339  0.0521
  354TMC3    C2 5353   4.451   2.134  13.741 -0.2204  0.3629 -0.2552
  354TMC3    C3 5354   4.462   2.158  13.607  0.3888 -0.6787  0.2256
  354TMC3    C4 5355   4.556   1.923  13.712  0.3474 -0.2248  0.1446
  354TMC3    C5 5356   4.566   1.946  13.579 -0.2375 -0.0682  0.6847
  354TMC3    C6 5357   4.518   2.061  13.522 -0.0188  0.0747  0.0272
  354TMC3     C 5358   4.438   1.988  13.919 -0.2931 -0.2062 -0.0214
  354TMC3     O 5359   4.323   2.022  13.936 -0.0346 -0.0548 -0.5175
  354TMC3     H 5360   4.417   2.213  13.806  3.0849  1.3226  0.2860
  354TMC3    H1 5361   4.614   1.840  13.751  0.0618  0.3874  1.8522
  354TMC3    H2 5362   4.510   2.064  13.414 -1.3708 -4.1470  0.0098
  354TMC3    C7 5363   4.571   1.832  13.502  0.1771 -0.2322  0.1947
  354TMC3    C8 5364   4.492   2.296  13.576  0.0092  0.0296  0.2306
  354TMC3    O1 5365   4.523   1.726  13.538  0.2943  0.4417 -0.1809
  354TMC3    O2 5366   4.488   2.372  13.672 -0.0394  0.4347  0.4961
  355MPD2     C 5367   4.691   2.802  11.503  0.3562 -0.0941 -0.2143
  355MPD2    C1 5368   0.027   2.883  11.579 -0.3440  0.3911  0.4110
  355MPD2    C2 5369   0.076   2.830  11.700  0.0871 -0.6188  0.5768
  355MPD2    C3 5370   0.052   2.701  11.741 -0.0636 -0.9293  1.0703
  355MPD2    C4 5371   4.706   2.625  11.663 -0.1296 -0.7483 -0.7311
  355MPD2    C5 5372   4.656   2.677  11.544 -0.2465 -0.5710  0.0810
  355MPD2     H 5373   0.131   2.899  11.763 -1.6918  1.2313  0.1071
  355MPD2    H1 5374   4.670   2.526  11.688  0.7253 -0.8491  0.0859
  355MPD2    H2 5375   4.652   2.821  11.403 -2.1820  0.8301  0.9622
  355MPD2    H3 5376   4.601   2.613  11.477  0.1074  0.0277 -0.7868
  355MPD2     N 5377   0.090   2.646  11.863 -0.3625  0.3156 -0.1608
  355MPD2    H5 5378   0.037   2.561  11.879  1.6535 -0.6660  1.2425
  355MPD2    N1 5379   0.065   3.017  11.541  0.1682  0.5018 -0.0540
  355MPD2    H7 5380   0.051   3.048  11.446 -3.7938  1.1015  0.7253
  356TMC3    C1 5381   0.282   2.781  11.922  0.1719 -0.4640 -0.0731
  356TMC3    C2 5382   0.356   2.785  11.809  0.1774 -0.1276 -0.0786
  356TMC3    C3 5383   0.463   2.866  11.798  0.5234  0.8197 -0.9270
  356TMC3    C4 5384   0.325   2.849  12.031  0.5865 -0.0029  0.0992
  356TMC3    C5 5385   0.433   2.932  12.016 -0.8677 -0.0373 -0.2384
  356TMC3    C6 5386   0.505   2.945  11.901 -0.5488 -0.0903  0.7437
  356TMC3     C 5387   0.182   2.684  11.953 -0.1244  0.1536 -0.6454
  356TMC3     O 5388   0.182   2.635  12.064 -0.4177 -0.1433  0.5865
  356TMC3     H 5389   0.313   2.737  11.721  3.5142 -0.7574 -1.3695
  356TMC3    H1 5390   0.275   2.821  12.123  0.6317  0.0326  0.1342
  356TMC3    H2 5391   0.599   2.999  11.902  0.0073 -1.0155 -1.8793
  356TMC3    C7 5392   0.508   2.956  12.135  0.2058  0.0873 -0.7696
  356TMC3    C8 5393   0.494   2.903  11.659 -0.5966 -0.0442  1.0921
  356TMC3    O1 5394   0.486   2.888  12.231  0.0553  0.0775  0.1713
  356TMC3    O2 5395   0.437   2.846  11.568  0.6273  0.0779  0.0295
  357MPD2     C 5396   4.099   3.432   1.262 -0.0362 -0.2362 -0.4880
  357MPD2    C1 5397   4.132   3.300   1.239  0.3112  0.2451 -0.2484
  357MPD2    C2 5398   4.033   3.206   1.251  0.0151 -1.1649  0.1943
  357MPD2    C3 5399   3.902   3.239   1.284  0.0932  0.2706  0.1223
  357MPD2    C4 5400   3.875   3.369   1.279  0.1632  0.8002 -0.8863
  357MPD2    C5 5401   3.968   3.465   1.275 -0.2363  0.0203  0.3521
  357MPD2     H 5402   4.063   3.102   1.251 -0.7548 -1.3786 -3.2408
  357MPD2    H1 5403   3.769   3.393   1.279 -0.2552 -0.9796  0.1607
  357MPD2    H2 5404   4.169   3.515   1.253  1.1498 -1.2436 -0.5821
  357MPD2    H3 5405   3.938   3.569   1.273  1.4025  0.5467  2.8012
  357MPD2     N 5406   3.803   3.142   1.313 -0.3461 -0.1480 -0.2315
  357MPD2    H5 5407   3.712   3.183   1.327 -1.3876 -1.4916 -3.0325
  357MPD2    N1 5408   4.271   3.264   1.222 -0.0513  0.2582  0.5219
  357MPD2    H7 5409   4.339   3.340   1.223  1.6143 -1.2419  0.5085
  358TMC3    C1 5410   4.463   3.156   1.165  0.3940  0.0123  0.4557
  358TMC3    C2 5411   4.503   3.055   1.089 -0.1630  0.4797 -0.3473
  358TMC3    C3 5412   4.638   3.041   1.074  0.6363 -0.0516  0.2557
  358TMC3    C4 5413   4.536   3.258   1.213 -0.0293  0.9919 -0.0242
  358TMC3    C5 5414   4.670   3.250   1.179  0.1719 -0.1257 -0.2675
  358TMC3    C6 5415   4.722   3.144   1.101  0.1911  1.3030 -0.3098
  358TMC3     C 5416   4.321   3.142   1.204 -0.7477  1.3996 -0.2629
  358TMC3     O 5417   4.256   3.042   1.174  0.1035 -0.1008 -0.1398
  358TMC3     H 5418   4.435   2.978   1.052 -1.5192  2.8767 -2.8583
  358TMC3    H1 5419   4.504   3.333   1.285  1.6637  0.3025  1.4401
  358TMC3    H2 5420   0.093   3.143   1.096  0.3658 -0.5741  4.1489
  358TMC3    C7 5421   0.028   3.336   1.241  0.3849  0.0040 -0.6126
  358TMC3    C8 5422   4.673   2.940   0.977 -0.6040 -0.3874 -0.4113
  358TMC3    O1 5423   0.145   3.311   1.252  0.4366  0.9924  0.2670
  358TMC3    O2 5424   4.603   2.940   0.874  0.3818  0.2250  0.2565
  359MPD2     C 5425   0.289   0.598  12.574  0.4541  0.2280  0.0985
  359MPD2    C1 5426   0.263   0.729  12.619 -0.2622  0.1507  0.4328
  359MPD2    C2 5427   0.258   0.743  12.759 -0.0505  0.1108 -0.4692
  359MPD2    C3 5428   0.290   0.639  12.846 -0.4862  0.8351 -0.9191
  359MPD2    C4 5429   0.331   0.517  12.788 -1.0847  0.5278 -0.3254
  359MPD2    C5 5430   0.319   0.499  12.658 -0.5966 -0.3140 -0.0829
  359MPD2     H 5431   0.249   0.843  12.799  1.1446 -0.3326  0.9352
  359MPD2    H1 5432   0.364   0.436  12.852 -0.8736 -0.2510 -1.4322
  359MPD2    H2 5433   0.273   0.570  12.470  0.9856  1.4976 -0.3151
  359MPD2    H3 5434   0.334   0.399  12.620  0.3194 -0.2023 -0.0173
  359MPD2     N 5435   0.286   0.652  12.987 -0.1668 -0.2388 -0.2097
  359MPD2    H5 5436   0.311   0.574  13.046  2.1414  0.3592 -0.3862
  359MPD2    N1 5437   0.228   0.836  12.533  0.2091  0.4288 -0.4165
  359MPD2    H7 5438   0.195   0.925  12.569 -0.7311 -0.4010  0.8093
  360TMC3    C1 5439   0.231   0.958  12.336  0.2807  0.0975 -0.3291
  360TMC3    C2 5440   0.318   1.045  12.396 -0.2919  0.4467 -0.0816
  360TMC3    C3 5441   0.383   1.140  12.316 -0.2885 -0.4219 -0.2060
  360TMC3    C4 5442   0.210   0.962  12.197 -0.7846  0.0172  0.5342
  360TMC3    C5 5443   0.271   1.063  12.125 -0.0462  0.5560  0.4212
  360TMC3    C6 5444   0.356   1.157  12.184 -0.0493 -0.1900  0.2043
  360TMC3     C 5445   0.237   0.828  12.393  0.4463  0.1961 -0.4483
  360TMC3     O 5446   0.277   0.730  12.329 -0.6816 -0.1452 -0.2422
  360TMC3     H 5447   0.366   1.034  12.492 -1.1442  1.2511  0.4289
  360TMC3    H1 5448   0.138   0.887  12.166  0.8957 -0.6382 -1.7885
  360TMC3    H2 5449   0.406   1.236  12.130 -1.5930 -0.2431 -1.3011
  360TMC3    C7 5450   0.238   1.097  11.986 -0.1234  0.0551 -0.3131
  360TMC3    C8 5451   0.522   1.161  12.360 -0.1032 -0.3514 -0.2739
  360TMC3    O1 5452   0.273   1.207  11.942  0.2552 -0.8409 -0.5108
  360TMC3    O2 5453   0.530   1.171  12.483 -0.4589 -0.3968 -0.4382
  361MPD2     C 5454   1.930   1.489  17.114  0.0740  0.2670  0.0247
  361MPD2    C1 5455   1.890   1.374  17.053 -0.0492  0.0006 -0.1158
  361MPD2    C2 5456   1.959   1.253  17.070  0.4768 -0.6444 -0.6481
  361MPD2    C3 5457   2.066   1.251  17.158 -0.3718  0.9701  0.6531
  361MPD2    C4 5458   2.099   1.370  17.229  0.5459 -0.4439 -0.0271
  361MPD2    C5 5459   2.038   1.488  17.201  0.3668  0.5050 -0.3582
  361MPD2     H 5460   1.933   1.167  17.009 -0.8958  0.4109 -1.5509
  361MPD2    H1 5461   2.188   1.377  17.290  1.2189 -1.2422 -0.9156
  361MPD2    H2 5462   1.886   1.587  17.098  0.7060  0.8163  1.6507
  361MPD2    H3 5463   2.076   1.585  17.233  1.2068 -0.0018  0.2033
  361MPD2     N 5464   2.150   1.141  17.173 -0.3644 -0.0610  0.5635
  361MPD2    H5 5465   2.227   1.145  17.238 -0.4084 -2.7738  0.7851
  361MPD2    N1 5466   1.778   1.368  16.961 -0.1260 -0.4704 -0.1242
  361MPD2    H7 5467   1.783   1.296  16.889  0.7260 -0.8095  0.2679
  362TMC3    C1 5468   1.572   1.424  16.873  1.1910  0.0648 -0.1390
  362TMC3    C2 5469   1.466   1.370  16.935  0.5343 -0.4389 -0.6711
  362TMC3    C3 5470   1.392   1.284  16.855  0.1576  0.0461  0.0316
  362TMC3    C4 5471   1.620   1.386  16.752 -0.1057  0.3943  0.3330
  362TMC3    C5 5472   1.539   1.315  16.669 -0.1373  0.6503  0.6988
  362TMC3    C6 5473   1.421   1.266  16.722  0.1609 -0.3908 -0.2724
  362TMC3     C 5474   1.682   1.465  16.963  0.8447  0.3055  0.0073
  362TMC3     O 5475   1.649   1.529  17.060 -0.4506  0.0212  0.2141
  362TMC3     H 5476   1.451   1.399  17.038  0.4460 -1.8987 -0.2764
  362TMC3    H1 5477   1.711   1.437  16.720  0.3686 -0.8575 -0.3053
  362TMC3    H2 5478   1.356   1.208  16.658 -0.2327  1.5062 -1.6004
  362TMC3    C7 5479   1.537   1.354  16.529  0.1941 -0.5280  0.3599
  362TMC3    C8 5480   1.259   1.253  16.902  0.0980 -0.0233 -0.1409
  362TMC3    O1 5481   1.429   1.361  16.475  0.0147  0.4693  0.4026
  362TMC3    O2 5482   1.199   1.159  16.851 -0.3812 -0.3936 -0.1037
  363TMC3    C1 5483   0.262   3.329   9.644 -0.4882 -0.0346 -0.6956
  363TMC3    C2 5484   0.295   3.206   9.693 -0.2714 -0.1507  0.5857
  363TMC3    C3 5485   0.197   3.117   9.713 -0.3521 -0.3140  0.4838
  363TMC3    C4 5486   0.133   3.362   9.604  0.0310  0.1191  0.0865
  363TMC3    C5 5487   0.039   3.262   9.622 -0.9303 -0.3528 -0.9124
  363TMC3    C6 5488   0.066   3.138   9.671 -0.4647  0.1533 -0.2943
  363TMC3     C 5489   0.373   3.417   9.604  0.5307  0.3856 -0.4925
  363TMC3     O 5490   0.477   3.361   9.574  0.1005 -0.5895 -0.4361
  363TMC3     H 5491   0.397   3.171   9.707 -0.6421 -1.6364 -0.3660
  363TMC3    H1 5492   0.100   3.463   9.583 -0.9322 -0.3349 -0.5524
  363TMC3    H2 5493   0.005   3.048   9.675 -0.4636  0.1516 -0.3160
  363TMC3    C7 5494   4.641   3.300   9.573  0.0753  0.3958  0.3984
  363TMC3    C8 5495   0.232   2.980   9.741  0.2089  0.5642  0.1903
  363TMC3    O1 5496   4.618   3.406   9.515 -0.0126  0.4933  1.0145
  363TMC3    O2 5497   0.137   2.904   9.713 -0.1726  0.3102 -0.0219
  364MPD2     C 5498   4.167   2.228  10.135 -0.4156 -0.4919 -0.8490
  364MPD2    C1 5499   4.106   2.247  10.254  0.7760 -0.5549  0.0037
  364MPD2    C2 5500   4.083   2.139  10.334 -0.0240  1.0251 -0.5243
  364MPD2    C3 5501   4.118   2.013  10.302 -0.1022 -0.5023  0.1829
  364MPD2    C4 5502   4.173   1.994  10.178  0.0532 -0.0965  0.0337
  364MPD2    C5 5503   4.200   2.097  10.103  0.0023 -0.1227 -0.0555
  364MPD2     H 5504   4.055   2.161  10.437  2.7472  0.3449  0.3846
  364MPD2    H1 5505   4.191   1.892  10.145  1.1623  0.0767  0.0845
  364MPD2    H2 5506   4.200   2.306  10.067  1.9366 -3.6307 -3.3297
  364MPD2    H3 5507   4.250   2.086  10.007 -1.6577  0.9940 -1.0695
  364MPD2     N 5508   4.097   1.904  10.385  0.3724 -0.3528  0.3024
  364MPD2    H5 5509   4.154   1.820  10.376  0.4973 -0.1493 -0.7614
  364MPD2    N1 5510   4.096   2.379  10.304  0.3257  0.3809 -0.2266
  364MPD2    H7 5511   4.153   2.444  10.252 -0.8547 -0.0609 -2.0705
  365TMC3    C1 5512   4.083   2.557  10.446  0.2739  0.4295 -0.2936
  365TMC3    C2 5513   4.196   2.604  10.391  0.0486 -0.8752  0.1935
  365TMC3    C3 5514   4.256   2.712  10.448  0.2900 -0.3733 -0.1220
  365TMC3    C4 5515   4.013   2.625  10.541  0.2170  0.2171  0.0417
  365TMC3    C5 5516   4.064   2.744  10.580 -0.6579  0.3546 -0.0540
  365TMC3    C6 5517   4.186   2.782  10.545  0.0811  0.4238  0.0206
  365TMC3     C 5518   4.024   2.427  10.413  0.0815 -0.5919 -0.0328
  365TMC3     O 5519   3.949   2.362  10.487  0.2926 -0.2110  0.1812
  365TMC3     H 5520   4.255   2.545  10.322  0.2362 -1.3823  0.7838
  365TMC3    H1 5521   3.918   2.590  10.577  0.9218  0.1521  1.8417
  365TMC3    H2 5522   4.229   2.876  10.578  2.0217 -0.6290  0.4904
  365TMC3    C7 5523   4.014   2.830  10.686 -0.0083 -0.3977 -0.0803
  365TMC3    C8 5524   4.383   2.762  10.403  0.4548 -0.1148 -0.1409
  365TMC3    O1 5525   4.081   2.930  10.713  0.5926  0.8612 -0.4286
  365TMC3    O2 5526   4.422   2.854  10.471 -0.4939 -0.6971  0.1399
  366MPD2     C 5527   1.913   4.632  15.379 -0.7454 -0.8199  0.0810
  366MPD2    C1 5528   2.036   4.601  15.437 -0.0616  0.3825  0.2870
  366MPD2    C2 5529   2.065   4.470  15.468 -0.0492  0.6124  0.6171
  366MPD2    C3 5530   1.969   4.373  15.446  0.1201 -0.3995  0.5964
  366MPD2    C4 5531   1.845   4.405  15.399  0.1754 -0.0785 -0.3453
  366MPD2    C5 5532   1.816   4.536  15.368 -0.0924 -0.3127  0.6852
  366MPD2     H 5533   2.167   4.435  15.483 -0.0825 -0.2711 -1.1944
  366MPD2    H1 5534   1.763   4.335  15.391  0.5594 -0.5204 -0.4089
  366MPD2    H2 5535   1.887   4.728  15.336 -0.6740 -1.3064 -1.0398
  366MPD2    H3 5536   1.721   4.565  15.324  0.3023 -0.0421  0.0125
  366MPD2     N 5537   2.019   4.244  15.472 -0.1308 -0.1282 -0.0267
  366MPD2    H5 5538   2.117   4.246  15.500 -0.6106  0.5147  1.5857
  366MPD2    N1 5539   2.136   4.692  15.470 -0.2128  0.1212  0.4120
  366MPD2    H7 5540   2.226   4.655  15.500 -0.5912 -1.3663 -0.3044
  367TMC3    C1 5541   2.257   0.155  15.463  0.4558 -0.4295 -0.0942
  367TMC3    C2 5542   2.345   0.102  15.553  0.2701 -1.0217  0.1537
  367TMC3    C3 5543   2.480   0.134  15.534 -0.3370  0.4310 -0.0777
  367TMC3    C4 5544   2.299   0.233  15.359 -0.2522 -0.1618 -0.0897
  367TMC3    C5 5545   2.429   0.254  15.341  0.1023  0.8090 -0.4301
  367TMC3    C6 5546   2.524   0.197  15.419  0.4315  0.1971 -0.8252
  367TMC3     C 5547   2.126   0.091  15.449  0.6190  0.1032 -0.3494
  367TMC3     O 5548   2.026   0.156  15.412 -0.9178 -0.0477  0.1002
  367TMC3     H 5549   2.316   0.058  15.648 -3.1926 -1.6024 -1.1991
  367TMC3    H1 5550   2.226   0.273  15.289  0.1285  4.2801  2.0549
  367TMC3    H2 5551   2.628   0.225  15.412  0.3998  0.7257  0.9060
  367TMC3    C7 5552   2.449   0.246  15.202  0.2530  0.1164  0.2598
  367TMC3    C8 5553   2.572   0.120  15.647 -0.4595 -0.0588  0.2666
  367TMC3    O1 5554   2.386   0.334  15.146  0.3496  0.9025 -0.0045
  367TMC3    O2 5555   2.563   0.016  15.707 -0.0295 -0.2549  0.1370
  368MPD2     C 5556   3.922   0.642  13.218 -0.4568  0.2097 -0.0461
  368MPD2    C1 5557   3.930   0.764  13.277 -0.7709  0.3560  0.6500
  368MPD2    C2 5558   4.003   0.786  13.397 -0.5354 -0.1658  0.1358
  368MPD2    C3 5559   4.053   0.674  13.459 -0.2679  0.7004 -0.2138
  368MPD2    C4 5560   4.062   0.554  13.394 -0.5502  0.3892 -0.4333
  368MPD2    C5 5561   3.995   0.541  13.270 -0.8109 -0.7997  0.3591
  368MPD2     H 5562   4.014   0.886  13.435 -2.3522 -0.0101  0.2404
  368MPD2    H1 5563   4.109   0.470  13.443 -0.4954 -0.1879 -1.4692
  368MPD2    H2 5564   3.863   0.632  13.128 -2.2168 -0.1074  1.1476
  368MPD2    H3 5565   3.995   0.440  13.230  3.0111  0.8276 -3.7474
  368MPD2     N 5566   4.112   0.684  13.587 -0.7112 -0.1991  0.8932
  368MPD2    H5 5567   4.147   0.597  13.625  0.1369 -0.4144 -0.3997
  368MPD2    N1 5568   3.861   0.864  13.214  0.3993  0.5837 -0.7540
  368MPD2    H7 5569   3.799   0.841  13.137 -0.6685  0.5024  0.1297
  369TMC3    C1 5570   3.737   1.064  13.181  0.3297  0.1830 -0.2009
  369TMC3    C2 5571   3.732   1.198  13.182  0.3403  0.4564 -0.3513
  369TMC3    C3 5572   3.632   1.262  13.107 -1.0665  0.6593  0.5640
  369TMC3    C4 5573   3.635   0.990  13.129 -0.2997  0.4595  0.3581
  369TMC3    C5 5574   3.529   1.057  13.075 -0.4869  0.1854  0.2663
  369TMC3    C6 5575   3.520   1.195  13.067  0.0274  0.2744 -0.7252
  369TMC3     C 5576   3.841   0.995  13.257 -0.5920 -0.1474  0.6582
  369TMC3     O 5577   3.900   1.056  13.347 -0.0827  0.5364 -0.1726
  369TMC3     H 5578   3.819   1.244  13.227 -0.3989 -0.4685  1.9809
  369TMC3    H1 5579   3.627   0.883  13.144 -2.2436  0.5137 -0.3139
  369TMC3    H2 5580   3.435   1.246  13.023  1.2445  2.9145 -0.0007
  369TMC3    C7 5581   3.419   0.977  13.029  0.1109 -0.5088 -0.1241
  369TMC3    C8 5582   3.638   1.406  13.083  0.0962  0.2387  0.6677
  369TMC3    O1 5583   3.432   0.856  13.041  0.1951  0.1222 -0.6496
  369TMC3    O2 5584   3.546   1.449  13.016 -0.2710  0.0659  0.2158
  370TMC3    C1 5585   3.240   2.209  16.476 -0.0755  0.6468 -0.1652
  370TMC3    C2 5586   3.207   2.129  16.585  0.1365  0.1775 -0.1590
  370TMC3    C3 5587   3.138   2.008  16.560  0.3942 -0.4229  0.1363
  370TMC3    C4 5588   3.209   2.174  16.349  1.2871  0.1376  0.8897
  370TMC3    C5 5589   3.144   2.051  16.328  0.5714  0.1841 -0.7992
  370TMC3    C6 5590   3.115   1.966  16.439 -0.1960  0.5273 -0.6031
  370TMC3     C 5591   3.371   2.271  16.489 -0.6315  0.1575  0.4103
  370TMC3     O 5592   3.426   2.242  16.589  0.1531  0.2727  0.4168
  370TMC3     H 5593   3.242   2.156  16.684  1.7136 -0.6877 -0.4949
  370TMC3    H1 5594   3.241   2.228  16.262  0.1180  2.6683  2.0332
  370TMC3    H2 5595   3.057   1.876  16.419 -1.2078  0.2912  3.3212
  370TMC3    C7 5596   3.197   1.987  16.207 -0.0693 -0.4759  0.4441
  370TMC3    C8 5597   3.110   1.918  16.674 -0.1430  0.1353 -0.1850
  370TMC3    O1 5598   3.196   2.057  16.104 -0.0062  0.0201  0.2018
  370TMC3    O2 5599   3.099   1.799  16.664  0.1548  0.5584 -0.0789
  371TMC3    C1 5600   3.990   0.230  15.621 -0.1565  0.3407 -0.5607
  371TMC3    C2 5601   3.892   0.246  15.717  0.7080  0.7355  0.0963
  371TMC3    C3 5602   3.863   0.379  15.747  0.6084 -0.1155  1.0001
  371TMC3    C4 5603   4.044   0.337  15.557  0.4224 -0.2352  0.9871
  371TMC3    C5 5604   4.005   0.460  15.583  0.6644  0.4432  0.2545
  371TMC3    C6 5605   3.923   0.490  15.689 -0.5583 -0.0973  0.1412
  371TMC3     C 5606   4.031   0.090  15.601 -0.0928 -0.1968  0.1611
  371TMC3     O 5607   3.949   0.005  15.636  0.1146  0.1141 -0.2164
  371TMC3     H 5608   3.856   0.169  15.785  1.8708  2.1697  2.3173
  371TMC3    H1 5609   4.126   0.329  15.486 -0.2823 -0.0381  0.1451
  371TMC3    H2 5610   3.888   0.592  15.696 -1.4678 -0.4712  1.1830
  371TMC3    C7 5611   4.066   0.577  15.521  0.0708  0.7407 -0.4546
  371TMC3    C8 5612   3.779   0.391  15.864  0.8140  0.1648  0.3187
  371TMC3    O1 5613   4.021   0.686  15.544 -0.0680  0.6166 -0.3641
  371TMC3    O2 5614   3.729   0.288  15.912 -0.5245 -0.0459 -0.3042
  372MPD2     C 5615   3.569   1.534  13.449  0.1667  0.1219  0.0194
  372MPD2    C1 5616   3.688   1.472  13.486 -0.0588 -0.0254  0.9875
  372MPD2    C2 5617   3.680   1.337  13.512  0.2759  0.1307  0.4519
  372MPD2    C3 5618   3.567   1.256  13.479 -0.4875  0.3676 -0.0932
  372MPD2    C4 5619   3.460   1.321  13.426 -0.0103  0.0460 -0.3505
  372MPD2    C5 5620   3.461   1.458  13.419  0.3864 -0.2068 -0.8725
  372MPD2     H 5621   3.765   1.278  13.545  0.4220 -0.1709 -0.4707
  372MPD2    H1 5622   3.371   1.272  13.389 -1.3192  0.0165  2.8746
  372MPD2    H2 5623   3.562   1.642  13.438 -1.2281  0.1519  1.2862
  372MPD2    H3 5624   3.380   1.516  13.376  0.8292  1.5091  0.6087
  372MPD2     N 5625   3.580   1.118  13.516 -0.6597  0.1365  0.1553
  372MPD2    H5 5626   3.670   1.091  13.553  0.4907  0.3203 -2.5235
  372MPD2    N1 5627   3.807   1.548  13.520  0.2630  0.1220 -0.1370
  372MPD2    H7 5628   3.885   1.484  13.533 -0.1569 -0.7229 -1.7659
  373TMC3    C1 5629   3.542   0.891  13.479  0.1345  0.4201  0.1472
  373TMC3    C2 5630   3.617   0.854  13.583 -0.3500  0.2731 -0.0199
  373TMC3    C3 5631   3.673   0.731  13.591 -0.0908 -0.7569 -0.2407
  373TMC3    C4 5632   3.514   0.797  13.381 -0.2121 -0.0751 -0.1374
  373TMC3    C5 5633   3.570   0.675  13.385  0.9763 -0.6375 -0.0409
  373TMC3    C6 5634   3.658   0.638  13.491  0.6081 -0.0499 -0.2641
  373TMC3     C 5635   3.490   1.028  13.467 -0.1163  0.1165 -0.2226
  373TMC3     O 5636   3.404   1.042  13.379 -0.9016 -0.3627  0.0211
  373TMC3     H 5637   3.635   0.917  13.670 -0.2261 -2.0141  1.5854
  373TMC3    H1 5638   3.460   0.824  13.291 -2.3165  0.2788  1.2563
  373TMC3    H2 5639   3.703   0.539  13.496  0.1364 -0.3118 -1.3281
  373TMC3    C7 5640   3.551   0.584  13.276  0.0976 -0.1483  0.5952
  373TMC3    C8 5641   3.762   0.711  13.708 -0.0870 -0.3139  0.3222
  373TMC3    O1 5642   3.636   0.497  13.270 -0.3619  0.2167  0.0034
  373TMC3    O2 5643   3.797   0.807  13.776  0.1457  0.1557  0.1931
  374TMC3    C1 5644   4.477   1.249   9.522  0.0328  0.0275  0.1253
  374TMC3    C2 5645   4.601   1.284   9.477 -0.0173 -0.3444 -0.2873
  374TMC3    C3 5646   4.612   1.404   9.411 -0.4041  0.0416 -0.2072
  374TMC3    C4 5647   4.376   1.338   9.521 -0.0514  0.1585 -0.2260
  374TMC3    C5 5648   4.390   1.456   9.457  0.4266 -0.0709  0.0063
  374TMC3    C6 5649   4.509   1.494   9.402  0.4045 -0.0365  1.3178
  374TMC3     C 5650   4.437   1.109   9.534 -0.6021  0.3929 -0.2679
  374TMC3     O 5651   4.318   1.080   9.529 -0.2356  0.0838 -0.0491
  374TMC3     H 5652   4.668   1.203   9.449  0.8381 -0.0769  0.9674
  374TMC3    H1 5653   4.284   1.305   9.567 -0.0119 -0.1727 -0.3841
  374TMC3    H2 5654   4.531   1.590   9.355  2.0048 -0.2502  1.6161
  374TMC3    C7 5655   4.271   1.530   9.424  0.5465 -0.8342 -0.2159
  374TMC3    C8 5656   0.009   1.458   9.415  0.3308 -0.6504 -0.2220
  374TMC3    O1 5657   4.163   1.480   9.451  0.3670 -0.7211  0.0372
  374TMC3    O2 5658   0.038   1.536   9.329  0.1203 -0.2613 -0.3301
  375MPD2     C 5659   4.267   1.971  17.159 -0.2025  0.0909 -0.8689
  375MPD2    C1 5660   4.273   2.058  17.053  0.5394 -0.4207  0.5671
  375MPD2    C2 5661   4.343   2.029  16.936  0.4363 -0.2779 -0.3413
  375MPD2    C3 5662   4.409   1.906  16.925  0.5671  0.6160 -0.2193
  375MPD2    C4 5663   4.404   1.819  17.028 -0.3359 -0.4194 -0.5286
  375MPD2    C5 5664   4.342   1.851  17.150  0.3684 -0.6704  0.0868
  375MPD2     H 5665   4.365   2.113  16.871  1.4955 -1.0143 -0.9264
  375MPD2    H1 5666   4.449   1.722  17.010  1.0491  0.0477  0.4250
  375MPD2    H2 5667   4.202   1.979  17.245  0.8065 -2.6247  0.1491
  375MPD2    H3 5668   4.335   1.772  17.223  2.9237  1.1567  2.3488
  375MPD2     N 5669   4.474   1.859  16.805 -0.3245 -0.1134 -0.2862
  375MPD2    H5 5670   4.513   1.765  16.812  0.4370  0.1924 -0.3656
  375MPD2    N1 5671   4.204   2.182  17.055  0.3610  0.0720 -0.1209
  375MPD2    H7 5672   4.221   2.238  16.972  0.6960 -1.7176 -1.2699
  376TMC3    C1 5673   4.564   1.859  16.600 -0.4911  0.3632  0.6591
  376TMC3    C2 5674   4.688   1.817  16.640 -0.6554 -0.6703 -0.7911
  376TMC3    C3 5675   0.046   1.787  16.551  0.0971 -0.1062 -0.0611
  376TMC3    C4 5676   4.533   1.863  16.460  0.4167  0.1896  0.2079
  376TMC3    C5 5677   4.633   1.829  16.379 -0.2408 -0.1644 -0.5327
  376TMC3    C6 5678   0.018   1.778  16.420 -0.0417 -0.0333  0.0611
  376TMC3     C 5679   4.484   1.930  16.693  0.2804 -0.9923  0.5984
  376TMC3     O 5680   4.418   2.027  16.652 -0.3143 -0.1837  0.5100
  376TMC3     H 5681   4.712   1.817  16.746  0.7525 -0.9289 -1.1088
  376TMC3    H1 5682   4.441   1.906  16.423 -1.0296 -1.3210  2.0566
  376TMC3    H2 5683   0.090   1.742  16.347  0.0548 -4.4622  2.3404
  376TMC3    C7 5684   4.612   1.822  16.234 -0.3443 -0.9821 -0.1488
  376TMC3    C8 5685   0.188   1.793  16.583 -0.0734 -0.3709 -0.3306
  376TMC3    O1 5686   4.713   1.842  16.170  0.0406 -0.7661 -0.3318
  376TMC3    O2 5687   0.258   1.846  16.499  0.2294  0.2949  0.2664
  377MPD2     C 5688   2.949   1.334  13.150 -0.0617 -0.3618 -0.6740
  377MPD2    C1 5689   2.905   1.407  13.041 -0.2340  0.5454  0.4144
  377MPD2    C2 5690   2.768   1.420  13.009 -0.3188 -0.6035 -0.7751
  377MPD2    C3 5691   2.678   1.347  13.084  0.5845 -0.6626  0.9287
  377MPD2    C4 5692   2.727   1.270  13.188 -0.7322  0.2953  0.1100
  377MPD2    C5 5693   2.854   1.269  13.230 -0.2412  0.2587 -0.8442
  377MPD2     H 5694   2.728   1.458  12.915  1.0710  0.4143 -0.9482
  377MPD2    H1 5695   2.660   1.213  13.251 -1.3211  0.9175  0.0447
  377MPD2    H2 5696   3.053   1.325  13.179 -1.0084  0.9920  3.1201
  377MPD2    H3 5697   2.882   1.216  13.320 -2.4179  1.0185  0.2582
  377MPD2     N 5698   2.542   1.331  13.065 -0.7175  0.3947  0.3284
  377MPD2    H5 5699   2.493   1.266  13.127  0.5863  0.1224  1.0850
  377MPD2    N1 5700   3.006   1.445  12.956 -0.4468  0.3865  0.2414
  377MPD2    H7 5701   3.103   1.420  12.975  0.9461  3.1728 -3.1679
  378TMC3    C1 5702   3.260   1.656  12.639  0.4306 -0.0166  0.4519
  378TMC3    C2 5703   3.133   1.644  12.696 -0.8085 -0.2659 -0.1833
  378TMC3    C3 5704   3.117   1.539  12.784  0.0523 -0.3391  0.0707
  378TMC3    C4 5705   3.352   1.552  12.655  0.5210  0.0504 -0.1392
  378TMC3    C5 5706   3.325   1.440  12.725  0.3023  0.0666 -0.5721
  378TMC3    C6 5707   3.204   1.432  12.792  0.4687  0.1257 -0.6070
  378TMC3     C 5708   3.272   1.725  12.521  0.3290  0.1263 -0.7102
  378TMC3     O 5709   3.368   1.697  12.452  0.4309 -0.1043  0.5096
  378TMC3     H 5710   3.054   1.718  12.694  0.6128  1.2289 -1.0145
  378TMC3    H1 5711   3.454   1.567  12.622  1.5775 -1.2150  2.5496
  378TMC3    H2 5712   3.178   1.336  12.835 -0.7467  0.0971 -1.4023
  378TMC3    C7 5713   3.403   1.324  12.719 -0.4535  0.0138 -0.2279
  378TMC3    C8 5714   2.994   1.532  12.857  0.1723  0.1920 -0.6739
  378TMC3    O1 5715   3.376   1.239  12.804  0.0658  0.2568  0.1716
  378TMC3    O2 5716   2.898   1.594  12.818  0.3400  0.8058  0.4800
  379MPD2     C 5717   3.812   4.561  16.095 -0.1323  0.3743 -0.0706
  379MPD2    C1 5718   3.706   4.546  16.182 -0.4324 -0.7310 -0.2975
  379MPD2    C2 5719   3.732   4.514  16.315 -0.1210 -0.2608 -0.1625
  379MPD2    C3 5720   3.864   4.500  16.355 -0.4584 -0.2579 -0.1893
  379MPD2    C4 5721   3.971   4.519  16.268 -0.2877 -0.1001  0.7033
  379MPD2    C5 5722   3.934   4.547  16.138 -0.6415  0.2956 -0.6890
  379MPD2     H 5723   3.646   4.503  16.379 -2.7566 -0.5901 -3.7800
  379MPD2    H1 5724   4.076   4.515  16.295  0.3451  0.5051 -1.6777
  379MPD2    H2 5725   3.791   4.575  15.989 -1.0992 -3.0718 -0.3110
  379MPD2    H3 5726   4.010   4.559  16.062 -1.7486 -1.4325 -2.0598
  379MPD2     N 5727   3.902   4.453  16.483 -0.3308  0.3798  0.9900
  379MPD2    H5 5728   3.999   4.426  16.496  0.1724  1.7110  0.0176
  379MPD2    N1 5729   3.577   4.546  16.129  0.1332 -0.3114 -0.1258
  379MPD2    H7 5730   3.565   4.549  16.028  0.0724  0.7026 -0.0950
  380TMC3    C1 5731   3.341   4.542  16.121  1.0385  0.6233  1.4916
  380TMC3    C2 5732   3.336   4.444  16.021 -0.4983 -0.0682 -0.2618
  380TMC3    C3 5733   3.220   4.439  15.951  0.1813  0.7377  0.3075
  380TMC3    C4 5734   3.241   4.627  16.148  0.1753  0.3833  0.2555
  380TMC3    C5 5735   3.130   4.616  16.077 -0.1599 -0.2585 -0.6866
  380TMC3    C6 5736   3.116   4.517  15.983  0.7050 -0.2807 -0.0769
  380TMC3     C 5737   3.463   4.571  16.198  0.0225  0.3334  0.1450
  380TMC3     O 5738   3.456   4.620  16.312 -0.5918 -0.6068  0.4085
  380TMC3     H 5739   3.418   4.389  15.977 -1.0874 -1.7016  0.6509
  380TMC3    H1 5740   3.248   4.704  16.224 -1.0093 -0.4694  1.2264
  380TMC3    H2 5741   3.031   4.517  15.915 -0.9250  0.0826  1.9617
  380TMC3    C7 5742   3.094   0.016  16.036 -0.2274 -0.4959 -0.4024
  380TMC3    C8 5743   3.232   4.371  15.822  0.0495 -0.0313 -0.2049
  380TMC3    O1 5744   3.160   0.107  16.080  0.0450 -0.2991  0.5847
  380TMC3    O2 5745   3.137   4.303  15.784 -0.4193 -0.5763  1.5077
  381TMC3    C1 5746   3.087   1.258  16.433  0.8352  0.2141 -0.1010
  381TMC3    C2 5747   3.187   1.352  16.430  0.2458 -0.1150 -0.4553
  381TMC3    C3 5748   3.215   1.416  16.549  0.0992 -0.0347  0.1127
  381TMC3    C4 5749   3.017   1.228  16.545  0.1783 -0.2763  0.2683
  381TMC3    C5 5750   3.048   1.305  16.652 -0.2196 -0.5742 -0.4431
  381TMC3    C6 5751   3.146   1.398  16.661 -0.4625  0.2672 -0.6757
  381TMC3     C 5752   3.083   1.151  16.336 -0.2826 -0.9365 -0.0129
  381TMC3     O 5753   3.004   1.059  16.360  0.3557 -0.0210  0.0838
  381TMC3     H 5754   3.241   1.383  16.342 -1.4279 -1.0269 -1.7922
  381TMC3    H1 5755   2.933   1.159  16.539  0.6571 -0.8493  0.1642
  381TMC3    H2 5756   3.190   1.434  16.753 -1.7613  1.2489 -0.4337
  381TMC3    C7 5757   3.000   1.258  16.777 -0.1877 -0.4059 -0.7162
  381TMC3    C8 5758   3.341   1.495  16.553  0.1172  0.2563 -0.2652
  381TMC3    O1 5759   2.966   1.139  16.787  0.1782 -0.5536  0.1856
  381TMC3    O2 5760   3.414   1.473  16.458  0.3712  0.1399 -0.6928
  382MPD2     C 5761   2.265   3.635  17.070 -0.7318 -0.0251  0.1194
  382MPD2    C1 5762   2.280   3.639  17.211  0.4164  0.3385 -0.5180
  382MPD2    C2 5763   2.246   3.530  17.291 -0.4948  0.3834 -0.1304
  382MPD2    C3 5764   2.204   3.412  17.232 -0.2181 -0.0808  0.7577
  382MPD2    C4 5765   2.178   3.415  17.100 -0.1867 -0.0921 -0.2085
  382MPD2    C5 5766   2.204   3.529  17.021  0.6713  0.2330  0.2413
  382MPD2     H 5767   2.260   3.541  17.398 -1.8656 -0.7430  0.1707
  382MPD2    H1 5768   2.128   3.329  17.058 -0.8195  1.0636 -1.8533
  382MPD2    H2 5769   2.301   3.718  17.010 -0.6072 -1.0719 -1.2646
  382MPD2    H3 5770   2.183   3.526  16.914  0.5023  3.4828  0.1734
  382MPD2     N 5771   2.168   3.293  17.304  0.4169 -0.3286  0.0877
  382MPD2    H5 5772   2.143   3.211  17.249 -0.7997  0.0820  0.0289
  382MPD2    N1 5773   2.344   3.751  17.277 -0.2115 -0.4951 -0.5582
  382MPD2    H7 5774   2.363   3.745  17.377  1.8260  0.3831 -0.8853
  383TMC3    C1 5775   2.164   3.125  17.464  0.1954  0.2548 -0.1363
  383TMC3    C2 5776   2.074   3.047  17.396  0.4946  0.1637 -0.4988
  383TMC3    C3 5777   2.069   2.914  17.429  0.6515 -0.0336  0.3786
  383TMC3    C4 5778   2.257   3.073  17.543 -0.2270 -0.3455 -0.6080
  383TMC3    C5 5779   2.249   2.937  17.573 -0.5253 -0.3397  0.2913
  383TMC3    C6 5780   2.159   2.856  17.519 -0.0294  0.1255 -0.0511
  383TMC3     C 5781   2.193   3.266  17.434  0.7798 -0.1608  0.4305
  383TMC3     O 5782   2.233   3.341  17.522 -0.4842 -0.4108 -0.2089
  383TMC3     H 5783   1.996   3.089  17.334 -0.5567 -0.4248  0.4338
  383TMC3    H1 5784   2.336   3.140  17.577 -0.6150  0.6614 -1.7056
  383TMC3    H2 5785   2.179   2.749  17.518  1.4976  0.3977  1.7302
  383TMC3    C7 5786   2.370   2.860  17.609 -0.1519  0.2932  0.6157
  383TMC3    C8 5787   1.958   2.839  17.367  0.0571  0.2238 -0.1447
  383TMC3    O1 5788   2.392   2.756  17.552  0.0688  0.2249 -0.2791
  383TMC3    O2 5789   1.896   2.888  17.276 -0.0883 -0.5677 -0.1495
  384MPD2     C 5790   4.152   3.713  11.737 -0.7095 -0.3045 -0.2891
  384MPD2    C1 5791   4.065   3.709  11.843  0.3043 -0.1481  0.1165
  384MPD2    C2 5792   4.031   3.590  11.905 -0.0717 -0.3288 -0.4159
  384MPD2    C3 5793   4.093   3.468  11.865  0.1550 -0.2304 -0.3365
  384MPD2    C4 5794   4.180   3.472  11.757 -0.5149 -0.0550  0.6161
  384MPD2    C5 5795   4.204   3.591  11.688 -0.7605  0.8704  0.2179
  384MPD2     H 5796   3.970   3.590  11.995 -2.0493 -0.0294 -1.7608
  384MPD2    H1 5797   4.215   3.379  11.715 -1.7854 -0.5551  0.6443
  384MPD2    H2 5798   4.169   3.801  11.675  0.7480 -1.8021 -1.9973
  384MPD2    H3 5799   4.264   3.595  11.598 -2.0625  2.0885 -0.5940
  384MPD2     N 5800   4.070   3.351  11.942  0.1690  0.4197  0.1905
  384MPD2    H5 5801   4.003   3.353  12.018  0.5371 -1.8666  0.5911
  384MPD2    N1 5802   4.014   3.828  11.884  0.3531  0.0089  0.5263
  384MPD2    H7 5803   4.057   3.913  11.848 -0.1152 -0.5589 -1.3202
  385TMC3    C1 5804   4.126   3.155  12.050 -0.2355 -0.7507 -0.2159
  385TMC3    C2 5805   4.008   3.094  12.063 -0.0863  0.5788 -0.8323
  385TMC3    C3 5806   3.944   3.098  12.188 -0.5555 -0.5642  0.2684
  385TMC3    C4 5807   4.178   3.221  12.159  0.3611  0.2060 -0.2286
  385TMC3    C5 5808   4.112   3.221  12.280 -0.2223 -0.6079  0.4508
  385TMC3    C6 5809   4.001   3.149  12.299  0.0679 -0.2947 -0.1832
  385TMC3     C 5810   4.128   3.230  11.926 -0.3792 -0.2693  0.4692
  385TMC3     O 5811   4.178   3.182  11.824 -0.5918 -0.4787 -0.2207
  385TMC3     H 5812   3.966   3.056  11.971  2.4318  0.6988 -2.0283
  385TMC3    H1 5813   4.258   3.292  12.141 -0.4349  0.8368 -1.2835
  385TMC3    H2 5814   3.944   3.149  12.392 -0.1018  0.2974 -0.2898
  385TMC3    C7 5815   4.123   3.343  12.359 -0.1689  0.4867 -0.0525
  385TMC3    C8 5816   3.816   3.041  12.209  0.1683 -0.5006 -0.9372
  385TMC3    O1 5817   4.018   3.406  12.388  0.0637 -0.0223 -0.5318
  385TMC3    O2 5818   3.759   3.041  12.319 -0.4988 -0.7102  0.0701
  386TMC3    C1 5819   4.497   1.028  11.867 -0.0486  0.3277 -1.1747
  386TMC3    C2 5820   4.537   1.054  11.740  0.0479 -0.4577  0.4356
  386TMC3    C3 5821   4.469   1.154  11.675 -0.2701  0.5684  0.4621
  386TMC3    C4 5822   4.386   1.084  11.922 -0.1106 -0.0951 -0.6817
  386TMC3    C5 5823   4.316   1.168  11.845  0.5638 -0.7508 -0.1742
  386TMC3    C6 5824   4.352   1.211  11.716  0.7273 -0.3526 -0.2659
  386TMC3     C 5825   4.541   0.908  11.923 -0.7165 -0.1321 -0.1938
  386TMC3     O 5826   4.603   0.837  11.846  0.3076 -0.2186 -0.2408
  386TMC3     H 5827   4.620   1.001  11.694  0.4251  0.9146 -0.4758
  386TMC3    H1 5828   4.358   1.049  12.021  2.2669  1.1289  0.4483
  386TMC3    H2 5829   4.302   1.284  11.653 -2.0768  1.0588  3.6036
  386TMC3    C7 5830   4.188   1.223  11.897 -0.0757 -0.1814 -0.5578
  386TMC3    C8 5831   4.493   1.170  11.535 -0.5234 -0.0750  0.0650
  386TMC3    O1 5832   4.168   1.234  12.018  0.1587 -0.1705  0.2458
  386TMC3    O2 5833   4.465   1.282  11.494  0.3045 -0.6899  0.1180
  387MPD2     C 5834   1.561   1.567  10.188  0.1051  0.5235  0.4042
  387MPD2    C1 5835   1.589   1.491  10.300  0.1176 -0.1951 -0.6078
  387MPD2    C2 5836   1.603   1.355  10.289 -0.0994  0.1682 -0.1717
  387MPD2    C3 5837   1.583   1.289  10.174  0.0440 -0.3427  0.1655
  387MPD2    C4 5838   1.558   1.359  10.060 -0.8993 -0.0588 -0.6896
  387MPD2    C5 5839   1.545   1.505  10.070 -0.7976 -0.0876 -0.8195
  387MPD2     H 5840   1.616   1.300  10.381 -1.9731  2.1810  1.3122
  387MPD2    H1 5841   1.538   1.303   9.970 -2.0587 -1.2082  0.2966
  387MPD2    H2 5842   1.558   1.675  10.192  3.3227  0.6464 -0.4792
  387MPD2    H3 5843   1.522   1.567   9.984  2.2941  2.0866 -0.1006
  387MPD2     N 5844   1.614   1.148  10.180 -0.6880 -0.4684  0.1042
  387MPD2    H5 5845   1.639   1.109  10.270  1.4913 -0.2651 -0.4060
  387MPD2    N1 5846   1.631   1.546  10.425  0.4484  0.1874  0.2668
  387MPD2    H7 5847   1.648   1.475  10.496 -0.5525 -0.5324 -0.2131
  388TMC3    C1 5848   1.774   1.687  10.549 -1.0443  0.3255  0.7022
  388TMC3    C2 5849   1.799   1.807  10.610  0.0587 -0.0686 -0.2615
  388TMC3    C3 5850   1.917   1.817  10.688  0.3506  0.3124  0.1258
  388TMC3    C4 5851   1.862   1.581  10.569  0.2946  0.8319 -0.2558
  388TMC3    C5 5852   1.970   1.590  10.655  0.2683 -0.0034 -0.3879
  388TMC3    C6 5853   2.000   1.712  10.723 -0.2644 -0.1005 -0.6352
  388TMC3     C 5854   1.670   1.678  10.448 -0.4554 -0.2409  0.1894
  388TMC3     O 5855   1.616   1.781  10.413  0.0970  0.6884 -0.8795
  388TMC3     H 5856   1.729   1.888  10.592 -2.0922 -1.9564 -0.2276
  388TMC3    H1 5857   1.860   1.500  10.496 -0.0893 -0.8929  1.6517
  388TMC3    H2 5858   2.082   1.714  10.794 -1.0124 -0.1013  0.2198
  388TMC3    C7 5859   2.069   1.484  10.662  0.5842  0.5082 -0.9774
  388TMC3    C8 5860   1.956   1.951  10.738 -0.0690  0.3235  0.0785
  388TMC3    O1 5861   2.191   1.504  10.690  0.2979  0.2828 -0.3274
  388TMC3    O2 5862   2.039   1.952  10.825 -0.2118 -0.0088 -0.1747
  389MPD2     C 5863   0.649   4.485  10.802 -0.0605 -0.6088 -0.0748
  389MPD2    C1 5864   0.599   4.384  10.728 -0.2685 -0.7103 -0.3142
  389MPD2    C2 5865   0.577   4.255  10.782  0.7271  0.4303  0.2379
  389MPD2    C3 5866   0.597   4.243  10.914  0.6135  0.0918  0.5861
  389MPD2    C4 5867   0.632   4.354  10.994 -0.1670 -0.2921 -0.3316
  389MPD2    C5 5868   0.663   4.474  10.939  0.2865  0.0552  0.3047
  389MPD2     H 5869   0.527   4.172  10.734  1.5901 -0.6886  1.2798
  389MPD2    H1 5870   0.646   4.352  11.102  0.2764 -2.5103 -0.4431
  389MPD2    H2 5871   0.668   4.581  10.756 -1.4148  0.2502  1.1525
  389MPD2    H3 5872   0.691   4.564  10.993 -1.7703  0.5888  0.4662
  389MPD2     N 5873   0.566   4.130  10.987 -0.0385  0.3914  0.1256
  389MPD2    H5 5874   0.557   4.150  11.087  1.8176  1.2172  0.1444
  389MPD2    N1 5875   0.591   4.414  10.590  0.4478 -0.3668  0.5786
  389MPD2    H7 5876   0.617   4.505  10.554  1.3167  0.2455  2.7700
  390TMC3    C1 5877   0.498   3.929  11.064  0.3077  0.4271  0.4660
  390TMC3    C2 5878   0.577   3.975  11.169  0.1389 -0.0703 -0.0758
  390TMC3    C3 5879   0.524   3.966  11.293 -0.2845  0.3119  0.6575
  390TMC3    C4 5880   0.377   3.865  11.082  0.3868 -0.6591 -0.1494
  390TMC3    C5 5881   0.324   3.890  11.208 -0.5251 -1.4378  0.1918
  390TMC3    C6 5882   0.390   3.941  11.312  0.0405 -0.3908  0.5692
  390TMC3     C 5883   0.515   4.010  10.947 -0.2043  0.1550 -0.5793
  390TMC3     O 5884   0.482   3.976  10.835  0.1891  0.2682  0.0186
  390TMC3     H 5885   0.678   4.013  11.161 -0.6759  2.4475  1.3713
  390TMC3    H1 5886   0.328   3.821  10.997 -0.4272  0.4842 -0.2794
  390TMC3    H2 5887   0.346   3.960  11.409 -2.1859 -2.9238  0.0582
  390TMC3    C7 5888   0.232   3.782  11.263 -0.1099 -0.4216 -0.4245
  390TMC3    C8 5889   0.576   4.073  11.384  0.4475  0.4717  0.9479
  390TMC3    O1 5890   0.176   3.813  11.362 -0.0370  0.3298 -0.5016
  390TMC3    O2 5891   0.602   4.172  11.324 -0.0017 -0.4103 -0.0042
  391MPD2     C 5892   0.190   0.891  10.746  0.2706 -0.4641  0.3548
  391MPD2    C1 5893   0.324   0.908  10.767  0.0145 -0.0847 -0.1132
  391MPD2    C2 5894   0.395   0.964  10.657  0.1712 -0.4597 -0.7993
  391MPD2    C3 5895   0.343   0.976  10.532 -0.0335 -0.4720 -0.6427
  391MPD2    C4 5896   0.213   0.946  10.512 -0.4074  0.1300  0.2149
  391MPD2    C5 5897   0.142   0.908  10.619 -0.5742  0.7801 -0.1750
  391MPD2     H 5898   0.495   0.998  10.679  0.0127  0.8379 -2.0393
  391MPD2    H1 5899   0.160   0.947  10.417  1.4776 -1.5843 -0.8752
  391MPD2    H2 5900   0.117   0.847  10.814 -1.1280 -2.6113 -2.5670
  391MPD2    H3 5901   0.038   0.886  10.596 -1.2669  2.8947  0.9895
  391MPD2     N 5902   0.426   1.032  10.432  0.3752  0.5205 -0.2421
  391MPD2    H5 5903   0.523   1.049  10.458  0.1375 -0.4698  1.2700
  391MPD2    N1 5904   0.373   0.872  10.894  0.1828  0.1028  0.7679
  391MPD2    H7 5905   0.298   0.845  10.956  0.7423  1.7023  2.1479
  392TMC3    C1 5906   0.477   1.120  10.217  0.3745 -0.4565 -0.0861
  392TMC3    C2 5907   0.430   1.138  10.088  0.3091 -0.4952 -0.0440
  392TMC3    C3 5908   0.479   1.242  10.016  0.6048  0.2897  0.4030
  392TMC3    C4 5909   0.577   1.200  10.265 -0.6813 -0.0772 -0.1071
  392TMC3    C5 5910   0.620   1.302  10.186 -0.2460  0.1316  0.6768
  392TMC3    C6 5911   0.581   1.318  10.058  0.0996 -0.2652  0.5462
  392TMC3     C 5912   0.378   1.064  10.308 -0.3758  0.3882  0.2840
  392TMC3     O 5913   0.264   1.071  10.260  0.1211 -0.2326 -0.3287
  392TMC3     H 5914   0.357   1.068  10.050 -2.5582  1.2094  2.3165
  392TMC3    H1 5915   0.604   1.199  10.370  0.0287 -0.3526 -0.2927
  392TMC3    H2 5916   0.608   1.405   9.998 -1.3104  0.6735  1.2977
  392TMC3    C7 5917   0.716   1.398  10.243  0.2032 -1.0782 -0.4772
  392TMC3    C8 5918   0.402   1.272   9.893 -0.8442  0.0318  0.7694
  392TMC3    O1 5919   0.792   1.346  10.323 -0.4756 -0.0283  0.7812
  392TMC3    O2 5920   0.295   1.214   9.888 -0.0524 -0.0189  0.3331
  393TMC3    C1 5921   4.011   3.630  10.430  0.5090  0.1560  0.5135
  393TMC3    C2 5922   3.941   3.663  10.543 -0.0301 -0.5389 -0.3502
  393TMC3    C3 5923   3.927   3.559  10.628 -0.5614 -0.2591  0.3098
  393TMC3    C4 5924   4.063   3.508  10.397  0.3298  0.6500  0.9912
  393TMC3    C5 5925   4.043   3.408  10.494 -0.1753 -0.3236 -0.0548
  393TMC3    C6 5926   3.975   3.433  10.605 -0.2330  0.4427  0.1931
  393TMC3     C 5927   4.003   3.729  10.334 -0.4756 -0.0001 -0.4027
  393TMC3     O 5928   3.891   3.775  10.326 -0.3393 -0.0907 -0.3798
  393TMC3     H 5929   3.888   3.755  10.563 -0.3830 -0.9462  0.5621
  393TMC3    H1 5930   4.096   3.489  10.296  1.6115  4.2275  0.7520
  393TMC3    H2 5931   3.963   3.347  10.670 -2.3445 -0.6723 -1.6765
  393TMC3    C7 5932   4.056   3.268  10.451  0.8248  0.0426  0.4620
  393TMC3    C8 5933   3.835   3.585  10.741  0.1087 -0.0326 -0.0177
  393TMC3    O1 5934   3.976   3.197  10.510 -0.4083  0.0753  0.1162
  393TMC3    O2 5935   3.837   3.691  10.802 -0.1223 -0.2734  0.1853
  394TMC3    C1 5936   0.543   4.384  10.357 -0.6603  0.2174 -0.4989
  394TMC3    C2 5937   0.459   4.342  10.265 -0.6399  0.2498  0.0813
  394TMC3    C3 5938   0.455   4.406  10.147 -0.0941  0.1223 -0.2245
  394TMC3    C4 5939   0.639   4.474  10.329  0.2824 -0.7090 -0.0582
  394TMC3    C5 5940   0.640   4.537  10.204  0.0983  0.3958 -0.0174
  394TMC3    C6 5941   0.549   4.501  10.112  0.0094 -0.0351  0.3082
  394TMC3     C 5942   0.540   4.327  10.492 -0.0359  0.4778 -0.3794
  394TMC3     O 5943   0.465   4.225  10.501 -0.0985  0.3041  0.3108
  394TMC3     H 5944   0.386   4.266  10.292 -0.6222  0.4373  0.6545
  394TMC3    H1 5945   0.710   4.502  10.406  1.0729 -2.0072 -0.3101
  394TMC3    H2 5946   0.553   4.533  10.009 -0.5834  0.1226  0.3319
  394TMC3    C7 5947   0.775   4.565  10.143 -0.3629 -0.0488 -0.0082
  394TMC3    C8 5948   0.369   4.350  10.045 -0.1029 -0.8255  0.3104
  394TMC3    O1 5949   0.763   4.616  10.030  0.3050 -0.1211 -0.1691
  394TMC3    O2 5950   0.339   4.431   9.959  0.1600  0.7256 -0.3605
  395TMC3    C1 5951   0.933   1.829  14.839 -0.7619  0.2717 -0.3339
  395TMC3    C2 5952   0.803   1.870  14.807  1.3861 -0.6522  0.4717
  395TMC3    C3 5953   0.781   1.970  14.719 -0.8198  0.5428 -0.1575
  395TMC3    C4 5954   1.037   1.919  14.811 -0.2444 -0.0672 -0.1202
  395TMC3    C5 5955   1.009   2.033  14.733  0.1381  0.2971  0.0872
  395TMC3    C6 5956   0.882   2.055  14.685 -0.4996  0.0081 -0.1087
  395TMC3     C 5957   0.951   1.757  14.966 -0.4585 -0.5325 -0.2155
  395TMC3     O 5958   0.998   1.642  14.960  0.2520 -0.0400 -0.4441
  395TMC3     H 5959   0.714   1.817  14.838  0.4464  1.8216  2.0371
  395TMC3    H1 5960   1.130   1.909  14.865 -0.9941 -2.6995  0.6908
  395TMC3    H2 5961   0.864   2.145  14.627  1.3203  0.0079 -0.6616
  395TMC3    C7 5962   1.093   2.145  14.732 -0.2663 -0.0886 -0.2844
  395TMC3    C8 5963   0.648   2.027  14.720 -0.1146 -0.3761 -0.5390
  395TMC3    O1 5964   1.040   2.257  14.728  0.1131 -0.4368 -0.3760
  395TMC3    O2 5965   0.629   2.136  14.762  0.2539  0.1592 -0.2543
  396MPD2     C 5966   0.337   2.784  16.988  0.0572  0.1632  0.2241
  396MPD2    C1 5967   0.400   2.876  17.070 -0.2392 -0.3687  0.1548
  396MPD2    C2 5968   0.407   3.006  17.021 -0.2460 -1.1375  0.1398
  396MPD2    C3 5969   0.351   3.042  16.897 -0.1036  0.0084  0.2721
  396MPD2    C4 5970   0.309   2.942  16.811  0.4742 -0.1884  0.0500
  396MPD2    C5 5971   0.295   2.816  16.859 -0.4515  0.9464 -0.3873
  396MPD2     H 5972   0.456   3.091  17.067  1.1495 -1.4200 -0.7951
  396MPD2    H1 5973   0.276   2.959  16.709 -1.3670 -0.5901  0.5935
  396MPD2    H2 5974   0.310   2.688  17.031  0.8701 -0.7160 -1.2261
  396MPD2    H3 5975   0.242   2.749  16.792  0.1174  0.6222 -0.5132
  396MPD2     N 5976   0.364   3.178  16.859 -0.1010  0.5897 -0.0064
  396MPD2    H5 5977   0.418   3.235  16.923  1.1217 -1.5746  0.8665
  396MPD2    N1 5978   0.438   2.843  17.204 -0.7827  0.2883 -0.0104
  396MPD2    H7 5979   0.418   2.751  17.243  0.3395  0.5453  1.1656
  397TMC3    C1 5980   0.581   2.842  17.396  0.4522 -0.2686 -0.0882
  397TMC3    C2 5981   0.706   2.892  17.439  0.7621  0.4286 -0.1291
  397TMC3    C3 5982   0.808   2.796  17.463 -0.2328  0.5742  0.0838
  397TMC3    C4 5983   0.564   2.705  17.394  0.2609 -0.3831  0.9219
  397TMC3    C5 5984   0.658   2.625  17.440 -0.1592  0.3126  0.2032
  397TMC3    C6 5985   0.782   2.666  17.469  0.5479  0.2151 -0.1348
  397TMC3     C 5986   0.530   2.912  17.280  0.2269 -0.3413  0.3590
  397TMC3     O 5987   0.554   3.034  17.268  0.3438  0.1184 -0.1153
  397TMC3     H 5988   0.723   2.995  17.413  2.4596 -0.2924 -1.8875
  397TMC3    H1 5989   0.464   2.665  17.405  0.4599 -1.1030  0.0271
  397TMC3    H2 5990   0.867   2.605  17.498  0.7602  0.1606 -0.8578
  397TMC3    C7 5991   0.630   2.490  17.485 -1.0609  0.0941 -0.4548
  397TMC3    C8 5992   0.929   2.827  17.532 -0.1848  0.3609 -0.8788
  397TMC3    O1 5993   0.712   2.397  17.475  0.1920 -0.2517 -0.0598
  397TMC3    O2 5994   0.945   2.757  17.633  0.8139 -0.0135  0.0380
  398MPD2     C 5995   3.672   0.012   0.409 -0.2704  0.2007  0.7724
  398MPD2    C1 5996   3.776   4.669   0.359 -0.1268 -0.3061  0.4978
  398MPD2    C2 5997   3.894   4.726   0.313 -0.6054 -0.9524 -0.5151
  398MPD2    C3 5998   3.907   0.126   0.301 -0.2408  0.4633  0.0604
  398MPD2    C4 5999   3.813   0.204   0.360  0.2406  0.0675 -0.0894
  398MPD2    C5 6000   3.696   0.149   0.411 -0.4332 -0.3134 -0.0781
  398MPD2     H 6001   3.979   4.669   0.279 -0.5443 -0.7462 -0.7095
  398MPD2    H1 6002   3.820   0.312   0.357 -1.6413  0.2092  0.5819
  398MPD2    H2 6003   3.578   4.711   0.450 -0.7693 -0.6313 -1.1591
  398MPD2    H3 6004   3.624   0.220   0.450 -0.2065 -1.6781  2.8137
  398MPD2     N 6005   4.027   0.185   0.253 -0.5730  0.3210  0.1753
  398MPD2    H5 6006   4.095   0.123   0.211  0.9983  1.7392  0.6434
  398MPD2    N1 6007   3.771   4.527   0.350  0.3510  0.5131 -0.0367
  398MPD2    H7 6008   3.854   4.470   0.336 -0.7018 -0.7270 -1.1872
  399TMC3    C1 6009   3.664   4.319   0.334  0.0097  0.5123 -0.2869
  399TMC3    C2 6010   3.779   4.258   0.389  0.1526 -0.1465 -0.0996
  399TMC3    C3 6011   3.780   4.123   0.392 -0.1750 -0.2508 -0.3217
  399TMC3    C4 6012   3.556   4.241   0.300  0.2706  0.0941 -0.2141
  399TMC3    C5 6013   3.555   4.100   0.318 -0.8110  0.1489  0.0572
  399TMC3    C6 6014   3.671   4.042   0.360  0.5683  0.7528 -0.0211
  399TMC3     C 6015   3.654   4.461   0.351 -0.1398 -0.3334 -0.0108
  399TMC3     O 6016   3.542   4.514   0.353  0.0864  0.0597  0.5557
  399TMC3     H 6017   3.867   4.312   0.422 -0.9127  1.0750  0.7521
  399TMC3    H1 6018   3.468   4.294   0.266  1.4651  1.7440 -0.7404
  399TMC3    H2 6019   3.676   3.934   0.364 -1.1296  0.6480 -0.8360
  399TMC3    C7 6020   3.450   4.018   0.273  0.6036  0.0115  0.0120
  399TMC3    C8 6021   3.894   4.064   0.460 -0.2937  0.6489 -0.2284
  399TMC3    O1 6022   3.474   3.897   0.270 -0.0212  0.4058  0.3292
  399TMC3    O2 6023   3.979   4.139   0.502 -0.1834  0.2231 -1.1281
  400TMC3    C1 6024   1.750   2.449  16.903 -0.6671  0.2556 -0.1350
  400TMC3    C2 6025   1.638   2.371  16.891 -0.1875  0.7588 -0.2968
  400TMC3    C3 6026   1.540   2.404  16.809  0.5029 -0.0392  0.9195
  400TMC3    C4 6027   1.753   2.576  16.848 -0.0722 -0.3117  0.7050
  400TMC3    C5 6028   1.641   2.605  16.766  0.3029  0.7815 -0.0925
  400TMC3    C6 6029   1.538   2.519  16.737 -0.5924 -0.2522  0.3413
  400TMC3     C 6030   1.849   2.406  16.999  0.0590 -0.5346 -0.1816
  400TMC3     O 6031   1.839   2.292  17.043  0.0137  0.3788  0.3663
  400TMC3     H 6032   1.627   2.289  16.961 -0.4808 -1.0156 -2.4638
  400TMC3    H1 6033   1.850   2.624  16.837  0.0879 -0.1446  2.9397
  400TMC3    H2 6034   1.461   2.537  16.664 -1.5531  2.9403  2.1070
  400TMC3    C7 6035   1.634   2.724  16.689  0.0210 -0.0095  0.0022
  400TMC3    C8 6036   1.435   2.308  16.798  0.6361  0.1639  0.0777
  400TMC3    O1 6037   1.577   2.721  16.581 -0.6037 -0.6534 -0.0770
  400TMC3    O2 6038   1.418   2.235  16.896 -0.4592  0.0545 -0.3383
  401MPD2     C 6039   0.238   1.548   0.912 -0.2285  0.7156 -0.3545
  401MPD2    C1 6040   0.328   1.474   0.994  0.5605  0.4003  0.1699
  401MPD2    C2 6041   0.310   1.334   1.004  0.2463 -0.4696 -0.1531
  401MPD2    C3 6042   0.204   1.269   0.949 -0.7706  0.2070  0.1904
  401MPD2    C4 6043   0.119   1.339   0.878  0.0565 -0.0775  0.9812
  401MPD2    C5 6044   0.132   1.475   0.859 -0.0590 -0.2752 -0.0216
  401MPD2     H 6045   0.386   1.284   1.062 -1.1147 -0.4888  1.6284
  401MPD2    H1 6046   0.032   1.297   0.830  0.7713 -0.5919  0.1598
  401MPD2    H2 6047   0.244   1.656   0.905 -0.9682  0.7961  0.2701
  401MPD2    H3 6048   0.056   1.520   0.797  0.5252  2.1477  1.0157
  401MPD2     N 6049   0.203   1.125   0.956 -0.1369  0.1255 -0.2357
  401MPD2    H5 6050   0.281   1.087   1.009  0.0060  1.4463  0.5010
  401MPD2    N1 6051   0.438   1.524   1.060 -0.3084  0.4548 -0.1001
  401MPD2    H7 6052   0.487   1.460   1.121  2.0641  2.6924  0.3323
  402TMC3    C1 6053   0.160   0.909   0.891  0.1984  0.2936 -0.0957
  402TMC3    C2 6054   0.203   0.849   1.008  0.3128  0.4036 -0.2219
  402TMC3    C3 6055   0.224   0.714   1.003 -0.4366 -0.0781  0.4758
  402TMC3    C4 6056   0.138   0.840   0.774 -1.5027 -0.1003 -0.8276
  402TMC3    C5 6057   0.162   0.707   0.769  0.3378  0.5080 -0.0983
  402TMC3    C6 6058   0.209   0.644   0.886  0.4698  0.7963  0.0279
  402TMC3     C 6059   0.121   1.044   0.884 -0.2187 -0.1137 -0.2758
  402TMC3     O 6060   0.005   1.071   0.842  0.1509 -0.5109  0.3882
  402TMC3     H 6061   0.210   0.908   1.099  0.0030 -0.2904  0.2528
  402TMC3    H1 6062   0.106   0.892   0.683  2.1025 -0.7694 -2.4597
  402TMC3    H2 6063   0.223   0.537   0.878 -0.3183  0.8290 -1.7670
  402TMC3    C7 6064   0.175   0.654   0.636 -0.3835 -0.6370  0.4342
  402TMC3    C8 6065   0.306   0.644   1.105  0.1176  1.2395 -0.0326
  402TMC3    O1 6066   0.108   0.700   0.547 -0.6057 -0.4739  0.4321
  402TMC3    O2 6067   0.342   0.533   1.075  0.0619 -0.5277  0.3283
  403MPD2     C 6068   3.705   3.155  13.292  0.5704 -0.5219 -0.1523
  403MPD2    C1 6069   3.700   3.292  13.306  0.3235 -0.4292 -0.3068
  403MPD2    C2 6070   3.811   3.358  13.351 -0.2089 -0.0267  0.3983
  403MPD2    C3 6071   3.930   3.292  13.376  0.1059 -0.6405  0.7376
  403MPD2    C4 6072   3.928   3.155  13.362  0.0023  0.5888 -0.4104
  403MPD2    C5 6073   3.820   3.083  13.313  0.0683  0.2022 -0.5204
  403MPD2     H 6074   3.806   3.465  13.370  2.1099  0.2890 -0.7092
  403MPD2    H1 6075   4.020   3.099  13.374 -0.3662 -0.3854 -2.1811
  403MPD2    H2 6076   3.628   3.104  13.236 -0.4490  0.9692 -0.1006
  403MPD2    H3 6077   3.821   2.976  13.295  0.4993  0.4598 -2.0144
  403MPD2     N 6078   4.041   3.362  13.427 -0.1311 -0.4316 -0.0186
  403MPD2    H5 6079   4.048   3.463  13.422  3.2726 -0.5855  1.2126
  403MPD2    N1 6080   3.582   3.348  13.267 -0.2775 -0.1891  0.3158
  403MPD2    H7 6081   3.509   3.289  13.228 -0.0491  0.6531 -1.4115
  404TMC3    C1 6082   3.397   3.480  13.300 -0.5342  0.2690  0.0552
  404TMC3    C2 6083   3.356   3.496  13.427  0.2104 -0.1315  0.1182
  404TMC3    C3 6084   3.245   3.433  13.478 -0.1787 -0.2468 -0.1514
  404TMC3    C4 6085   3.319   3.400  13.220  0.7858  0.6864 -0.1590
  404TMC3    C5 6086   3.206   3.337  13.263 -0.0753 -0.8879 -0.3231
  404TMC3    C6 6087   3.177   3.347  13.397 -0.0617  0.3881  0.8972
  404TMC3     C 6088   3.543   3.475  13.295  0.4482 -0.4218 -0.1295
  404TMC3     O 6089   3.601   3.560  13.364  0.1917  0.0132  0.0605
  404TMC3     H 6090   3.413   3.565  13.488  0.2077  0.9781 -1.1394
  404TMC3    H1 6091   3.368   3.365  13.129 -0.0075 -0.4961 -0.1235
  404TMC3    H2 6092   3.108   3.274  13.440  0.5764  0.4996  2.1147
  404TMC3    C7 6093   3.138   3.232  13.186 -0.3108  0.3642  0.2265
  404TMC3    C8 6094   3.272   3.385  13.612  0.2988  0.2203  0.4304
  404TMC3    O1 6095   3.088   3.138  13.243 -0.5953 -0.7065  0.0656
  404TMC3    O2 6096   3.371   3.312  13.617 -0.0317  0.5981  0.6628
  405MPD2     C 6097   3.338   0.886  14.979  0.2129 -0.0994 -0.1672
  405MPD2    C1 6098   3.442   0.867  14.893 -0.4331 -0.5484 -0.2340
  405MPD2    C2 6099   3.416   0.863  14.758 -0.1971  0.5326  0.7110
  405MPD2    C3 6100   3.293   0.895  14.706  0.2559 -0.6835  0.6055
  405MPD2    C4 6101   3.189   0.913  14.796 -0.5057 -0.1857  0.4730
  405MPD2    C5 6102   3.214   0.902  14.924  0.7996 -0.4379  0.8521
  405MPD2     H 6103   3.493   0.830  14.688 -0.2890  2.0338 -0.0999
  405MPD2    H1 6104   3.090   0.938  14.760 -1.4338 -1.8003  1.9763
  405MPD2    H2 6105   3.347   0.887  15.087  0.2009  2.6785 -0.1831
  405MPD2    H3 6106   3.139   0.932  14.995  1.0410  2.7543 -0.2486
  405MPD2     N 6107   3.284   0.883  14.567  0.1082  0.0225 -0.2100
  405MPD2    H5 6108   3.370   0.873  14.515  0.0056  2.4870 -0.8438
  405MPD2    N1 6109   3.580   0.862  14.929 -0.0863  0.0506  0.6339
  405MPD2    H7 6110   3.650   0.858  14.857 -0.8395  0.8099 -0.1352
  406TMC3    C1 6111   3.136   0.726  14.139  0.6043 -0.3804 -0.8300
  406TMC3    C2 6112   3.247   0.641  14.135 -0.0729  0.4073  0.9407
  406TMC3    C3 6113   3.329   0.637  14.247  0.2335 -0.6562 -0.6823
  406TMC3    C4 6114   3.115   0.792  14.254 -0.0340 -0.2226  0.7537
  406TMC3    C5 6115   3.200   0.791  14.367  0.7516 -0.7284 -0.5853
  406TMC3    C6 6116   3.309   0.706  14.366 -0.0355 -0.1613 -0.6233
  406TMC3     C 6117   3.008   0.672  14.102  0.4158  1.0384  0.5924
  406TMC3     O 6118   2.954   0.699  13.996  0.4099 -0.2705 -0.8312
  406TMC3     H 6119   3.263   0.572  14.052  0.7191 -1.1100  2.3623
  406TMC3    H1 6120   3.016   0.836  14.255  0.5802  1.1178  3.0375
  406TMC3    H2 6121   3.358   0.685  14.460  0.5969 -1.4318 -1.2349
  406TMC3    C7 6122   3.169   0.860  14.493 -0.6633  0.1058  0.0827
  406TMC3    C8 6123   3.446   0.556  14.251 -0.4142 -0.3545 -0.2106
  406TMC3    O1 6124   3.053   0.885  14.514  0.2742 -0.3674 -0.3330
  406TMC3    O2 6125   3.437   0.447  14.197 -0.5184  0.3918  0.4542
  407MPD2     C 6126   1.051   1.156   9.854 -0.2605  0.1845 -0.5674
  407MPD2    C1 6127   1.173   1.154   9.923 -0.2076  0.0438 -0.0648
  407MPD2    C2 6128   1.186   1.232  10.036 -0.2868 -0.0080  0.4048
  407MPD2    C3 6129   1.096   1.325  10.069 -0.0514  0.5030 -0.0726
  407MPD2    C4 6130   0.981   1.338   9.990 -0.6617  0.0134  0.4369
  407MPD2    C5 6131   0.957   1.252   9.887  0.0962 -0.2905 -0.1943
  407MPD2     H 6132   1.279   1.232  10.093 -0.2307 -1.4864  0.2958
  407MPD2    H1 6133   0.906   1.412  10.015 -2.0513 -1.5594  0.9164
  407MPD2    H2 6134   1.035   1.091   9.768 -1.9895  1.3660 -1.1312
  407MPD2    H3 6135   0.865   1.241   9.831 -0.7633  1.0751  0.9544
  407MPD2     N 6136   1.117   1.411  10.181 -0.3929  0.6916  0.4710
  407MPD2    H5 6137   1.070   1.501  10.176 -0.6003  0.5494 -0.1157
  407MPD2    N1 6138   1.290   1.077   9.879 -0.4109  0.3851  0.3575
  407MPD2    H7 6139   1.378   1.084   9.928 -0.0951 -2.3060  0.1926
  408TMC3    C1 6140   1.436   1.038   9.702 -0.2755 -0.9098 -0.7325
  408TMC3    C2 6141   1.504   0.938   9.637 -0.1938 -0.0536 -0.0946
  408TMC3    C3 6142   1.625   0.974   9.596  0.2550 -0.4514 -0.8181
  408TMC3    C4 6143   1.463   1.177   9.697 -0.7480  0.3204 -0.9040
  408TMC3    C5 6144   1.582   1.204   9.631 -0.2496 -0.3306  0.3616
  408TMC3    C6 6145   1.657   1.107   9.580  0.2582 -0.1182  0.2642
  408TMC3     C 6146   1.306   1.004   9.761  0.0807  0.2064  0.5836
  408TMC3     O 6147   1.224   0.961   9.684 -0.8832 -0.0275  0.5985
  408TMC3     H 6148   1.481   0.834   9.654 -1.0285  0.2985  0.9221
  408TMC3    H1 6149   1.419   1.254   9.759 -0.0883  0.7412 -0.9522
  408TMC3    H2 6150   1.758   1.125   9.546 -0.0376  2.3962  0.7064
  408TMC3    C7 6151   1.653   1.322   9.670  0.6514 -0.1313  0.4228
  408TMC3    C8 6152   1.734   0.909   9.658  0.4572  0.7512 -0.3936
  408TMC3    O1 6153   1.775   1.311   9.669  0.7616  0.6949 -0.3865
  408TMC3    O2 6154   1.728   0.785   9.665  0.1646 -0.0653 -0.2684
  409MPD2     C 6155   0.591   2.301  17.173 -0.0469  0.1190 -0.4274
  409MPD2    C1 6156   0.721   2.246  17.168  0.7226 -0.4360 -0.6210
  409MPD2    C2 6157   0.824   2.326  17.125 -0.9876  0.0005 -0.1561
  409MPD2    C3 6158   0.806   2.468  17.103  0.1450  0.0980  0.3299
  409MPD2    C4 6159   0.677   2.521  17.116 -0.1448 -0.8468 -0.5582
  409MPD2    C5 6160   0.574   2.438  17.149 -0.1947  0.4849 -0.2077
  409MPD2     H 6161   0.918   2.277  17.105 -0.2470  1.5126 -0.3828
  409MPD2    H1 6162   0.655   2.625  17.095 -1.2795 -0.9849 -0.0287
  409MPD2    H2 6163   0.510   2.239  17.209 -0.7972  2.0313  1.2172
  409MPD2    H3 6164   0.473   2.477  17.156 -0.4381 -0.4451  1.2443
  409MPD2     N 6165   0.913   2.544  17.061  0.3265 -0.2809  0.5053
  409MPD2    H5 6166   0.889   2.637  17.027 -0.3607 -0.5604  0.2214
  409MPD2    N1 6167   0.753   2.118  17.215 -0.0934  0.0981 -0.0906
  409MPD2    H7 6168   0.852   2.096  17.203 -0.5308  0.0489 -3.5628
  410TMC3    C1 6169   1.137   2.625  17.021  0.6079 -0.4199  0.2692
  410TMC3    C2 6170   1.257   2.623  17.092  0.0840 -0.2050 -0.1040
  410TMC3    C3 6171   1.359   2.694  17.035 -0.7561 -0.3796  0.3201
  410TMC3    C4 6172   1.129   2.683  16.896 -0.2429 -0.6330  0.1604
  410TMC3    C5 6173   1.235   2.759  16.854  0.0237 -0.0074 -0.0277
  410TMC3    C6 6174   1.354   2.762  16.920  0.3515 -0.0923  0.0944
  410TMC3     C 6175   1.049   2.517  17.061  0.0638 -0.7412  0.5404
  410TMC3     O 6176   1.109   2.418  17.101  0.4948 -0.3511  0.2240
  410TMC3     H 6177   1.276   2.570  17.185  1.0673 -0.3106 -0.3665
  410TMC3    H1 6178   1.050   2.662  16.825 -0.0110  2.5225 -1.0404
  410TMC3    H2 6179   1.435   2.822  16.881  0.1156 -0.7092 -1.3684
  410TMC3    C7 6180   1.243   2.779  16.710 -0.7801 -0.7930  0.2514
  410TMC3    C8 6181   1.494   2.687  17.095  0.8881  0.2266  1.2905
  410TMC3    O1 6182   1.223   2.677  16.647  0.3260  0.3654  0.1852
  410TMC3    O2 6183   1.578   2.760  17.046  0.1440 -0.6637  0.3356
  411MPD2     C 6184   1.303   2.732  14.634  0.7468  0.1987  0.1412
  411MPD2    C1 6185   1.191   2.764  14.711 -0.0143  0.1184 -0.4859
  411MPD2    C2 6186   1.081   2.677  14.702  0.3564 -0.1376  0.5859
  411MPD2    C3 6187   1.073   2.575  14.612 -0.0820  0.0329 -0.6194
  411MPD2    C4 6188   1.193   2.536  14.548  0.4620  0.2995 -0.0032
  411MPD2    C5 6189   1.297   2.622  14.553 -0.4871 -0.0458  0.7995
  411MPD2     H 6190   0.991   2.704  14.756  0.9511 -1.1720  2.1080
  411MPD2    H1 6191   1.206   2.459  14.474 -3.0861 -0.7827  0.4982
  411MPD2    H2 6192   1.395   2.790  14.636  1.0085 -0.2134  0.1389
  411MPD2    H3 6193   1.382   2.587  14.496 -1.1416 -0.1333 -0.1303
  411MPD2     N 6194   0.961   2.502  14.575  0.6978 -0.2576  0.0510
  411MPD2    H5 6195   0.985   2.438  14.500  0.8313  0.1153 -0.2173
  411MPD2    N1 6196   1.185   2.885  14.784  0.3828 -0.5668 -0.0797
  411MPD2    H7 6197   1.112   2.895  14.853  1.1406  0.6090  0.5555
  412TMC3    C1 6198   0.741   2.469  14.532 -0.0345 -0.6499  0.0254
  412TMC3    C2 6199   0.621   2.450  14.590 -0.3592 -0.0513  0.2508
  412TMC3    C3 6200   0.539   2.351  14.550  0.3672  0.4803  0.1344
  412TMC3    C4 6201   0.792   2.385  14.437 -0.3293 -0.2148 -0.3311
  412TMC3    C5 6202   0.710   2.282  14.400  0.1518 -0.8341  0.8169
  412TMC3    C6 6203   0.597   2.253  14.472 -0.1427 -0.5485 -0.3993
  412TMC3     C 6204   0.834   2.525  14.618 -0.8365 -0.3845  0.5246
  412TMC3     O 6205   0.800   2.570  14.722 -0.4630  0.2175 -0.5344
  412TMC3     H 6206   0.579   2.524  14.657 -2.2438 -1.5380  0.7143
  412TMC3    H1 6207   0.870   2.418  14.368 -1.3853 -0.0436 -1.4401
  412TMC3    H2 6208   0.541   2.166  14.438 -0.5145 -0.1011 -0.9472
  412TMC3    C7 6209   0.681   2.284  14.257  0.3797 -0.0290 -0.6685
  412TMC3    C8 6210   0.419   2.387  14.490 -0.1361  0.5557 -0.4265
  412TMC3    O1 6211   0.568   2.249  14.230  0.5166  0.4701  0.0762
  412TMC3    O2 6212   0.419   2.498  14.441 -0.6794 -0.3834  0.5502
  413MPD2     C 6213   2.658   1.696  15.734 -0.4858 -0.1476 -0.3770
  413MPD2    C1 6214   2.652   1.682  15.594  0.3158 -0.5608 -0.1712
  413MPD2    C2 6215   2.769   1.647  15.528 -0.6179 -0.3548 -0.7833
  413MPD2    C3 6216   2.876   1.603  15.606 -0.0333  0.2852 -0.1030
  413MPD2    C4 6217   2.876   1.603  15.746  0.4608 -0.6129  0.0694
  413MPD2    C5 6218   2.764   1.656  15.809  0.2154 -0.6789  0.3488
  413MPD2     H 6219   2.773   1.639  15.420 -2.7629  1.5136 -1.0086
  413MPD2    H1 6220   2.956   1.569  15.810  0.1152 -1.5049  0.0287
  413MPD2    H2 6221   2.571   1.729  15.790 -0.7274 -1.5816  0.0882
  413MPD2    H3 6222   2.761   1.668  15.917 -1.5018 -1.8106  0.4256
  413MPD2     N 6223   2.987   1.563  15.534 -0.4007  0.1198 -0.0826
  413MPD2    H5 6224   2.977   1.576  15.433 -0.6261 -1.9645 -0.3272
  413MPD2    N1 6225   2.523   1.703  15.541  0.8207 -0.0716  0.6083
  413MPD2    H7 6226   2.453   1.729  15.610  1.6903  0.5337  1.2699
  414TMC3    C1 6227   3.172   1.440  15.464  0.2896  0.1784  0.1273
  414TMC3    C2 6228   3.218   1.316  15.491  0.8691 -0.6263  0.9871
  414TMC3    C3 6229   3.209   1.228  15.392 -0.1334  0.3485  0.2220
  414TMC3    C4 6230   3.139   1.484  15.339  0.7446  0.0225  0.5948
  414TMC3    C5 6231   3.144   1.394  15.238 -0.9405 -0.0990  0.8817
  414TMC3    C6 6232   3.160   1.265  15.269  0.2196  0.4010 -0.0197
  414TMC3     C 6233   3.097   1.498  15.576 -0.1601 -0.4666  0.5624
  414TMC3     O 6234   3.135   1.481  15.692 -0.0464  0.4664 -0.7293
  414TMC3     H 6235   3.235   1.278  15.591  2.4109 -1.4256  0.4231
  414TMC3    H1 6236   3.112   1.587  15.315  0.3179  0.0218  1.0863
  414TMC3    H2 6237   3.154   1.183  15.198 -2.0458 -0.1710  0.8397
  414TMC3    C7 6238   3.046   1.427  15.133 -0.1425  0.2564  1.1639
  414TMC3    C8 6239   3.282   1.104  15.394  0.0414  0.1872 -0.9824
  414TMC3    O1 6240   2.957   1.492  15.183  0.1233  0.1329  0.2953
  414TMC3    O2 6241   3.242   1.016  15.313  0.2230 -0.1896  0.3351
  415TMC3    C1 6242   3.359   3.425  10.194 -0.4546  0.0423  0.3694
  415TMC3    C2 6243   3.456   3.446  10.104 -0.5363  0.2536  0.0941
  415TMC3    C3 6244   3.450   3.397   9.973  0.2112  0.4316 -0.5813
  415TMC3    C4 6245   3.254   3.336  10.165 -0.4967 -0.0727  0.2517
  415TMC3    C5 6246   3.268   3.281  10.039  0.1782  0.2029  0.5898
  415TMC3    C6 6247   3.361   3.309   9.942  0.0747 -0.1783 -0.4316
  415TMC3     C 6248   3.373   3.460  10.330 -0.3848  0.0198  0.3654
  415TMC3     O 6249   3.290   3.405  10.402  0.2854 -0.1624  0.4677
  415TMC3     H 6250   3.544   3.505  10.128 -0.6683  0.1565  0.8196
  415TMC3    H1 6251   3.180   3.314  10.241 -1.1245  0.6986 -0.1378
  415TMC3    H2 6252   3.369   3.242   9.857  2.8716  1.6013 -1.5897
  415TMC3    C7 6253   3.182   3.165  10.005 -0.3081 -0.0890 -0.0155
  415TMC3    C8 6254   3.561   3.405   9.885 -0.5480 -0.0601 -1.2433
  415TMC3    O1 6255   3.201   3.115   9.896 -0.1184  0.3290  0.3220
  415TMC3    O2 6256   3.564   3.330   9.789 -0.1001  0.5545 -0.5354
  416MPD2     C 6257   0.632   1.985  11.623 -0.5696 -0.5485 -0.0767
  416MPD2    C1 6258   0.504   1.983  11.566  0.8349  0.3291 -0.2288
  416MPD2    C2 6259   0.484   1.891  11.468 -0.2421  0.4011  0.3997
  416MPD2    C3 6260   0.568   1.785  11.456 -0.1129  1.2532 -0.0615
  416MPD2    C4 6261   0.690   1.781  11.521  0.1107  0.0127 -0.3681
  416MPD2    C5 6262   0.723   1.884  11.600 -0.3004  0.4015 -0.4306
  416MPD2     H 6263   0.390   1.904  11.415  0.0323 -0.3455 -0.2658
  416MPD2    H1 6264   0.749   1.690  11.515 -0.6101 -0.3585 -1.9420
  416MPD2    H2 6265   0.662   2.063  11.692  1.9941 -1.2678 -0.3728
  416MPD2    H3 6266   0.819   1.887  11.650 -1.9195  0.4599  2.6900
  416MPD2     N 6267   0.542   1.670  11.377  0.4721  0.0921 -0.6277
  416MPD2    H5 6268   0.598   1.588  11.399  0.2513 -0.1353 -0.9082
  416MPD2    N1 6269   0.406   2.069  11.624  0.6459 -0.2508  0.3424
  416MPD2    H7 6270   0.417   2.120  11.711  0.2909 -0.1949  0.3547
  417TMC3    C1 6271   0.177   2.161  11.650  0.1304 -0.1637 -0.7149
  417TMC3    C2 6272   0.183   2.170  11.782 -0.4752  0.2617 -0.3615
  417TMC3    C3 6273   0.069   2.206  11.850  0.7848 -0.0992  0.1125
  417TMC3    C4 6274   0.061   2.188  11.587 -0.4184  0.3847  0.2590
  417TMC3    C5 6275   4.682   2.219  11.656 -0.1709  0.2609 -0.0674
  417TMC3    C6 6276   4.685   2.228  11.791  0.5417 -0.5343 -0.2541
  417TMC3     C 6277   0.274   2.093  11.571 -0.2997 -0.0453 -0.4192
  417TMC3     O 6278   0.232   2.048  11.463 -0.3367  0.2864 -0.2257
  417TMC3     H 6279   0.274   2.164  11.842 -0.6599  0.7716 -0.0250
  417TMC3    H1 6280   0.051   2.177  11.480  0.7806  1.0610  0.0783
  417TMC3    H2 6281   4.603   2.247  11.860  0.6214  0.9653 -0.5788
  417TMC3    C7 6282   4.568   2.290  11.591  0.1016  0.1577  0.0150
  417TMC3    C8 6283   0.081   2.241  11.991 -0.2265  0.2181  0.1682
  417TMC3    O1 6284   4.577   2.313  11.473  0.5393  0.0282  0.5174
  417TMC3    O2 6285   4.735   2.318  12.026 -0.0174  0.2731 -0.3385
  418TMC3    C1 6286   4.306   0.180   0.058 -0.0563 -0.3238  0.0726
  418TMC3    C2 6287   4.207   0.273   0.080  0.1185 -0.2865 -0.4157
  418TMC3    C3 6288   4.196   0.322   0.207 -0.4922 -0.1308 -0.4359
  418TMC3    C4 6289   4.388   0.125   0.159 -0.4206 -0.6775 -0.1693
  418TMC3    C5 6290   4.371   0.184   0.278 -0.0426 -1.2094 -0.1172
  418TMC3    C6 6291   4.270   0.274   0.309 -0.0619  0.0053  0.1372
  418TMC3     C 6292   4.316   0.125  17.661 -0.5756 -0.0011 -0.1520
  418TMC3     O 6293   4.241   0.162  17.574 -0.1787  0.0265  0.3196
  418TMC3     H 6294   4.146   0.311  17.745  2.9127  1.8202 -1.5478
  418TMC3    H1 6295   4.467   0.053   0.139  2.6755  3.2323 -2.1621
  418TMC3    H2 6296   4.268   0.324   0.406 -0.7684 -2.4022  1.3711
  418TMC3    C7 6297   4.405   0.098   0.389 -0.2189  0.2423 -0.7787
  418TMC3    C8 6298   4.060   0.313   0.243  0.0150  0.4141  1.0271
  418TMC3    O1 6299   4.400   4.712   0.369 -0.2492 -0.7812 -0.1948
  418TMC3    O2 6300   4.008   0.415   0.283 -0.7804  0.1602 -0.2127
  419MPD2     C 6301   2.493   2.247  12.907 -0.0676 -0.7681  0.1149
  419MPD2    C1 6302   2.442   2.341  12.825  0.3761  0.2095  0.0054
  419MPD2    C2 6303   2.337   2.419  12.874  0.5223 -0.1047  0.3497
  419MPD2    C3 6304   2.306   2.423  13.006  0.2730 -0.7253  0.2147
  419MPD2    C4 6305   2.346   2.315  13.081 -0.2737 -0.0027  0.0067
  419MPD2    C5 6306   2.453   2.234  13.036 -0.3906 -0.4036 -0.3832
  419MPD2     H 6307   2.289   2.482  12.800  0.8457 -0.0529  0.1887
  419MPD2    H1 6308   2.306   2.296  13.180 -2.6616 -1.2669 -1.1988
  419MPD2    H2 6309   2.576   2.186  12.874  0.6402 -0.4061  1.2262
  419MPD2    H3 6310   2.496   2.156  13.098 -0.3081  0.0327  0.1092
  419MPD2     N 6311   2.193   2.502  13.039 -0.0832 -0.2692  0.6066
  419MPD2    H5 6312   2.142   2.553  12.968  2.5605  1.6207  0.0369
  419MPD2    N1 6313   2.483   2.349  12.692  0.2495 -0.2286 -0.6465
  419MPD2    H7 6314   2.419   2.397  12.629 -1.6037  0.0932  1.4859
  420TMC3    C1 6315   2.022   2.602  13.173  0.2265 -0.1019  0.4099
  420TMC3    C2 6316   1.917   2.567  13.090 -0.2809  0.5993 -0.1520
  420TMC3    C3 6317   1.797   2.620  13.126 -0.3211  0.4000  0.2175
  420TMC3    C4 6318   2.004   2.668  13.291  0.0556  0.1251 -0.0631
  420TMC3    C5 6319   1.881   2.699  13.334 -0.6572 -0.4126  0.0007
  420TMC3    C6 6320   1.781   2.679  13.247  0.3283  0.1988  0.2103
  420TMC3     C 6321   2.144   2.520  13.172 -0.6967  0.5833  0.0950
  420TMC3     O 6322   2.191   2.487  13.281  0.1065  0.7327 -0.0701
  420TMC3     H 6323   1.937   2.515  12.997  0.4657  0.1826  0.2419
  420TMC3    H1 6324   2.093   2.691  13.349 -1.6442  1.7937  1.8772
  420TMC3    H2 6325   1.683   2.711  13.280 -0.6758 -0.9423 -1.6525
  420TMC3    C7 6326   1.861   2.696  13.481  0.2759  0.3031  0.6297
  420TMC3    C8 6327   1.693   2.632  13.024  0.7805 -0.6296  0.1824
  420TMC3    O1 6328   1.960   2.685  13.554  0.3110 -0.7552  0.0977
  420TMC3    O2 6329   1.616   2.724  13.027 -0.0243 -0.7718 -0.0289
  421TMC3    C1 6330   4.244   3.413  13.522 -0.6400  0.5225 -0.4363
  421TMC3    C2 6331   4.260   3.534  13.460 -0.1957 -1.2024  0.1014
  421TMC3    C3 6332   4.352   3.615  13.513  0.4624  0.1958 -0.0941
  421TMC3    C4 6333   4.315   3.372  13.636 -0.2050  0.5448 -0.7783
  421TMC3    C5 6334   4.408   3.457  13.677 -0.4937 -0.2014  0.3145
  421TMC3    C6 6335   4.427   3.582  13.622 -0.3824  0.2060  0.4185
  421TMC3     C 6336   4.161   3.307  13.470 -0.3726 -0.1804  0.2187
  421TMC3     O 6337   4.185   3.201  13.525 -0.2140 -0.1667  0.1828
  421TMC3     H 6338   4.209   3.565  13.369 -0.5903 -0.5273  0.5467
  421TMC3    H1 6339   4.314   3.271  13.676  0.0917  2.2626  3.6188
  421TMC3    H2 6340   4.508   3.645  13.657 -0.3542  0.0221  0.6833
  421TMC3    C7 6341   4.532   3.402  13.731  0.4426  0.0828  0.0354
  421TMC3    C8 6342   4.365   3.753  13.470  0.7985 -0.1170  0.0416
  421TMC3    O1 6343   4.636   3.452  13.703 -0.0902  0.2285 -0.5411
  421TMC3    O2 6344   4.466   3.807  13.510 -0.7395 -0.8255  0.4991
  422TMC3    C1 6345   1.209   0.290  12.609  0.2344  0.0313 -0.2234
  422TMC3    C2 6346   1.223   0.412  12.659  0.1130 -0.3752  0.4131
  422TMC3    C3 6347   1.164   0.438  12.784 -0.2129  0.1594  0.1112
  422TMC3    C4 6348   1.134   0.191  12.670  0.3369 -0.3146  0.2836
  422TMC3    C5 6349   1.065   0.221  12.782  0.0336  0.3702 -0.0510
  422TMC3    C6 6350   1.072   0.347  12.834  0.0304 -0.4332 -0.4563
  422TMC3     C 6351   1.285   0.265  12.494  0.1722 -0.3130  0.2119
  422TMC3     O 6352   1.346   0.162  12.482 -0.0653 -0.3166  0.6947
  422TMC3     H 6353   1.292   0.483  12.614 -1.3826 -0.8328 -2.5427
  422TMC3    H1 6354   1.127   0.096  12.619  1.9135 -0.1478 -0.2564
  422TMC3    H2 6355   1.008   0.371  12.917 -0.3012 -0.5924 -0.6649
  422TMC3    C7 6356   0.941   0.156  12.802  0.4241 -0.4355 -0.3144
  422TMC3    C8 6357   1.181   0.571  12.837  0.5053 -0.0612 -0.5765
  422TMC3    O1 6358   0.849   0.232  12.808  0.2920 -0.0683 -0.0487
  422TMC3    O2 6359   1.275   0.638  12.802  0.1954  0.0981  0.3359
  423MPD2     C 6360   2.255   1.371   0.833  0.3045  0.2731  0.0916
  423MPD2    C1 6361   2.358   1.463   0.836 -0.0008 -0.0023 -0.3910
  423MPD2    C2 6362   2.434   1.486   0.725  0.0139 -0.1369  0.2355
  423MPD2    C3 6363   2.416   1.421   0.606  0.2646  0.6303 -0.2324
  423MPD2    C4 6364   2.307   1.340   0.594  0.2200  0.2097  0.0239
  423MPD2    C5 6365   2.224   1.322   0.701  0.1139 -0.0516  0.3845
  423MPD2     H 6366   2.505   1.569   0.732  1.4149 -1.3998  1.0740
  423MPD2    H1 6367   2.283   1.293   0.499  2.6266  1.1732 -1.0722
  423MPD2    H2 6368   2.210   1.339   0.926  0.7206  1.6537  0.7613
  423MPD2    H3 6369   2.158   1.237   0.686 -1.4568  0.8249  2.3966
  423MPD2     N 6370   2.495   1.438   0.488 -0.2225 -0.2292  0.0655
  423MPD2    H5 6371   2.490   1.372   0.411  0.6928  1.7462 -1.6732
  423MPD2    N1 6372   2.401   1.507   0.966 -0.5694  0.2426  0.2019
  423MPD2    H7 6373   2.488   1.559   0.974 -0.1946 -0.2086 -0.8789
  424TMC3    C1 6374   2.374   1.586   1.184 -0.0195 -0.1853 -0.6072
  424TMC3    C2 6375   2.503   1.554   1.220 -0.4565 -0.2352 -0.6531
  424TMC3    C3 6376   2.560   1.619   1.326  0.1945 -0.4870  0.1482
  424TMC3    C4 6377   2.289   1.658   1.256  0.7949 -0.5405  0.3758
  424TMC3    C5 6378   2.348   1.721   1.367 -0.6161  0.4021 -0.4550
  424TMC3    C6 6379   2.477   1.703   1.405  0.9689  0.3715 -0.2622
  424TMC3     C 6380   2.312   1.527   1.069 -0.3644  0.4316 -0.0933
  424TMC3     O 6381   2.191   1.499   1.073  0.3206 -0.8817  0.1341
  424TMC3     H 6382   2.571   1.494   1.160 -0.7150  0.2210 -1.3938
  424TMC3    H1 6383   2.186   1.667   1.223  0.7697  0.8019  0.8302
  424TMC3    H2 6384   2.518   1.765   1.484  1.2660 -1.1822  0.8086
  424TMC3    C7 6385   2.275   1.824   1.439 -0.1384  0.2274 -0.1634
  424TMC3    C8 6386   2.704   1.592   1.342  0.1998  0.0150  0.2137
  424TMC3    O1 6387   2.324   1.864   1.545 -0.2563 -0.2288  0.4165
  424TMC3    O2 6388   2.753   1.502   1.278 -0.4585  0.3478  0.0084
  425MPD2     C 6389   1.579   1.164  17.147  0.2365  0.2827  0.0415
  425MPD2    C1 6390   1.486   1.067  17.136 -0.3363 -0.4989  0.3352
  425MPD2    C2 6391   1.367   1.074  17.204  0.3156  0.1767  0.0519
  425MPD2    C3 6392   1.339   1.178  17.294  0.1143 -0.5416 -0.7494
  425MPD2    C4 6393   1.439   1.268  17.316 -0.1364 -0.3851 -0.0837
  425MPD2    C5 6394   1.553   1.260  17.242  0.2779 -0.0491  0.5099
  425MPD2     H 6395   1.282   1.007  17.193  0.0959  0.8367 -2.3329
  425MPD2    H1 6396   1.432   1.349  17.388 -1.6656 -1.0909  0.5507
  425MPD2    H2 6397   1.670   1.170  17.088 -0.9157  0.2667 -1.7466
  425MPD2    H3 6398   1.622   1.344  17.254  2.3771 -1.4849 -1.5628
  425MPD2     N 6399   1.216   1.181  17.366 -0.3178 -0.5434  0.1553
  425MPD2    H5 6400   1.159   1.101  17.339  0.6701 -0.6997 -1.4541
  425MPD2    N1 6401   1.509   0.957  17.051  0.1088  0.3184 -0.6708
  425MPD2    H7 6402   1.601   0.950  17.008  0.5703  1.7014  0.1114
  426TMC3    C1 6403   1.498   0.731  16.974  0.5293 -0.0971  0.2944
  426TMC3    C2 6404   1.531   0.776  16.847  0.2373 -0.0579  0.6232
  426TMC3    C3 6405   1.538   0.671  16.755 -0.1301  0.6061  0.4020
  426TMC3    C4 6406   1.461   0.602  17.003 -0.3859 -0.1286  0.0930
  426TMC3    C5 6407   1.493   0.507  16.913  0.0539 -0.7206 -0.3237
  426TMC3    C6 6408   1.532   0.537  16.785 -0.2850 -0.2793 -0.2746
  426TMC3     C 6409   1.435   0.835  17.063 -0.2461  0.0540 -0.2056
  426TMC3     O 6410   1.345   0.806  17.141 -0.5663 -0.2028 -0.0095
  426TMC3     H 6411   1.551   0.879  16.818  0.1919  0.1136  1.2057
  426TMC3    H1 6412   1.444   0.579  17.108 -1.1537 -1.4443 -0.3243
  426TMC3    H2 6413   1.540   0.460  16.708  1.8133  0.0182 -0.3631
  426TMC3    C7 6414   1.427   0.378  16.932 -0.8791 -0.6976 -0.5605
  426TMC3    C8 6415   1.535   0.714  16.618  0.2162  0.0596 -0.6830
  426TMC3    O1 6416   1.452   0.293  16.845  0.0677 -0.4927 -0.0356
  426TMC3    O2 6417   1.614   0.653  16.549  0.1646 -0.2036 -0.2419
  427MPD2     C 6418   0.848   2.916  14.786 -0.0861 -0.2465 -0.1338
  427MPD2    C1 6419   0.760   2.876  14.892  0.1501  0.0117  0.2133
  427MPD2    C2 6420   0.628   2.860  14.867 -0.2415  0.6346 -0.5403
  427MPD2    C3 6421   0.578   2.860  14.736  0.3160 -0.2178  0.2402
  427MPD2    C4 6422   0.665   2.880  14.630  0.0564  0.3909 -0.2363
  427MPD2    C5 6423   0.797   2.917  14.658 -0.1195  0.7031  0.4795
  427MPD2     H 6424   0.560   2.834  14.946 -0.0461  1.6913 -0.0297
  427MPD2    H1 6425   0.626   2.867  14.530  1.0786 -1.7666 -0.3421
  427MPD2    H2 6426   0.951   2.942  14.810 -0.0235 -0.4363 -0.2046
  427MPD2    H3 6427   0.866   2.923  14.575  1.8046  1.6411  2.1294
  427MPD2     N 6428   0.439   2.844  14.700 -0.1404  0.0621 -0.2806
  427MPD2    H5 6429   0.426   2.835  14.600 -1.1866  2.4919 -0.3599
  427MPD2    N1 6430   0.798   2.851  15.024  0.0061  0.3429  0.3215
  427MPD2    H7 6431   0.727   2.846  15.096 -2.2254  0.9922 -1.8278
  428TMC3    C1 6432   0.937   2.855  15.213 -0.1987  0.3838 -0.1691
  428TMC3    C2 6433   0.844   2.773  15.275 -0.3345 -0.2716 -0.0663
  428TMC3    C3 6434   0.814   2.806  15.409  0.4078 -0.0341 -0.7492
  428TMC3    C4 6435   1.018   2.939  15.284 -0.1236 -0.9127 -0.7692
  428TMC3    C5 6436   1.008   2.937  15.422 -1.0799  0.4019 -0.0734
  428TMC3    C6 6437   0.902   2.878  15.490  0.2745  0.1039  0.1570
  428TMC3     C 6438   0.931   2.867  15.069  0.4208 -0.4522  0.5781
  428TMC3     O 6439   1.041   2.882  15.017 -0.2606  0.3570 -0.5376
  428TMC3     H 6440   0.791   2.707  15.208 -3.5381 -0.8905  3.0397
  428TMC3    H1 6441   1.105   2.965  15.224  1.1909 -2.5295  0.4145
  428TMC3    H2 6442   0.886   2.894  15.596 -0.3302 -2.7117  0.4934
  428TMC3    C7 6443   1.101   3.008  15.513 -0.2961  0.0210 -0.4206
  428TMC3    C8 6444   0.734   2.714  15.481  0.2076 -0.0665 -0.0673
  428TMC3    O1 6445   1.098   2.976  15.632 -0.0617  0.5942  0.1918
  428TMC3    O2 6446   0.705   2.613  15.425 -0.2762 -0.3274  0.4111
  429MPD2     C 6447   1.940   2.968   0.016  0.1479  0.2948  0.3641
  429MPD2    C1 6448   1.827   2.913  17.702  0.5161 -0.1293 -0.0831
  429MPD2    C2 6449   1.756   3.005  17.616  0.3990  0.4312  0.1271
  429MPD2    C3 6450   1.796   3.137  17.611  0.4537 -0.1873 -0.5899
  429MPD2    C4 6451   1.897   3.188  17.689 -0.1390  0.2114  0.2397
  429MPD2    C5 6452   1.969   3.098   0.022 -0.0864  0.2628  0.1764
  429MPD2     H 6453   1.676   2.980  17.548  1.7131  0.9791 -1.6265
  429MPD2    H1 6454   1.930   3.291  17.687 -1.0118  0.5091  1.5948
  429MPD2    H2 6455   2.008   2.907   0.075 -0.6499  1.3426  2.3552
  429MPD2    H3 6456   2.061   3.130   0.069 -0.8873  3.0958 -0.1450
  429MPD2     N 6457   1.735   3.208  17.505 -0.1927 -0.0526  0.2314
  429MPD2    H5 6458   1.686   3.158  17.432  0.1228 -3.1917  2.1607
  429MPD2    N1 6459   1.786   2.777  17.717  0.5431  0.0762  0.4395
  429MPD2    H7 6460   1.704   2.744  17.666  1.9575 -0.0902 -1.7234
  430TMC3    C1 6461   1.729   3.378  17.349 -0.7195  1.0553  0.3818
  430TMC3    C2 6462   1.688   3.507  17.316 -0.4942  0.0534 -0.0837
  430TMC3    C3 6463   1.707   3.550  17.183 -0.7585 -0.1950  0.3830
  430TMC3    C4 6464   1.788   3.299  17.255  0.7208  0.9145  0.0542
  430TMC3    C5 6465   1.809   3.345  17.128  0.2400  0.6504 -0.2017
  430TMC3    C6 6466   1.769   3.473  17.089 -0.6877  0.1757 -0.0431
  430TMC3     C 6467   1.741   3.340  17.491 -0.0588  0.3650  0.6634
  430TMC3     O 6468   1.788   3.429  17.558 -0.2098  0.3475  0.1315
  430TMC3     H 6469   1.640   3.569  17.391 -1.1283  0.3168 -0.7063
  430TMC3    H1 6470   1.822   3.198  17.275  0.9584  0.7065 -1.4448
  430TMC3    H2 6471   1.764   3.510  16.987 -0.0785 -2.1033 -0.9087
  430TMC3    C7 6472   1.813   3.235  17.031 -0.0049  0.6205 -1.0591
  430TMC3    C8 6473   1.599   3.612  17.124 -1.3681 -0.1931  0.5889
  430TMC3    O1 6474   1.876   3.133  17.055 -0.0738  0.0370  0.2675
  430TMC3    O2 6475   1.488   3.555  17.106  0.3814  0.2099 -0.2595
  431MPD2     C 6476   2.252   3.063  12.426  0.4947  0.3919 -0.0313
  431MPD2    C1 6477   2.391   3.049  12.408  0.1178  1.0792  0.6811
  431MPD2    C2 6478   2.437   2.918  12.380  0.0751 -0.2216 -0.3364
  431MPD2    C3 6479   2.361   2.807  12.383  0.1049 -0.4454  0.0743
  431MPD2    C4 6480   2.225   2.822  12.400  0.6592  0.5213  0.1405
  431MPD2    C5 6481   2.176   2.950  12.420  0.2082  0.0086 -0.2490
  431MPD2     H 6482   2.541   2.899  12.358  0.1016  0.7162 -0.9828
  431MPD2    H1 6483   2.166   2.731  12.394  0.1038  0.9759 -1.4002
  431MPD2    H2 6484   2.210   3.162  12.439 -1.7486 -0.4047 -1.2294
  431MPD2    H3 6485   2.068   2.958  12.431  0.0362  2.1014 -3.2242
  431MPD2     N 6486   2.408   2.671  12.364  0.7209 -0.8875 -0.5411
  431MPD2    H5 6487   2.345   2.595  12.387  1.1974 -0.5161  1.9521
  431MPD2    N1 6488   2.486   3.153  12.408  0.3062  0.8114  0.1908
  431MPD2    H7 6489   2.584   3.129  12.411  0.0430 -0.0712  1.4660
  432TMC3    C1 6490   2.577   2.504  12.346  0.0496 -0.5656 -0.4876
  432TMC3    C2 6491   2.691   2.469  12.278  0.1356 -0.0409 -0.0717
  432TMC3    C3 6492   2.769   2.364  12.318  0.1521  0.3616  0.1120
  432TMC3    C4 6493   2.537   2.438  12.454  0.9069  0.1366 -0.0467
  432TMC3    C5 6494   2.612   2.329  12.493 -0.0401 -0.0879  0.5168
  432TMC3    C6 6495   2.729   2.284  12.424 -0.5573  0.5389 -0.2561
  432TMC3     C 6496   2.537   2.644  12.329 -0.4159  0.2546  0.2196
  432TMC3     O 6497   2.605   2.712  12.255  0.0869 -0.0471 -0.1570
  432TMC3     H 6498   2.722   2.529  12.193 -1.1046  0.0472 -0.4575
  432TMC3    H1 6499   2.460   2.490  12.511  0.8544 -1.5432  1.4137
  432TMC3    H2 6500   2.784   2.195  12.453  0.6828  1.3759 -0.0465
  432TMC3    C7 6501   2.598   2.292  12.634  0.5535 -0.4024 -0.1107
  432TMC3    C8 6502   2.878   2.328  12.235 -0.6933 -0.1405 -0.3896
  432TMC3    O1 6503   2.704   2.252  12.691  0.1678 -0.4517  0.0232
  432TMC3    O2 6504   2.880   2.376  12.121  0.0687  0.1500 -0.0986
  433MPD2     C 6505   1.092   1.193  11.043  0.2489  0.1422  0.4620
  433MPD2    C1 6506   1.027   1.079  11.060  0.2530  0.3839 -0.7490
  433MPD2    C2 6507   0.994   1.031  11.187 -0.3978  0.8684  0.7583
  433MPD2    C3 6508   1.046   1.098  11.301  0.0875 -0.8196 -0.9970
  433MPD2    C4 6509   1.104   1.224  11.281 -0.4355 -0.4153 -0.6269
  433MPD2    C5 6510   1.123   1.267  11.155 -0.3652  0.0740 -0.1702
  433MPD2     H 6511   0.940   0.939  11.203 -1.9249  1.8552  1.2809
  433MPD2    H1 6512   1.132   1.291  11.362  0.0795 -1.6020  0.1878
  433MPD2    H2 6513   1.114   1.238  10.946  2.2322  0.4340  1.0390
  433MPD2    H3 6514   1.174   1.362  11.147  0.3088 -0.1216  1.7405
  433MPD2     N 6515   1.041   1.035  11.431  0.2055 -0.2662  0.0363
  433MPD2    H5 6516   0.997   0.944  11.441  0.4329 -0.4613 -0.7384
  433MPD2    N1 6517   0.996   1.011  10.936 -0.6455  0.1928 -0.2301
  433MPD2    H7 6518   1.036   1.051  10.851  1.5557 -3.6519 -0.9992
  434TMC3    C1 6519   0.958   0.813  10.802 -0.5866  0.3733 -0.1289
  434TMC3    C2 6520   0.967   0.681  10.811 -0.3451  0.0193  0.3132
  434TMC3    C3 6521   0.996   0.612  10.701 -0.1450  0.2614  0.2022
  434TMC3    C4 6522   0.988   0.881  10.690 -1.0116  0.1694  0.0681
  434TMC3    C5 6523   1.023   0.809  10.581  0.1529  1.0297  0.3144
  434TMC3    C6 6524   1.034   0.680  10.592  0.0093  0.5816 -0.3471
  434TMC3     C 6525   0.944   0.882  10.932  0.6257 -0.6725 -0.0833
  434TMC3     O 6526   0.876   0.817  11.012  0.6116  0.4595  0.3744
  434TMC3     H 6527   0.960   0.631  10.906 -1.6393  1.6716  1.0933
  434TMC3    H1 6528   0.967   0.987  10.680 -1.9356  0.1864  2.2292
  434TMC3    H2 6529   1.083   0.624  10.513 -0.2921  2.3632 -1.8039
  434TMC3    C7 6530   1.006   0.876  10.450 -0.3122  0.6021 -0.2598
  434TMC3    C8 6531   1.091   0.501  10.730  0.3458  0.5363  0.4832
  434TMC3    O1 6532   1.008   0.996  10.458  0.1403 -0.0235 -0.5196
  434TMC3    O2 6533   1.048   0.397  10.774  0.7884  0.3305  0.2320
  435MPD2     C 6534   3.454   2.177  15.640 -0.2101  0.0141 -0.4721
  435MPD2    C1 6535   3.429   2.193  15.774 -0.1126  0.9292  0.3430
  435MPD2    C2 6536   3.519   2.139  15.865 -0.2439 -0.8832  0.7674
  435MPD2    C3 6537   3.639   2.086  15.812  0.5719  1.0949  0.4958
  435MPD2    C4 6538   3.650   2.066  15.676 -1.4140  0.0221 -0.3060
  435MPD2    C5 6539   3.558   2.104  15.584 -0.1087  0.1337  0.0699
  435MPD2     H 6540   3.512   2.149  15.973 -0.8209  0.1740  0.6314
  435MPD2    H1 6541   3.734   2.016  15.629  0.1319  0.2632  2.2120
  435MPD2    H2 6542   3.390   2.215  15.561 -1.3936  0.5309  0.7304
  435MPD2    H3 6543   3.582   2.087  15.480 -1.2667 -0.1752 -0.1452
  435MPD2     N 6544   3.737   2.035  15.901 -0.5169 -0.1088  0.3008
  435MPD2    H5 6545   3.707   2.050  15.996 -1.0864  1.2932 -0.0986
  435MPD2    N1 6546   3.325   2.266  15.829 -0.5361 -0.6114  0.0628
  435MPD2    H7 6547   3.339   2.273  15.929 -0.2689 -0.2683 -0.0024
  436TMC3    C1 6548   3.049   2.449  16.057 -0.3565 -0.0028 -0.2397
  436TMC3    C2 6549   3.141   2.382  15.983 -0.1545 -0.3305  0.1328
  436TMC3    C3 6550   3.121   2.390  15.844  0.0433 -0.1501  0.7790
  436TMC3    C4 6551   2.945   2.519  15.995 -0.0903 -0.5202 -0.2189
  436TMC3    C5 6552   2.940   2.531  15.859  0.2894  0.0836  1.4324
  436TMC3    C6 6553   3.022   2.458  15.783 -1.0877  0.7390  0.2692
  436TMC3     C 6554   3.084   2.478  16.192 -0.0336  0.4433  0.7442
  436TMC3     O 6555   3.205   2.468  16.217 -0.1981 -0.3289 -0.3243
  436TMC3     H 6556   3.224   2.335  16.035 -1.0715  0.6062  2.4271
  436TMC3    H1 6557   2.891   2.595  16.052  0.9787  0.1091 -0.0520
  436TMC3    H2 6558   3.033   2.488  15.679  2.9775 -2.3678 -0.1950
  436TMC3    C7 6559   2.819   2.585  15.810 -1.0928 -0.4896 -0.2885
  436TMC3    C8 6560   3.216   2.312  15.759 -0.2530  0.4086 -0.0600
  436TMC3    O1 6561   2.734   2.611  15.889  0.5582  0.3884 -0.2416
  436TMC3    O2 6562   3.197   2.322  15.642 -0.3644 -0.1160 -0.1799
  437TMC3    C1 6563   2.469   3.502  11.743  1.0444 -0.1390 -0.1843
  437TMC3    C2 6564   2.354   3.512  11.665 -0.2528  0.0986 -0.6284
  437TMC3    C3 6565   2.310   3.638  11.631 -0.6879  0.3737 -0.4942
  437TMC3    C4 6566   2.541   3.616  11.779  0.0650 -0.0269 -0.0942
  437TMC3    C5 6567   2.508   3.739  11.727 -0.0280  0.4713 -0.3920
  437TMC3    C6 6568   2.390   3.752  11.650  1.0191 -0.2104  0.1371
  437TMC3     C 6569   2.523   3.376  11.794 -0.5177  0.4187  0.5592
  437TMC3     O 6570   2.633   3.375  11.849  0.0827  0.1759 -0.1060
  437TMC3     H 6571   2.314   3.419  11.628 -1.5563  0.3892  0.0072
  437TMC3    H1 6572   2.638   3.608  11.828 -0.5612  1.8467  1.4742
  437TMC3    H2 6573   2.366   3.845  11.600 -1.7251 -0.4573  0.9666
  437TMC3    C7 6574   2.550   3.860  11.794  0.1155 -0.1434 -0.1947
  437TMC3    C8 6575   2.195   3.653  11.545 -0.8546  0.4930  0.2841
  437TMC3    O1 6576   2.510   3.967  11.743 -0.8351 -0.7824 -0.3726
  437TMC3    O2 6577   2.173   3.767  11.512 -0.7074 -0.0986  0.0417
  438MPD2     C 6578   4.173   4.569  16.699 -0.2503  0.3804 -0.7633
  438MPD2    C1 6579   4.228   4.458  16.750 -0.2649 -0.2320  0.3018
  438MPD2    C2 6580   4.223   4.440  16.889  0.0730 -0.5906 -0.3102
  438MPD2    C3 6581   4.167   4.536  16.980  0.2965  0.8379  0.6100
  438MPD2    C4 6582   4.117   4.650  16.923  0.6657  0.5460  0.3435
  438MPD2    C5 6583   4.121   4.661  16.787  0.4810  0.4681  0.1812
  438MPD2     H 6584   4.260   4.342  16.916  0.8810  0.3398  1.8787
  438MPD2    H1 6585   4.073   4.728  16.983  2.1921  0.9841  0.8920
  438MPD2    H2 6586   4.171   4.593  16.594 -1.3477  1.2535 -0.5496
  438MPD2    H3 6587   4.071   0.015  16.755 -1.2856 -0.8718 -0.8404
  438MPD2     N 6588   4.157   4.517  17.120 -0.6561 -0.1792  0.6930
  438MPD2    H5 6589   4.138   4.602  17.171 -0.1120  0.3669 -0.0117
  438MPD2    N1 6590   4.295   4.353  16.673 -0.2094 -0.0226 -0.7055
  438MPD2    H7 6591   4.339   4.277  16.724 -2.7486 -1.0326 -0.0366
  439TMC3    C1 6592   4.359   4.235  16.473  0.2415  0.4097  0.4749
  439TMC3    C2 6593   4.284   4.165  16.378  0.1695  0.3101  0.2653
  439TMC3    C3 6594   4.328   4.035  16.355 -0.9238  0.5013 -0.2504
  439TMC3    C4 6595   4.470   4.183  16.536  0.9028 -0.3355 -0.6901
  439TMC3    C5 6596   4.515   4.059  16.500  0.6302 -0.1864  1.1058
  439TMC3    C6 6597   4.438   3.978  16.411 -0.3597  0.2098  0.1705
  439TMC3     C 6598   4.293   4.348  16.536  0.0069  0.5615 -0.2669
  439TMC3     O 6599   4.230   4.418  16.458  0.2848 -0.0845  0.1228
  439TMC3     H 6600   4.192   4.205  16.337 -1.2879 -1.1565  2.1128
  439TMC3    H1 6601   4.517   4.240  16.615 -0.4654  1.9580 -1.5446
  439TMC3    H2 6602   4.474   3.879  16.387  0.1857 -0.2107  2.7508
  439TMC3    C7 6603   4.632   4.012  16.573  0.2715  0.3409  0.9588
  439TMC3    C8 6604   4.255   3.941  16.267  0.2550 -0.4422  0.2926
  439TMC3    O1 6605   4.692   4.095  16.642 -0.1390  0.2119  0.7389
  439TMC3    O2 6606   4.280   3.822  16.288 -0.5698  0.7365  0.1491
  440MPD2     C 6607   3.151   0.306  14.674  0.0145  0.7454 -0.1935
  440MPD2    C1 6608   3.179   0.411  14.756 -0.7753  0.2894  0.1945
  440MPD2    C2 6609   3.283   0.409  14.844 -0.2868  0.3292  0.5739
  440MPD2    C3 6610   3.350   0.284  14.866  0.5082 -0.2262 -0.8605
  440MPD2    C4 6611   3.312   0.171  14.793  0.3447 -0.1860  0.1899
  440MPD2    C5 6612   3.224   0.193  14.685 -0.4244  0.6578  0.0356
  440MPD2     H 6613   3.310   0.499  14.899 -1.0558 -0.3514  2.0599
  440MPD2    H1 6614   3.370   0.081  14.803  2.2827  1.0671  0.3098
  440MPD2    H2 6615   3.069   0.293  14.605 -0.5526 -0.9693  0.8078
  440MPD2    H3 6616   3.184   0.107  14.632  1.5090 -0.1127 -0.1689
  440MPD2     N 6617   3.445   0.261  14.969 -0.2528 -0.0433 -0.2129
  440MPD2    H5 6618   3.477   0.167  14.991  1.1209  0.6373  0.7535
  440MPD2    N1 6619   3.101   0.531  14.751  0.2397  0.8597 -0.2395
  440MPD2    H7 6620   3.119   0.596  14.828 -1.1839  1.6527 -0.5831
  441TMC3    C1 6621   3.533   0.329  15.189 -0.7727 -0.0646  0.6077
  441TMC3    C2 6622   3.553   0.438  15.266 -0.0782 -0.4611 -0.2576
  441TMC3    C3 6623   3.577   0.408  15.401 -0.4308 -1.1022 -0.9508
  441TMC3    C4 6624   3.536   0.202  15.234  0.9153 -0.6395 -0.5166
  441TMC3    C5 6625   3.573   0.180  15.365 -0.5870 -0.9465 -0.4650
  441TMC3    C6 6626   3.608   0.283  15.450  0.1406 -0.5761  0.2288
  441TMC3     C 6627   3.503   0.360  15.049  0.1826  0.4368  0.3528
  441TMC3     O 6628   3.502   0.477  15.017 -0.1067  0.3925 -0.8232
  441TMC3     H 6629   3.546   0.540  15.230 -1.7514 -0.2455  0.6644
  441TMC3    H1 6630   3.497   0.125  15.168 -1.9694  0.4101 -0.0322
  441TMC3    H2 6631   3.634   0.268  15.554  0.3149 -2.2271 -0.0698
  441TMC3    C7 6632   3.523   0.059  15.431  0.0952  0.7908  0.9104
  441TMC3    C8 6633   3.583   0.522  15.501 -0.2669  0.4341 -0.2390
  441TMC3    O1 6634   3.590   0.028  15.530  0.3353 -0.3686 -0.3550
  441TMC3    O2 6635   3.599   0.494  15.621  1.0362  0.1608 -0.2801
  442MPD2     C 6636   0.989   0.860  16.492 -0.2021  0.1896 -0.1603
  442MPD2    C1 6637   0.919   0.764  16.551 -0.2484 -0.1899 -0.8655
  442MPD2    C2 6638   0.909   0.642  16.484  0.4810 -0.0982 -0.2369
  442MPD2    C3 6639   0.979   0.617  16.371  0.5267  0.1291  0.0061
  442MPD2    C4 6640   1.030   0.727  16.305 -0.0986  0.3758 -0.6274
  442MPD2    C5 6641   1.041   0.845  16.365 -0.5139 -0.0551  0.0812
  442MPD2     H 6642   0.868   0.570  16.554  1.6436  0.9190  1.4896
  442MPD2    H1 6643   1.087   0.716  16.213 -0.3225 -0.0514 -0.7141
  442MPD2    H2 6644   1.015   0.958  16.531  0.9440  0.2747 -1.1150
  442MPD2    H3 6645   1.099   0.921  16.314 -0.5681  0.3393  0.6111
  442MPD2     N 6646   1.002   0.485  16.316  0.0278 -0.2714 -0.0398
  442MPD2    H5 6647   1.069   0.478  16.241 -0.3032  2.2663 -0.5581
  442MPD2    N1 6648   0.850   0.775  16.676  0.8291  0.0660  0.4495
  442MPD2    H7 6649   0.773   0.710  16.690 -0.8256  2.4422  2.3381
  443TMC3    C1 6650   0.737   0.872  16.837 -0.4091  0.1693  0.4832
  443TMC3    C2 6651   0.639   0.949  16.793 -0.2821  0.1846 -0.4863
  443TMC3    C3 6652   0.513   0.921  16.840  0.4340 -0.1925 -0.3263
  443TMC3    C4 6653   0.716   0.766  16.915 -0.0906  0.3881  0.8939
  443TMC3    C5 6654   0.605   0.775  16.999  0.2477  0.0201 -0.7066
  443TMC3    C6 6655   0.496   0.841  16.955 -0.0584 -0.1604 -0.0837
  443TMC3     C 6656   0.858   0.877  16.758 -0.1945 -0.2810 -0.5006
  443TMC3     O 6657   0.917   0.986  16.746  0.4117 -0.4760 -0.1046
  443TMC3     H 6658   0.665   1.020  16.716  1.4869  2.5789  2.3182
  443TMC3    H1 6659   0.790   0.695  16.949  1.1819  1.4133  0.2778
  443TMC3    H2 6660   0.399   0.814  16.995  0.0834  1.2998  1.2497
  443TMC3    C7 6661   0.582   0.649  17.060 -0.4228 -0.0225 -0.2098
  443TMC3    C8 6662   0.434   0.876  16.734 -0.0620  0.7712  0.0767
  443TMC3    O1 6663   0.639   0.549  17.013 -0.0185  0.2740 -0.2428
  443TMC3    O2 6664   0.388   0.761  16.736 -0.4920 -0.8636 -0.1755
  444MPD2     C 6665   1.132   0.460  16.697  0.5207 -0.7395 -0.2357
  444MPD2    C1 6666   1.114   0.336  16.745  0.0669  0.3159  0.7451
  444MPD2    C2 6667   1.173   0.227  16.685 -0.0028 -0.0327 -1.0859
  444MPD2    C3 6668   1.265   0.241  16.580  0.0207 -0.4571  1.1298
  444MPD2    C4 6669   1.292   0.370  16.540 -0.2523 -0.0862  0.1739
  444MPD2    C5 6670   1.220   0.477  16.592  0.0998  0.6966 -0.6340
  444MPD2     H 6671   1.151   0.128  16.723 -0.1117  0.5105  0.2485
  444MPD2    H1 6672   1.365   0.396  16.464  0.2444  0.6269  0.8837
  444MPD2    H2 6673   1.081   0.547  16.736  0.0935 -0.7614 -0.7529
  444MPD2    H3 6674   1.239   0.578  16.555 -0.4831  1.2777  0.6611
  444MPD2     N 6675   1.325   0.126  16.520 -0.0160  0.5547 -0.5392
  444MPD2    H5 6676   1.286   0.037  16.548 -0.7824 -0.1498 -3.8502
  444MPD2    N1 6677   1.032   0.311  16.857  0.2080  0.4466 -0.3362
  444MPD2    H7 6678   1.016   0.214  16.883 -0.9639  0.4854 -0.9279
  445TMC3    C1 6679   1.458   4.722  16.399  0.3004 -0.2806  0.0862
  445TMC3    C2 6680   1.348   4.650  16.369 -0.4348  0.2947  0.1153
  445TMC3    C3 6681   1.348   4.514  16.399  0.1904 -0.6213  0.2084
  445TMC3    C4 6682   1.568   4.665  16.453 -0.5410 -0.4589  0.3516
  445TMC3    C5 6683   1.562   4.534  16.492  0.0447 -0.0005 -0.5350
  445TMC3    C6 6684   1.450   4.452  16.468  0.6451  0.2078  0.2278
  445TMC3     C 6685   1.434   0.120  16.437 -0.1987  0.0047  1.0109
  445TMC3     O 6686   1.511   0.214  16.403 -0.1113  0.2572 -0.3615
  445TMC3     H 6687   1.273   4.694  16.303 -1.8592  1.8023  2.7341
  445TMC3    H1 6688   1.656   4.725  16.474 -1.3971  0.3120  1.6901
  445TMC3    H2 6689   1.439   4.349  16.497  2.9396 -0.1803 -0.2615
  445TMC3    C7 6690   1.674   4.455  16.525  0.2337 -0.4842  0.5647
  445TMC3    C8 6691   1.258   4.432  16.311 -0.5969 -0.9615  0.0748
  445TMC3    O1 6692   1.650   4.361  16.599  0.1709  0.3788 -0.6684
  445TMC3    O2 6693   1.182   4.494  16.237 -0.5138  0.0280 -0.0628
  446MPD2     C 6694   0.943   0.228  11.191  0.4669 -0.1693  0.0852
  446MPD2    C1 6695   0.953   0.309  11.076  0.1597 -0.1406 -0.0458
  446MPD2    C2 6696   1.055   0.403  11.082 -0.2731 -0.6516 -0.1737
  446MPD2    C3 6697   1.123   0.431  11.197  0.2717 -0.2871 -0.2797
  446MPD2    C4 6698   1.098   0.360  11.306  0.2295  0.4871  0.4529
  446MPD2    C5 6699   1.010   0.263  11.301  0.4199 -0.5141 -0.1463
  446MPD2     H 6700   1.071   0.455  10.988 -0.1960 -1.1759 -0.4520
  446MPD2    H1 6701   1.154   0.384  11.396  0.6487  0.0202  0.3161
  446MPD2    H2 6702   0.871   0.147  11.199  0.1317  0.4297  3.1063
  446MPD2    H3 6703   1.008   0.200  11.389  2.5158 -0.4919 -0.0826
  446MPD2     N 6704   1.228   0.529  11.208 -0.5592  0.2019 -0.1695
  446MPD2    H5 6705   1.298   0.511  11.278  0.0521 -0.0910 -0.8569
  446MPD2    N1 6706   0.879   0.280  10.959 -0.5836  0.0909 -0.3669
  446MPD2    H7 6707   0.913   0.338  10.883 -0.3633  0.1053 -0.2576
  447TMC3    C1 6708   1.341   0.731  11.141 -0.0946 -0.4827 -1.0272
  447TMC3    C2 6709   1.324   0.859  11.104 -0.8368 -0.0150  0.8499
  447TMC3    C3 6710   1.428   0.949  11.119 -1.2808 -0.0736  0.6541
  447TMC3    C4 6711   1.459   0.678  11.180 -0.0535 -0.2773 -0.1642
  447TMC3    C5 6712   1.559   0.771  11.197 -0.3726  0.0883  0.0917
  447TMC3    C6 6713   1.548   0.907  11.166 -0.2931 -0.0067 -0.2501
  447TMC3     C 6714   1.219   0.648  11.143 -0.1885  0.8204 -0.0559
  447TMC3     O 6715   1.128   0.689  11.075 -0.0394 -0.3886  0.4439
  447TMC3     H 6716   1.226   0.898  11.078 -0.3231 -1.1573 -2.7342
  447TMC3    H1 6717   1.483   0.575  11.205  1.9355  0.6335  1.6577
  447TMC3    H2 6718   1.633   0.974  11.160 -0.1218 -0.2966 -1.0731
  447TMC3    C7 6719   1.689   0.722  11.191 -0.1083  0.0499 -0.3829
  447TMC3    C8 6720   1.429   1.067  11.037 -0.8661  0.3474 -0.3827
  447TMC3    O1 6721   1.768   0.765  11.114 -0.8842 -0.5643  1.2162
  447TMC3    O2 6722   1.381   1.059  10.927 -0.5306 -0.5467  0.3291
  448TMC3    C1 6723   3.910   0.621  16.969 -0.1944 -0.0159  0.4050
  448TMC3    C2 6724   3.884   0.559  16.855  0.3507  0.1182  0.0281
  448TMC3    C3 6725   3.916   0.428  16.841 -0.6806  0.1151 -0.3393
  448TMC3    C4 6726   3.972   0.566  17.072  0.1431  0.2941  0.3623
  448TMC3    C5 6727   3.999   0.430  17.063 -0.0305 -1.1852 -0.2642
  448TMC3    C6 6728   3.980   0.369  16.946 -0.5815 -0.1196 -0.1398
  448TMC3     C 6729   3.928   0.767  16.956  0.3035  0.0811 -0.3585
  448TMC3     O 6730   3.843   0.829  16.900  0.1490 -0.2068  0.4047
  448TMC3     H 6731   3.826   0.606  16.777  1.6011  0.5180 -0.6626
  448TMC3    H1 6732   3.998   0.637  17.150 -3.1917 -0.1026  1.8222
  448TMC3    H2 6733   4.010   0.265  16.937  0.3864  0.2120 -0.8065
  448TMC3    C7 6734   4.104   0.372  17.146  0.3893 -0.7528 -0.5192
  448TMC3    C8 6735   3.981   0.390  16.719 -0.9563 -0.0522  1.0625
  448TMC3    O1 6736   4.157   0.269  17.104  0.4520  0.7823  0.3865
  448TMC3    O2 6737   4.101   0.375  16.720 -0.4889 -0.5860 -0.3034
  449MPD2     C 6738   1.548   3.968  13.961 -0.6393  0.6734  0.2861
  449MPD2    C1 6739   1.416   3.982  13.921  0.1812  0.0598 -0.2485
  449MPD2    C2 6740   1.322   3.883  13.951 -0.1037 -0.2183 -0.5458
  449MPD2    C3 6741   1.359   3.762  14.001  0.0329  0.2790  0.2710
  449MPD2    C4 6742   1.487   3.750  14.046  0.0677 -0.7053  0.6898
  449MPD2    C5 6743   1.579   3.853  14.037  0.3674  0.0402  0.0485
  449MPD2     H 6744   1.217   3.894  13.924 -0.3736 -0.0303  0.5858
  449MPD2    H1 6745   1.522   3.664  14.102 -1.2674  0.5883  3.4723
  449MPD2    H2 6746   1.620   4.048  13.948 -0.4831  0.1474 -2.1000
  449MPD2    H3 6747   1.678   3.840  14.079  1.2867  0.0408 -2.1247
  449MPD2     N 6748   1.263   3.661  14.010  0.3767 -0.0879  0.6108
  449MPD2    H5 6749   1.170   3.681  13.975  0.7214  1.3261  0.4996
  449MPD2    N1 6750   1.366   4.099  13.848  0.0753  0.3063 -0.1374
  449MPD2    H7 6751   1.265   4.105  13.846  0.0422 -0.5104 -1.1208
  450TMC3    C1 6752   1.353   4.299  13.741  0.1852  0.1736  0.3579
  450TMC3    C2 6753   1.384   4.310  13.608 -0.0221 -0.5024 -0.2213
  450TMC3    C3 6754   1.283   4.287  13.520  0.3210 -0.1921 -0.8773
  450TMC3    C4 6755   1.222   4.302  13.784  0.5918 -0.3975  0.6814
  450TMC3    C5 6756   1.125   4.280  13.692  0.2739 -0.6615 -0.7769
  450TMC3    C6 6757   1.154   4.273  13.558 -1.0715 -0.2561 -0.1339
  450TMC3     C 6758   1.438   4.212  13.817 -0.7072 -0.5690 -0.2001
  450TMC3     O 6759   1.558   4.235  13.813 -0.5829  0.5922 -0.1644
  450TMC3     H 6760   1.488   4.285  13.589 -0.8016 -0.4652 -4.7359
  450TMC3    H1 6761   1.206   4.294  13.891 -2.3350  1.8851  0.4021
  450TMC3    H2 6762   1.081   4.254  13.481 -1.2154  1.1456 -0.3297
  450TMC3    C7 6763   1.036   4.177  13.747  0.0404  0.2570  0.3022
  450TMC3    C8 6764   1.310   4.258  13.379  0.2366 -0.8790  0.5928
  450TMC3    O1 6765   1.079   4.122  13.852  0.4557  0.1590 -0.8616
  450TMC3    O2 6766   1.218   4.209  13.311  0.4625  0.2368 -0.3356
  451MPD2     C 6767   2.659   2.638   1.276 -0.2635  0.6403 -0.1917
  451MPD2    C1 6768   2.679   2.775   1.265  0.0007  0.2061 -0.0509
  451MPD2    C2 6769   2.604   2.835   1.163 -0.1674  0.0452  0.2760
  451MPD2    C3 6770   2.521   2.760   1.077 -0.2006  0.2193  0.6897
  451MPD2    C4 6771   2.519   2.622   1.090  0.4990  0.2871 -0.6480
  451MPD2    C5 6772   2.586   2.563   1.189 -0.6084  0.4292 -0.6453
  451MPD2     H 6773   2.598   2.943   1.157  1.8092  0.0400 -1.7383
  451MPD2    H1 6774   2.467   2.567   1.013  1.5895  0.4195 -1.4784
  451MPD2    H2 6775   2.705   2.571   1.348 -0.1593 -0.6716 -1.4763
  451MPD2    H3 6776   2.584   2.455   1.195 -1.3218  0.3963 -1.4721
  451MPD2     N 6777   2.442   2.830   0.984  0.0188 -0.4409 -0.1612
  451MPD2    H5 6778   2.456   2.930   0.978  0.4632 -0.3784  2.0588
  451MPD2    N1 6779   2.750   2.848   1.369 -0.3400  0.4221  0.0377
  451MPD2    H7 6780   2.811   2.792   1.428 -0.4922 -1.7219 -1.8230
  452TMC3    C1 6781   2.286   2.881   0.819 -0.0857  0.1556  0.9624
  452TMC3    C2 6782   2.147   2.882   0.804 -0.2147  0.0039  0.4988
  452TMC3    C3 6783   2.095   2.977   0.717  0.1677  0.6258  0.4136
  452TMC3    C4 6784   2.363   2.972   0.755  0.2170  0.1598  0.1979
  452TMC3    C5 6785   2.303   3.063   0.673  0.5219  0.1715  0.9492
  452TMC3    C6 6786   2.172   3.067   0.650 -0.3144 -0.0431  0.3181
  452TMC3     C 6787   2.348   2.777   0.900  0.1500  0.9081  0.5547
  452TMC3     O 6788   2.295   2.668   0.898 -0.0713  0.2873  0.2169
  452TMC3     H 6789   2.078   2.813   0.850 -0.9419 -0.2743 -0.9930
  452TMC3    H1 6790   2.471   2.963   0.758  0.2760  1.5271  2.2998
  452TMC3    H2 6791   2.120   3.141   0.590 -0.2951 -1.6597 -1.7142
  452TMC3    C7 6792   2.399   3.118   0.575  0.2999  0.0138 -0.3662
  452TMC3    C8 6793   1.951   2.985   0.714 -0.4289 -0.0379 -0.4206
  452TMC3    O1 6794   2.516   3.081   0.581  0.2863  0.7585 -0.4108
  452TMC3    O2 6795   1.881   2.882   0.717 -0.3646  0.1457  0.3297
  453TMC3    C1 6796   3.583   4.679  11.846 -0.1683 -0.2437  0.2459
  453TMC3    C2 6797   3.491   4.602  11.915 -0.1610 -0.0295  0.3660
  453TMC3    C3 6798   3.365   4.597  11.863  0.0646 -0.4925  0.9938
  453TMC3    C4 6799   3.547   0.028  11.747 -0.0511 -0.0901 -0.0365
  453TMC3    C5 6800   3.418   0.029  11.707  0.5954 -0.3845 -0.1875
  453TMC3    C6 6801   3.325   4.683  11.765  0.3731  0.9070  0.3066
  453TMC3     C 6802   3.721   4.666  11.868 -0.2256  0.4897  0.6793
  453TMC3     O 6803   3.784   0.026  11.830  0.0150  0.1075 -0.1058
  453TMC3     H 6804   3.525   4.543  12.000  1.2414  1.4206  0.8185
  453TMC3    H1 6805   3.617   0.100  11.705 -0.8224  0.3751 -0.5336
  453TMC3    H2 6806   3.224   4.674  11.726  1.2037 -0.6663 -1.4620
  453TMC3    C7 6807   3.383   0.128  11.608  0.1416  0.1493 -0.6165
  453TMC3    C8 6808   3.270   4.501  11.905 -0.2103  0.0841  0.3805
  453TMC3    O1 6809   3.474   0.172  11.534  0.4384 -0.1661 -0.2852
  453TMC3    O2 6810   3.152   4.521  11.878 -0.7650 -0.2969 -0.3253
  454MPD2     C 6811   2.082   0.195  15.916  0.4318 -0.0788 -0.1158
  454MPD2    C1 6812   1.986   0.195  15.820  0.4983 -0.6935  0.1055
  454MPD2    C2 6813   1.918   0.308  15.794  0.1878 -0.4047  0.9015
  454MPD2    C3 6814   1.914   0.405  15.892  0.5133  0.0155  0.6794
  454MPD2    C4 6815   2.002   0.404  15.995  0.8523  0.5772  0.0033
  454MPD2    C5 6816   2.088   0.299  16.004  0.0367  0.7700  0.1537
  454MPD2     H 6817   1.850   0.318  15.710  0.9643 -0.0296  0.3172
  454MPD2    H1 6818   2.000   0.484  16.068  1.6671  1.9780 -1.5079
  454MPD2    H2 6819   2.162   0.122  15.912  0.1023 -0.4947  0.9138
  454MPD2    H3 6820   2.165   0.296  16.080 -0.3729  0.7075  0.5674
  454MPD2     N 6821   1.816   0.507  15.900  0.3664 -0.5753  0.9884
  454MPD2    H5 6822   1.803   0.559  15.986 -0.9196  0.3814  0.2085
  454MPD2    N1 6823   1.952   0.087  15.751 -0.1244  0.1279 -0.4054
  454MPD2    H7 6824   1.878   0.096  15.682  0.0143 -0.7244 -0.6668
  455TMC3    C1 6825   1.588   0.451  15.920  0.4677  0.1963 -0.4163
  455TMC3    C2 6826   1.494   0.536  15.963 -0.7408  0.0508 -0.1879
  455TMC3    C3 6827   1.395   0.485  16.039  0.3219  0.3074  0.5674
  455TMC3    C4 6828   1.598   0.316  15.940  0.2128 -0.1810  1.7939
  455TMC3    C5 6829   1.498   0.267  16.021  0.6444  0.7357 -0.2830
  455TMC3    C6 6830   1.394   0.347  16.061 -0.1618  0.6085  0.0578
  455TMC3     C 6831   1.696   0.500  15.834 -0.0538  0.4183 -0.0446
  455TMC3     O 6832   1.682   0.475  15.715 -0.4078 -0.7808  0.1724
  455TMC3     H 6833   1.508   0.642  15.946 -1.6533  0.1668 -0.2085
  455TMC3    H1 6834   1.676   0.263  15.887 -0.2614  1.1841 -0.2712
  455TMC3    H2 6835   1.312   0.300  16.113  0.8891  0.1547  1.3195
  455TMC3    C7 6836   1.488   0.122  16.051  0.9177  0.0097  0.3505
  455TMC3    C8 6837   1.352   0.564  16.158 -0.2110 -0.3898  0.7485
  455TMC3    O1 6838   1.383   0.070  16.087 -0.0880 -0.1214  0.0252
  455TMC3    O2 6839   1.300   0.506  16.245 -0.4901  0.1816  1.2098
  456MPD2     C 6840   4.568   3.976  16.059 -1.1320 -0.3277  0.0536
  456MPD2    C1 6841   4.659   4.031  16.147  0.0909  0.4389  0.2201
  456MPD2    C2 6842   4.644   4.161  16.183  0.1952  0.0853  0.6391
  456MPD2    C3 6843   4.546   4.239  16.123 -0.2354 -0.1457  0.6177
  456MPD2    C4 6844   4.452   4.181  16.043 -0.0760  0.0980 -0.1586
  456MPD2    C5 6845   4.469   4.050  16.013  0.4407 -0.5944 -0.3558
  456MPD2     H 6846   4.710   4.210  16.253  1.2079 -0.2869 -0.0474
  456MPD2    H1 6847   4.367   4.232  15.999 -1.2452  0.5947  2.6920
  456MPD2    H2 6848   4.575   3.874  16.024 -0.6714 -0.3389  0.1809
  456MPD2    H3 6849   4.398   4.010  15.942  2.5877 -2.7852 -1.2384
  456MPD2     N 6850   4.531   4.379  16.166  0.2809 -0.1121 -0.2365
  456MPD2    H5 6851   4.604   4.400  16.233  0.3135  1.3426 -0.7300
  456MPD2    N1 6852   0.035   3.956  16.178  0.3961 -0.1679 -0.2085
  456MPD2    H7 6853   0.052   3.874  16.120 -1.5347 -0.4002 -0.4446
  457TMC3    C1 6854   4.446   4.574  16.231 -1.4722  0.2281 -0.4505
  457TMC3    C2 6855   4.377   4.691  16.209  0.6642 -0.3770 -0.0730
  457TMC3    C3 6856   4.399   0.061  16.293 -0.1261 -1.2949 -0.5089
  457TMC3    C4 6857   4.540   4.565  16.336  0.4020  0.0954 -0.4140
  457TMC3    C5 6858   4.569   4.676  16.409 -0.1257  0.3451 -0.3098
  457TMC3    C6 6859   4.504   0.060  16.383  0.0154 -0.4808 -0.1245
  457TMC3     C 6860   4.429   4.466  16.144 -0.1995 -0.3557  0.0643
  457TMC3     O 6861   4.334   4.454  16.065  0.5373  0.3663 -0.3594
  457TMC3     H 6862   4.296   4.676  16.138 -1.0570 -2.1782  2.2528
  457TMC3    H1 6863   4.596   4.477  16.366 -0.6190 -1.2871 -2.5139
  457TMC3    H2 6864   4.523   0.146  16.446 -2.3034  1.5152 -2.1676
  457TMC3    C7 6865   4.592   4.646  16.546  0.2560 -0.2557 -0.2715
  457TMC3    C8 6866   4.281   0.115  16.362 -0.3868 -0.0108  0.0860
  457TMC3    O1 6867   4.652   4.545  16.580  0.2592  0.2263  0.5397
  457TMC3    O2 6868   4.292   0.118  16.484 -0.4190  0.8656  0.3155
  458MPD2     C 6869   2.622   4.093  12.249  0.3817 -0.2216 -0.2504
  458MPD2    C1 6870   2.714   3.993  12.244 -1.1990 -0.0262  0.0433
  458MPD2    C2 6871   2.707   3.917  12.133 -1.0736 -0.7534 -0.1643
  458MPD2    C3 6872   2.623   3.937  12.026 -0.7365  0.2411  0.5433
  458MPD2    C4 6873   2.546   4.049  12.028 -0.0534  0.5943  0.0769
  458MPD2    C5 6874   2.546   4.128  12.138 -0.6107  0.3147  0.6138
  458MPD2     H 6875   2.770   3.829  12.135 -0.5067 -0.3333  0.3861
  458MPD2    H1 6876   2.484   4.084  11.945  0.4440 -0.8254 -0.8895
  458MPD2    H2 6877   2.610   4.146  12.343 -2.1451 -1.0484 -0.1144
  458MPD2    H3 6878   2.471   4.206  12.139 -1.4867 -0.5196  0.1926
  458MPD2     N 6879   2.610   3.842  11.919  0.3724  0.1028 -1.3324
  458MPD2    H5 6880   2.648   3.751  11.944  0.3155  0.4785  0.1081
  458MPD2    N1 6881   2.794   3.946  12.351  0.0722  0.5351 -0.2791
  458MPD2    H7 6882   2.872   3.883  12.336 -0.4386  0.0340 -0.8218
  459TMC3    C1 6883   2.862   3.906  12.562  0.4148 -0.2092  0.5941
  459TMC3    C2 6884   2.993   3.916  12.530  0.5894  0.3214  0.3845
  459TMC3    C3 6885   3.085   3.865  12.614  0.1693  0.0873 -0.3377
  459TMC3    C4 6886   2.825   3.825  12.664  0.5930 -1.0859  0.2662
  459TMC3    C5 6887   2.924   3.762  12.734 -0.2076  0.3354  0.1932
  459TMC3    C6 6888   3.058   3.790  12.727 -0.0192  0.7039 -0.2855
  459TMC3     C 6889   2.766   3.976  12.482 -0.7288  0.2350 -0.2051
  459TMC3     O 6890   2.661   4.021  12.526 -0.1783 -0.6745 -0.0703
  459TMC3     H 6891   3.036   3.974  12.450  0.6518  0.8090  0.7725
  459TMC3    H1 6892   2.721   3.829  12.694  0.1259 -2.1009 -1.2205
  459TMC3    H2 6893   3.139   3.755  12.789  0.0907 -0.8528 -1.3209
  459TMC3    C7 6894   2.873   3.684  12.849 -0.2366  0.6404  1.1493
  459TMC3    C8 6895   3.226   3.894  12.580  0.2243  0.3057 -0.1001
  459TMC3    O1 6896   2.951   3.667  12.943  0.1747  0.3604  0.3540
  459TMC3    O2 6897   3.245   3.993  12.506 -0.8946 -0.2665 -0.0652
  460MPD2     C 6898   1.560   1.404  11.110  0.8846 -0.3668 -0.6327
  460MPD2    C1 6899   1.483   1.311  11.050  0.1025  0.1708 -0.3541
  460MPD2    C2 6900   1.419   1.350  10.938  0.0861 -1.0095 -0.1662
  460MPD2    C3 6901   1.416   1.475  10.875 -0.0114 -1.0715  0.1491
  460MPD2    C4 6902   1.496   1.565  10.942 -0.2191  0.0930  0.0276
  460MPD2    C5 6903   1.559   1.530  11.058  0.0658 -0.2983 -0.0953
  460MPD2     H 6904   1.359   1.281  10.880  1.3186 -1.4210 -0.9537
  460MPD2    H1 6905   1.494   1.672  10.927 -1.5069  0.2976  1.6843
  460MPD2    H2 6906   1.625   1.386  11.194  0.5333 -1.7340 -0.6540
  460MPD2    H3 6907   1.607   1.613  11.108 -0.2769  0.1761 -0.5656
  460MPD2     N 6908   1.347   1.505  10.751  0.4889 -0.5292  0.8049
  460MPD2    H5 6909   1.304   1.428  10.701  0.0869 -1.6682  2.8992
  460MPD2    N1 6910   1.481   1.173  11.101 -0.0791  0.3344  0.0778
  460MPD2    H7 6911   1.530   1.157  11.188  0.2611  0.0208 -0.1709
  461TMC3    C1 6912   1.317   1.610  10.543  0.1022  0.5063  0.6641
  461TMC3    C2 6913   1.263   1.502  10.492 -0.1747 -0.1770 -0.1073
  461TMC3    C3 6914   1.193   1.517  10.372 -0.1978  0.2539  0.2996
  461TMC3    C4 6915   1.326   1.737  10.486 -0.4479  0.1720  0.3987
  461TMC3    C5 6916   1.266   1.747  10.362 -0.0998  0.5124 -0.6619
  461TMC3    C6 6917   1.194   1.638  10.304 -0.7152 -0.1680 -0.3637
  461TMC3     C 6918   1.361   1.622  10.680 -0.7376  0.0622  0.1841
  461TMC3     O 6919   1.420   1.725  10.714  0.5908 -0.0239 -0.1989
  461TMC3     H 6920   1.280   1.404  10.537  0.8677 -0.2176 -0.5943
  461TMC3    H1 6921   1.361   1.831  10.527  2.9008 -0.7992 -0.2163
  461TMC3    H2 6922   1.148   1.651  10.207  1.1125 -1.6325 -1.4246
  461TMC3    C7 6923   1.283   1.867  10.290 -0.4265 -0.0617  0.1563
  461TMC3    C8 6924   1.207   1.405  10.282 -0.8094  0.2897  0.3685
  461TMC3    O1 6925   1.199   1.888  10.207  0.0410 -0.3808  0.3148
  461TMC3    O2 6926   1.292   1.321  10.310  0.1472  0.1278 -0.1946
  462TMC3    C1 6927   1.921   3.107   0.338 -0.0955  0.5979  0.2649
  462TMC3    C2 6928   2.046   3.049   0.340 -0.2130  0.0929 -0.1111
  462TMC3    C3 6929   2.055   2.918   0.362  0.7194 -0.1272 -0.2741
  462TMC3    C4 6930   1.810   3.032   0.369  0.1189 -0.3190 -0.4696
  462TMC3    C5 6931   1.826   2.898   0.364  0.4920  0.2494  0.5486
  462TMC3    C6 6932   1.950   2.837   0.387 -1.1562  0.0652  0.0006
  462TMC3     C 6933   1.910   3.254   0.337  0.1607 -0.6090  0.2330
  462TMC3     O 6934   2.014   3.319   0.322 -0.1705 -0.1213 -0.3163
  462TMC3     H 6935   2.135   3.105   0.311 -1.1764  1.8776  0.3336
  462TMC3    H1 6936   1.712   3.075   0.391  0.9692  1.8890 -0.9292
  462TMC3    H2 6937   1.949   2.729   0.400  0.7108  0.0622  0.0243
  462TMC3    C7 6938   1.711   2.819   0.356 -0.3663  0.0542  0.5494
  462TMC3    C8 6939   2.183   2.871   0.324 -0.9432  0.1385  0.1599
  462TMC3    O1 6940   1.722   2.705   0.403 -0.4985 -0.4324  0.0427
  462TMC3    O2 6941   2.275   2.949   0.349 -0.4148  1.0645  0.5191
  463MPD2     C 6942   3.129   0.882   1.562  0.6056  0.1083  0.2420
  463MPD2    C1 6943   3.084   1.003   1.517 -0.0096  0.3063  0.1487
  463MPD2    C2 6944   3.121   1.118   1.579  0.9950 -0.2003  0.0061
  463MPD2    C3 6945   3.218   1.111   1.676  0.1679 -0.0640 -0.5732
  463MPD2    C4 6946   3.268   0.991   1.719 -0.3747 -0.4619 -0.3966
  463MPD2    C5 6947   3.216   0.879   1.667  0.6540 -0.1295  0.6512
  463MPD2     H 6948   3.084   1.211   1.536  1.1895 -0.3912 -0.5751
  463MPD2    H1 6949   3.354   0.979   1.785  0.6533  0.9024 -1.4735
  463MPD2    H2 6950   3.095   0.787   1.523  1.3288  0.3406 -0.9390
  463MPD2    H3 6951   3.265   0.784   1.685  1.1758 -0.1719 -1.0278
  463MPD2     N 6952   3.272   1.228   1.739 -0.7310 -0.1984 -0.5321
  463MPD2    H5 6953   3.355   1.221   1.797 -0.9055 -0.5062 -0.3192
  463MPD2    N1 6954   2.986   1.007   1.410  0.5110  0.6138  0.4695
  463MPD2    H7 6955   2.945   1.099   1.398 -3.3411 -1.2792 -0.9002
  464TMC3    C1 6956   2.857   0.943   1.222 -0.7009  0.3847 -0.2321
  464TMC3    C2 6957   2.751   1.022   1.276  0.1481  0.2816  0.5957
  464TMC3    C3 6958   2.624   1.006   1.221  0.4086 -0.1238 -0.3272
  464TMC3    C4 6959   2.836   0.852   1.124  0.4061 -0.7916  1.2952
  464TMC3    C5 6960   2.714   0.849   1.066  0.7861  0.3738  0.1043
  464TMC3    C6 6961   2.613   0.931   1.109 -0.2102 -0.1767 -0.6601
  464TMC3     C 6962   2.953   0.903   1.319 -0.4995  0.0740 -0.5023
  464TMC3     O 6963   3.014   0.800   1.298  0.7136 -0.7543 -0.2584
  464TMC3     H 6964   2.760   1.074   1.371 -2.9331  1.2261  0.3954
  464TMC3    H1 6965   2.911   0.785   1.083  0.5005  0.9506 -1.3198
  464TMC3    H2 6966   2.519   0.924   1.055 -0.3064  0.5742 -0.5932
  464TMC3    C7 6967   2.676   0.735   0.987 -0.0887  0.7940  0.3601
  464TMC3    C8 6968   2.515   1.099   1.249  0.4941 -0.2072 -0.5323
  464TMC3    O1 6969   2.754   0.644   0.984  0.4036  0.7992 -0.9123
  464TMC3    O2 6970   2.407   1.066   1.201  0.2882 -0.0809 -0.1590
  465MPD2     C 6971   3.765   0.046  16.897 -0.2576 -0.6664 -0.5324
  465MPD2    C1 6972   3.644   0.044  16.962  0.9345 -0.6831 -0.5146
  465MPD2    C2 6973   3.534   0.090  16.891  0.8005  0.3057  0.2353
  465MPD2    C3 6974   3.529   0.118  16.757  0.2219 -0.4374  0.4458
  465MPD2    C4 6975   3.645   0.107  16.693  0.0059  0.0999 -0.0372
  465MPD2    C5 6976   3.759   0.064  16.762 -0.4406  0.2513  0.1812
  465MPD2     H 6977   3.440   0.106  16.941  0.8605  2.4772 -0.3700
  465MPD2    H1 6978   3.655   0.125  16.586 -0.2908 -0.4673 -0.1611
  465MPD2    H2 6979   3.862   0.024  16.942 -0.3920  0.7968  0.4384
  465MPD2    H3 6980   3.849   0.039  16.708  0.6554  1.0438  1.6585
  465MPD2     N 6981   3.406   0.154  16.703 -0.4412 -0.0694 -0.3510
  465MPD2    H5 6982   3.331   0.176  16.768  1.5267 -1.6054  2.4686
  465MPD2    N1 6983   3.632   0.013  17.104 -0.2027  0.2611 -0.0081
  465MPD2    H7 6984   3.541   0.026  17.147  0.0142  0.6800  0.3340
  466TMC3    C1 6985   3.089   0.362  16.720 -0.3529 -0.2121  0.3309
  466TMC3    C2 6986   3.096   0.484  16.662 -0.3814 -0.1328  0.2552
  466TMC3    C3 6987   3.196   0.501  16.570  0.4348 -0.6485  1.1685
  466TMC3    C4 6988   3.174   0.262  16.680  1.0991 -0.3855 -0.5096
  466TMC3    C5 6989   3.265   0.275  16.573  0.1216  0.0612 -0.5599
  466TMC3    C6 6990   3.283   0.401  16.528 -0.7092 -0.3387 -0.1179
  466TMC3     C 6991   3.055   0.358  16.862  1.2365  0.3977  1.2867
  466TMC3     O 6992   3.133   0.294  16.936  0.0806  0.8690 -0.0766
  466TMC3     H 6993   3.034   0.572  16.672 -0.0802 -0.0384  1.2873
  466TMC3    H1 6994   3.168   0.167  16.730 -0.3454 -0.2350 -0.4019
  466TMC3    H2 6995   3.366   0.437  16.469  0.4875 -2.2727  0.4327
  466TMC3    C7 6996   3.393   0.209  16.579  0.5092  0.1162  0.0660
  466TMC3    C8 6997   3.227   0.637  16.529 -1.1968 -0.7622  0.1127
  466TMC3    O1 6998   3.482   0.245  16.499  0.2114 -0.3157  0.5624
  466TMC3    O2 6999   3.284   0.645  16.424 -0.4667  0.4326 -0.5854
  467TMC3    C1 7000   4.668   3.033  13.571 -0.0096 -0.0684 -0.5198
  467TMC3    C2 7001   4.660   3.106  13.458  0.1223  0.4252  0.2559
  467TMC3    C3 7002   4.542   3.121  13.391 -0.2709 -0.0649 -0.4953
  467TMC3    C4 7003   4.553   2.970  13.620 -0.3331  0.1099 -1.3441
  467TMC3    C5 7004   4.433   2.978  13.550 -1.5247 -0.5944 -0.5463
  467TMC3    C6 7005   4.430   3.055  13.431  0.0642 -0.1227 -0.2599
  467TMC3     C 7006   0.066   2.999  13.623 -0.4940  0.3479 -0.2491
  467TMC3     O 7007   0.154   3.060  13.564  0.5865 -0.0683 -0.0723
  467TMC3     H 7008   0.015   3.138  13.410 -0.2055 -0.0730 -0.7038
  467TMC3    H1 7009   4.560   2.913  13.712 -2.8837  1.5326 -0.2904
  467TMC3    H2 7010   4.333   3.074  13.386 -0.4132 -2.4954 -0.2114
  467TMC3    C7 7011   4.312   2.928  13.615  0.5497  0.3573  0.2777
  467TMC3    C8 7012   4.519   3.256  13.342  0.4682 -0.5388 -0.1645
  467TMC3    O1 7013   4.302   2.935  13.736  0.1153  0.1749  0.0179
  467TMC3    O2 7014   4.596   3.340  13.382  0.2226  0.3213  0.3706
  468MPD2     C 7015   3.792   1.201  10.335  0.3683 -0.2495 -0.6810
  468MPD2    C1 7016   3.814   1.126  10.450 -0.8389 -0.4192  0.4242
  468MPD2    C2 7017   3.780   0.988  10.450 -0.7613  0.5119  0.5645
  468MPD2    C3 7018   3.723   0.933  10.341 -0.2800 -0.5657 -0.4582
  468MPD2    C4 7019   3.715   1.003  10.224  0.5582  0.3764  0.4221
  468MPD2    C5 7020   3.743   1.139  10.223 -0.2556  0.7247  0.0855
  468MPD2     H 7021   3.804   0.939  10.543 -1.5772  0.7983  0.9165
  468MPD2    H1 7022   3.681   0.957  10.132 -1.3056 -2.1312  2.3496
  468MPD2    H2 7023   3.817   1.307  10.332  1.0080 -0.2995  2.4107
  468MPD2    H3 7024   3.740   1.203  10.136  0.8755 -0.0555 -0.5347
  468MPD2     N 7025   3.686   0.795  10.347  0.1742 -0.2514  0.3811
  468MPD2    H5 7026   3.671   0.747  10.259  3.1492  2.2427 -1.5046
  468MPD2    N1 7027   3.867   1.176  10.568  0.2504 -0.3728  0.2313
  468MPD2    H7 7028   3.896   1.107  10.637  2.0178 -0.7322 -0.8695
  469TMC3    C1 7029   3.954   1.323  10.731  0.3292  0.1169  0.4606
  469TMC3    C2 7030   4.060   1.239  10.761 -0.2596 -0.1611  0.1582
  469TMC3    C3 7031   4.125   1.265  10.879  0.6593 -0.5932  0.9102
  469TMC3    C4 7032   3.924   1.440  10.797 -0.3303 -0.3943 -0.2608
  469TMC3    C5 7033   3.999   1.472  10.907 -0.1787  0.2494  0.1040
  469TMC3    C6 7034   4.103   1.387  10.946  0.1934  0.0695  1.0126
  469TMC3     C 7035   3.889   1.303  10.599  0.9182  0.0821 -0.7984
  469TMC3     O 7036   3.863   1.406  10.540  0.3749  0.4452  0.1506
  469TMC3     H 7037   4.082   1.154  10.698  0.1935 -0.0227  0.1314
  469TMC3    H1 7038   3.833   1.496  10.783  1.2160  2.1254 -0.3631
  469TMC3    H2 7039   4.146   1.410  11.043  2.2422 -3.0422  0.8626
  469TMC3    C7 7040   3.942   1.571  11.005 -0.0008  0.4341 -0.2263
  469TMC3    C8 7041   4.210   1.165  10.936 -0.6898  0.5123  0.0102
  469TMC3    O1 7042   3.835   1.616  10.974 -0.4563  0.2023  0.1056
  469TMC3    O2 7043   4.195   1.058  10.883  0.9748  0.5458 -0.0699
  470TMC3    C1 7044   0.562   2.724   0.515 -0.7872  0.2047  0.3429
  470TMC3    C2 7045   0.642   2.790   0.609 -0.0160  0.3646  0.1744
  470TMC3    C3 7046   0.705   2.709   0.704  0.2540  1.3986  0.0932
  470TMC3    C4 7047   0.535   2.595   0.520 -0.1363  0.1862  0.1451
  470TMC3    C5 7048   0.595   2.519   0.625  1.2873  0.4813  0.2194
  470TMC3    C6 7049   0.676   2.572   0.719  0.4337 -0.7077  0.2722
  470TMC3     C 7050   0.530   2.786   0.392 -0.0588  0.2546  0.1731
  470TMC3     O 7051   0.527   2.717   0.290 -0.1646  0.8231  0.1185
  470TMC3     H 7052   0.684   2.890   0.599  0.1008  0.0390 -2.6770
  470TMC3    H1 7053   0.460   2.550   0.456 -2.7678  3.2581  1.0812
  470TMC3    H2 7054   0.725   2.507   0.790 -0.3267 -1.8119 -0.2136
  470TMC3    C7 7055   0.539   2.395   0.666 -0.5183 -0.2687 -0.3032
  470TMC3    C8 7056   0.822   2.770   0.772 -0.1483  0.0167 -0.6060
  470TMC3    O1 7057   0.487   2.334   0.572 -0.2473 -0.4602 -0.0468
  470TMC3    O2 7058   0.846   2.883   0.735  0.2636 -0.4775  0.1317
  471MPD2     C 7059   1.475   3.956  16.767  0.2613  0.6123 -0.2913
  471MPD2    C1 7060   1.434   3.828  16.788 -0.3127 -0.2412  0.1647
  471MPD2    C2 7061   1.491   3.757  16.892  0.7986  0.0628  0.1097
  471MPD2    C3 7062   1.584   3.812  16.981  0.1082  0.7040  0.3001
  471MPD2    C4 7063   1.612   3.945  16.965 -0.4420 -0.1189  0.3624
  471MPD2    C5 7064   1.555   4.016  16.861 -0.4086  0.4913  0.1613
  471MPD2     H 7065   1.459   3.654  16.901 -0.0777  0.3575  0.3144
  471MPD2    H1 7066   1.687   3.986  17.032  0.5284  0.1294 -0.8747
  471MPD2    H2 7067   1.453   4.024  16.686  0.7442 -0.9289 -1.7222
  471MPD2    H3 7068   1.596   4.116  16.850 -0.2118  0.0434 -3.3775
  471MPD2     N 7069   1.641   3.736  17.079 -0.1551  0.0571 -0.3010
  471MPD2    H5 7070   1.726   3.763  17.126 -0.0103 -0.6116 -0.1837
  471MPD2    N1 7071   1.354   3.761  16.701 -0.2655  0.3166  0.3350
  471MPD2    H7 7072   1.337   3.664  16.725 -2.0629  0.8551  1.2476
  472TMC3    C1 7073   1.264   3.707  16.485 -0.1560 -0.6148 -0.4775
  472TMC3    C2 7074   1.153   3.720  16.408 -0.0531  0.1418 -0.4008
  472TMC3    C3 7075   1.105   3.614  16.329  0.4120 -0.3810 -0.0575
  472TMC3    C4 7076   1.341   3.596  16.482 -0.4380  0.1574 -0.2870
  472TMC3    C5 7077   1.301   3.500  16.398 -0.8955  0.4196  0.7089
  472TMC3    C6 7078   1.181   3.502  16.326 -0.2480  0.2230  0.4330
  472TMC3     C 7079   1.295   3.814  16.584  0.3437 -0.4460 -0.6618
  472TMC3     O 7080   1.286   3.933  16.548  0.0032 -0.6695  0.7963
  472TMC3     H 7081   1.096   3.812  16.412  1.9521  1.4032 -0.8037
  472TMC3    H1 7082   1.437   3.588  16.531  0.4080  0.6513 -1.8644
  472TMC3    H2 7083   1.152   3.413  16.271 -2.0778  0.2816  1.3011
  472TMC3    C7 7084   1.336   3.369  16.461 -0.2279  0.5286  0.1766
  472TMC3    C8 7085   0.970   3.569  16.345 -0.7238 -1.1323 -0.5416
  472TMC3    O1 7086   1.388   3.370  16.572  0.0252 -0.3055 -0.0521
  472TMC3    O2 7087   0.923   3.577  16.461 -0.6223  0.1938 -0.0395
  473MPD2     C 7088   1.226   0.522  14.160  0.2225  0.2696 -0.2499
  473MPD2    C1 7089   1.211   0.638  14.077 -0.6318 -0.0400  0.3895
  473MPD2    C2 7090   1.220   0.764  14.142 -0.5342 -0.8131 -0.2777
  473MPD2    C3 7091   1.263   0.767  14.274  0.0903  0.4130 -0.5791
  473MPD2    C4 7092   1.297   0.653  14.347 -0.3767  0.4796 -0.0605
  473MPD2    C5 7093   1.264   0.530  14.296  0.3819 -0.3492 -0.4746
  473MPD2     H 7094   1.214   0.848  14.073  1.8951 -0.8334 -0.5296
  473MPD2    H1 7095   1.326   0.665  14.450  1.7505  0.2318 -0.6201
  473MPD2    H2 7096   1.209   0.424  14.116  3.0153 -1.3831  2.3044
  473MPD2    H3 7097   1.266   0.438  14.355 -2.0603 -0.3308 -0.3582
  473MPD2     N 7098   1.284   0.890  14.338  0.7366 -0.2016 -0.1676
  473MPD2    H5 7099   1.312   0.878  14.435 -0.4722 -0.9015  0.0953
  473MPD2    N1 7100   1.181   0.647  13.939 -0.0441  0.0615 -0.1042
  473MPD2    H7 7101   1.176   0.739  13.898 -1.0538 -0.6027 -1.4507
  474TMC3    C1 7102   1.282   1.123  14.382 -0.9654  0.4180 -0.0263
  474TMC3    C2 7103   1.196   1.231  14.365  0.2108  0.5116  0.4696
  474TMC3    C3 7104   1.239   1.349  14.419 -0.2793  0.5043 -0.5320
  474TMC3    C4 7105   1.403   1.124  14.443 -0.6589  0.4434 -0.2315
  474TMC3    C5 7106   1.438   1.241  14.504 -0.4221  0.3278  0.1240
  474TMC3    C6 7107   1.360   1.357  14.490  0.0956 -0.3040  0.4862
  474TMC3     C 7108   1.258   1.016  14.292 -0.5396  0.0299 -1.0958
  474TMC3     O 7109   1.224   1.053  14.180 -0.3133  0.3709  0.1835
  474TMC3     H 7110   1.099   1.216  14.320  0.3968 -0.1555  0.2816
  474TMC3    H1 7111   1.462   1.033  14.450 -1.6326  0.0532  2.6948
  474TMC3    H2 7112   1.382   1.451  14.540  2.2263 -0.1551 -0.7598
  474TMC3    C7 7113   1.573   1.258  14.562  0.3175 -0.2951  0.0744
  474TMC3    C8 7114   1.142   1.462  14.418  0.1208  0.5459 -0.0000
  474TMC3    O1 7115   1.662   1.189  14.514 -0.0726  0.2566  0.0830
  474TMC3    O2 7116   1.032   1.433  14.376  0.1423 -0.1833  0.0171
  475MPD2     C 7117   4.170   2.894  10.122  0.5556  0.6745  0.5695
  475MPD2    C1 7118   4.252   2.998  10.100  0.1704  0.1887  0.3047
  475MPD2    C2 7119   4.247   3.115  10.172  0.2539 -0.2982 -0.3801
  475MPD2    C3 7120   4.157   3.125  10.274  0.8683  0.5226  0.6280
  475MPD2    C4 7121   4.076   3.012  10.301 -0.3102 -0.8465  0.6254
  475MPD2    C5 7122   4.088   2.901  10.227  0.5936  0.3128  0.0224
  475MPD2     H 7123   4.318   3.197  10.162  1.4383 -1.5085 -1.7818
  475MPD2    H1 7124   3.984   3.021  10.357  1.0304 -0.5559  2.7866
  475MPD2    H2 7125   4.174   2.804  10.061  2.0017 -0.4851  2.3985
  475MPD2    H3 7126   4.024   2.817  10.250 -2.2423  2.0298 -1.6665
  475MPD2     N 7127   4.141   3.248  10.342 -0.5625  0.0907 -0.0018
  475MPD2    H5 7128   4.208   3.319  10.315  2.4643 -2.8360 -0.2048
  475MPD2    N1 7129   4.344   2.982   9.991  0.6334 -0.1465 -0.0765
  475MPD2    H7 7130   4.360   2.888   9.957  2.1323  0.8294 -2.0553
  476TMC3    C1 7131   4.374   3.216   9.924 -0.3036  0.5686 -0.3367
  476TMC3    C2 7132   4.239   3.251   9.910 -0.3368 -0.0260 -0.7113
  476TMC3    C3 7133   4.208   3.379   9.953  0.3548 -0.4078  0.5091
  476TMC3    C4 7134   4.476   3.309   9.921 -0.2063  0.7543  1.1047
  476TMC3    C5 7135   4.435   3.436   9.948 -0.3186  0.0229 -0.1633
  476TMC3    C6 7136   4.308   3.471   9.969 -0.8492  0.3186  0.0686
  476TMC3     C 7137   4.419   3.079   9.928  0.1769  0.2643  0.1413
  476TMC3     O 7138   4.512   3.059   9.846 -0.4945 -0.1941 -0.1595
  476TMC3     H 7139   4.165   3.176   9.885 -0.7393  0.3930 -0.7920
  476TMC3    H1 7140   4.582   3.287   9.918 -0.5279 -0.3769 -1.7029
  476TMC3    H2 7141   4.272   3.569   9.997  1.0525  0.8569  0.6019
  476TMC3    C7 7142   4.543   3.525   9.988  0.6657 -0.6544 -0.0435
  476TMC3    C8 7143   4.082   3.407  10.020 -0.5214  0.3429 -0.1426
  476TMC3    O1 7144   4.643   3.523   9.915 -0.1528 -0.2253  0.2558
  476TMC3    O2 7145   4.064   3.516  10.075 -0.2673 -0.0987 -0.0008
  477MPD2     C 7146   1.674   4.679  11.856  0.1766 -0.8041  0.1051
  477MPD2    C1 7147   1.748   4.671  11.740  0.5767 -0.5320 -0.6732
  477MPD2    C2 7148   1.881   4.628  11.738 -0.4527 -0.3194  0.2973
  477MPD2    C3 7149   1.943   4.607  11.864 -0.4054 -0.3881  0.0425
  477MPD2    C4 7150   1.869   4.615  11.980  0.2486  1.4041  0.2853
  477MPD2    C5 7151   1.736   4.649  11.978  0.5721 -0.0769 -0.1289
  477MPD2     H 7152   1.936   4.607  11.647  0.4810 -0.7957  0.9704
  477MPD2    H1 7153   1.916   4.605  12.077 -0.9363 -2.6838  0.4400
  477MPD2    H2 7154   1.568   4.702  11.858  0.5986  0.9469  2.3567
  477MPD2    H3 7155   1.683   4.649  12.073  0.6762  2.0539 -0.0708
  477MPD2     N 7156   2.084   4.566  11.860 -0.1095 -0.0108  0.5556
  477MPD2    H5 7157   2.135   4.575  11.773 -0.7120 -3.8070 -0.1838
  477MPD2    N1 7158   1.672   4.695  11.618  0.8742  0.0613 -0.0839
  477MPD2    H7 7159   1.575   4.720  11.635  0.9624 -0.7853  1.6787
  478TMC3    C1 7160   1.617   4.692  11.392  0.5609 -0.3940  0.5247
  478TMC3    C2 7161   1.491   4.651  11.438 -0.0994 -0.5096  0.6494
  478TMC3    C3 7162   1.383   4.728  11.390  0.3490 -0.5547  1.0610
  478TMC3    C4 7163   1.620   0.039  11.285  0.1630 -0.0028  0.3545
  478TMC3    C5 7164   1.508   0.086  11.220  0.2457  0.2441  0.2944
  478TMC3    C6 7165   1.387   0.074  11.279 -0.4292 -0.0456  0.4116
  478TMC3     C 7166   1.722   4.692  11.491  0.2971  0.3466  0.3005
  478TMC3     O 7167   1.834   4.708  11.453  0.0117 -0.3560  0.2756
  478TMC3     H 7168   1.482   4.572  11.511  1.7622 -0.0367  1.3969
  478TMC3    H1 7169   1.720   0.062  11.249 -0.8210 -0.7432 -2.8789
  478TMC3    H2 7170   1.308   0.143  11.253  0.7243  1.4409  0.8693
  478TMC3    C7 7171   1.534   0.207  11.136  0.0437 -0.7083  0.4203
  478TMC3    C8 7172   1.290   0.020  11.506 -0.1370 -0.0801 -0.2916
  478TMC3    O1 7173   1.634   0.267  11.170  0.2736 -0.2728  0.1561
  478TMC3    O2 7174   1.259   4.655  11.568  0.6180 -0.0108 -0.1735
  479MPD2     C 7175   1.270   3.328  15.443  0.2771  0.6206  1.3363
  479MPD2    C1 7176   1.223   3.219  15.518  0.7056 -0.4207  0.0321
  479MPD2    C2 7177   1.230   3.237  15.652  0.8136 -0.3666  0.2381
  479MPD2    C3 7178   1.266   3.352  15.710 -0.0990  0.0625 -0.0927
  479MPD2    C4 7179   1.314   3.453  15.639 -0.2958  1.5005 -0.6686
  479MPD2    C5 7180   1.322   3.441  15.505  0.1802 -0.8052 -1.1124
  479MPD2     H 7181   1.203   3.158  15.721 -2.8920  2.0547  1.5365
  479MPD2    H1 7182   1.341   3.544  15.691  1.3419  1.3157 -1.1934
  479MPD2    H2 7183   1.269   3.327  15.335  0.3471  0.0877  1.3416
  479MPD2    H3 7184   1.364   3.514  15.437  1.7824  0.6874  1.4791
  479MPD2     N 7185   1.269   3.368  15.849 -0.4715 -0.4477 -0.5613
  479MPD2    H5 7186   1.302   3.457  15.885 -0.5791 -0.2122 -1.0463
  479MPD2    N1 7187   1.166   3.109  15.449  0.5186 -0.6293  0.4811
  479MPD2    H7 7188   1.145   3.126  15.351  1.7606 -1.2423  0.1184
  480TMC3    C1 7189   0.932   3.080  16.020  0.9458 -0.1686 -0.4199
  480TMC3    C2 7190   0.833   3.121  15.937  0.6823  0.0268  0.2746
  480TMC3    C3 7191   0.867   3.211  15.838 -0.6280 -0.6694  0.0572
  480TMC3    C4 7192   1.057   3.127  16.009 -0.0572 -0.6568 -0.4678
  480TMC3    C5 7193   1.087   3.220  15.921  0.2078  0.5776  0.0312
  480TMC3    C6 7194   0.992   3.266  15.827  0.7796 -0.4065  0.6202
  480TMC3     C 7195   0.888   2.991  16.129 -0.0119 -0.7656  0.2778
  480TMC3     O 7196   0.773   2.950  16.125  0.0901 -0.0459 -0.0448
  480TMC3     H 7197   0.730   3.088  15.943  0.7438  0.0427  1.4871
  480TMC3    H1 7198   1.128   3.084  16.078  0.5906  0.9472 -0.1410
  480TMC3    H2 7199   1.013   3.361  15.780  1.7800 -2.3220 -2.8229
  480TMC3    C7 7200   1.211   3.288  15.945 -0.3102  0.0349  0.2090
  480TMC3    C8 7201   0.807   3.186  15.708 -0.5446  0.5028  0.1630
  480TMC3    O1 7202   1.240   3.306  16.064 -0.0827 -0.8189  0.8809
  480TMC3    O2 7203   0.721   3.097  15.709 -0.3702 -0.1802  0.8056
  481MPD2     C 7204   2.367   2.546  13.976  0.3339 -0.6874  0.1958
  481MPD2    C1 7205   2.327   2.447  14.069  0.0383  0.7125 -0.4554
  481MPD2    C2 7206   2.384   2.437  14.196 -0.5157 -0.2030 -0.2064
  481MPD2    C3 7207   2.452   2.545  14.243 -0.2099 -0.0544 -0.0885
  481MPD2    C4 7208   2.484   2.641  14.157  0.1400  1.0318 -0.5370
  481MPD2    C5 7209   2.443   2.647  14.028 -0.3381  0.1201  0.0901
  481MPD2     H 7210   2.368   2.353  14.263  0.8594  0.1828  0.5942
  481MPD2    H1 7211   2.550   2.722  14.186 -0.1739  2.0119 -2.5503
  481MPD2    H2 7212   2.343   2.544  13.870  0.6632 -0.8866  0.1233
  481MPD2    H3 7213   2.482   2.724  13.963  0.3107  0.0616  0.4173
  481MPD2     N 7214   2.500   2.554  14.376  0.2923  0.0024 -0.2366
  481MPD2    H5 7215   2.563   2.630  14.398 -1.0289  1.1817 -0.5096
  481MPD2    N1 7216   2.238   2.341  14.026  0.2688  0.1607  0.4280
  481MPD2    H7 7217   2.175   2.353  13.948  0.3816 -4.0846 -0.2924
  482TMC3    C1 7218   2.088   2.178  14.043 -0.1291 -0.4684 -0.3568
  482TMC3    C2 7219   2.066   2.046  14.070 -0.5658 -0.5109 -0.1568
  482TMC3    C3 7220   1.935   1.997  14.069  0.4238  0.8107  0.2286
  482TMC3    C4 7221   1.979   2.267  14.027  0.0200  1.0698 -0.0024
  482TMC3    C5 7222   1.852   2.207  14.030 -0.5323 -0.1622 -0.2938
  482TMC3    C6 7223   1.827   2.082  14.057 -0.1204 -0.0775  0.1890
  482TMC3     C 7224   2.208   2.229  14.093 -0.0956  0.8244  0.3672
  482TMC3     O 7225   2.285   2.151  14.153 -0.1216 -0.3518  0.0044
  482TMC3     H 7226   2.145   1.979  14.103 -1.0610  0.5930  3.2984
  482TMC3    H1 7227   1.983   2.375  14.037 -0.7597  0.9690  1.2913
  482TMC3    H2 7228   1.729   2.040  14.039  0.3844 -1.1844  0.0473
  482TMC3    C7 7229   1.740   2.283  13.978  0.2515  0.2412  0.2162
  482TMC3    C8 7230   1.916   1.862  14.043  0.0241 -0.2087 -0.1340
  482TMC3    O1 7231   1.628   2.244  14.006  0.0296  0.6363 -0.3050
  482TMC3    O2 7232   2.005   1.786  14.072  0.1023 -0.3789 -0.4256
  483TMC3    C1 7233   0.605   1.679   1.137 -0.2458 -0.1148  0.5821
  483TMC3    C2 7234   0.697   1.767   1.090  0.3143 -0.2191  0.3236
  483TMC3    C3 7235   0.828   1.760   1.131 -0.5836  0.3660 -0.2989
  483TMC3    C4 7236   0.640   1.574   1.214 -0.7408 -0.2952 -0.0285
  483TMC3    C5 7237   0.771   1.562   1.262 -0.6103 -0.3249 -0.1076
  483TMC3    C6 7238   0.866   1.662   1.220 -0.8568  0.2441  0.2354
  483TMC3     C 7239   0.495   1.652   1.042  0.0276  0.5691  0.0513
  483TMC3     O 7240   0.461   1.737   0.960 -0.0941  0.5266 -0.6291
  483TMC3     H 7241   0.664   1.846   1.024 -1.1690  0.2389  1.6292
  483TMC3    H1 7242   0.556   1.523   1.260 -0.4165 -1.0966 -0.3257
  483TMC3    H2 7243   0.966   1.640   1.255  0.1111  1.7024 -1.6521
  483TMC3    C7 7244   0.806   1.436   1.320 -0.6163  0.5372  0.2124
  483TMC3    C8 7245   0.927   1.832   1.051  0.0803 -0.3802 -0.5318
  483TMC3    O1 7246   0.711   1.363   1.340  0.0523 -0.1850  0.2987
  483TMC3    O2 7247   0.881   1.908   0.964  0.6048  0.0793 -0.5055
  484MPD2     C 7248   3.500   3.670  12.631 -0.1785  0.5762  0.9270
  484MPD2    C1 7249   3.445   3.779  12.579 -0.5913 -0.9649 -0.2428
  484MPD2    C2 7250   3.517   3.868  12.504  0.3488  0.3284  0.5013
  484MPD2    C3 7251   3.648   3.835  12.470 -0.2592 -0.2969 -0.6301
  484MPD2    C4 7252   3.707   3.732  12.531 -0.0592 -0.1282  0.0032
  484MPD2    C5 7253   3.633   3.645  12.617  0.7067  0.0218 -0.4140
  484MPD2     H 7254   3.471   3.959  12.465  1.1214  0.5729  0.1667
  484MPD2    H1 7255   3.814   3.714  12.522 -0.1272 -1.7613  2.3959
  484MPD2    H2 7256   3.444   3.592  12.682  1.7713 -0.9765  0.7290
  484MPD2    H3 7257   3.678   3.558  12.663  0.8347 -0.8843 -2.2486
  484MPD2     N 7258   3.735   3.912  12.393  0.9206  0.2627 -0.0500
  484MPD2    H5 7259   3.835   3.894  12.393  0.6061 -1.4800  2.4806
  484MPD2    N1 7260   3.307   3.788  12.605  0.0293 -0.4348  0.2542
  484MPD2    H7 7261   3.262   3.713  12.657  0.1720 -0.4879  0.2990
  485TMC3    C1 7262   3.815   4.052  12.229  0.3487 -0.0896 -0.3215
  485TMC3    C2 7263   3.926   4.043  12.302  0.3843 -0.6716  0.1182
  485TMC3    C3 7264   4.044   4.002  12.249  0.6221 -0.0490 -0.0899
  485TMC3    C4 7265   3.814   4.027  12.093  0.2692 -0.6808 -0.0155
  485TMC3    C5 7266   3.931   3.987  12.032 -0.0813 -0.0870  0.4938
  485TMC3    C6 7267   4.046   3.982  12.114 -0.0024  0.2372 -0.2225
  485TMC3     C 7268   3.698   4.019  12.307 -0.2889  0.1260  0.5344
  485TMC3     O 7269   3.584   4.047  12.265  0.8023 -0.0175 -0.2529
  485TMC3     H 7270   3.919   4.072  12.406  0.6549  1.9915 -0.5986
  485TMC3    H1 7271   3.727   4.043  12.031  0.3127  0.0146  0.1034
  485TMC3    H2 7272   4.133   3.933  12.071  2.6690  2.4546  2.5489
  485TMC3    C7 7273   3.923   3.850  11.984 -0.6300 -0.7676  0.4700
  485TMC3    C8 7274   4.086   3.877  12.303  0.0397 -0.9940 -0.8231
  485TMC3    O1 7275   3.849   3.774  12.044 -0.3859 -0.3202 -0.5648
  485TMC3    O2 7276   4.008   3.826  12.378 -0.2071 -0.3774  0.5048
  486MPD2     C 7277   0.545   2.409  13.090 -0.3844  0.3054  0.1663
  486MPD2    C1 7278   0.496   2.380  12.958  0.4169  0.3699 -0.2246
  486MPD2    C2 7279   0.460   2.486  12.875 -0.0407 -0.3615  0.0107
  486MPD2    C3 7280   0.492   2.614  12.912 -0.2009  0.4376 -0.1946
  486MPD2    C4 7281   0.538   2.642  13.039 -0.9244  0.4613 -0.7628
  486MPD2    C5 7282   0.563   2.534  13.127  0.8953 -0.3300  0.1812
  486MPD2     H 7283   0.415   2.471  12.777  0.9566 -0.2808 -0.4555
  486MPD2    H1 7284   0.561   2.740  13.079 -0.1556 -0.2857  0.6153
  486MPD2    H2 7285   0.573   2.330  13.158  1.1584  0.2639 -0.5211
  486MPD2    H3 7286   0.573   2.560  13.232 -0.6897  1.8518 -0.1904
  486MPD2     N 7287   0.465   2.714  12.813  0.1587  0.0642 -0.1435
  486MPD2    H5 7288   0.438   2.686  12.720 -0.4141 -1.3376  0.4457
  486MPD2    N1 7289   0.481   2.240  12.929  0.0230 -0.3008  0.5656
  486MPD2    H7 7290   0.513   2.174  12.999  2.4872  1.8356  1.4819
  487TMC3    C1 7291   0.431   2.053  12.820  0.2167 -0.1278  0.2092
  487TMC3    C2 7292   0.314   1.986  12.820 -0.0751 -0.7353 -0.2462
  487TMC3    C3 7293   0.299   1.855  12.859  0.4246  0.5894 -0.0354
  487TMC3    C4 7294   0.537   1.997  12.879  0.4100 -0.6633  0.3459
  487TMC3    C5 7295   0.518   1.873  12.944 -0.3050 -0.0130 -0.8290
  487TMC3    C6 7296   0.403   1.790  12.909 -0.9070 -0.3898  0.6684
  487TMC3     C 7297   0.416   2.193  12.821  0.7201 -0.5678 -0.1342
  487TMC3     O 7298   0.338   2.246  12.742  0.4574 -0.8936  0.2494
  487TMC3     H 7299   0.226   2.039  12.787 -0.0089 -0.1768  0.4894
  487TMC3    H1 7300   0.635   2.045  12.886  1.1740 -2.0672 -0.7729
  487TMC3    H2 7301   0.391   1.698  12.965 -0.6273  0.8032  2.6802
  487TMC3    C7 7302   0.528   1.906  13.091 -0.4435  0.8029 -0.0390
  487TMC3    C8 7303   0.180   1.845  12.939 -0.4085 -0.2102 -0.3922
  487TMC3    O1 7304   0.568   2.019  13.123 -0.1603 -0.5377 -0.1014
  487TMC3    O2 7305   0.146   1.955  12.979  0.0429  0.6869 -0.2192
  488MPD2     C 7306   0.498   4.588  16.331  1.1507  0.1664  0.0811
  488MPD2    C1 7307   0.544   4.700  16.402  0.0368  0.0236  0.1504
  488MPD2    C2 7308   0.551   4.693  16.534 -0.0827 -0.2037 -0.6107
  488MPD2    C3 7309   0.520   4.576  16.601 -0.6115 -0.3735 -0.1246
  488MPD2    C4 7310   0.459   4.470  16.536  0.3536 -0.7433  0.9586
  488MPD2    C5 7311   0.452   4.474  16.400  0.1296 -0.3920  0.0646
  488MPD2     H 7312   0.588   0.036  16.598  0.6452  0.1134 -1.4384
  488MPD2    H1 7313   0.417   4.381  16.582  0.6019 -0.9989  0.6920
  488MPD2    H2 7314   0.492   4.594  16.223 -1.8404 -0.4114  0.2165
  488MPD2    H3 7315   0.400   4.394  16.349 -0.8737  1.3821 -1.7372
  488MPD2     N 7316   0.535   4.588  16.741  0.2144  0.3489 -0.5223
  488MPD2    H5 7317   0.586   4.667  16.780  1.6142 -0.8714  0.1200
  488MPD2    N1 7318   0.586   0.082  16.344 -0.3645  0.0074 -0.4537
  488MPD2    H7 7319   0.611   0.153  16.412  1.4701 -0.1462 -0.9581
  489TMC3    C1 7320   0.502   4.551  16.959  0.0880  0.7122  0.0786
  489TMC3    C2 7321   0.498   4.686  16.985 -0.0252 -0.8337 -0.8319
  489TMC3    C3 7322   0.475   4.730  17.114 -0.3406 -1.0347 -0.0776
  489TMC3    C4 7323   0.492   4.467  17.065  0.0527  0.0723  0.7103
  489TMC3    C5 7324   0.486   4.512  17.193  0.6181 -0.2683 -0.1177
  489TMC3    C6 7325   0.475   4.648  17.220 -0.6441  0.0078  0.2497
  489TMC3     C 7326   0.487   4.498  16.833 -0.5443 -0.2923 -0.5846
  489TMC3     O 7327   0.405   4.411  16.812 -0.0448  0.3705  0.1764
  489TMC3     H 7328   0.485   0.022  16.906 -0.9451 -0.1461 -0.0540
  489TMC3    H1 7329   0.508   4.362  17.041 -0.3822  0.8694 -3.1228
  489TMC3    H2 7330   0.459   4.686  17.320 -2.6957  0.2518 -0.1724
  489TMC3    C7 7331   0.493   4.429  17.313  0.6819  0.7487 -0.2958
  489TMC3    C8 7332   0.468   0.137  17.123 -0.1378  0.3361 -0.4678
  489TMC3    O1 7333   0.506   4.487  17.417  0.1707  0.5522 -0.1971
  489TMC3    O2 7334   0.512   0.201  17.024  0.1623 -0.0637 -0.1801
  490MPD2     C 7335   1.671   4.032  17.298  0.1788  0.2350 -0.4625
  490MPD2    C1 7336   1.553   4.068  17.231 -0.1637  0.1410  0.8307
  490MPD2    C2 7337   1.555   4.176  17.143 -0.8145 -0.3635 -0.4069
  490MPD2    C3 7338   1.681   4.240  17.125 -0.5882  0.3489 -0.6300
  490MPD2    C4 7339   1.791   4.213  17.196  0.6521 -0.2463  0.0755
  490MPD2    C5 7340   1.789   4.101  17.279 -0.5194  0.2095  0.3388
  490MPD2     H 7341   1.476   4.186  17.070 -0.4016 -0.1415 -0.8210
  490MPD2    H1 7342   1.885   4.260  17.172  0.4381  0.1073 -0.0669
  490MPD2    H2 7343   1.677   3.941  17.356 -1.0637  0.5520  0.1535
  490MPD2    H3 7344   1.874   4.053  17.328  0.3962  1.1534 -0.3371
  490MPD2     N 7345   1.696   4.349  17.038 -0.0934 -0.2614  0.4843
  490MPD2    H5 7346   1.793   4.370  17.016  0.2855 -2.9979 -0.4379
  490MPD2    N1 7347   1.428   4.000  17.239  0.2221 -0.1090  0.1854
  490MPD2    H7 7348   1.359   4.021  17.168 -1.0042  2.6399  2.1862
  491TMC3    C1 7349   1.275   3.826  17.315 -0.8921  0.0864 -0.0297
  491TMC3    C2 7350   1.204   3.782  17.428 -0.3907 -0.0152  0.3820
  491TMC3    C3 7351   1.122   3.671  17.420 -0.0696 -0.6515  0.0233
  491TMC3    C4 7352   1.267   3.766  17.190 -0.0014  0.9672  0.5408
  491TMC3    C5 7353   1.170   3.663  17.187  0.0505 -0.6263  0.8255
  491TMC3    C6 7354   1.102   3.620  17.294 -0.2307  0.3450  0.7606
  491TMC3     C 7355   1.395   3.909  17.336  0.4476 -0.3994 -0.2654
  491TMC3     O 7356   1.441   3.912  17.449  0.1439 -0.2247 -0.3750
  491TMC3     H 7357   1.237   3.826  17.522  0.1956 -0.5236  0.4175
  491TMC3    H1 7358   1.328   3.808  17.111 -2.1555 -1.8136 -2.6033
  491TMC3    H2 7359   1.014   3.557  17.292 -0.1692  0.2925  0.0224
  491TMC3    C7 7360   1.070   3.673  17.076  0.4939 -0.7045 -0.0109
  491TMC3    C8 7361   1.078   3.603  17.539 -0.0578  1.1148 -0.0216
  491TMC3    O1 7362   1.020   3.574  17.033  0.2336  0.3570 -0.5583
  491TMC3    O2 7363   1.087   3.483  17.540 -0.4666 -0.6907  0.3915
  492MPD2     C 7364   1.220   3.850  11.246 -0.4486  0.0774 -0.2430
  492MPD2    C1 7365   1.196   3.731  11.188 -0.1987 -0.4822  0.6131
  492MPD2    C2 7366   1.208   3.617  11.267  0.4040  0.3935  0.0770
  492MPD2    C3 7367   1.218   3.625  11.406 -0.7937  0.1838 -0.4877
  492MPD2    C4 7368   1.245   3.751  11.456 -0.4947  0.3766 -0.0869
  492MPD2    C5 7369   1.245   3.861  11.377  0.2166  0.5816 -0.5415
  492MPD2     H 7370   1.191   3.521  11.219 -0.6021  1.1755 -1.1446
  492MPD2    H1 7371   1.258   3.761  11.563 -0.7487 -0.1081 -0.0136
  492MPD2    H2 7372   1.226   3.941  11.188  0.3251  0.3523  0.2734
  492MPD2    H3 7373   1.267   3.958  11.421  0.4473  0.0355  0.5247
  492MPD2     N 7374   1.208   3.517  11.495 -0.3709  0.0402  0.2395
  492MPD2    H5 7375   1.221   3.522  11.595 -0.9098 -0.8707  0.3545
  492MPD2    N1 7376   1.161   3.731  11.050  0.2545  0.6433  0.6463
  492MPD2    H7 7377   1.184   3.818  11.002  0.2323 -0.5393 -1.4588
  493TMC3    C1 7378   1.133   3.633  10.833  0.5904 -0.7277  0.0908
  493TMC3    C2 7379   1.183   3.747  10.780 -0.3116 -0.0945 -0.0670
  493TMC3    C3 7380   1.143   3.788  10.656 -0.3583 -0.4635 -0.2105
  493TMC3    C4 7381   1.055   3.546  10.756 -0.4234  0.3219  0.1426
  493TMC3    C5 7382   1.025   3.584  10.632  0.4420 -0.2166 -0.0809
  493TMC3    C6 7383   1.068   3.706  10.579  0.0793 -0.5796 -0.0643
  493TMC3     C 7384   1.132   3.618  10.977 -0.0853  0.5027 -0.0425
  493TMC3     O 7385   1.088   3.512  11.015  0.6378  0.1774  0.4170
  493TMC3     H 7386   1.244   3.808  10.846  0.4388  1.2084 -1.9658
  493TMC3    H1 7387   1.024   3.449  10.793 -1.7687  0.8330  0.3639
  493TMC3    H2 7388   1.016   3.748  10.493  2.0237  0.6273 -0.6354
  493TMC3    C7 7389   0.931   3.513  10.552  0.7817  0.1097 -0.3802
  493TMC3    C8 7390   1.214   3.894  10.597 -0.4896 -0.1175 -1.0928
  493TMC3    O1 7391   0.900   3.571  10.447 -0.0950 -0.0364  0.9252
  493TMC3    O2 7392   1.306   3.940  10.664  0.1197  0.7071 -0.1478
  494TMC3    C1 7393   1.969   1.329   0.338  0.5525  0.2027 -0.5750
  494TMC3    C2 7394   1.973   1.208   0.273  0.4626  0.2740  0.4711
  494TMC3    C3 7395   2.068   1.195   0.176 -1.1427 -0.5807  0.7087
  494TMC3    C4 7396   2.061   1.435   0.316  0.6611 -0.3230  0.2440
  494TMC3    C5 7397   2.151   1.415   0.213  0.0880 -0.1001 -0.1100
  494TMC3    C6 7398   2.155   1.301   0.138 -0.5960 -0.9315  0.4321
  494TMC3     C 7399   1.871   1.345   0.439  0.0932  0.8726 -0.4555
  494TMC3     O 7400   1.885   1.446   0.504  0.2512  0.5554 -0.4026
  494TMC3     H 7401   1.910   1.120   0.281 -0.4824  0.7694 -1.6920
  494TMC3    H1 7402   2.057   1.527   0.372  0.7328 -0.1247 -0.0794
  494TMC3    H2 7403   2.221   1.281   0.055 -1.7590  1.3014 -1.0145
  494TMC3    C7 7404   2.230   1.529   0.166 -0.4616  0.5762 -0.7775
  494TMC3    C8 7405   2.149   1.070   0.177 -0.6128 -0.7940  0.0304
  494TMC3    O1 7406   2.288   1.522   0.056  0.0948 -0.2883 -0.1736
  494TMC3    O2 7407   2.266   1.079   0.159 -0.0728  0.2957 -0.7225
  495TMC3    C1 7408   1.166   3.119  14.776 -0.0789 -0.5328  0.6173
  495TMC3    C2 7409   1.087   3.174  14.678 -0.0436  0.0169  0.0391
  495TMC3    C3 7410   0.990   3.266  14.718  0.6385 -0.6116 -0.6897
  495TMC3    C4 7411   1.139   3.148  14.911  0.1582  0.3285  0.2079
  495TMC3    C5 7412   1.025   3.218  14.942  0.1427  0.4697 -0.3694
  495TMC3    C6 7413   0.958   3.288  14.844  0.7853 -0.0016  1.0587
  495TMC3     C 7414   1.253   3.003  14.751  0.4041 -0.3831  0.1894
  495TMC3     O 7415   1.326   3.022  14.657 -0.3029  0.0854  0.4566
  495TMC3     H 7416   1.117   3.157  14.575  0.6784 -0.0272  0.2533
  495TMC3    H1 7417   1.187   3.095  14.992  2.3317 -0.1615 -1.4122
  495TMC3    H2 7418   0.882   3.359  14.875 -1.0939  0.1246 -3.8191
  495TMC3    C7 7419   1.006   3.242  15.084  0.2644 -0.8315 -0.0866
  495TMC3    C8 7420   0.876   3.290  14.628  0.6387  0.4087 -0.0927
  495TMC3    O1 7421   1.098   3.210  15.162 -0.3975  0.5662 -0.3765
  495TMC3    O2 7422   0.768   3.322  14.679 -0.6528  0.2347  0.3990
  496MPD2     C 7423   3.072   3.732  15.062 -0.3818  0.2706 -0.6089
  496MPD2    C1 7424   3.084   3.630  15.160  0.4409 -0.2861 -0.4396
  496MPD2    C2 7425   3.006   3.643  15.272  0.3473 -1.1153  0.6126
  496MPD2    C3 7426   2.928   3.757  15.309  0.3019  0.6037 -0.8672
  496MPD2    C4 7427   2.933   3.863  15.222  0.5387  0.4677 -0.9037
  496MPD2    C5 7428   2.996   3.845  15.100 -0.1317  0.0201 -0.1617
  496MPD2     H 7429   2.998   3.556  15.337 -0.8281  0.1940  2.2158
  496MPD2    H1 7430   2.891   3.958  15.254 -2.4581 -1.3948  0.6648
  496MPD2    H2 7431   3.143   3.742  14.980  1.3097 -0.8436  0.7192
  496MPD2    H3 7432   3.002   3.931  15.034  0.7458 -1.1279 -1.5787
  496MPD2     N 7433   2.862   3.755  15.431  0.5117  0.2043 -0.8628
  496MPD2    H5 7434   2.848   3.672  15.488  0.5506 -0.5717 -2.0034
  496MPD2    N1 7435   3.172   3.525  15.137  0.3147 -0.6265 -0.4631
  496MPD2    H7 7436   3.215   3.530  15.045  2.6396  1.6325  0.7478
  497TMC3    C1 7437   2.761   3.834  15.627  0.3142 -0.1933  0.8667
  497TMC3    C2 7438   2.657   3.739  15.614 -0.8600  0.2894 -0.3843
  497TMC3    C3 7439   2.563   3.748  15.707  0.4302  0.7404 -0.4644
  497TMC3    C4 7440   2.751   3.940  15.716 -0.1932 -0.3784  0.0856
  497TMC3    C5 7441   2.657   3.933  15.808 -0.1866 -0.5013 -0.2340
  497TMC3    C6 7442   2.559   3.841  15.808  0.6022  0.7012  0.6704
  497TMC3     C 7443   2.833   3.864  15.505  0.0615  0.1843  0.6359
  497TMC3     O 7444   2.860   3.978  15.477 -0.5152  0.7745 -0.2665
  497TMC3     H 7445   2.651   3.680  15.523  1.7720 -0.1520 -0.2847
  497TMC3    H1 7446   2.830   4.014  15.719 -1.7765  1.3887 -1.6420
  497TMC3    H2 7447   2.478   3.840  15.879 -0.1118 -0.4452 -0.1576
  497TMC3    C7 7448   2.655   4.029  15.923  0.1576  0.2738 -0.1625
  497TMC3    C8 7449   2.454   3.653  15.706 -0.3484  0.1379  0.2274
  497TMC3    O1 7450   2.541   4.034  15.975  0.1807  0.0196  0.0124
  497TMC3    O2 7451   2.405   3.657  15.594 -0.0218  0.1505 -0.1710
  498MPD2     C 7452   4.013   3.589   9.758  0.2012 -0.1312  0.5489
  498MPD2    C1 7453   3.942   3.691   9.817 -0.0748 -1.2149  0.2449
  498MPD2    C2 7454   3.824   3.658   9.873 -0.1196  0.2779 -0.3446
  498MPD2    C3 7455   3.768   3.532   9.853  0.0323  0.0124  0.3344
  498MPD2    C4 7456   3.834   3.438   9.787 -0.5399  0.1863 -0.0699
  498MPD2    C5 7457   3.958   3.467   9.736  0.3016 -0.1203  0.3990
  498MPD2     H 7458   3.766   3.737   9.919 -0.6305  1.3264 -2.7904
  498MPD2    H1 7459   3.805   3.335   9.772 -2.0728  0.6845 -0.5253
  498MPD2    H2 7460   4.111   3.609   9.718  0.8251  0.9174  2.6233
  498MPD2    H3 7461   4.008   3.382   9.691  0.1960 -0.5288  1.0524
  498MPD2     N 7462   3.649   3.509   9.916  0.2491 -0.2311 -0.0314
  498MPD2    H5 7463   3.619   3.583   9.979 -2.4657 -2.0573  0.8145
  498MPD2    N1 7464   3.991   3.821   9.823  0.1845  0.6415  0.2542
  498MPD2    H7 7465   3.930   3.877   9.881  1.0935  0.5007  1.3454
  499TMC3    C1 7466   4.091   4.017   9.730 -0.5363  0.5728 -0.0841
  499TMC3    C2 7467   4.205   4.073   9.692 -0.5582 -0.3675  0.1729
  499TMC3    C3 7468   4.201   4.194   9.626 -0.0349  0.4413  0.3635
  499TMC3    C4 7469   3.969   4.075   9.701  0.4293 -0.6741  0.5228
  499TMC3    C5 7470   3.971   4.193   9.639  0.0080 -0.6951 -0.6012
  499TMC3    C6 7471   4.086   4.255   9.606 -0.9065 -0.8243  0.7520
  499TMC3     C 7472   4.097   3.873   9.759  0.5782 -0.2841 -0.0740
  499TMC3     O 7473   4.195   3.814   9.715  0.0217  0.1201  0.0397
  499TMC3     H 7474   4.300   4.027   9.718 -0.7552 -1.0970 -0.3916
  499TMC3    H1 7475   3.882   4.031   9.746  0.2155 -0.2755  0.4996
  499TMC3    H2 7476   4.087   4.351   9.554 -1.1373 -0.0855  2.1198
  499TMC3    C7 7477   3.848   4.259   9.599  0.5514 -0.1921  0.1377
  499TMC3    C8 7478   4.324   4.241   9.570  0.1029 -0.2582 -0.1881
  499TMC3    O1 7479   3.865   4.371   9.558 -0.0656 -0.0099 -0.2824
  499TMC3    O2 7480   4.424   4.188   9.616 -0.3730  0.1599 -0.2219
  500MPD2     C 7481   0.153   0.582   9.906 -0.9423 -0.1368  0.1825
  500MPD2    C1 7482   0.184   0.451   9.883  0.0019  0.1892  0.7408
  500MPD2    C2 7483   0.092   0.363   9.846 -0.1013 -0.5502 -0.3276
  500MPD2    C3 7484   4.703   0.411   9.803  0.5220 -0.4132 -0.0203
  500MPD2    C4 7485   4.678   0.538   9.822  0.7498  0.1115 -0.0375
  500MPD2    C5 7486   0.031   0.625   9.876 -0.1506  0.0812  0.1034
  500MPD2     H 7487   0.121   0.259   9.831  1.3115  0.1108 -2.2902
  500MPD2    H1 7488   4.582   0.577   9.789  0.7464  0.3308  0.2304
  500MPD2    H2 7489   0.223   0.654   9.946  0.0490 -1.8118  1.4531
  500MPD2    H3 7490   0.004   0.730   9.886 -1.3373 -0.0283 -1.8990
  500MPD2     N 7491   4.596   0.329   9.745  0.2198 -0.0922 -0.1175
  500MPD2    H5 7492   4.515   0.378   9.708  2.3545  2.1232 -1.8658
  500MPD2    N1 7493   0.313   0.399   9.916  0.1404 -0.3965  0.1210
  500MPD2    H7 7494   0.325   0.299   9.907  2.7810 -0.2503  1.7945
  501TMC3    C1 7495   0.543   0.382   9.936 -0.9853  0.4374 -0.2897
  501TMC3    C2 7496   0.648   0.451   9.877  0.0026  0.3846 -0.5834
  501TMC3    C3 7497   0.772   0.393   9.883  0.4345 -0.8440 -0.7044
  501TMC3    C4 7498   0.554   0.266  10.014  0.1358  0.4515  0.4435
  501TMC3    C5 7499   0.684   0.221  10.033 -0.1510  0.2296  0.0988
  501TMC3    C6 7500   0.792   0.275   9.959 -0.3086 -0.4711  0.6688
  501TMC3     C 7501   0.426   0.464   9.936  0.1580 -0.2969  0.1846
  501TMC3     O 7502   0.434   0.585   9.912  0.6061  0.2616  0.5531
  501TMC3     H 7503   0.632   0.543   9.822  0.7817  0.0212 -1.4255
  501TMC3    H1 7504   0.485   0.242  10.094 -0.7610 -0.5102 -0.6213
  501TMC3    H2 7505   0.890   0.230   9.969  1.2293  2.4174 -1.5311
  501TMC3    C7 7506   0.721   0.193  10.171 -0.6779 -0.1679  0.0423
  501TMC3    C8 7507   0.870   0.495   9.941 -0.5105  0.1597 -0.0621
  501TMC3    O1 7508   0.659   0.121  10.248 -0.2360 -0.7794  0.7296
  501TMC3    O2 7509   0.953   0.452  10.016  0.3234  0.7264 -0.4167
  502TMC3    C1 7510   4.696   4.141  14.851  0.5204  0.0366 -0.6211
  502TMC3    C2 7511   4.737   4.225  14.748  0.1885 -0.3268 -0.0248
  502TMC3    C3 7512   4.649   4.309  14.695  0.7075  0.2207 -0.0436
  502TMC3    C4 7513   4.566   4.129  14.873  0.6961 -0.3933  0.2567
  502TMC3    C5 7514   4.473   4.200  14.799 -0.8635  0.3634 -0.6520
  502TMC3    C6 7515   4.517   4.299  14.722 -0.4662 -0.7120 -0.2212
  502TMC3     C 7516   0.063   4.073  14.921 -0.4449  0.6435 -0.2126
  502TMC3     O 7517   0.175   4.083  14.872 -0.0048  0.6931  0.4370
  502TMC3     H 7518   0.105   4.245  14.735  0.5580 -1.5585  1.0846
  502TMC3    H1 7519   4.538   4.054  14.946  3.3801  0.1017  1.7934
  502TMC3    H2 7520   4.448   4.373  14.684  1.6378  0.8307 -1.0720
  502TMC3    C7 7521   4.342   4.221  14.857 -0.1602  0.5469 -0.1089
  502TMC3    C8 7522   4.704   4.436  14.652  0.4063  0.8052 -0.2530
  502TMC3    O1 7523   4.324   4.186  14.973 -0.3144  0.5433  0.2298
  502TMC3    O2 7524   0.071   4.435  14.583  0.1426 -0.1005  0.0748
  503MPD2     C 7525   2.502   0.436  16.763 -1.1290 -0.0421  0.1035
  503MPD2    C1 7526   2.519   0.450  16.902  0.4713  0.0302 -0.7466
  503MPD2    C2 7527   2.595   0.355  16.966  0.2289  0.0378 -0.0195
  503MPD2    C3 7528   2.660   0.252  16.897 -0.8271  0.1169  0.6379
  503MPD2    C4 7529   2.653   0.245  16.760 -0.2562  0.1239  0.4401
  503MPD2    C5 7530   2.567   0.336  16.697  0.3227 -0.0877  0.2065
  503MPD2     H 7531   2.599   0.363  17.074 -0.5122  0.5056 -0.0251
  503MPD2    H1 7532   2.708   0.175  16.699 -1.9341  1.1145 -2.2183
  503MPD2    H2 7533   2.455   0.507  16.695 -0.2581  1.8811  1.4953
  503MPD2    H3 7534   2.559   0.345  16.589  1.0467 -1.3690  0.0397
  503MPD2     N 7535   2.747   0.174  16.976 -0.1967 -0.1944  0.0762
  503MPD2    H5 7536   2.735   0.201  17.073 -0.7368  1.3702 -0.4367
  503MPD2    N1 7537   2.468   0.557  16.982  0.5907 -0.3415  0.1787
  503MPD2    H7 7538   2.489   0.556  17.081  4.4026 -0.1177 -0.6331
  504TMC3    C1 7539   2.913   0.024  17.045  0.1579 -0.0934  0.4694
  504TMC3    C2 7540   2.854   0.031  17.169 -0.1767  0.0339  0.0871
  504TMC3    C3 7541   2.939   4.730  17.268  0.1317 -0.9325  0.6778
  504TMC3    C4 7542   3.039   4.718  17.020  0.1508  0.2294  0.0876
  504TMC3    C5 7543   3.111   4.676  17.129 -0.0547  0.0646 -0.2493
  504TMC3    C6 7544   3.072   4.702  17.257 -0.2767 -0.1905 -0.1995
  504TMC3     C 7545   2.845   0.084  16.930  0.6496  0.5602  0.4783
  504TMC3     O 7546   2.864   0.034  16.820 -0.3991  0.4510 -0.0070
  504TMC3     H 7547   2.750   0.060  17.174  0.2168  1.6766 -1.3816
  504TMC3    H1 7548   3.070   4.697  16.919 -0.3953 -1.0407  0.1781
  504TMC3    H2 7549   3.141   4.684  17.339  1.5627  0.8698 -1.5155
  504TMC3    C7 7550   3.247   4.622  17.105  0.1748 -0.0373  1.0164
  504TMC3    C8 7551   2.894   0.056  17.393  0.7846 -1.3795  0.1698
  504TMC3    O1 7552   3.282   4.605  16.993  0.6528 -0.3490 -0.6383
  504TMC3    O2 7553   2.808   0.144  17.382  0.4371 -1.0074  0.2751
  505MPD2     C 7554   2.653   3.596  10.503 -0.3940 -0.4050 -0.4546
  505MPD2    C1 7555   2.621   3.507  10.603  0.0858  0.3136 -0.1188
  505MPD2    C2 7556   2.672   3.530  10.733 -0.2008 -0.1537 -0.4053
  505MPD2    C3 7557   2.741   3.650  10.759 -0.3984  0.4535 -0.7896
  505MPD2    C4 7558   2.764   3.736  10.654  0.0562  0.3911  0.7166
  505MPD2    C5 7559   2.728   3.709  10.525 -0.4123 -0.1678 -0.0768
  505MPD2     H 7560   2.643   3.457  10.808  0.9455 -0.6778 -0.4846
  505MPD2    H1 7561   2.831   3.820  10.664  0.7521 -0.3022  1.8654
  505MPD2    H2 7562   2.623   3.582  10.400  0.6784 -2.0079 -0.5371
  505MPD2    H3 7563   2.747   3.769  10.436  2.7896  0.7968  1.2640
  505MPD2     N 7564   2.799   3.668  10.886 -0.1602 -0.0416 -0.9296
  505MPD2    H5 7565   2.791   3.591  10.952  0.8860  0.7501  0.1080
  505MPD2    N1 7566   2.546   3.388  10.564  0.2097 -0.0036  0.0776
  505MPD2    H7 7567   2.512   3.383  10.469  1.6294  4.2283 -0.6950
  506TMC3    C1 7568   2.475   3.159  10.588  0.5572  0.7814  0.3127
  506TMC3    C2 7569   2.532   3.117  10.471  0.7722  0.2558 -0.0673
  506TMC3    C3 7570   2.539   2.981  10.456  0.2441 -1.0952  0.1572
  506TMC3    C4 7571   2.447   3.066  10.689 -0.5597  0.0980  0.1465
  506TMC3    C5 7572   2.469   2.936  10.673 -0.1353  0.4010  0.5173
  506TMC3    C6 7573   2.512   2.887  10.552  0.2388 -0.4272  0.2312
  506TMC3     C 7574   2.538   3.275  10.648  0.0574  0.5539 -0.0967
  506TMC3     O 7575   2.565   3.260  10.766 -0.3233  0.3620  0.5709
  506TMC3     H 7576   2.563   3.182  10.391  1.3110 -0.9950 -0.8697
  506TMC3    H1 7577   2.394   3.097  10.779 -1.2876  0.5252 -0.4278
  506TMC3    H2 7578   2.537   2.783  10.536  0.9286 -0.5599  2.0959
  506TMC3    C7 7579   2.570   2.884  10.765 -0.6205 -0.7891 -0.6526
  506TMC3    C8 7580   2.585   2.936  10.329 -0.5909 -0.1006  0.6613
  506TMC3    O1 7581   2.625   2.776  10.747 -0.3281 -0.1236 -0.4202
  506TMC3    O2 7582   2.575   2.817  10.305 -0.0713 -0.3429  0.4498
  507TMC3    C1 7583   3.828   0.555  15.063  0.1043  0.0356 -0.1759
  507TMC3    C2 7584   3.878   0.573  14.929 -0.1529 -0.4394 -1.1602
  507TMC3    C3 7585   3.874   0.694  14.869 -0.5627  0.1507 -0.6286
  507TMC3    C4 7586   3.785   0.673  15.128  0.3498  0.2654  0.2092
  507TMC3    C5 7587   3.763   0.787  15.047 -0.0217 -0.2599 -0.1019
  507TMC3    C6 7588   3.819   0.803  14.925  0.8913  0.2571  0.1875
  507TMC3     C 7589   3.876   0.443  15.150 -0.1461 -0.9779 -0.0222
  507TMC3     O 7590   3.858   0.451  15.270 -0.6079 -0.6600 -0.1187
  507TMC3     H 7591   3.911   0.487  14.871  1.6572  1.3034 -2.7136
  507TMC3    H1 7592   3.742   0.671  15.227 -0.7212 -0.0926 -0.2594
  507TMC3    H2 7593   3.810   0.903  14.884  2.6235  1.2177  2.1121
  507TMC3    C7 7594   3.629   0.830  15.053 -0.1450  0.2299  0.9538
  507TMC3    C8 7595   3.855   0.700  14.727 -0.2768 -1.3424  1.3902
  507TMC3    O1 7596   3.555   0.791  15.140 -0.2405 -0.7021  0.7921
  507TMC3    O2 7597   3.798   0.803  14.684 -0.1372  0.1685 -0.0633
  508MPD2     C 7598   4.328   1.715  16.027 -0.0834 -0.2013  0.0321
  508MPD2    C1 7599   4.445   1.776  16.051  0.0118 -0.0191 -0.2262
  508MPD2    C2 7600   4.521   1.824  15.942  0.6467 -0.2268  0.0208
  508MPD2    C3 7601   4.471   1.812  15.815 -0.0643  0.7282  0.2343
  508MPD2    C4 7602   4.351   1.745  15.795 -0.4311 -0.2485 -0.2152
  508MPD2    C5 7603   4.286   1.689  15.898  0.2126 -0.1603 -0.3256
  508MPD2     H 7604   4.602   1.890  15.972  2.1838 -1.1858 -2.0396
  508MPD2    H1 7605   4.301   1.748  15.699 -2.4549 -2.0734  0.7799
  508MPD2    H2 7606   4.266   1.682  16.110 -3.4349  1.0390 -1.9391
  508MPD2    H3 7607   4.193   1.637  15.877  1.1237 -1.7920 -0.3298
  508MPD2     N 7608   4.539   1.870  15.703 -0.1521  0.8967 -0.2599
  508MPD2    H5 7609   4.610   1.939  15.728  1.3672 -0.9987  0.6430
  508MPD2    N1 7610   4.483   1.791  16.187 -0.4295  0.6629 -0.9105
  508MPD2    H7 7611   4.411   1.767  16.254  1.2587 -2.0113 -0.0393
  509TMC3    C1 7612   4.521   2.091  15.302  0.2405  0.1374 -0.8128
  509TMC3    C2 7613   4.584   2.199  15.356  0.4203  0.7025  0.5983
  509TMC3    C3 7614   4.635   2.188  15.481 -0.3506  0.0784 -0.0364
  509TMC3    C4 7615   4.509   1.971  15.369 -0.0482 -0.7356  0.4469
  509TMC3    C5 7616   4.557   1.963  15.496 -0.5503  0.1014 -0.5874
  509TMC3    C6 7617   4.624   2.070  15.556 -0.0568 -0.1624  0.0072
  509TMC3     C 7618   4.517   2.067  15.164 -0.3143 -0.1656 -0.5729
  509TMC3     O 7619   4.468   1.962  15.130  0.8717 -0.3790  0.3522
  509TMC3     H 7620   4.574   2.294  15.303  3.4157  0.0385 -1.1744
  509TMC3    H1 7621   4.464   1.886  15.319  2.4934 -1.9207  0.2260
  509TMC3    H2 7622   4.661   2.066  15.658  0.2954  1.0367 -0.0789
  509TMC3    C7 7623   4.497   1.856  15.574 -0.7651  0.2406 -0.2843
  509TMC3    C8 7624   4.696   2.299  15.550 -0.3546 -0.2129  0.1759
  509TMC3    O1 7625   4.430   1.771  15.514 -0.0715  0.3187  0.1809
  509TMC3    O2 7626   0.020   2.270  15.652  0.1365 -0.1332  1.0359
  510MPD2     C 7627   2.197   3.779  14.554 -0.1215 -0.0700  1.0102
  510MPD2    C1 7628   2.287   3.785  14.663 -0.4042  0.6014 -0.0046
  510MPD2    C2 7629   2.421   3.818  14.632 -0.4944 -0.1369  0.8015
  510MPD2    C3 7630   2.467   3.827  14.504 -0.0108  0.1488  0.4583
  510MPD2    C4 7631   2.371   3.824  14.399  0.2692 -0.8661 -0.5194
  510MPD2    C5 7632   2.237   3.786  14.422 -0.1303 -0.2432 -0.0674
  510MPD2     H 7633   2.497   3.806  14.708 -2.0237 -0.4308  2.3051
  510MPD2    H1 7634   2.407   3.839  14.297 -0.0150  1.7201 -0.2212
  510MPD2    H2 7635   2.094   3.748  14.568  0.3016 -0.1864  3.8632
  510MPD2    H3 7636   2.167   3.772  14.341 -0.3253 -1.0527  0.2435
  510MPD2     N 7637   2.607   3.841  14.479 -0.5724 -0.1000  0.0006
  510MPD2    H5 7638   2.671   3.828  14.557 -0.6412  0.9227  0.2198
  510MPD2    N1 7639   2.259   3.754  14.794  0.5736  1.1830 -0.3127
  510MPD2    H7 7640   2.334   3.722  14.855 -0.2287  2.8464  1.5673
  511TMC3    C1 7641   2.130   3.669  14.977  0.4705 -0.5055  0.2292
  511TMC3    C2 7642   2.043   3.704  15.076 -0.3958 -0.0297 -0.2147
  511TMC3    C3 7643   2.020   3.613  15.175 -0.6300  0.3130  0.3583
  511TMC3    C4 7644   2.186   3.548  14.970 -0.4969 -0.6583  0.0350
  511TMC3    C5 7645   2.160   3.458  15.070  0.0100  0.1488 -0.1949
  511TMC3    C6 7646   2.072   3.485  15.179 -0.3235 -0.1422 -0.2879
  511TMC3     C 7647   2.137   3.755  14.857  0.0233 -0.6429  0.4488
  511TMC3     O 7648   2.038   3.809  14.816  0.6648  0.7614 -0.0345
  511TMC3     H 7649   2.020   3.809  15.088 -1.8743 -0.3398 -0.3093
  511TMC3    H1 7650   2.269   3.532  14.902 -0.4400  0.4004 -0.1485
  511TMC3    H2 7651   2.059   3.427  15.269 -0.8252 -0.8053 -0.7866
  511TMC3    C7 7652   2.193   3.318  15.047  0.0253 -0.1186 -0.0418
  511TMC3    C8 7653   1.924   3.644  15.278  0.1290 -0.0778  0.9498
  511TMC3    O1 7654   2.263   3.307  14.947  0.1641 -0.0596  0.0055
  511TMC3    O2 7655   1.874   3.754  15.271 -0.3855  0.1501  0.4661
  512TMC3    C1 7656   1.321   2.443  13.107  0.0831  0.6519 -0.1645
  512TMC3    C2 7657   1.302   2.571  13.057  0.5350  0.0075 -0.3174
  512TMC3    C3 7658   1.260   2.580  12.928  0.0900 -0.5731 -0.3307
  512TMC3    C4 7659   1.302   2.328  13.041  0.2375 -0.5435  0.4515
  512TMC3    C5 7660   1.241   2.341  12.915 -0.5529  0.3471 -0.6577
  512TMC3    C6 7661   1.229   2.470  12.856  0.3069  0.3195 -0.0763
  512TMC3     C 7662   1.352   2.434  13.247  0.2726  0.2148  0.1349
  512TMC3     O 7663   1.340   2.533  13.315  0.2305  0.4630  0.1053
  512TMC3     H 7664   1.299   2.657  13.122  3.0984  2.0571 -2.9060
  512TMC3    H1 7665   1.283   2.231  13.085  1.1059 -0.5218  0.8835
  512TMC3    H2 7666   1.187   2.475  12.756 -1.3246  0.4326  0.6111
  512TMC3    C7 7667   1.229   2.229  12.823  0.0318 -0.3112  0.5536
  512TMC3    C8 7668   1.268   2.707  12.856  0.5242 -0.1174 -0.4439
  512TMC3    O1 7669   1.163   2.249  12.723  0.3841  0.0836  0.2238
  512TMC3    O2 7670   1.200   2.727  12.756  0.4089 -0.0587  0.1799
  513MPD2     C 7671   2.517   2.981  13.542  0.3509  0.0100 -0.1351
  513MPD2    C1 7672   2.552   2.849  13.520 -0.3760 -0.3905  0.5023
  513MPD2    C2 7673   2.617   2.783  13.626  0.3025  0.3137  0.0380
  513MPD2    C3 7674   2.644   2.846  13.745  0.4909 -0.2875  0.5200
  513MPD2    C4 7675   2.609   2.974  13.763  0.0517  0.2094  0.3282
  513MPD2    C5 7676   2.553   3.040  13.656 -0.3116  0.6087 -0.1511
  513MPD2     H 7677   2.668   2.690  13.600 -0.0180  0.0588  0.3124
  513MPD2    H1 7678   2.626   3.034  13.851  1.2533  2.8671 -1.6956
  513MPD2    H2 7679   2.475   3.048  13.468 -0.3273  0.1540  0.3794
  513MPD2    H3 7680   2.539   3.146  13.677  0.2427 -0.0345  3.4319
  513MPD2     N 7681   2.734   2.777  13.827 -0.0227  0.0269 -0.1731
  513MPD2    H5 7682   2.765   2.685  13.797  3.0969  1.2436 -0.6633
  513MPD2    N1 7683   2.529   2.780  13.400  0.1036  0.3129  0.2032
  513MPD2    H7 7684   2.546   2.680  13.398 -3.3234 -0.2677  0.6605
  514TMC3    C1 7685   2.471   2.722  13.180  0.4075 -0.1675  0.4535
  514TMC3    C2 7686   2.531   2.755  13.060 -0.1949  0.2983  0.0742
  514TMC3    C3 7687   2.624   2.681  13.001  0.4983 -0.2648 -0.3784
  514TMC3    C4 7688   2.511   2.607  13.242  0.5551 -0.5762  0.8958
  514TMC3    C5 7689   2.607   2.522  13.180 -0.6281  0.4350 -0.3140
  514TMC3    C6 7690   2.670   2.559  13.060 -0.1560 -0.0684 -0.3928
  514TMC3     C 7691   2.469   2.831  13.285 -0.0718 -0.1932  0.4501
  514TMC3     O 7692   2.418   2.941  13.265 -0.4294 -0.4994  0.0985
  514TMC3     H 7693   2.499   2.846  13.011 -0.4045 -0.6051 -1.4426
  514TMC3    H1 7694   2.453   2.570  13.326  0.1561  0.4198  1.0494
  514TMC3    H2 7695   2.749   2.498  13.019 -0.4599  0.3918 -1.6580
  514TMC3    C7 7696   2.684   2.463  13.291 -0.3982  0.0490 -0.1975
  514TMC3    C8 7697   2.661   2.712  12.863 -0.1205 -0.2906  0.6921
  514TMC3    O1 7698   2.635   2.503  13.400 -0.2112 -0.7579 -0.3205
  514TMC3    O2 7699   2.585   2.763  12.779  0.3624 -0.2773  0.1074
  515MPD2     C 7700   1.922   4.311  14.613  0.2372 -0.3571  0.0342
  515MPD2    C1 7701   1.860   4.388  14.519  0.1388  0.4165  0.2831
  515MPD2    C2 7702   1.896   4.521  14.501 -0.3345 -0.3498 -0.7674
  515MPD2    C3 7703   1.992   4.581  14.577 -0.0942 -0.1252  0.2121
  515MPD2    C4 7704   2.054   4.499  14.669  0.3772  0.2985 -0.5348
  515MPD2    C5 7705   2.019   4.367  14.688  0.3298  0.1954 -0.5283
  515MPD2     H 7706   1.847   4.575  14.421 -2.2037 -0.9651 -0.0387
  515MPD2    H1 7707   2.124   4.541  14.741  0.5622  1.0901 -1.1688
  515MPD2    H2 7708   1.898   4.207  14.631 -1.6698 -0.2750 -1.9701
  515MPD2    H3 7709   2.047   4.305  14.773 -0.4516 -0.1305 -0.5109
  515MPD2     N 7710   2.025   4.716  14.577  0.6652  0.4379 -0.6749
  515MPD2    H5 7711   2.095   0.004  14.646  0.4386  1.0504 -0.6726
  515MPD2    N1 7712   1.767   4.338  14.424  0.1339  0.7487 -0.4144
  515MPD2    H7 7713   1.736   4.401  14.351  0.4209  0.7060 -0.5732
  516TMC3    C1 7714   1.589   4.197  14.346  0.2954 -0.0268  0.0766
  516TMC3    C2 7715   1.516   4.299  14.304  0.4995  0.1836 -0.1840
  516TMC3    C3 7716   1.386   4.272  14.269  0.5531  0.2076 -0.4504
  516TMC3    C4 7717   1.536   4.069  14.357 -0.1749  0.1230  0.0251
  516TMC3    C5 7718   1.407   4.040  14.312 -0.3269 -0.2479  0.6130
  516TMC3    C6 7719   1.329   4.146  14.264 -0.3369 -0.9521 -0.0658
  516TMC3     C 7720   1.707   4.212  14.424  0.3174 -0.2321 -0.0216
  516TMC3     O 7721   1.716   4.132  14.514 -0.8245  0.0474  0.4705
  516TMC3     H 7722   1.549   4.402  14.295  2.8934 -0.5339  0.7175
  516TMC3    H1 7723   1.597   3.981  14.371  1.1484  0.8214 -1.3903
  516TMC3    H2 7724   1.229   4.134  14.225 -0.3596  0.6061 -0.4868
  516TMC3    C7 7725   1.344   3.913  14.350  0.0820 -0.2137 -0.3371
  516TMC3    C8 7726   1.302   4.373  14.205 -0.3453  0.2976  0.6826
  516TMC3    O1 7727   1.401   3.847  14.433  0.0140  0.4241  0.3381
  516TMC3    O2 7728   1.184   4.356  14.223 -0.8605  0.4307  0.2656
  517MPD2     C 7729   0.657   1.733  17.683 -0.5508 -0.0316 -0.0297
  517MPD2    C1 7730   0.792   1.705  17.707  0.5152 -0.5083  0.5782
  517MPD2    C2 7731   0.871   1.789   0.031 -0.2698  0.8605 -0.7128
  517MPD2    C3 7732   0.825   1.907   0.084 -1.0820 -0.5955 -0.6025
  517MPD2    C4 7733   0.693   1.944   0.054  0.1544  0.2062  0.3000
  517MPD2    C5 7734   0.616   1.854  17.730  0.0012  0.4359 -0.1140
  517MPD2     H 7735   0.973   1.755   0.044 -0.9815 -0.5949  1.0445
  517MPD2    H1 7736   0.652   2.037   0.091 -0.7570  0.4489 -1.3395
  517MPD2    H2 7737   0.592   1.674  17.620 -2.6581 -0.0475  2.1883
  517MPD2    H3 7738   0.522   1.887  17.688 -0.9520  0.3727  1.9662
  517MPD2     N 7739   0.903   2.000   0.153  0.1236  0.2694  0.4148
  517MPD2    H5 7740   0.855   2.086   0.176  0.7375  0.3775  1.3181
  517MPD2    N1 7741   0.841   1.576  17.660  0.2502  0.3874  0.4640
  517MPD2    H7 7742   0.938   1.560  17.686  0.6451  3.1391  0.7394
  518TMC3    C1 7743   0.840   1.355  17.580  0.1365  0.1366 -0.5252
  518TMC3    C2 7744   0.760   1.254  17.529 -0.2245  0.3772  0.3126
  518TMC3    C3 7745   0.831   1.161  17.456 -0.7355 -0.1054 -1.0357
  518TMC3    C4 7746   0.971   1.371  17.551 -0.0685  0.4536  0.5446
  518TMC3    C5 7747   1.034   1.270  17.484 -0.4300  0.1559  0.4798
  518TMC3    C6 7748   0.959   1.174  17.423 -0.4921  0.4199 -0.0738
  518TMC3     C 7749   0.764   1.471  17.615 -0.1608 -0.3425  0.7481
  518TMC3     O 7750   0.642   1.458  17.614  0.0517  0.1571 -0.4832
  518TMC3     H 7751   0.665   1.225  17.572  0.6415  2.1343  3.4002
  518TMC3    H1 7752   1.034   1.453  17.584  0.5777  0.1427  0.0842
  518TMC3    H2 7753   0.998   1.090  17.365 -3.2700 -2.5057  2.3022
  518TMC3    C7 7754   1.169   1.285  17.440 -0.2307 -0.3911 -0.5837
  518TMC3    C8 7755   0.777   1.033  17.425  0.1001  0.9287 -0.6113
  518TMC3    O1 7756   1.225   1.389  17.469 -0.1493  0.4146 -0.3017
  518TMC3    O2 7757   0.783   0.995  17.313  0.1801  0.3128 -0.6479
  519MPD2     C 7758   3.055   4.334  14.401  0.2281 -0.3787  0.3318
  519MPD2    C1 7759   3.035   4.334  14.267 -0.4194 -0.4480  0.3090
  519MPD2    C2 7760   3.105   4.243  14.187  0.0618  0.1960  0.2018
  519MPD2    C3 7761   3.181   4.146  14.251  0.2783 -0.3284  0.3151
  519MPD2    C4 7762   3.206   4.152  14.380 -0.5992 -0.4678 -0.0900
  519MPD2    C5 7763   3.146   4.252  14.456  0.3989  0.3379  0.3218
  519MPD2     H 7764   3.096   4.249  14.080  2.1922  1.0377  0.0810
  519MPD2    H1 7765   3.285   4.092  14.423 -0.5539 -0.6231 -0.3962
  519MPD2    H2 7766   3.010   4.409  14.464 -1.4692 -0.1636 -1.1168
  519MPD2    H3 7767   3.180   4.267  14.558  0.6155  1.2602  0.1109
  519MPD2     N 7768   3.262   4.048  14.186 -0.2755 -0.2198  0.5550
  519MPD2    H5 7769   3.317   3.983  14.241  0.3783  1.5430  1.9741
  519MPD2    N1 7770   2.951   4.436  14.212 -0.3114  0.1083 -0.3170
  519MPD2    H7 7771   2.904   4.491  14.283  2.2001  0.8955  0.7185
  520TMC3    C1 7772   3.329   3.924  14.006 -0.0841 -0.0423  0.1131
  520TMC3    C2 7773   3.284   3.863  13.895  0.1581 -0.3532 -0.1348
  520TMC3    C3 7774   3.356   3.767  13.827  0.3121  0.4987 -0.1669
  520TMC3    C4 7775   3.437   3.873  14.070 -0.1429  0.4616  0.0440
  520TMC3    C5 7776   3.499   3.766  14.010  0.6031 -0.6404  0.4204
  520TMC3    C6 7777   3.471   3.723  13.880  0.7361  0.3937  0.0169
  520TMC3     C 7778   3.242   4.027  14.054 -0.0599 -0.4964  0.2002
  520TMC3     O 7779   3.179   4.083  13.963 -0.5181  0.2100 -0.5551
  520TMC3     H 7780   3.184   3.892  13.866 -0.3936 -2.6659 -0.5551
  520TMC3    H1 7781   3.484   3.928  14.151 -1.2458  0.3905  0.7339
  520TMC3    H2 7782   3.541   3.660  13.826 -2.2641  0.2655 -3.6423
  520TMC3    C7 7783   3.576   3.677  14.098 -0.1698  0.5958  0.3300
  520TMC3    C8 7784   3.353   3.779  13.684  0.7639 -0.5975 -0.2496
  520TMC3    O1 7785   3.569   3.703  14.221  0.0933  0.6223  0.2283
  520TMC3    O2 7786   3.461   3.756  13.635  0.1898 -0.2301  0.4048
  521MPD2     C 7787   3.595   2.989  17.507  0.5299 -0.1331  0.0822
  521MPD2    C1 7788   3.516   2.908  17.432  0.5698 -0.0534  0.3274
  521MPD2    C2 7789   3.576   2.798  17.372 -0.3745  0.6998  0.1005
  521MPD2    C3 7790   3.716   2.770  17.385  0.3578  0.3712 -0.3278
  521MPD2    C4 7791   3.798   2.856  17.460  0.2080 -0.4120  0.7447
  521MPD2    C5 7792   3.732   2.968  17.509  0.3535 -0.2970  0.0849
  521MPD2     H 7793   3.524   2.737  17.300 -0.0044 -1.6232  1.7845
  521MPD2    H1 7794   3.906   2.852  17.466  0.2739 -0.7846 -0.6615
  521MPD2    H2 7795   3.552   3.077  17.553  0.9466 -0.9189  1.9894
  521MPD2    H3 7796   3.800   3.028  17.569 -1.9134  0.8559  1.5008
  521MPD2     N 7797   3.781   2.675  17.303  0.1411  0.8266  0.3970
  521MPD2    H5 7798   3.738   2.636  17.220 -0.0861 -1.3166  1.4967
  521MPD2    N1 7799   3.370   2.933  17.435 -0.0728  0.8339  0.3418
  521MPD2    H7 7800   3.338   3.015  17.487  1.4253  0.7126  1.4955
  522TMC3    C1 7801   3.951   2.546  17.218 -0.5058  0.0887 -1.0356
  522TMC3    C2 7802   4.032   2.434  17.255 -0.3273  0.4512  0.3625
  522TMC3    C3 7803   4.094   2.377  17.149 -0.6139  0.6121 -0.9498
  522TMC3    C4 7804   3.939   2.598  17.094  0.1238 -0.2394  1.0968
  522TMC3    C5 7805   4.018   2.538  17.000 -0.3633  0.3633  0.8591
  522TMC3    C6 7806   4.099   2.431  17.024 -0.3182  0.5977 -0.6909
  522TMC3     C 7807   3.909   2.631  17.327  0.1740 -0.3964 -0.0270
  522TMC3     O 7808   3.971   2.631  17.431 -0.0045  0.0244  0.2801
  522TMC3     H 7809   4.043   2.389  17.353  1.0070 -2.3237 -1.0567
  522TMC3    H1 7810   3.882   2.689  17.080 -0.4295 -0.9855 -1.5101
  522TMC3    H2 7811   4.150   2.385  16.940  0.5542 -1.0922  0.7665
  522TMC3    C7 7812   4.021   2.600  16.865  0.0182 -1.2068  0.3045
  522TMC3    C8 7813   4.129   2.235  17.157 -0.1496 -1.2638 -0.1470
  522TMC3    O1 7814   4.115   2.567  16.798  0.3966 -0.1072 -0.4069
  522TMC3    O2 7815   4.100   2.183  17.263  0.4242 -0.2597 -0.3375
  523MPD2     C 7816   1.546   2.104  10.322 -0.5065 -0.4300  0.0820
  523MPD2    C1 7817   1.421   2.065  10.286  0.0754  0.7447 -0.6923
  523MPD2    C2 7818   1.334   2.162  10.240 -0.2450  0.6936 -0.3507
  523MPD2    C3 7819   1.374   2.295  10.219 -0.9304 -0.2295 -0.1405
  523MPD2    C4 7820   1.507   2.324  10.252 -0.1723 -0.0508 -0.0555
  523MPD2    C5 7821   1.590   2.226  10.304 -0.2768  0.7123 -0.0142
  523MPD2     H 7822   1.233   2.129  10.218  0.2937 -0.1160 -1.6441
  523MPD2    H1 7823   1.550   2.423  10.246  1.9576 -1.2646 -4.7805
  523MPD2    H2 7824   1.616   2.028  10.355 -0.1789  0.2719  1.0243
  523MPD2    H3 7825   1.695   2.249  10.321 -0.2796  0.7833 -0.0921
  523MPD2     N 7826   1.284   2.398  10.178  0.1601 -0.4499 -0.2558
  523MPD2    H5 7827   1.322   2.492  10.176 -0.5379 -0.2384 -4.0147
  523MPD2    N1 7828   1.400   1.934  10.320 -0.7740  0.0140  0.1221
  523MPD2    H7 7829   1.471   1.884  10.372 -0.5396 -0.9103 -1.0945
  524TMC3    C1 7830   1.091   2.505  10.116 -0.3481  0.2815  0.4801
  524TMC3    C2 7831   1.156   2.610  10.065  0.1664  0.4355  0.2772
  524TMC3    C3 7832   1.079   2.713  10.028 -0.0246 -0.1218  0.2529
  524TMC3    C4 7833   0.953   2.495  10.122 -0.8104 -0.6305  1.1039
  524TMC3    C5 7834   0.881   2.609  10.097  0.1464  0.2527 -0.6811
  524TMC3    C6 7835   0.943   2.717  10.047  0.4663  0.7417 -0.6795
  524TMC3     C 7836   1.156   2.382  10.136  1.0169  0.0004  0.4242
  524TMC3     O 7837   1.093   2.280  10.124 -0.4395  0.2864 -0.1903
  524TMC3     H 7838   1.254   2.605  10.018 -1.4682 -1.9421 -2.9135
  524TMC3    H1 7839   0.914   2.400  10.158 -1.6519 -0.6473  0.1457
  524TMC3    H2 7840   0.882   2.803  10.021 -0.7830  0.4090  1.1452
  524TMC3    C7 7841   0.737   2.586  10.073 -0.5557 -0.5946 -0.5215
  524TMC3    C8 7842   1.137   2.835   9.977 -0.0943  0.2754  0.2554
  524TMC3    O1 7843   0.703   2.468  10.084 -0.2190  0.0989  0.1068
  524TMC3    O2 7844   1.067   2.907   9.908 -0.6992  0.6079 -0.3145
  525MPD2     C 7845   3.955   4.004  14.295 -0.2201  0.3792 -0.1721
  525MPD2    C1 7846   4.081   4.003  14.348  0.3476 -0.4745  0.1269
  525MPD2    C2 7847   4.190   4.014  14.262  0.0954  0.0500  0.2192
  525MPD2    C3 7848   4.171   4.046  14.131  0.0139  0.5611 -0.3760
  525MPD2    C4 7849   4.041   4.060  14.082 -0.3366 -0.3355 -0.5507
  525MPD2    C5 7850   3.930   4.020  14.160 -0.2538 -0.2883  0.1705
  525MPD2     H 7851   4.293   4.018  14.295  1.0104  1.4409 -2.8087
  525MPD2    H1 7852   4.015   4.110  13.989 -2.5109 -0.1197  0.1575
  525MPD2    H2 7853   3.871   3.998  14.363 -2.8117 -0.0404 -3.3967
  525MPD2    H3 7854   3.829   4.030  14.123 -0.0671  2.5749  0.3847
  525MPD2     N 7855   4.281   4.086  14.047 -0.0849 -0.4899  0.4541
  525MPD2    H5 7856   4.258   4.127  13.957  3.2336  0.7950  0.2002
  525MPD2    N1 7857   4.115   3.974  14.482  0.2541  0.8343 -0.2229
  525MPD2    H7 7858   4.213   3.965  14.504  0.0255 -1.0082  0.0741
  526TMC3    C1 7859   4.075   3.944  14.714  0.3344  0.2524 -0.0906
  526TMC3    C2 7860   3.987   3.982  14.813  0.3583 -0.0475  0.0779
  526TMC3    C3 7861   4.021   3.970  14.944 -0.2965 -0.0143  0.3410
  526TMC3    C4 7862   4.197   3.889  14.740 -0.0167 -0.3992 -0.0734
  526TMC3    C5 7863   4.231   3.882  14.879  1.3415 -0.7118  0.0319
  526TMC3    C6 7864   4.145   3.931  14.976  0.1595  0.0463 -0.4603
  526TMC3     C 7865   4.020   3.953  14.578 -0.5056  0.2724  0.1316
  526TMC3     O 7866   3.902   3.978  14.569  0.4778 -0.0595 -0.4585
  526TMC3     H 7867   3.884   4.006  14.792 -0.0961 -1.4231  0.6995
  526TMC3    H1 7868   4.268   3.855  14.665  1.9380  0.5997  1.3381
  526TMC3    H2 7869   4.176   3.935  15.080  1.5675  0.0373 -0.8765
  526TMC3    C7 7870   4.357   3.835  14.930 -0.0325  1.0297 -0.3187
  526TMC3    C8 7871   3.917   3.974  15.038 -0.6676  0.6348 -0.2859
  526TMC3    O1 7872   4.391   3.877  15.039  0.2874  0.0726 -0.6675
  526TMC3    O2 7873   3.944   3.904  15.137 -0.8132 -0.2259 -0.5866
  527MPD2     C 7874   1.855   2.118   1.511  0.0369  0.7001  0.0884
  527MPD2    C1 7875   1.840   2.031   1.410  0.1260 -0.4934  0.1852
  527MPD2    C2 7876   1.934   1.940   1.382 -0.1104 -0.6272 -0.2435
  527MPD2    C3 7877   2.053   1.922   1.448 -0.2318  0.0019 -0.0088
  527MPD2    C4 7878   2.064   2.007   1.556  0.6673  0.3018  0.6879
  527MPD2    C5 7879   1.972   2.107   1.580 -0.6714 -0.4990 -0.5658
  527MPD2     H 7880   1.917   1.887   1.288  2.4475 -1.0676 -0.4576
  527MPD2    H1 7881   2.164   2.028   1.594  1.3067 -2.8255  0.7995
  527MPD2    H2 7882   1.780   2.191   1.542  0.2735  1.3039 -0.7688
  527MPD2    H3 7883   1.992   2.168   1.667 -2.7621  0.8817 -1.0452
  527MPD2     N 7884   2.148   1.847   1.389 -0.5390 -0.9876  0.3049
  527MPD2    H5 7885   2.113   1.799   1.308 -1.6042 -0.2135  0.3086
  527MPD2    N1 7886   1.718   2.015   1.336 -0.3616  0.1829 -0.3871
  527MPD2    H7 7887   1.698   1.925   1.292 -0.1764 -1.0321  1.9734
  528TMC3    C1 7888   1.529   2.076   1.242 -0.3071 -0.1723 -0.1160
  528TMC3    C2 7889   1.471   2.173   1.163  0.0428  0.3591 -0.5245
  528TMC3    C3 7890   1.332   2.178   1.138 -0.5986  0.1664  0.1878
  528TMC3    C4 7891   1.452   1.982   1.297 -0.4025 -0.0346 -0.1930
  528TMC3    C5 7892   1.313   1.998   1.273  0.5071 -1.3287  0.4495
  528TMC3    C6 7893   1.252   2.092   1.202 -0.1242 -0.0756 -0.1356
  528TMC3     C 7894   1.637   2.118   1.315 -0.3188  0.5502 -0.0047
  528TMC3     O 7895   1.641   2.231   1.357 -0.3702 -0.4236 -0.6893
  528TMC3     H 7896   1.534   2.231   1.097  0.5145  0.6283  0.1688
  528TMC3    H1 7897   1.490   1.907   1.366  0.2002  0.4228 -0.0265
  528TMC3    H2 7898   1.145   2.087   1.189  0.1046  0.1243 -2.0330
  528TMC3    C7 7899   1.225   1.906   1.353 -0.0665  0.8470 -0.3419
  528TMC3    C8 7900   1.288   2.268   1.031  0.5155  0.0563 -0.2790
  528TMC3    O1 7901   1.106   1.940   1.349  0.3121  0.1124 -0.4641
  528TMC3    O2 7902   1.373   2.346   0.993 -0.5643  0.0474  0.3146
  529MPD2     C 7903   4.607   0.620   1.001 -0.1626  0.5630  0.3526
  529MPD2    C1 7904   4.630   0.514   0.915  0.1927  0.2641  0.7441
  529MPD2    C2 7905   4.588   0.531   0.785 -0.0674 -0.0087 -0.2352
  529MPD2    C3 7906   4.536   0.654   0.735  0.5439  0.6943  0.3719
  529MPD2    C4 7907   4.536   0.760   0.826  0.4300 -0.5797  0.5691
  529MPD2    C5 7908   4.577   0.746   0.955  0.4788  0.1926 -0.5296
  529MPD2     H 7909   4.606   0.450   0.716  0.2162 -0.2894  0.1683
  529MPD2    H1 7910   4.515   0.854   0.776  0.0985 -0.7530  0.3818
  529MPD2    H2 7911   4.644   0.617   1.103  0.0389 -1.3285  0.2109
  529MPD2    H3 7912   4.573   0.834   1.019  1.8667 -0.1760  0.0639
  529MPD2     N 7913   4.495   0.682   0.601 -0.5403 -0.2487  0.3650
  529MPD2    H5 7914   4.480   0.777   0.568 -2.0327 -0.4289  0.5038
  529MPD2    N1 7915   4.687   0.388   0.950  0.1474 -0.0183  0.3535
  529MPD2    H7 7916   4.709   0.329   0.871  1.0108 -0.5445  0.9914
  530TMC3    C1 7917   0.082   0.249   1.089  0.1372  0.0968  0.0923
  530TMC3    C2 7918   0.186   0.270   1.180  0.1705  0.1018  0.5279
  530TMC3    C3 7919   0.289   0.184   1.172 -0.4231  0.1717 -0.5927
  530TMC3    C4 7920   0.078   0.146   1.001 -0.2332 -0.0393  0.0847
  530TMC3    C5 7921   0.182   0.055   1.002 -0.1229 -0.5535 -0.8155
  530TMC3    C6 7922   0.294   0.077   1.081  0.5943  0.4945 -0.0709
  530TMC3     C 7923   4.723   0.358   1.078  0.2228 -0.6886  0.5704
  530TMC3     O 7924   4.702   0.409   1.184  0.6777  0.2983 -0.0466
  530TMC3     H 7925   0.198   0.364   1.233 -2.2214  1.6882 -1.7527
  530TMC3    H1 7926   4.723   0.129   0.946 -1.4154  2.5210  1.2885
  530TMC3    H2 7927   0.360   4.730   1.098  0.5293  0.5082  0.2556
  530TMC3    C7 7928   0.155   4.654   0.960 -0.0686 -0.7437 -0.9039
  530TMC3    C8 7929   0.404   0.208   1.254  0.5054 -0.1049 -0.1674
  530TMC3    O1 7930   0.219   4.609   0.863 -0.2205  0.4616  0.5098
  530TMC3    O2 7931   0.389   0.300   1.339 -0.4595 -0.2609 -0.4735
  531MPD2     C 7932   3.161   2.430  13.462  0.0928  0.3263 -0.1999
  531MPD2    C1 7933   3.047   2.483  13.519 -0.8472  0.0448  0.1883
  531MPD2    C2 7934   2.928   2.468  13.453  0.3598  0.1254 -0.0861
  531MPD2    C3 7935   2.925   2.414  13.326  0.1134 -0.3665 -0.1964
  531MPD2    C4 7936   3.040   2.374  13.262 -0.4942  0.4512 -0.2362
  531MPD2    C5 7937   3.153   2.375  13.336  0.5251 -0.2260 -0.0710
  531MPD2     H 7938   2.838   2.503  13.502 -1.0397 -1.9819 -1.1806
  531MPD2    H1 7939   3.052   2.348  13.158  1.0058  0.2168  0.0010
  531MPD2    H2 7940   3.261   2.442  13.502 -0.2074 -2.0625  1.2665
  531MPD2    H3 7941   3.247   2.347  13.291 -0.3971 -1.2140 -1.3823
  531MPD2     N 7942   2.812   2.426  13.251 -0.8710 -0.2223  0.3368
  531MPD2    H5 7943   2.823   2.402  13.152  1.9399 -1.1819  0.8869
  531MPD2    N1 7944   3.043   2.552  13.647  0.0129 -0.2324 -0.2004
  531MPD2    H7 7945   2.950   2.565  13.685  1.4236  0.6764  2.9627
  532TMC3    C1 7946   3.105   2.669  13.841  0.0801 -0.4352  0.6796
  532TMC3    C2 7947   3.000   2.751  13.830  0.0376 -0.2766  0.3116
  532TMC3    C3 7948   2.939   2.797  13.939  0.3336 -0.2581 -0.9915
  532TMC3    C4 7949   3.173   2.661  13.956  0.2934 -0.2039 -0.0929
  532TMC3    C5 7950   3.118   2.719  14.071  0.2839 -0.1277 -0.0548
  532TMC3    C6 7951   2.997   2.783  14.063 -0.7287  0.1539 -0.2188
  532TMC3     C 7952   3.150   2.589  13.728 -0.9130  0.3517  0.2328
  532TMC3     O 7953   3.266   2.590  13.699 -0.0904  0.4189  0.0001
  532TMC3     H 7954   2.966   2.772  13.729 -0.9865 -1.0372  0.5007
  532TMC3    H1 7955   3.254   2.589  13.953  1.4864  1.0676  1.6231
  532TMC3    H2 7956   2.939   2.820  14.147  0.1570 -2.4884  1.5579
  532TMC3    C7 7957   3.199   2.722  14.192 -0.6424 -0.1740  0.2770
  532TMC3    C8 7958   2.793   2.828  13.940  0.9449  0.0318 -0.1887
  532TMC3    O1 7959   3.155   2.743  14.304 -0.2378 -0.0199 -0.1335
  532TMC3    O2 7960   2.763   2.924  14.011  0.3525  0.1308  0.2169
  533TMC3    C1 7961   4.499   4.179  13.983  0.8244  0.4515 -1.1445
  533TMC3    C2 7962   4.606   4.242  14.043  0.8992  0.0172 -0.0847
  533TMC3    C3 7963   4.612   4.378  14.038  0.3171  0.1800  0.2612
  533TMC3    C4 7964   4.415   4.256  13.910  0.2004 -0.0689 -0.2105
  533TMC3    C5 7965   4.420   4.389  13.915 -0.6763  0.1287  0.3507
  533TMC3    C6 7966   4.516   4.457  13.984 -0.1564 -0.0563 -0.4108
  533TMC3     C 7967   4.416   4.088  14.076  0.2442 -0.5330 -0.0735
  533TMC3     O 7968   4.481   4.049  14.173  0.1500  0.1217  0.6271
  533TMC3     H 7969   4.670   4.178  14.102 -0.6410 -1.4078  0.0241
  533TMC3    H1 7970   4.334   4.205  13.858 -1.3363  1.7458  0.3940
  533TMC3    H2 7971   4.528   4.563  14.000 -0.7057  0.1224 -1.2349
  533TMC3    C7 7972   4.287   4.447  13.942 -0.5694 -0.3688 -0.3232
  533TMC3    C8 7973   4.722   4.440  14.110  0.2475  0.1251 -0.3096
  533TMC3    O1 7974   4.280   4.519  14.039 -0.0107  0.0548 -0.6240
  533TMC3    O2 7975   4.702   4.553  14.147  0.3875 -0.2611 -0.2123
  534MPD2     C 7976   2.542   0.505   0.850 -0.1901 -0.3112  0.5730
  534MPD2    C1 7977   2.500   0.640   0.845 -0.1598  0.6110 -0.4254
  534MPD2    C2 7978   2.389   0.670   0.776  0.5108 -0.3410  0.0120
  534MPD2    C3 7979   2.316   0.577   0.709  0.0072 -0.2203  0.1730
  534MPD2    C4 7980   2.366   0.453   0.701 -0.2010 -0.0385  0.2892
  534MPD2    C5 7981   2.479   0.414   0.768 -0.3890  0.2626 -0.1155
  534MPD2     H 7982   2.354   0.773   0.773  0.8980 -0.2302 -0.8117
  534MPD2    H1 7983   2.306   0.374   0.657  0.1754 -1.4123  2.2253
  534MPD2    H2 7984   2.626   0.476   0.912  0.8272 -0.3150 -0.8134
  534MPD2    H3 7985   2.504   0.309   0.765  1.7937  0.7656  0.8361
  534MPD2     N 7986   2.191   0.599   0.642  0.7017  0.2503 -0.1837
  534MPD2    H5 7987   2.130   0.522   0.615  1.1620  0.1438 -0.8999
  534MPD2    N1 7988   2.562   0.750   0.912 -0.3411 -0.6613 -0.6699
  534MPD2    H7 7989   2.523   0.843   0.897  0.5655 -0.3581 -1.1779
  535TMC3    C1 7990   1.997   0.721   0.628  0.5329 -0.0414  0.2589
  535TMC3    C2 7991   1.942   0.642   0.717 -0.5526  0.3773  0.2926
  535TMC3    C3 7992   1.810   0.637   0.723 -0.3955  0.1410  0.9328
  535TMC3    C4 7993   1.934   0.805   0.540  0.0417  0.4078  0.2354
  535TMC3    C5 7994   1.800   0.792   0.544 -0.2061 -0.2720  0.1553
  535TMC3    C6 7995   1.731   0.713   0.639  0.4823 -0.0111 -0.7387
  535TMC3     C 7996   2.138   0.723   0.617  0.9253  0.0710 -0.2020
  535TMC3     O 7997   2.207   0.821   0.608 -0.2757  0.4059 -0.0394
  535TMC3     H 7998   2.002   0.579   0.781 -1.2602 -0.9151 -0.3217
  535TMC3    H1 7999   1.995   0.857   0.468  0.2284  1.2827  1.0214
  535TMC3    H2 8000   1.623   0.710   0.650  0.5072 -1.7084 -0.9289
  535TMC3    C7 8001   1.728   0.848   0.432 -0.5919  0.1329 -0.1507
  535TMC3    C8 8002   1.730   0.578   0.827  0.6736 -0.3217 -0.3988
  535TMC3    O1 8003   1.791   0.908   0.345  1.0132 -0.4439  0.1422
  535TMC3    O2 8004   1.612   0.555   0.799  0.2564  0.8213  0.2869
  536MPD2     C 8005   0.556   3.610  16.134 -0.2895  0.2991  0.4654
  536MPD2    C1 8006   0.431   3.592  16.190  0.3339  0.1358  0.3145
  536MPD2    C2 8007   0.322   3.596  16.109  0.5805  0.3711  0.0974
  536MPD2    C3 8008   0.334   3.605  15.971 -0.3380  0.4752  0.0011
  536MPD2    C4 8009   0.453   3.611  15.911  0.2961 -0.0019 -0.5811
  536MPD2    C5 8010   0.562   3.623  15.994 -0.0340  0.2570 -0.2105
  536MPD2     H 8011   0.224   3.575  16.151  0.2847 -0.2057 -0.8812
  536MPD2    H1 8012   0.457   3.618  15.803  1.8974 -0.1184 -0.5321
  536MPD2    H2 8013   0.646   3.610  16.194 -0.2134  1.8550  0.3388
  536MPD2    H3 8014   0.658   3.637  15.945  0.4682 -1.3192  0.3125
  536MPD2     N 8015   0.220   3.605  15.886 -0.6296  0.0601 -0.2726
  536MPD2    H5 8016   0.220   3.578  15.788 -0.2050 -2.4702  0.4024
  536MPD2    N1 8017   0.437   3.571  16.328 -0.3323 -0.0996 -0.0003
  536MPD2    H7 8018   0.528   3.590  16.368  0.5432 -1.7242 -1.1728
  537TMC3    C1 8019   0.354   3.530  16.547  0.4841  0.4673 -0.9874
  537TMC3    C2 8020   0.468   3.581  16.598  0.5755  0.1372 -0.0391
  537TMC3    C3 8021   0.523   3.527  16.713  0.4580  0.3776  0.2052
  537TMC3    C4 8022   0.295   3.422  16.604  0.1494 -0.2440  0.3864
  537TMC3    C5 8023   0.350   3.367  16.715 -0.3956  1.0430  0.6511
  537TMC3    C6 8024   0.469   3.417  16.772 -0.4198 -0.0102 -0.1288
  537TMC3     C 8025   0.326   3.540  16.402 -0.5328  0.0858  0.5004
  537TMC3     O 8026   0.216   3.499  16.370 -0.4150 -0.5879  0.3672
  537TMC3     H 8027   0.487   3.681  16.561 -0.1998  0.6041  0.8320
  537TMC3    H1 8028   0.222   3.366  16.545 -1.0551  0.1354  1.5100
  537TMC3    H2 8029   0.524   3.361  16.847 -1.8660 -0.4928  0.5825
  537TMC3    C7 8030   0.309   3.229  16.747  0.1806  0.1458  0.8944
  537TMC3    C8 8031   0.643   3.585  16.781  0.1366 -0.2989  0.2685
  537TMC3    O1 8032   0.257   3.174  16.654  0.4776  0.2646 -0.7707
  537TMC3    O2 8033   0.668   3.535  16.890  0.5164 -0.3584  0.4266
  538TMC3    C1 8034   2.018   1.758  11.321  0.1768 -0.5884 -0.4417
  538TMC3    C2 8035   2.138   1.802  11.268  0.0943 -1.0060 -0.3041
  538TMC3    C3 8036   2.134   1.899  11.174  0.3435 -0.2563  0.0863
  538TMC3    C4 8037   1.899   1.802  11.270  0.7331 -0.3540 -0.8016
  538TMC3    C5 8038   1.898   1.898  11.177  0.2077  0.3875 -0.2077
  538TMC3    C6 8039   2.017   1.950  11.129  0.1028  0.0459 -0.2725
  538TMC3     C 8040   2.011   1.675  11.445 -0.5668 -0.1508 -0.2528
  538TMC3     O 8041   1.903   1.623  11.470  0.8057  0.0209  0.2696
  538TMC3     H 8042   2.235   1.768  11.303 -1.1690 -3.5911  0.6610
  538TMC3    H1 8043   1.804   1.768  11.309 -0.5725  1.3705 -2.4901
  538TMC3    H2 8044   2.007   2.043  11.074  1.2919  0.1954 -0.2514
  538TMC3    C7 8045   1.767   1.929  11.113  0.0649  0.3018  0.4253
  538TMC3    C8 8046   2.257   1.967  11.147  0.4595  0.0474  0.1427
  538TMC3    O1 8047   1.683   1.847  11.121 -0.2393 -0.6697 -0.6834
  538TMC3    O2 8048   2.327   1.994  11.241 -0.0775 -0.4471 -0.8200
  539MPD2     C 8049   1.151   0.138  11.735 -0.1584 -0.6373  0.2681
  539MPD2    C1 8050   1.217   0.213  11.647  0.1591  0.2014 -0.4915
  539MPD2    C2 8051   1.234   0.349  11.672 -0.8415  0.1142 -0.7924
  539MPD2    C3 8052   1.166   0.406  11.777  0.0335  0.3278  0.4173
  539MPD2    C4 8053   1.104   0.325  11.870 -0.1982  0.6637 -0.2649
  539MPD2    C5 8054   1.112   0.192  11.854  0.3920  0.1444  0.3151
  539MPD2     H 8055   1.300   0.404  11.606 -1.6130  1.2786 -0.5930
  539MPD2    H1 8056   1.054   0.378  11.950 -0.5007 -0.6642  0.4224
  539MPD2    H2 8057   1.138   0.031  11.735 -1.9262 -0.4189 -0.8628
  539MPD2    H3 8058   1.063   0.137  11.933  2.4227  0.7235  1.9605
  539MPD2     N 8059   1.139   0.548  11.793  0.0668 -0.1837 -0.6645
  539MPD2    H5 8060   1.105   0.583  11.883 -0.9323 -0.5014 -0.9147
  539MPD2    N1 8061   1.277   0.154  11.530 -0.6639  0.3202 -0.0574
  539MPD2    H7 8062   1.337   0.210  11.471 -0.6248 -1.1042 -1.3643
  540TMC3    C1 8063   1.164   0.781  11.729  0.0074  0.3657  0.5146
  540TMC3    C2 8064   1.141   0.865  11.622 -0.3135  0.4829 -0.0224
  540TMC3    C3 8065   1.099   0.994  11.650 -0.3459 -0.4449 -1.0169
  540TMC3    C4 8066   1.163   0.815  11.859 -0.5462 -0.4770  0.3830
  540TMC3    C5 8067   1.138   0.943  11.878  0.4735  0.0035  0.3675
  540TMC3    C6 8068   1.107   1.039  11.782 -0.1544  0.3408 -0.4087
  540TMC3     C 8069   1.168   0.643  11.691  0.2199 -0.6053  0.0959
  540TMC3     O 8070   1.224   0.619  11.583 -0.0819  0.6165 -0.1692
  540TMC3     H 8071   1.141   0.819  11.524  1.2134  1.2217 -0.3720
  540TMC3    H1 8072   1.160   0.752  11.947 -1.1919 -0.0204  0.6810
  540TMC3    H2 8073   1.102   1.144  11.807  3.6189 -0.2969  2.9316
  540TMC3    C7 8074   1.122   0.978  12.019 -0.0877  0.0592 -0.2016
  540TMC3    C8 8075   1.079   1.093  11.543 -0.3051  0.1492 -0.3189
  540TMC3    O1 8076   1.200   0.920  12.093  0.5301  0.0564  0.7200
  540TMC3    O2 8077   1.117   1.206  11.567  0.0176 -0.6120 -0.8165
  541MPD2     C 8078   4.658   2.535  13.503 -0.1660 -0.3070 -0.3509
  541MPD2    C1 8079   4.636   2.428  13.423 -0.0544 -0.1914 -0.0952
  541MPD2    C2 8080   4.686   2.421  13.298 -1.2111  0.6529  0.6804
  541MPD2    C3 8081   0.008   2.530  13.244  0.1884  0.0253  0.7512
  541MPD2    C4 8082   0.037   2.645  13.324 -0.2098  0.1242  0.0078
  541MPD2    C5 8083   4.726   2.646  13.451 -0.3786  0.2727  0.2143
  541MPD2     H 8084   4.670   2.335  13.234 -1.9115  0.7873  0.6731
  541MPD2    H1 8085   0.096   2.732  13.299 -0.6665 -0.1134 -1.9050
  541MPD2    H2 8086   4.629   2.536  13.608 -0.3557 -1.3877 -0.3925
  541MPD2    H3 8087   0.012   2.727  13.520 -0.4739 -0.8920  1.6074
  541MPD2     N 8088   0.050   2.536  13.108  0.2165 -0.2948  1.0716
  541MPD2    H5 8089   0.087   2.625  13.075 -1.9590 -0.3322 -1.3613
  541MPD2    N1 8090   4.565   2.309  13.461  0.7352  0.3656  0.2048
  541MPD2    H7 8091   4.574   2.233  13.395 -2.3147 -0.3857  0.6489
  542TMC3    C1 8092   0.035   2.496  12.873 -0.0629 -0.1583 -0.0733
  542TMC3    C2 8093   0.038   2.411  12.762  0.3350 -0.0440  0.0070
  542TMC3    C3 8094   0.011   2.469  12.638  0.0102 -0.5009 -0.1918
  542TMC3    C4 8095   0.018   2.634  12.859  0.3553 -0.1124 -0.6910
  542TMC3    C5 8096   4.715   2.678  12.741 -0.7154 -0.2508  0.0180
  542TMC3    C6 8097   4.705   2.600  12.629 -0.4742  0.8705  0.0922
  542TMC3     C 8098   0.027   2.440  13.013  0.0189 -0.5613  0.4586
  542TMC3     O 8099   4.732   2.324  13.031  0.5646  1.0342 -0.2961
  542TMC3     H 8100   0.053   2.304  12.776  3.9309  0.1733 -1.9912
  542TMC3    H1 8101   0.002   2.707  12.937  2.4769 -0.1539 -0.2306
  542TMC3    H2 8102   4.694   2.653  12.535 -0.5849 -0.4625 -0.6383
  542TMC3    C7 8103   4.725   2.818  12.734  0.5854 -0.3882 -0.0286
  542TMC3    C8 8104   0.021   2.391  12.520 -0.1112 -0.6060 -0.3555
  542TMC3    O1 8105   0.067   2.882  12.803 -0.4506  0.3040  0.2389
  542TMC3    O2 8106   0.014   2.458  12.419  0.6199 -0.0550 -0.0466
  543TMC3    C1 8107   4.152   4.402  17.328  0.1754  0.0442 -0.7073
  543TMC3    C2 8108   4.183   4.287  17.397  0.3421  0.1638 -0.3863
  543TMC3    C3 8109   4.158   4.288  17.532 -0.1532  0.2617  0.7769
  543TMC3    C4 8110   4.081   4.502  17.387  0.2196  0.6298 -0.3211
  543TMC3    C5 8111   4.063   4.503  17.525 -0.3536  0.8369  0.5808
  543TMC3    C6 8112   4.111   4.397  17.597 -0.3177 -0.2979 -0.6022
  543TMC3     C 8113   4.177   4.396  17.185  1.0635 -0.6532  0.4072
  543TMC3     O 8114   4.217   4.288  17.139  0.5610 -0.4456 -0.2185
  543TMC3     H 8115   4.204   4.194  17.345 -4.0891  0.0317 -1.9475
  543TMC3    H1 8116   4.039   4.575  17.320 -1.9946 -2.1367 -1.9232
  543TMC3    H2 8117   4.096   4.388  17.704  0.9915  3.4356 -0.0918
  543TMC3    C7 8118   4.025   4.627  17.600  0.1083 -0.7873  0.2690
  543TMC3    C8 8119   4.208   4.171  17.606  0.3435  0.1225  0.1549
  543TMC3    O1 8120   4.019   4.625  17.724  0.1738  0.3661  0.5100
  543TMC3    O2 8121   4.263   4.090  17.539 -0.1741  0.2011  0.7380
  544MPD2     C 8122   4.274   3.918   0.301 -0.6251 -0.5813 -0.0472
  544MPD2    C1 8123   4.299   3.868   0.175 -0.2378  0.4135 -0.6395
  544MPD2    C2 8124   4.280   3.951   0.065 -0.0651 -0.5155  0.0212
  544MPD2    C3 8125   4.223   4.080   0.088  0.1204  0.2412  0.5081
  544MPD2    C4 8126   4.207   4.125   0.218  0.2329  0.0647 -0.6135
  544MPD2    C5 8127   4.224   4.041   0.319  0.5493  0.3659 -0.0164
  544MPD2     H 8128   4.304   3.920  17.710 -0.3873  1.3941 -0.6465
  544MPD2    H1 8129   4.187   4.227   0.248 -0.3870 -0.0523 -0.6325
  544MPD2    H2 8130   4.285   3.842   0.378 -0.9404  0.0828  0.6562
  544MPD2    H3 8131   4.203   4.066   0.422 -1.7750  0.3889 -0.4897
  544MPD2     N 8132   4.187   4.177  17.737  0.7633  0.2246  0.6412
  544MPD2    H5 8133   4.131   4.250   0.033  1.1165  0.1768  1.1939
  544MPD2    N1 8134   4.339   3.735   0.154 -0.1186 -0.3705  0.2079
  544MPD2    H7 8135   4.355   3.674   0.233 -0.1741 -1.6277 -0.7429
  545TMC3    C1 8136   4.372   3.528   0.068 -0.0552  0.1097 -0.6623
  545TMC3    C2 8137   4.490   3.518   0.137  0.2418  0.5040 -0.5856
  545TMC3    C3 8138   4.553   3.399   0.136 -0.5577 -0.0061  0.6338
  545TMC3    C4 8139   4.299   3.426   0.007  0.3414 -0.9610 -0.7108
  545TMC3    C5 8140   4.363   3.307   0.022  0.2381  0.2008  0.3644
  545TMC3    C6 8141   4.487   3.292   0.084 -0.0704 -0.0726  0.5518
  545TMC3     C 8142   4.324   3.665   0.039  0.1473 -0.1027  0.5112
  545TMC3     O 8143   4.280   3.697  17.675 -0.5390  0.2787  0.1336
  545TMC3     H 8144   4.542   3.608   0.167 -0.4968  0.8390 -0.2901
  545TMC3    H1 8145   4.200   3.448  17.715 -0.1572 -0.7640  0.6867
  545TMC3    H2 8146   4.539   3.198   0.097  0.4522  0.4230  1.9307
  545TMC3    C7 8147   4.275   3.197   0.001 -0.4562  0.3255  0.5841
  545TMC3    C8 8148   4.670   3.364   0.225  0.4375  0.0247 -0.2920
  545TMC3    O1 8149   4.188   3.216  17.663 -0.1565 -0.1941  0.3018
  545TMC3    O2 8150   4.675   3.248   0.267  0.2719  0.2071 -0.6117
  546MPD2     C 8151   0.828   4.244  17.347 -0.4792  0.8392  0.7791
  546MPD2    C1 8152   0.809   4.283  17.220 -0.3335  0.2594  0.0020
  546MPD2    C2 8153   0.817   4.417  17.191  0.3112 -0.2651 -0.1024
  546MPD2    C3 8154   0.839   4.516  17.285 -0.7505 -0.2829  0.8938
  546MPD2    C4 8155   0.844   4.473  17.412 -0.1901  0.0360 -0.1320
  546MPD2    C5 8156   0.848   4.337  17.439 -0.2908 -0.3117  0.4349
  546MPD2     H 8157   0.805   4.452  17.090  0.4327 -0.9631 -0.3632
  546MPD2    H1 8158   0.848   4.543  17.495  0.2135  1.0875 -1.0339
  546MPD2    H2 8159   0.809   4.143  17.381 -1.9594  0.9790  0.3649
  546MPD2    H3 8160   0.860   4.310  17.543 -1.1447  0.4418  0.7351
  546MPD2     N 8161   0.845   4.654  17.260  0.3993 -0.2836 -0.0834
  546MPD2    H5 8162   0.847   4.711  17.344 -0.0470  0.1229 -0.3463
  546MPD2    N1 8163   0.776   4.180  17.130 -0.1597  0.1484  0.9078
  546MPD2    H7 8164   0.791   4.086  17.163  0.4404  0.0333  0.3201
  547TMC3    C1 8165   0.708   4.063  16.951  0.3506  0.1783  0.1541
  547TMC3    C2 8166   0.582   4.065  16.891  0.1465 -0.5883 -0.3687
  547TMC3    C3 8167   0.502   3.955  16.937 -0.1593  0.3534  0.1110
  547TMC3    C4 8168   0.752   3.966  17.038  0.5867 -0.1197  0.4056
  547TMC3    C5 8169   0.669   3.865  17.067 -0.3262  0.2481  0.2219
  547TMC3    C6 8170   0.545   3.849  17.018  0.1711 -0.2324 -1.1091
  547TMC3     C 8171   0.739   4.197  16.999  0.5126  1.0355  0.2202
  547TMC3     O 8172   0.719   4.296  16.927  0.1251 -0.2704 -0.2295
  547TMC3     H 8173   0.544   4.154  16.842  0.4328 -0.6248 -0.6528
  547TMC3    H1 8174   0.849   3.953  17.083  0.3720  0.4549  1.0338
  547TMC3    H2 8175   0.467   3.783  17.053 -0.0601 -0.7491 -2.5959
  547TMC3    C7 8176   0.703   3.780  17.181  0.0402  0.4830  0.1793
  547TMC3    C8 8177   0.377   3.945  16.862 -0.0341 -0.6216 -0.3094
  547TMC3    O1 8178   0.758   3.847  17.268  0.1262  0.1225 -0.2945
  547TMC3    O2 8179   0.335   4.051  16.821 -0.1963  0.0798  0.3717
  548MPD2     C 8180   0.809   4.202  12.521 -1.1329  0.3250  0.0662
  548MPD2    C1 8181   0.727   4.105  12.467  0.3915 -0.0589 -0.1887
  548MPD2    C2 8182   0.789   4.017  12.378 -0.5390  0.1630  0.6578
  548MPD2    C3 8183   0.923   4.016  12.365 -0.1162  0.0403 -0.3966
  548MPD2    C4 8184   1.005   4.099  12.436 -0.3353 -0.2705 -0.1365
  548MPD2    C5 8185   0.941   4.199  12.506  0.2021  0.4234 -0.1255
  548MPD2     H 8186   0.734   3.946  12.317 -2.0050 -0.4252  2.6660
  548MPD2    H1 8187   1.112   4.110  12.418 -0.4024  1.1400  0.2641
  548MPD2    H2 8188   0.765   4.264  12.598  0.8923 -0.9453  2.2448
  548MPD2    H3 8189   0.996   4.273  12.562  0.2624  2.2920 -2.6244
  548MPD2     N 8190   0.973   3.909  12.288  0.3672 -0.3672  0.5555
  548MPD2    H5 8191   0.898   3.860  12.240 -0.9576  2.5391 -0.3778
  548MPD2    N1 8192   0.592   4.108  12.506  0.7021  0.2152  0.3667
  548MPD2    H7 8193   0.571   4.165  12.588 -0.0592  0.7771 -0.2147
  549TMC3    C1 8194   0.369   4.037  12.531  0.0165 -0.4655  0.7518
  549TMC3    C2 8195   0.311   4.163  12.524 -0.5046  0.4412  0.2936
  549TMC3    C3 8196   0.172   4.172  12.536  0.0949  0.8426  0.3276
  549TMC3    C4 8197   0.291   3.926  12.538 -0.5907  0.1149 -0.4602
  549TMC3    C5 8198   0.155   3.936  12.558 -0.7514  0.2839 -0.5995
  549TMC3    C6 8199   0.090   4.061  12.560  0.3358 -0.0135  0.2817
  549TMC3     C 8200   0.496   4.018  12.465  0.0947  0.1435 -0.4994
  549TMC3     O 8201   0.509   3.922  12.392  0.8121 -0.4936 -0.1903
  549TMC3     H 8202   0.364   4.251  12.489  0.5349 -0.6818 -0.9726
  549TMC3    H1 8203   0.348   3.834  12.532  0.6484  0.6575  2.7804
  549TMC3    H2 8204   4.722   4.068  12.586 -0.0371 -0.7995 -1.0287
  549TMC3    C7 8205   0.081   3.825  12.622  0.3741 -0.2444  0.1918
  549TMC3    C8 8206   0.120   4.303  12.507 -0.2552  0.0133 -0.5880
  549TMC3    O1 8207   4.718   3.863  12.690 -0.6937 -0.2092  0.3850
  549TMC3    O2 8208   0.022   4.310  12.434 -0.3475 -0.5362  0.0358
  550TMC3    C1 8209   4.504   2.163  12.322 -0.0231  0.0348 -0.4082
  550TMC3    C2 8210   4.491   2.144  12.462 -0.1752 -0.4003  0.5271
  550TMC3    C3 8211   4.461   2.261  12.534  0.2938  0.0193  0.3735
  550TMC3    C4 8212   4.476   2.284  12.257 -0.2341  0.2625  0.3751
  550TMC3    C5 8213   4.446   2.394  12.335 -0.4966  0.1462  0.5434
  550TMC3    C6 8214   4.441   2.378  12.474  0.5335  0.5646  0.1504
  550TMC3     C 8215   4.548   2.044  12.244  0.8175 -0.5139 -0.0579
  550TMC3     O 8216   4.622   1.967  12.292  0.0761  0.7808  0.3617
  550TMC3     H 8217   4.488   2.043  12.499  0.4910 -0.8389 -0.6055
  550TMC3    H1 8218   4.476   2.284  12.149  2.5430 -0.8090  0.3847
  550TMC3    H2 8219   4.402   2.458  12.535  0.0577  0.8677 -0.5495
  550TMC3    C7 8220   4.343   2.490  12.285 -0.3170 -0.1248  0.0698
  550TMC3    C8 8221   4.440   2.252  12.674 -0.0581  0.1284  0.4094
  550TMC3    O1 8222   4.361   2.543  12.176 -0.6804 -0.2894 -0.4694
  550TMC3    O2 8223   4.465   2.350  12.741 -0.4078 -0.2979 -0.0574
  551TMC3    C1 8224   1.626   0.555  13.513  0.4919 -0.2850 -0.5963
  551TMC3    C2 8225   1.766   0.575  13.490 -0.6769  0.4045  0.6232
  551TMC3    C3 8226   1.838   0.611  13.599  0.3431  0.1646  0.0798
  551TMC3    C4 8227   1.571   0.572  13.634  0.7655  0.0010 -0.0158
  551TMC3    C5 8228   1.646   0.621  13.733  0.7112  0.6419 -0.5975
  551TMC3    C6 8229   1.784   0.634  13.723  0.0285  0.0982  0.3170
  551TMC3     C 8230   1.558   0.475  13.416 -0.5398  0.2952 -0.5479
  551TMC3     O 8231   1.597   0.483  13.299 -0.4819 -0.0751 -0.0483
  551TMC3     H 8232   1.821   0.545  13.401 -0.3309 -0.6456  1.2017
  551TMC3    H1 8233   1.463   0.558  13.631  0.5864  1.2459  0.8338
  551TMC3    H2 8234   1.843   0.666  13.809  1.5116 -2.7082  0.3282
  551TMC3    C7 8235   1.585   0.720  13.820  0.1239 -0.5068 -0.0554
  551TMC3    C8 8236   1.977   0.655  13.586 -0.0300  0.3754 -0.1521
  551TMC3    O1 8237   1.474   0.765  13.792 -0.2994 -0.4974 -0.2049
  551TMC3    O2 8238   2.045   0.651  13.688 -0.4446 -0.4104  0.2017
  552MPD2     C 8239   3.481   2.306  14.677  0.5006 -0.0291  0.4097
  552MPD2    C1 8240   3.557   2.242  14.581 -1.0840  0.2600  0.0558
  552MPD2    C2 8241   3.687   2.203  14.608  0.9430 -0.2661  0.0050
  552MPD2    C3 8242   3.746   2.212  14.729  0.0354  0.1817  0.0553
  552MPD2    C4 8243   3.671   2.271  14.825 -0.3630  0.2577  0.0896
  552MPD2    C5 8244   3.539   2.312  14.795  0.0256 -0.2704 -0.2263
  552MPD2     H 8245   3.745   2.149  14.534  2.3804  1.7228 -0.3281
  552MPD2    H1 8246   3.716   2.289  14.922 -1.0865 -0.7235  0.6123
  552MPD2    H2 8247   3.381   2.348  14.669  1.0490  1.1022 -0.4633
  552MPD2    H3 8248   3.476   2.359  14.870 -0.0832 -1.0663  0.1761
  552MPD2     N 8249   3.882   2.197  14.764  0.0815  0.2133  0.0692
  552MPD2    H5 8250   3.911   2.221  14.858  2.9385 -0.5633 -0.6181
  552MPD2    N1 8251   3.502   2.204  14.455 -0.4556 -0.0196  0.4687
  552MPD2    H7 8252   3.558   2.147  14.393 -1.4531 -1.3753  0.8299
  553TMC3    C1 8253   3.354   2.192  14.280  0.1594 -0.1221  0.7252
  553TMC3    C2 8254   3.297   2.272  14.192  0.2850  0.0863  0.3116
  553TMC3    C3 8255   3.279   2.241  14.063  0.5019  0.8052  0.2328
  553TMC3    C4 8256   3.386   2.066  14.241  0.7062 -0.1928 -0.4894
  553TMC3    C5 8257   3.344   2.029  14.115 -0.1944  0.1927  0.7159
  553TMC3    C6 8258   3.286   2.116  14.020 -0.7208  0.1423 -0.3484
  553TMC3     C 8259   3.380   2.247  14.408  0.0182  0.5906  0.3643
  553TMC3     O 8260   3.294   2.330  14.444 -0.0056  0.1324 -0.9299
  553TMC3     H 8261   3.277   2.375  14.220  1.3369  0.4878 -0.4110
  553TMC3    H1 8262   3.432   1.996  14.310 -1.6415 -0.8183  0.4381
  553TMC3    H2 8263   3.246   2.094  13.922  0.7857 -2.2516 -0.4388
  553TMC3    C7 8264   3.377   1.895  14.067 -0.9201  0.3804 -0.5741
  553TMC3    C8 8265   3.362   2.326  13.979 -0.1379 -0.1379  0.1373
  553TMC3    O1 8266   3.322   1.859  13.965 -0.0082 -0.4233 -0.3457
  553TMC3    O2 8267   3.421   2.411  14.045  0.0039  0.5375  0.1713
  554TMC3    C1 8268   0.429   0.809  11.287  0.2181 -0.0348  0.0372
  554TMC3    C2 8269   0.427   0.804  11.149 -0.2638 -0.0009  0.1583
  554TMC3    C3 8270   0.502   0.891  11.083 -0.2494  0.0267  0.7282
  554TMC3    C4 8271   0.487   0.910  11.353  0.5161  0.3612  0.5039
  554TMC3    C5 8272   0.561   0.997  11.281 -0.0199  0.2419  0.3905
  554TMC3    C6 8273   0.581   0.984  11.146  0.0225  0.3579  0.2550
  554TMC3     C 8274   0.417   0.675  11.356  0.2983 -0.2732 -0.7922
  554TMC3     O 8275   0.378   0.579  11.292  0.5720 -0.0887 -0.3605
  554TMC3     H 8276   0.383   0.721  11.096  0.7659  0.4758 -1.4303
  554TMC3    H1 8277   0.474   0.927  11.459 -0.8232  0.8741  0.2463
  554TMC3    H2 8278   0.648   1.046  11.088  0.3522  0.8101  1.1165
  554TMC3    C7 8279   0.615   1.107  11.352  0.2354  0.0491  1.0806
  554TMC3    C8 8280   0.499   0.895  10.940 -0.5531 -0.5909  0.0713
  554TMC3    O1 8281   0.621   1.095  11.474 -0.2316  0.2244  0.5265
  554TMC3    O2 8282   0.585   0.955  10.875 -0.4502 -0.6193  0.1641
  555TMC3    C1 8283   4.227   1.410  15.519 -0.0052 -0.4131  0.4710
  555TMC3    C2 8284   4.301   1.424  15.635 -0.0593 -0.0657  0.0092
  555TMC3    C3 8285   4.383   1.320  15.672  0.0130  0.1989  0.6763
  555TMC3    C4 8286   4.240   1.300  15.443 -0.5023 -0.1959 -1.0336
  555TMC3    C5 8287   4.321   1.200  15.481  0.1901 -0.2232 -0.0630
  555TMC3    C6 8288   4.390   1.204  15.599  0.1089 -0.1382  0.4003
  555TMC3     C 8289   4.133   1.516  15.499  0.0075 -0.5598  0.0565
  555TMC3     O 8290   4.095   1.584  15.592  0.5626  0.3710 -0.2621
  555TMC3     H 8291   4.301   1.520  15.686  0.7249 -0.0482 -0.0242
  555TMC3    H1 8292   4.181   1.285  15.353 -4.6044  1.2323  1.4790
  555TMC3    H2 8293   4.450   1.119  15.631 -2.5952 -1.3951  2.1453
  555TMC3    C7 8294   4.278   1.065  15.451 -0.7309  0.4928  0.0512
  555TMC3    C8 8295   4.493   1.365  15.758  0.4703  0.2510 -0.5977
  555TMC3    O1 8296   4.158   1.038  15.472 -0.1393 -0.3482  0.4570
  555TMC3    O2 8297   4.523   1.482  15.750  0.5045 -0.0074  0.2123
  556MPD2     C 8298   2.247   2.720  11.053 -0.3239 -0.2118  0.1538
  556MPD2    C1 8299   2.360   2.659  10.999  0.1516  0.9391  0.2792
  556MPD2    C2 8300   2.363   2.633  10.865  0.5422 -0.5685 -0.5121
  556MPD2    C3 8301   2.251   2.663  10.780 -0.7060 -0.7381 -0.7872
  556MPD2    C4 8302   2.146   2.731  10.840  0.1336  0.2576 -0.2175
  556MPD2    C5 8303   2.144   2.766  10.973  0.4961  0.5045 -0.0942
  556MPD2     H 8304   2.447   2.584  10.818  0.7315 -0.3116 -0.4417
  556MPD2    H1 8305   2.052   2.750  10.790 -1.6628 -0.2629  2.9090
  556MPD2    H2 8306   2.246   2.732  11.160 -3.1759 -1.0415  0.2354
  556MPD2    H3 8307   2.055   2.798  11.025  0.3689  0.4977 -0.3079
  556MPD2     N 8308   2.247   2.610  10.650  0.7912  0.2832  0.3006
  556MPD2    H5 8309   2.307   2.536  10.618  2.1318  1.2033  0.6936
  556MPD2    N1 8310   2.476   2.608  11.077 -0.1169  0.2926 -0.0947
  556MPD2    H7 8311   2.552   2.574  11.020 -0.3895  0.2822 -0.4470
  557TMC3    C1 8312   2.157   2.531  10.445 -0.4400 -0.8728 -0.2526
  557TMC3    C2 8313   2.063   2.429  10.440  0.0296 -0.2426  0.8832
  557TMC3    C3 8314   2.105   2.301  10.411 -0.0746 -0.2748 -0.5558
  557TMC3    C4 8315   2.289   2.497  10.424  0.1511  0.4620 -0.6179
  557TMC3    C5 8316   2.334   2.368  10.417  0.3841 -0.4123  0.1591
  557TMC3    C6 8317   2.243   2.269  10.396 -0.3181 -1.0978 -0.7568
  557TMC3     C 8318   2.137   2.622  10.554  1.2818  0.6150 -0.5877
  557TMC3     O 8319   2.033   2.685  10.569  0.4819  0.4652 -0.3774
  557TMC3     H 8320   1.956   2.450  10.442  0.2257  1.1947 -2.6286
  557TMC3    H1 8321   2.356   2.581  10.438  1.0806 -0.2966 -0.5267
  557TMC3    H2 8322   2.275   2.166  10.388 -0.1969 -1.0401 -1.0394
  557TMC3    C7 8323   2.411   2.351  10.537  0.4382 -0.1070 -0.3605
  557TMC3    C8 8324   2.018   2.210  10.341  0.1724 -0.6122  0.1135
  557TMC3    O1 8325   2.488   2.440  10.566 -0.4586  0.4157 -0.1122
  557TMC3    O2 8326   1.911   2.252  10.301  0.1742  0.2055  0.0919
  558TMC3    C1 8327   4.496   0.129   9.649 -0.5992 -0.1326  0.5035
  558TMC3    C2 8328   4.448   0.007   9.694 -0.4613  0.4982 -0.2720
  558TMC3    C3 8329   4.327   4.692   9.658  0.2635 -0.2320 -0.4612
  558TMC3    C4 8330   4.426   0.202   9.555 -0.4002 -0.1621  0.3926
  558TMC3    C5 8331   4.314   0.139   9.510  0.1780 -0.2436 -0.2403
  558TMC3    C6 8332   4.262   0.016   9.552  0.3103  0.3318 -0.4485
  558TMC3     C 8333   4.598   0.188   9.736 -0.6877  0.8517  0.0260
  558TMC3     O 8334   4.682   0.116   9.791 -0.0827  0.1060 -0.0209
  558TMC3     H 8335   4.502   4.705   9.780 -0.7355 -1.6379 -1.0947
  558TMC3    H1 8336   4.462   0.289   9.502 -2.8602  1.6316  1.6596
  558TMC3    H2 8337   4.174   4.708   9.508  1.0366 -2.0396  0.5520
  558TMC3    C7 8338   4.224   0.235   9.450 -0.4224  0.1962 -0.1974
  558TMC3    C8 8339   4.240   4.617   9.747  0.0416  0.4676 -0.2698
  558TMC3    O1 8340   4.266   0.343   9.412  0.1464 -0.2701 -0.0708
  558TMC3    O2 8341   4.120   4.619   9.716  0.1420 -0.0244  0.6549
  559MPD2     C 8342   0.396   0.742  10.201 -0.6252 -0.1967 -0.8821
  559MPD2    C1 8343   0.308   0.655  10.260  0.1663  0.1871  0.6633
  559MPD2    C2 8344   0.366   0.575  10.355 -0.1978  0.4939 -0.2285
  559MPD2    C3 8345   0.503   0.563  10.372 -0.1267 -1.0393 -0.4036
  559MPD2    C4 8346   0.585   0.651  10.303 -0.0632  0.6268  0.0441
  559MPD2    C5 8347   0.533   0.745  10.225  0.0436 -0.5675  1.1302
  559MPD2     H 8348   0.306   0.517  10.424  0.1809 -0.1757 -0.4639
  559MPD2    H1 8349   0.693   0.643  10.305  0.0019  1.5460 -0.0867
  559MPD2    H2 8350   0.349   0.806  10.128  0.4175 -0.9834 -2.2285
  559MPD2    H3 8351   0.599   0.817  10.178 -2.0243  1.7386  1.7539
  559MPD2     N 8352   0.544   0.472  10.473  0.0627 -0.4823 -0.4055
  559MPD2    H5 8353   0.468   0.418  10.512  2.9026 -1.4217  3.7316
  559MPD2    N1 8354   0.175   0.660  10.233 -0.0987  0.3253  0.0676
  559MPD2    H7 8355   0.137   0.742  10.188 -2.3662 -0.4309  0.6230
  560TMC3    C1 8356   0.680   0.325  10.587 -0.0613  0.3190  0.6106
  560TMC3    C2 8357   0.604   0.223  10.537 -0.2569 -0.0953  0.5148
  560TMC3    C3 8358   0.605   0.109  10.614 -0.2804  0.3662 -0.1394
  560TMC3    C4 8359   0.745   0.323  10.710  0.3646  0.0565  0.9088
  560TMC3    C5 8360   0.728   0.208  10.788  0.1464  0.2691  0.6983
  560TMC3    C6 8361   0.654   0.108  10.744  0.0389 -0.5614  0.0950
  560TMC3     C 8362   0.669   0.449  10.517  0.0072 -0.1284 -1.0802
  560TMC3     O 8363   0.768   0.513  10.498  0.8578 -0.1967 -0.2888
  560TMC3     H 8364   0.543   0.246  10.451 -0.7628  0.4493  1.0244
  560TMC3    H1 8365   0.803   0.411  10.736  0.7160 -0.1861  0.9553
  560TMC3    H2 8366   0.632   0.021  10.805  2.4885 -0.5854  0.9385
  560TMC3    C7 8367   0.783   0.186  10.922 -0.2879  0.4025  0.0559
  560TMC3    C8 8368   0.500   0.013  10.582 -0.4366 -0.3570 -0.1865
  560TMC3    O1 8369   0.747   0.090  10.986 -0.2408 -0.1174  0.2248
  560TMC3    O2 8370   0.436   4.697  10.676  0.6455 -0.3010  0.0458
  561TMC3    C1 8371   3.339   4.477  11.069  0.3238  0.0365  0.0830
  561TMC3    C2 8372   3.265   4.370  11.117  0.1384 -0.0489 -0.1054
  561TMC3    C3 8373   3.148   4.415  11.180  0.2410 -0.1492 -0.3595
  561TMC3    C4 8374   3.285   4.605  11.060  0.3367 -0.4988 -1.3041
  561TMC3    C5 8375   3.154   4.624  11.092  0.7549 -0.6360 -0.4627
  561TMC3    C6 8376   3.085   4.529  11.162  0.3015 -1.0750 -0.4075
  561TMC3     C 8377   3.481   4.455  11.050 -0.4989 -0.3094  0.0617
  561TMC3     O 8378   3.528   4.351  10.996 -0.7005  0.0650 -0.2591
  561TMC3     H 8379   3.310   4.276  11.148 -1.6788 -0.2753  1.8482
  561TMC3    H1 8380   3.345   4.685  11.017  0.1648 -0.8870 -2.2802
  561TMC3    H2 8381   2.987   4.545  11.204  0.2989 -0.8714 -0.4940
  561TMC3    C7 8382   3.090   0.016  11.062  0.0267 -0.0153 -0.0437
  561TMC3    C8 8383   3.067   4.314  11.230  0.3345 -0.1005 -0.8492
  561TMC3    O1 8384   2.974   0.025  11.098  0.2749 -0.3220  0.2705
  561TMC3    O2 8385   3.094   4.194  11.207  0.2490 -0.1389  0.2509
  562TMC3    C1 8386   4.146   1.776  16.802 -0.3062 -0.6218  0.7374
  562TMC3    C2 8387   4.090   1.901  16.773  0.1194 -0.0860  0.8322
  562TMC3    C3 8388   4.102   1.940  16.640  0.0781  0.3323  0.1582
  562TMC3    C4 8389   4.187   1.686  16.702 -0.0759  0.5409 -0.5904
  562TMC3    C5 8390   4.183   1.734  16.568  0.0842 -0.5547  0.8150
  562TMC3    C6 8391   4.145   1.861  16.537  0.8138  0.3165  0.1326
  562TMC3     C 8392   4.099   1.715  16.924  0.1219 -0.2655 -0.4623
  562TMC3     O 8393   3.991   1.752  16.965 -0.1881 -0.5342  0.0097
  562TMC3     H 8394   4.065   1.961  16.860  0.4674 -0.1140  0.9551
  562TMC3    H1 8395   4.226   1.586  16.713 -0.5718  0.5272  1.0100
  562TMC3    H2 8396   4.117   1.895  16.437 -0.0147 -1.8799 -0.3813
  562TMC3    C7 8397   4.221   1.653  16.453  0.6023 -0.8131 -0.7189
  562TMC3    C8 8398   4.101   2.078  16.631  0.2023 -0.1789 -0.6773
  562TMC3    O1 8399   4.290   1.711  16.370  0.1107 -0.3538 -0.1258
  562TMC3    O2 8400   4.114   2.147  16.733 -0.3878 -0.2959 -0.1479
  563MPD2     C 8401   1.897   3.075  15.630  0.0153  0.5799 -0.0889
  563MPD2    C1 8402   1.967   3.049  15.744  0.4000  0.3221  0.1556
  563MPD2    C2 8403   2.108   3.065  15.742 -0.5017 -0.0027  0.3193
  563MPD2    C3 8404   2.176   3.120  15.641  0.5476 -0.0357 -0.5819
  563MPD2    C4 8405   2.099   3.148  15.525 -0.1593 -0.1388 -0.0391
  563MPD2    C5 8406   1.964   3.120  15.524 -0.1663  0.5032  0.5270
  563MPD2     H 8407   2.164   3.030  15.828  0.9895 -0.5006 -0.8745
  563MPD2    H1 8408   2.146   3.181  15.433 -0.8177  0.3567 -0.1952
  563MPD2    H2 8409   1.792   3.054  15.614  0.3399 -2.1136  1.2092
  563MPD2    H3 8410   1.920   3.135  15.426 -0.4171 -3.3071  0.0347
  563MPD2     N 8411   2.312   3.142  15.652  0.1144  0.4402  0.0312
  563MPD2    H5 8412   2.352   3.104  15.737  2.8394  1.6064 -0.7371
  563MPD2    N1 8413   1.889   3.012  15.848  0.0308  0.4073  0.5786
  563MPD2    H7 8414   1.790   2.997  15.832  0.5811 -3.1330  0.5485
  564TMC3    C1 8415   1.832   2.948  16.071 -0.2632  0.5431  0.2055
  564TMC3    C2 8416   1.718   2.892  16.030  0.0897  0.6173 -0.0869
  564TMC3    C3 8417   1.644   2.824  16.122  0.4419 -0.2961 -0.4355
  564TMC3    C4 8418   1.854   2.970  16.205 -0.1597  0.7224  0.2658
  564TMC3    C5 8419   1.789   2.888  16.293  0.8849  0.6207  0.0128
  564TMC3    C6 8420   1.675   2.820  16.257  0.8785  0.6382  0.2098
  564TMC3     C 8421   1.932   3.000  15.980 -0.0810 -0.2109 -0.2054
  564TMC3     O 8422   2.038   3.038  16.028  0.5731  0.3615 -0.1012
  564TMC3     H 8423   1.704   2.882  15.923  1.3515  0.1266 -0.2144
  564TMC3    H1 8424   1.945   3.019  16.238 -0.2568  0.8799  0.3012
  564TMC3    H2 8425   1.618   2.753  16.321  1.2714 -1.2672 -1.4285
  564TMC3    C7 8426   1.874   2.822  16.393 -0.8270  0.3551  0.7385
  564TMC3    C8 8427   1.555   2.711  16.083 -0.4584 -0.2202  1.0061
  564TMC3    O1 8428   1.960   2.888  16.447  0.6002 -0.0140  0.5134
  564TMC3    O2 8429   1.538   2.626  16.168  0.1933 -0.3345  0.4282
  565TMC3    C1 8430   1.882   3.447  10.859 -0.3595  0.2045  0.5055
  565TMC3    C2 8431   1.947   3.395  10.972 -0.5930 -0.1543 -0.0706
  565TMC3    C3 8432   1.917   3.275  11.019  0.7697 -1.5733 -0.3918
  565TMC3    C4 8433   1.788   3.374  10.787  0.7227 -0.7225  0.3189
  565TMC3    C5 8434   1.764   3.246  10.837  0.0734  0.6833 -0.6635
  565TMC3    C6 8435   1.819   3.199  10.957 -0.1991 -0.4804 -0.8037
  565TMC3     C 8436   1.934   3.567  10.808 -0.4389 -1.0699 -0.3308
  565TMC3     O 8437   1.927   3.580  10.688  0.1638 -0.7863  0.0535
  565TMC3     H 8438   2.013   3.457  11.032  0.0746 -1.9598  1.0624
  565TMC3    H1 8439   1.752   3.421  10.697 -1.1686 -0.9075  0.9757
  565TMC3    H2 8440   1.823   3.091  10.964 -0.9644 -0.4120  0.9685
  565TMC3    C7 8441   1.673   3.159  10.764 -0.0385 -0.0878 -0.1394
  565TMC3    C8 8442   2.018   3.211  11.106 -0.6260 -0.3211 -0.1883
  565TMC3    O1 8443   1.640   3.060  10.827  0.6445 -0.2022  0.1114
  565TMC3    O2 8444   2.125   3.268  11.119  0.0443  0.0840  0.1822
  566MPD2     C 8445   4.005   0.407  14.051  0.3807 -0.3423  0.4982
  566MPD2    C1 8446   3.977   0.542  14.058 -1.3485 -0.6892 -0.2388
  566MPD2    C2 8447   3.905   0.594  13.947  0.6601 -0.3548  0.5507
  566MPD2    C3 8448   3.866   0.519  13.839  0.5362  0.4664 -0.0691
  566MPD2    C4 8449   3.888   0.387  13.844  0.9029  0.3187 -0.5110
  566MPD2    C5 8450   3.953   0.331  13.948  0.3680 -0.2843  0.9578
  566MPD2     H 8451   3.867   0.695  13.956 -2.1091 -1.4694  1.4882
  566MPD2    H1 8452   3.857   0.316  13.768  1.8656 -1.5779  0.8485
  566MPD2    H2 8453   4.073   0.362  14.123  0.3224  2.1525  2.1143
  566MPD2    H3 8454   3.982   0.227  13.957  0.6958 -0.4173 -1.5466
  566MPD2     N 8455   3.791   0.577  13.727 -0.5594  0.4207 -0.7200
  566MPD2    H5 8456   3.755   0.510  13.660  0.6296 -1.9866  1.0635
  566MPD2    N1 8457   4.025   0.615  14.167  0.8619  0.0094  0.2758
  566MPD2    H7 8458   4.071   0.559  14.238 -0.5789 -1.9994 -0.3938
  567TMC3    C1 8459   4.112   0.810  14.274 -0.8509 -0.0124  0.6313
  567TMC3    C2 8460   4.154   0.936  14.246  0.2605  0.0894  0.0597
  567TMC3    C3 8461   4.223   1.008  14.340  0.4001  0.0149 -1.0470
  567TMC3    C4 8462   4.141   0.746  14.390 -0.1040 -0.0656  0.0253
  567TMC3    C5 8463   4.213   0.817  14.481 -0.0039  0.4289 -0.4784
  567TMC3    C6 8464   4.249   0.948  14.465  0.0055 -0.3411  0.3179
  567TMC3     C 8465   4.030   0.754  14.170 -0.0679  0.8127 -0.5089
  567TMC3     O 8466   4.005   0.836  14.085  0.5313  0.4458  0.1757
  567TMC3     H 8467   4.139   0.977  14.147 -0.1279  0.6101  0.3273
  567TMC3    H1 8468   4.102   0.650  14.423  2.1950 -1.4716 -1.3826
  567TMC3    H2 8469   4.315   0.998  14.535  0.6936 -1.1216  0.2380
  567TMC3    C7 8470   4.244   0.762  14.607  0.4197 -0.7457  0.5898
  567TMC3    C8 8471   4.291   1.129  14.311 -0.7729 -0.1114  0.1065
  567TMC3    O1 8472   4.263   0.640  14.611  0.2329 -0.3764  0.0124
  567TMC3    O2 8473   4.372   1.176  14.389  0.0384  0.1147 -0.5613
  568MPD2     C 8474   1.816   1.491  16.343 -0.1865 -1.0936  0.6856
  568MPD2    C1 8475   1.685   1.450  16.366  0.7621  0.5121 -0.1317
  568MPD2    C2 8476   1.584   1.501  16.288 -0.3308 -0.1000  0.2120
  568MPD2    C3 8477   1.619   1.586  16.181 -0.0710 -0.6557  0.8132
  568MPD2    C4 8478   1.753   1.598  16.145  0.4328 -0.0638 -0.4210
  568MPD2    C5 8479   1.851   1.558  16.231  0.0338 -0.0739  0.4408
  568MPD2     H 8480   1.477   1.499  16.305 -0.2697  2.9025  1.0123
  568MPD2    H1 8481   1.782   1.652  16.055  0.2674  2.9675  1.3172
  568MPD2    H2 8482   1.888   1.446  16.410  1.5807 -1.6123 -1.5467
  568MPD2    H3 8483   1.953   1.582  16.204  0.2078 -0.9704  0.2930
  568MPD2     N 8484   1.513   1.640  16.110 -0.0325  0.5257  0.3481
  568MPD2    H5 8485   1.419   1.620  16.145 -0.4493 -0.3557 -1.3002
  568MPD2    N1 8486   1.661   1.379  16.482  0.0696 -0.4271  0.1332
  568MPD2    H7 8487   1.738   1.347  16.539  2.0689  0.0067 -2.3562
  569TMC3    C1 8488   1.400   1.804  15.981 -0.2159 -0.2935 -0.1117
  569TMC3    C2 8489   1.326   1.812  16.090 -0.2026  0.4011 -0.1643
  569TMC3    C3 8490   1.283   1.934  16.132 -0.2325 -0.0411 -0.0484
  569TMC3    C4 8491   1.423   1.907  15.892 -0.6911  0.7777 -0.8021
  569TMC3    C5 8492   1.369   2.031  15.928  0.4196  0.1036  0.0243
  569TMC3    C6 8493   1.308   2.043  16.049 -0.1042  0.3380 -0.7496
  569TMC3     C 8494   1.524   1.732  16.008  0.1279 -0.3282  0.3801
  569TMC3     O 8495   1.627   1.772  15.959 -0.2173 -0.3062 -0.2555
  569TMC3     H 8496   1.299   1.723  16.147  0.4011 -0.8073 -1.7511
  569TMC3    H1 8497   1.475   1.903  15.797 -0.0853  4.2028 -0.6112
  569TMC3    H2 8498   1.252   2.132  16.074 -1.0912  0.0133 -1.7981
  569TMC3    C7 8499   1.397   2.135  15.839  0.2120  0.4571 -0.5803
  569TMC3    C8 8500   1.213   1.945  16.259 -0.5078 -0.2936 -0.6457
  569TMC3    O1 8501   1.408   2.107  15.718 -0.4516 -0.0737 -0.8198
  569TMC3    O2 8502   1.148   1.839  16.289 -0.7500 -0.1719 -0.0074
  570TMC3    C1 8503   0.630   0.246  16.187 -0.3555 -0.1687 -0.7523
  570TMC3    C2 8504   0.678   0.275  16.063  0.5464  0.2045 -0.0212
  570TMC3    C3 8505   0.679   0.404  16.022 -0.1893 -0.7873 -0.8142
  570TMC3    C4 8506   0.577   0.347  16.268 -0.4013  0.0150 -0.1280
  570TMC3    C5 8507   0.591   0.476  16.215 -0.3829  0.1802 -0.3582
  570TMC3    C6 8508   0.636   0.505  16.091  0.1834  0.5847 -0.3929
  570TMC3     C 8509   0.600   0.108  16.210 -0.7372  0.0427  0.1592
  570TMC3     O 8510   0.574   0.046  16.109  0.4049 -0.3776  0.1634
  570TMC3     H 8511   0.724   0.197  16.004  0.5714  0.6328 -0.5629
  570TMC3    H1 8512   0.521   0.323  16.359  1.6355 -0.0663  1.1043
  570TMC3    H2 8513   0.661   0.607  16.064 -0.9348  0.8874 -0.2644
  570TMC3    C7 8514   0.536   0.577  16.305 -0.5274  0.2286  0.6087
  570TMC3    C8 8515   0.778   0.438  15.923  0.1970 -0.0644  0.1286
  570TMC3    O1 8516   0.500   0.543  16.420  0.1270 -0.1922  0.8129
  570TMC3    O2 8517   0.812   0.555  15.916 -0.1240 -0.8073 -0.3611
  571MPD2     C 8518   3.782   2.058   0.188  0.1346  0.1332  0.5414
  571MPD2    C1 8519   3.693   2.150   0.241 -0.0850 -0.4444  0.4698
  571MPD2    C2 8520   3.731   2.284   0.246 -0.4810 -0.4644 -0.3439
  571MPD2    C3 8521   3.857   2.329   0.212 -0.1903 -0.7490 -0.2306
  571MPD2    C4 8522   3.947   2.231   0.170  0.7412  0.3096 -0.3153
  571MPD2    C5 8523   3.909   2.099   0.148 -0.2663 -0.0562  0.7129
  571MPD2     H 8524   3.667   2.354   0.300  1.5206  1.1306 -0.0470
  571MPD2    H1 8525   4.050   2.262   0.155  0.3632  1.4828 -0.5037
  571MPD2    H2 8526   3.748   1.955   0.183  1.9777 -0.4593  0.2226
  571MPD2    H3 8527   3.974   2.018   0.117  0.1390  0.2605  0.7258
  571MPD2     N 8528   3.910   2.459   0.240 -0.0202  0.1547  0.3099
  571MPD2    H5 8529   4.011   2.465   0.229 -0.0964 -1.2652 -1.2563
  571MPD2    N1 8530   3.574   2.104   0.293 -0.5416 -0.1555  0.2726
  571MPD2    H7 8531   3.559   2.004   0.286 -2.9077  0.3239 -1.2726
  572TMC3    C1 8532   3.913   2.683   0.295 -1.5006 -0.2718 -1.0008
  572TMC3    C2 8533   4.017   2.663   0.380 -0.4548 -0.5397  0.1602
  572TMC3    C3 8534   4.083   2.768   0.433 -0.2686 -1.1018  0.2421
  572TMC3    C4 8535   3.868   2.800   0.252  0.3936 -0.8494  0.6773
  572TMC3    C5 8536   3.936   2.901   0.311 -0.0213 -0.3014 -0.2436
  572TMC3    C6 8537   4.037   2.893   0.412 -0.8142 -0.4962 -0.3749
  572TMC3     C 8538   3.832   2.571   0.254  0.5865 -0.6902  0.5349
  572TMC3     O 8539   3.714   2.581   0.246  0.3175 -0.3156 -0.2625
  572TMC3     H 8540   4.043   2.563   0.413  0.7391 -0.2577  0.0851
  572TMC3    H1 8541   3.795   2.795   0.172  0.0777 -0.0123  0.9154
  572TMC3    H2 8542   4.083   2.970   0.474 -0.9601  0.1460 -1.0746
  572TMC3    C7 8543   3.902   3.029   0.252  0.3486  0.0892  0.2928
  572TMC3    C8 8544   4.159   2.747   0.551 -0.1212  0.1683 -0.0585
  572TMC3    O1 8545   3.802   3.034   0.180  0.1339  0.4123 -0.0184
  572TMC3    O2 8546   4.268   2.799   0.570  0.1725  0.4846 -0.4905
  573MPD2     C 8547   0.116   2.636   1.065 -0.5632 -0.4908  0.2701
  573MPD2    C1 8548   0.033   2.706   0.983 -0.0051  0.4175 -0.1864
  573MPD2    C2 8549   4.703   2.648   0.879 -0.9273  1.0715 -0.1080
  573MPD2    C3 8550   4.709   2.513   0.855 -0.4498 -0.0493  0.8367
  573MPD2    C4 8551   0.049   2.445   0.945  0.1763  0.3031 -0.2704
  573MPD2    C5 8552   0.132   2.506   1.042  0.0004  0.0224 -0.9310
  573MPD2     H 8553   4.645   2.712   0.813 -0.2097  1.6410 -0.1881
  573MPD2    H1 8554   0.055   2.336   0.946  0.4305  0.3325  1.4111
  573MPD2    H2 8555   0.171   2.674   1.150  0.4004  0.3114 -0.7146
  573MPD2    H3 8556   0.199   2.446   1.103 -0.7312 -0.6392 -0.7901
  573MPD2     N 8557   4.627   2.447   0.751 -0.9677  0.0505  0.4705
  573MPD2    H5 8558   4.620   2.346   0.750  0.9214 -0.0798  0.7169
  573MPD2    N1 8559   0.019   2.841   1.026 -0.0793  0.5941 -1.0037
  573MPD2    H7 8560   0.078   2.872   1.103 -2.4059 -0.6706  1.3018
  574TMC3    C1 8561   4.486   2.434   0.557  0.6907  0.0653  0.3592
  574TMC3    C2 8562   4.433   2.506   0.451 -0.0060 -0.2855 -0.4532
  574TMC3    C3 8563   4.354   2.443   0.357  0.2363 -0.0572  0.5268
  574TMC3    C4 8564   4.469   2.298   0.572 -0.1929 -0.0201  0.3745
  574TMC3    C5 8565   4.373   2.246   0.485  0.2383 -0.2889  0.8057
  574TMC3    C6 8566   4.322   2.306   0.370 -0.1544 -0.4718  0.2435
  574TMC3     C 8567   4.564   2.517   0.652 -0.0491 -0.4834 -0.7761
  574TMC3     O 8568   4.571   2.639   0.626 -0.1031 -0.2704  0.7596
  574TMC3     H 8569   4.469   2.606   0.429 -3.1477  1.8497  3.9090
  574TMC3    H1 8570   4.512   2.236   0.650  2.2758 -0.7469 -1.5961
  574TMC3    H2 8571   4.255   2.261   0.299  0.2059 -2.5815  1.2192
  574TMC3    C7 8572   4.354   2.105   0.502 -0.4391 -0.3686 -0.1787
  574TMC3    C8 8573   4.287   2.511   0.244 -0.2284 -0.0519  0.4112
  574TMC3    O1 8574   4.360   2.059   0.615  0.0435  0.7492  0.4351
  574TMC3    O2 8575   4.201   2.449   0.184  1.1257  0.2011 -0.0133
  575TMC3    C1 8576   2.797   3.168  11.433  0.1438 -0.2824 -0.2870
  575TMC3    C2 8577   2.828   3.088  11.539  0.1241 -0.1720  0.1436
  575TMC3    C3 8578   2.747   2.982  11.568 -0.7061 -0.2912  0.3307
  575TMC3    C4 8579   2.688   3.134  11.349 -0.1657  0.4634 -0.6060
  575TMC3    C5 8580   2.611   3.029  11.387  0.0904  0.2418  0.0811
  575TMC3    C6 8581   2.634   2.944  11.494 -0.0292 -0.7640  0.0936
  575TMC3     C 8582   2.875   3.286  11.403  0.2925 -0.3666  0.5391
  575TMC3     O 8583   2.992   3.277  11.434 -0.0961 -0.0125  0.2296
  575TMC3     H 8584   2.913   3.125  11.595  0.3403  1.7686 -1.5135
  575TMC3    H1 8585   2.656   3.203  11.272  0.9979  1.6324 -0.0399
  575TMC3    H2 8586   2.580   2.851  11.511 -1.3136 -0.0275  0.0348
  575TMC3    C7 8587   2.475   3.033  11.344 -0.8010 -0.1592  0.2050
  575TMC3    C8 8588   2.772   2.910  11.692 -0.3177 -0.6645  1.1072
  575TMC3    O1 8589   2.456   3.085  11.236  0.0491 -0.1060 -0.8800
  575TMC3    O2 8590   2.737   2.792  11.683 -1.0590  0.4481 -0.0568
  576MPD2     C 8591   2.848   4.547  12.256 -0.3316 -0.4104  0.3885
  576MPD2    C1 8592   2.718   4.572  12.287  0.2264 -0.1819  0.0064
  576MPD2    C2 8593   2.684   4.648  12.394  0.2531  0.0438 -0.0889
  576MPD2    C3 8594   2.786   4.703  12.474 -0.1217 -0.2532 -0.5007
  576MPD2    C4 8595   2.915   4.667  12.452 -0.2007 -0.3680 -0.4180
  576MPD2    C5 8596   2.942   4.593  12.344 -0.2113 -0.1334 -0.0069
  576MPD2     H 8597   2.579   4.675  12.400  0.0051 -0.8876 -0.2277
  576MPD2    H1 8598   3.000   4.707  12.505 -0.4323  0.5964 -0.7830
  576MPD2    H2 8599   2.882   4.500  12.165  1.7682  1.7944  0.0268
  576MPD2    H3 8600   3.043   4.584  12.306 -1.4022  0.2513 -3.1917
  576MPD2     N 8601   2.746   0.049  12.578 -0.3617 -0.3738  0.1069
  576MPD2    H5 8602   2.646   0.067  12.580 -0.3036  0.0596 -1.6587
  576MPD2    N1 8603   2.612   4.529  12.201 -0.0157 -0.5778  0.0267
  576MPD2    H7 8604   2.522   4.568  12.229  1.3055  0.8715  2.2825
  577TMC3    C1 8605   2.513   4.459  11.987 -0.2062 -0.7064  0.2101
  577TMC3    C2 8606   2.543   4.405  11.868  0.0516  0.1595  0.1185
  577TMC3    C3 8607   2.437   4.393  11.787 -0.1183 -1.0235  0.2996
  577TMC3    C4 8608   2.384   4.482  12.028  0.1261 -0.1679  1.1964
  577TMC3    C5 8609   2.285   4.474  11.936 -0.3921 -0.1430 -0.4400
  577TMC3    C6 8610   2.311   4.427  11.809  0.0274  0.4566  0.1733
  577TMC3     C 8611   2.630   4.462  12.078 -0.0005  0.4806 -0.5687
  577TMC3     O 8612   2.725   4.398  12.036 -0.0036 -0.2356 -0.1841
  577TMC3     H 8613   2.645   4.379  11.842  0.1669  1.0111 -0.2733
  577TMC3    H1 8614   2.369   4.517  12.129 -0.3079  0.1945  1.0079
  577TMC3    H2 8615   2.236   4.420  11.732 -0.3926 -1.2890  0.7369
  577TMC3    C7 8616   2.153   4.521  11.970 -0.7538  0.6890  0.9888
  577TMC3    C8 8617   2.470   4.340  11.655  0.2235  0.6613  1.0372
  577TMC3    O1 8618   2.135   4.519  12.092 -0.2662 -0.8696 -0.6992
  577TMC3    O2 8619   2.381   4.289  11.588 -0.0598  0.4300  0.5945
  578MPD2     C 8620   0.491   0.804   1.375  0.4122 -0.0815  0.0687
  578MPD2    C1 8621   0.474   0.714   1.276 -0.9074  0.2273 -1.0838
  578MPD2    C2 8622   0.570   0.623   1.241  0.7363  0.4236  0.4912
  578MPD2    C3 8623   0.687   0.614   1.316 -0.0031 -0.3645 -0.3878
  578MPD2    C4 8624   0.714   0.708   1.412 -0.0514  0.6602  0.5177
  578MPD2    C5 8625   0.615   0.802   1.432  0.1764  1.1186  0.0873
  578MPD2     H 8626   0.554   0.560   1.155  0.6554  0.9902  0.0873
  578MPD2    H1 8627   0.808   0.714   1.466  0.9445 -0.9831 -1.0211
  578MPD2    H2 8628   0.413   0.875   1.400  1.3993  0.6847  1.0010
  578MPD2    H3 8629   0.625   0.876   1.510 -0.6637 -1.0470  2.2588
  578MPD2     N 8630   0.787   0.506   1.286 -0.3460  0.5003  0.1729
  578MPD2    H5 8631   0.768   0.458   1.199 -0.7344  1.4931 -0.2916
  578MPD2    N1 8632   0.356   0.731   1.198 -0.7227  0.5179 -0.1606
  578MPD2    H7 8633   0.299   0.812   1.219 -1.5768 -0.2443  0.4478
  579TMC3    C1 8634   0.995   0.398   1.305 -0.1427  0.1441 -0.5540
  579TMC3    C2 8635   1.115   0.402   1.372 -0.5575  0.1816  0.2281
  579TMC3    C3 8636   1.219   0.332   1.318  0.2149 -0.2903  0.5284
  579TMC3    C4 8637   0.975   0.326   1.191  0.6084  0.1352 -0.5111
  579TMC3    C5 8638   1.080   0.253   1.145  0.6640 -0.9459  0.1794
  579TMC3    C6 8639   1.205   0.257   1.204  0.4100 -0.3215 -0.3107
  579TMC3     C 8640   0.899   0.485   1.360 -0.5901  0.4231 -0.6909
  579TMC3     O 8641   0.927   0.525   1.473 -0.0141 -0.2653  0.5207
  579TMC3     H 8642   1.138   0.461   1.460 -1.4399  0.0621  0.5370
  579TMC3    H1 8643   0.878   0.312   1.146 -0.1876 -0.8099  1.4865
  579TMC3    H2 8644   1.289   0.199   1.165 -0.3089 -1.4070 -0.2431
  579TMC3    C7 8645   1.082   0.180   1.021 -0.2062  0.1576 -0.5038
  579TMC3    C8 8646   1.351   0.387   1.339  0.0312 -0.9556  0.2055
  579TMC3    O1 8647   1.185   0.129   0.984 -0.6635 -0.1722  0.3448
  579TMC3    O2 8648   1.385   0.387   1.457  0.1722 -0.2993  0.1536
  580TMC3    C1 8649   4.511   3.516  11.819  0.1288  0.3256 -0.1051
  580TMC3    C2 8650   4.510   3.473  11.689 -0.7415  0.9734  0.0338
  580TMC3    C3 8651   4.531   3.340  11.661  0.0681  0.3897  0.0972
  580TMC3    C4 8652   4.520   3.424  11.921  0.1790 -0.4139 -0.4265
  580TMC3    C5 8653   4.529   3.289  11.889 -0.1305 -0.1567  0.5132
  580TMC3    C6 8654   4.546   3.246  11.762  0.0426  0.4257  0.4122
  580TMC3     C 8655   4.538   3.662  11.842  0.1444 -0.5641  0.4738
  580TMC3     O 8656   4.536   3.738  11.745 -0.1378 -0.4067 -0.8531
  580TMC3     H 8657   4.489   3.538  11.604  1.9362  0.2691 -1.1674
  580TMC3    H1 8658   4.506   3.452  12.024  0.4971  2.8805 -1.2851
  580TMC3    H2 8659   4.576   3.147  11.730 -0.9082  1.0055 -2.2666
  580TMC3    C7 8660   4.578   3.205  12.000  0.2503  0.7801 -0.2534
  580TMC3    C8 8661   4.575   3.309  11.529 -0.2309  0.5533  0.3782
  580TMC3    O1 8662   4.619   3.260  12.102  0.1530  0.4497 -0.0448
  580TMC3    O2 8663   4.533   3.211  11.471 -0.2123 -0.6488 -0.1462
  581MPD2     C 8664   2.615   3.976  15.059 -0.4525 -0.0949  0.3595
  581MPD2    C1 8665   2.475   3.967  15.046 -0.2033 -0.2834  0.7827
  581MPD2    C2 8666   2.416   4.032  14.944 -0.7817  0.7381  0.3050
  581MPD2    C3 8667   2.490   4.091  14.846  0.0336 -0.8692  0.1541
  581MPD2    C4 8668   2.632   4.093  14.857  0.5557 -0.3611  0.6694
  581MPD2    C5 8669   2.699   4.027  14.959 -0.6550 -0.1501 -1.0156
  581MPD2     H 8670   2.309   4.049  14.938 -0.8049  0.3987 -0.1806
  581MPD2    H1 8671   2.689   4.146  14.781 -1.4502  1.9477  0.7743
  581MPD2    H2 8672   2.651   3.917  15.142  0.0479  0.7336  0.7375
  581MPD2    H3 8673   2.807   4.027  14.969 -0.9971 -0.8988  2.7137
  581MPD2     N 8674   2.421   4.150  14.737  0.2494  0.1064  0.5404
  581MPD2    H5 8675   2.329   4.112  14.718  0.2863  1.0683 -1.6377
  581MPD2    N1 8676   2.409   3.926  15.168 -0.0164 -0.0852  0.4394
  581MPD2    H7 8677   2.473   3.880  15.232  2.8301  1.1930 -1.5348
  582TMC3    C1 8678   2.234   3.933  15.336 -0.6525 -0.0138 -0.9904
  582TMC3    C2 8679   2.329   3.965  15.428 -0.8984  0.0949 -0.2217
  582TMC3    C3 8680   2.285   4.030  15.542  0.2072 -0.1250 -0.4281
  582TMC3    C4 8681   2.102   3.963  15.354 -0.2109 -0.7046  0.2216
  582TMC3    C5 8682   2.066   4.021  15.469  0.1794  0.0020 -0.0933
  582TMC3    C6 8683   2.152   4.049  15.571  0.7267 -0.4738  0.1243
  582TMC3     C 8684   2.278   3.955  15.198  0.1225  0.3908 -0.2804
  582TMC3     O 8685   2.194   4.013  15.126  0.3703  0.1902  0.2698
  582TMC3     H 8686   2.436   3.967  15.411 -0.8511  0.5352  0.1283
  582TMC3    H1 8687   2.028   3.947  15.277  1.0238 -0.4757 -1.0033
  582TMC3    H2 8688   2.125   4.105  15.659  2.8062  0.5790  0.0887
  582TMC3    C7 8689   1.965   4.122  15.446 -0.2016  0.0093  0.2086
  582TMC3    C8 8690   2.375   4.096  15.627 -0.2836  0.9339  0.3316
  582TMC3    O1 8691   1.879   4.089  15.364  0.6013 -0.5376  0.0664
  582TMC3    O2 8692   2.343   4.109  15.750  0.3473  0.0361 -0.4648
  583MPD2     C 8693   2.941   1.226  17.065 -0.5912 -0.2821  0.2107
  583MPD2    C1 8694   2.933   1.345  16.999  0.1618 -0.3833  0.4972
  583MPD2    C2 8695   2.900   1.458  17.076  0.0619  0.3769  0.0699
  583MPD2    C3 8696   2.870   1.446  17.212 -0.3085  0.0724  0.0519
  583MPD2    C4 8697   2.860   1.321  17.269  0.3655  0.2638  0.1575
  583MPD2    C5 8698   2.899   1.214  17.198  0.4745 -0.3018  0.4522
  583MPD2     H 8699   2.905   1.551  17.021 -0.8860  0.1133 -0.4658
  583MPD2    H1 8700   2.835   1.302  17.373  0.1892 -4.0551 -0.6552
  583MPD2    H2 8701   2.986   1.135  17.027 -1.0873 -0.5393  0.2396
  583MPD2    H3 8702   2.888   1.117  17.246 -0.5286 -0.8406 -0.8655
  583MPD2     N 8703   2.837   1.561  17.281  0.6543  0.0810 -0.9499
  583MPD2    H5 8704   2.826   1.647  17.228  1.7309  0.0534 -1.2182
  583MPD2    N1 8705   2.979   1.364  16.866  0.3022 -0.7218 -0.3318
  583MPD2    H7 8706   2.986   1.458  16.829  2.3670 -0.7656 -0.0667
  584TMC3    C1 8707   2.793   1.716  17.454  0.6779 -0.2302  0.0640
  584TMC3    C2 8708   2.793   1.813  17.363 -0.3036  0.1334  0.1476
  584TMC3    C3 8709   2.772   1.941  17.411 -0.5188  0.5383  0.1133
  584TMC3    C4 8710   2.768   1.746  17.582  0.5339 -1.3307  0.4878
  584TMC3    C5 8711   2.739   1.870  17.632 -0.0484  0.0246 -0.4214
  584TMC3    C6 8712   2.741   1.972  17.538 -0.2655 -1.0444  0.2845
  584TMC3     C 8713   2.816   1.575  17.421 -0.0977 -0.0117  0.4664
  584TMC3     O 8714   2.841   1.499  17.514 -0.2126  0.2988  0.3836
  584TMC3     H 8715   2.782   1.802  17.256 -3.5588  0.5095  0.4407
  584TMC3    H1 8716   2.727   1.666  17.644 -2.3842  0.1096  0.4030
  584TMC3    H2 8717   2.724   2.076  17.565 -0.4963 -1.1624  0.5958
  584TMC3    C7 8718   2.615   1.860  17.714 -0.0579  0.0816  0.2930
  584TMC3    C8 8719   2.721   2.033  17.314 -0.2895  0.4622  0.0688
  584TMC3    O1 8720   2.510   1.836  17.646 -0.7190  0.2340 -0.1120
  584TMC3    O2 8721   2.632   2.005  17.237  0.2408 -0.3870 -0.6872
  585MPD2     C 8722   1.455   0.321  17.566 -0.2710 -0.0769 -0.5106
  585MPD2    C1 8723   1.500   0.379  17.448  0.0860 -0.1565 -0.0799
  585MPD2    C2 8724   1.540   0.302  17.341  0.7685 -0.4482 -0.2534
  585MPD2    C3 8725   1.544   0.161  17.346  1.1211 -0.2373  0.2425
  585MPD2    C4 8726   1.478   0.107  17.459 -0.5781  0.5712  0.2932
  585MPD2    C5 8727   1.439   0.186  17.568  0.1310 -0.4070 -0.2653
  585MPD2     H 8728   1.571   0.342  17.245 -1.2935 -2.0353 -1.5652
  585MPD2    H1 8729   1.477   4.736  17.473 -1.6673  0.4387 -0.7887
  585MPD2    H2 8730   1.433   0.380  17.654  1.9128  2.0143 -1.3865
  585MPD2    H3 8731   1.412   0.146  17.665 -1.5193  1.0196 -0.1371
  585MPD2     N 8732   1.601   0.076  17.251 -0.0383 -0.0058 -0.2375
  585MPD2    H5 8733   1.591   4.715  17.273 -1.5819 -0.1418 -1.5227
  585MPD2    N1 8734   1.493   0.516  17.451  0.7162  0.2780  0.2344
  585MPD2    H7 8735   1.441   0.556  17.528  0.5752  1.7550 -0.6387
  586TMC3    C1 8736   1.732   4.722  17.083 -0.0524 -0.1373  0.7263
  586TMC3    C2 8737   1.855   4.725  17.025 -0.1846 -0.0670  0.2582
  586TMC3    C3 8738   1.893   4.624  16.937  0.1233 -0.6162 -0.0006
  586TMC3    C4 8739   1.631   4.644  17.033  0.7484  0.1831  0.1802
  586TMC3    C5 8740   1.668   4.548  16.941  0.0622  0.1398  0.3255
  586TMC3    C6 8741   1.801   4.536  16.898  0.4364  0.1617 -0.3809
  586TMC3     C 8742   1.693   0.101  17.157  0.3824 -0.1362  1.0533
  586TMC3     O 8743   1.746   0.207  17.124  0.4181  0.6714  0.1335
  586TMC3     H 8744   1.924   0.059  17.068  1.1742 -0.1835 -1.7188
  586TMC3    H1 8745   1.534   4.641  17.082  0.6378  1.5482  0.0448
  586TMC3    H2 8746   1.834   4.459  16.829  0.3197 -2.6677  2.7033
  586TMC3    C7 8747   1.600   4.424  16.972  0.4134  0.2635 -0.2256
  586TMC3    C8 8748   2.014   4.557  16.975  0.4753 -0.1312 -0.4540
  586TMC3    O1 8749   1.477   4.417  16.983  0.1026 -0.8978 -0.3275
  586TMC3    O2 8750   2.006   4.435  16.992  0.0296  0.4574  0.0158
  587TMC3    C1 8751   4.122   3.471  16.131 -0.5386 -0.3284 -0.1148
  587TMC3    C2 8752   4.170   3.516  16.251  0.2281  0.6710  0.6465
  587TMC3    C3 8753   4.285   3.460  16.300 -0.3286 -0.0485 -1.0655
  587TMC3    C4 8754   4.197   3.380  16.052  0.2112 -1.1219 -0.1803
  587TMC3    C5 8755   4.320   3.339  16.105 -0.8575 -0.1780  0.2700
  587TMC3    C6 8756   4.369   3.381  16.226 -0.5411 -0.2544 -0.0687
  587TMC3     C 8757   3.992   3.519  16.081  0.2320  0.2589 -0.3848
  587TMC3     O 8758   3.951   3.442  16.000  0.1966 -0.3059  0.4280
  587TMC3     H 8759   4.109   3.583  16.311 -1.7706 -1.9514  1.5222
  587TMC3    H1 8760   4.156   3.342  15.959 -0.4135  0.9922 -0.7634
  587TMC3    H2 8761   4.460   3.350  16.276 -1.5748 -0.9850  1.3701
  587TMC3    C7 8762   4.404   3.277  16.011  0.2645 -0.0937 -0.1289
  587TMC3    C8 8763   4.342   3.504  16.427  0.0345 -0.0672 -0.0893
  587TMC3    O1 8764   4.355   3.224  15.912 -0.4863 -0.5663  0.3973
  587TMC3    O2 8765   4.409   3.418  16.484 -0.0085  0.2761  0.3207
  588TMC3    C1 8766   1.682   0.943  10.104 -0.1620 -0.5185 -0.0465
  588TMC3    C2 8767   1.673   0.828  10.035 -0.3537  0.2012 -0.0493
  588TMC3    C3 8768   1.723   0.709  10.080 -0.2259  0.8451  0.3717
  588TMC3    C4 8769   1.781   0.952  10.200 -0.7701 -0.6516  0.2033
  588TMC3    C5 8770   1.844   0.836  10.238  0.3334  0.9928  0.3318
  588TMC3    C6 8771   1.815   0.708  10.186 -0.5167  0.1511 -0.1404
  588TMC3     C 8772   1.610   1.061  10.073  0.3514  0.3938  0.0627
  588TMC3     O 8773   1.543   1.065   9.969 -0.6392  0.0309  0.0201
  588TMC3     H 8774   1.594   0.830   9.960  0.3401 -2.8585 -0.8375
  588TMC3    H1 8775   1.824   1.049  10.225  1.7309 -1.1211 -2.2486
  588TMC3    H2 8776   1.865   0.622  10.228  2.5690  1.6545 -0.6817
  588TMC3    C7 8777   1.949   0.855  10.334  0.4857  0.2984  0.1224
  588TMC3    C8 8778   1.668   0.588  10.014 -0.6371  1.0374 -0.3880
  588TMC3    O1 8779   2.049   0.789  10.319  0.4117  0.1540  0.5783
  588TMC3    O2 8780   1.612   0.601   9.903 -0.3006  0.3133 -0.2546
  589TMC3    C1 8781   1.402   3.412   1.008 -0.6029  0.2734  0.2414
  589TMC3    C2 8782   1.525   3.373   1.053 -0.1230  0.7554 -0.0570
  589TMC3    C3 8783   1.565   3.246   1.023 -0.2696 -0.1602  0.0426
  589TMC3    C4 8784   1.314   3.331   0.945 -0.5259 -0.2588 -0.2401
  589TMC3    C5 8785   1.350   3.199   0.935 -0.6378  0.1401  0.7491
  589TMC3    C6 8786   1.476   3.153   0.970  0.7885 -0.2234  1.1636
  589TMC3     C 8787   1.358   3.549   1.018  0.2449 -0.2325 -0.1512
  589TMC3     O 8788   1.256   3.572   0.959 -0.4159 -0.0117 -0.0702
  589TMC3     H 8789   1.599   3.440   1.094  0.7976 -0.0600 -0.3774
  589TMC3    H1 8790   1.213   3.357   0.917 -0.1441  0.3410 -1.0638
  589TMC3    H2 8791   1.508   3.050   0.962  0.4325 -0.3001  0.6979
  589TMC3    C7 8792   1.240   3.103   0.936  0.2734  0.0048  0.5061
  589TMC3    C8 8793   1.699   3.194   1.063 -0.2331  0.2370 -0.1160
  589TMC3    O1 8794   1.127   3.141   0.910 -0.9071 -0.1521  0.1848
  589TMC3    O2 8795   1.751   3.266   1.148  0.1256 -0.5483  0.5316
  590MPD2     C 8796   0.341   1.786  16.929  0.2566 -0.3580  1.2790
  590MPD2    C1 8797   0.326   1.811  16.797  0.2331  0.4214  0.6655
  590MPD2    C2 8798   0.420   1.897  16.738  0.1866 -0.4567  0.0486
  590MPD2    C3 8799   0.526   1.946  16.808 -0.2029 -0.4673  1.1052
  590MPD2    C4 8800   0.546   1.906  16.943  0.5555  0.9337 -0.3818
  590MPD2    C5 8801   0.452   1.828  16.997 -0.3896  0.9570 -0.0293
  590MPD2     H 8802   0.414   1.924  16.633 -0.1791 -0.2473  0.1210
  590MPD2    H1 8803   0.632   1.927  17.005  1.2195 -1.5691 -0.4640
  590MPD2    H2 8804   0.257   1.752  16.989  1.0797 -2.8620  0.9786
  590MPD2    H3 8805   0.454   1.801  17.102  1.1277 -0.1622 -0.3557
  590MPD2     N 8806   0.616   2.018  16.729 -0.8279  0.9360  0.1004
  590MPD2    H5 8807   0.584   2.034  16.634 -1.5349 -0.7189  0.0687
  590MPD2    N1 8808   0.213   1.768  16.723 -0.0960 -0.1863  0.4357
  590MPD2    H7 8809   0.144   1.713  16.773 -1.9827 -0.2208 -2.2085
  591TMC3    C1 8810   0.774   2.181  16.670  0.7133 -0.1516  0.7820
  591TMC3    C2 8811   0.801   2.125  16.546  0.2996 -0.6759 -0.0959
  591TMC3    C3 8812   0.861   2.210  16.456  0.4579  0.6864  0.2127
  591TMC3    C4 8813   0.802   2.313  16.702  0.2947 -0.2530 -0.7786
  591TMC3    C5 8814   0.852   2.394  16.601 -0.0034 -0.1283 -0.5463
  591TMC3    C6 8815   0.895   2.348  16.481  0.0945  0.1078  0.1040
  591TMC3     C 8816   0.729   2.088  16.774  0.1547 -0.2605 -0.9485
  591TMC3     O 8817   0.788   2.086  16.883  0.3791  0.0616  0.2584
  591TMC3     H 8818   0.784   2.020  16.524  0.3481 -0.3424 -1.7312
  591TMC3    H1 8819   0.784   2.359  16.798 -0.9853 -1.0848 -0.6215
  591TMC3    H2 8820   0.954   2.408  16.412 -2.2914 -0.4809 -2.4412
  591TMC3    C7 8821   0.860   2.538  16.633 -0.8341 -0.1578 -0.0478
  591TMC3    C8 8822   0.890   2.143  16.323 -0.5933  0.2409  0.7685
  591TMC3    O1 8823   0.852   2.571  16.752 -0.5938 -0.4898  0.0281
  591TMC3    O2 8824   0.877   2.020  16.319  0.1502 -0.1349 -0.2264
  592MPD2     C 8825   0.710   3.247  11.334 -0.1490 -0.0997 -0.5676
  592MPD2    C1 8826   0.722   3.295  11.463 -0.1377  0.3890  0.7343
  592MPD2    C2 8827   0.672   3.218  11.564 -0.2229 -0.0485 -0.4959
  592MPD2    C3 8828   0.612   3.096  11.545  0.3385 -0.3318 -0.0923
  592MPD2    C4 8829   0.607   3.046  11.420  0.1053  0.3236 -0.5552
  592MPD2    C5 8830   0.647   3.124  11.311  0.5215  0.2515 -0.1577
  592MPD2     H 8831   0.684   3.255  11.666 -1.5491  0.7026 -0.6069
  592MPD2    H1 8832   0.560   2.950  11.399  0.9575 -0.2138  0.0039
  592MPD2    H2 8833   0.757   3.291  11.248 -0.5745 -0.0214 -0.7594
  592MPD2    H3 8834   0.645   3.096  11.207  0.5799  0.3950 -0.1970
  592MPD2     N 8835   0.560   3.025  11.656 -0.2646  0.2251 -0.5460
  592MPD2    H5 8836   0.584   3.063  11.747 -0.1811  0.2199 -0.5651
  592MPD2    N1 8837   0.797   3.416  11.484  0.2723 -0.4691 -0.0582
  592MPD2    H7 8838   0.819   3.468  11.399  2.3938 -0.7237  0.3146
  593TMC3    C1 8839   0.847   3.630  11.572 -0.4292 -0.2183  0.6554
  593TMC3    C2 8840   0.878   3.704  11.681 -0.3554  0.7247  0.2916
  593TMC3    C3 8841   0.906   3.837  11.658  0.4090  0.3996  0.0248
  593TMC3    C4 8842   0.850   3.676  11.446  0.2782 -0.0817 -0.6407
  593TMC3    C5 8843   0.894   3.807  11.431 -0.2146  0.3579 -0.5662
  593TMC3    C6 8844   0.913   3.890  11.536  0.8167  0.1760 -0.3238
  593TMC3     C 8845   0.815   3.485  11.602 -0.2780  0.0128 -0.7571
  593TMC3     O 8846   0.798   3.450  11.717  0.4937  0.3242 -0.3145
  593TMC3     H 8847   0.867   3.674  11.784  1.0961 -0.3842  0.1424
  593TMC3    H1 8848   0.834   3.614  11.359  0.6648  2.0047 -2.1939
  593TMC3    H2 8849   0.920   3.997  11.520 -1.6809  0.1962 -1.3545
  593TMC3    C7 8850   0.886   3.872  11.297 -0.1937  0.5758 -0.5166
  593TMC3    C8 8851   0.893   3.924  11.768  0.5518  0.3246  0.3671
  593TMC3    O1 8852   0.911   3.995  11.300 -0.2772  0.1080 -0.3514
  593TMC3    O2 8853   0.828   3.885  11.860  0.4064 -0.0411  0.2572
  594MPD2     C 8854   4.488   2.457  14.331 -0.1651  0.0429 -0.5707
  594MPD2    C1 8855   4.449   2.519  14.447 -0.9321 -0.0743 -0.1172
  594MPD2    C2 8856   4.497   2.647  14.463 -0.1424 -0.1658  0.4839
  594MPD2    C3 8857   4.594   2.699  14.384 -0.7117 -0.3207 -0.0115
  594MPD2    C4 8858   4.652   2.619  14.291  0.1155  0.2901  0.0582
  594MPD2    C5 8859   4.584   2.508  14.258 -0.0604  0.2828 -0.0879
  594MPD2     H 8860   4.455   2.713  14.539  1.0337 -0.3991  1.3388
  594MPD2    H1 8861   4.728   2.658  14.224 -1.0922  2.9790  0.2571
  594MPD2    H2 8862   4.455   2.357  14.305 -0.2322  0.1033 -0.7169
  594MPD2    H3 8863   4.613   2.450  14.171  1.1663  0.3186  0.2907
  594MPD2     N 8864   4.637   2.832  14.406 -0.6686  0.3253 -0.2783
  594MPD2    H5 8865   4.592   2.880  14.484  0.0856  0.9121 -0.2064
  594MPD2    N1 8866   4.366   2.457  14.538  0.4416 -0.2820  0.1962
  594MPD2    H7 8867   4.323   2.370  14.509 -1.1401 -0.3820  2.7802
  595TMC3    C1 8868   0.211   3.179  14.464  0.0512 -0.6190  0.6437
  595TMC3    C2 8869   0.157   3.086  14.389  0.6779 -0.2734 -0.2892
  595TMC3    C3 8870   0.040   3.025  14.420 -0.2718 -0.0222  0.4349
  595TMC3    C4 8871   0.141   3.241  14.566  0.1725  0.0197  0.3749
  595TMC3    C5 8872   0.013   3.200  14.591  0.0694 -0.2568 -0.3557
  595TMC3    C6 8873   4.713   3.089  14.524 -0.0173 -0.6844  0.4960
  595TMC3     C 8874   0.355   3.193  14.467 -0.5960  0.0356  0.1736
  595TMC3     O 8875   0.387   3.282  14.546 -0.0415  0.0375  0.1688
  595TMC3     H 8876   0.220   3.059  14.306  0.7545  1.6990 -0.8752
  595TMC3    H1 8877   0.187   3.317  14.628  3.0695  0.0330 -1.7870
  595TMC3    H2 8878   4.610   3.058  14.539 -0.3981  1.0678  1.4745
  595TMC3    C7 8879   4.658   3.305  14.644  0.3099 -0.4297  0.5803
  595TMC3    C8 8880   0.009   2.896  14.356 -0.4614 -1.2562  0.3534
  595TMC3    O1 8881   4.550   3.323  14.598  0.0942  0.3852  1.1598
  595TMC3    O2 8882   0.091   2.850  14.284  0.3473 -0.1387 -0.3613
  596MPD2     C 8883   3.692   1.310  17.088  0.1123 -0.4170 -0.7034
  596MPD2    C1 8884   3.695   1.415  17.000 -0.2070  0.3319  0.8299
  596MPD2    C2 8885   3.705   1.394  16.865 -0.1015 -0.5904  0.1660
  596MPD2    C3 8886   3.725   1.261  16.822 -1.1743 -0.8667  0.5816
  596MPD2    C4 8887   3.731   1.158  16.911 -0.5676  0.4262 -0.6500
  596MPD2    C5 8888   3.704   1.179  17.041  0.6478 -0.1882  0.1139
  596MPD2     H 8889   3.704   1.481  16.800  0.8849 -0.8463 -0.1782
  596MPD2    H1 8890   3.747   1.056  16.878 -3.0496 -0.1603 -0.0464
  596MPD2    H2 8891   3.662   1.311  17.192 -0.4592 -1.7881 -0.8526
  596MPD2    H3 8892   3.695   1.101  17.117  0.1132 -0.1872  0.0499
  596MPD2     N 8893   3.730   1.224  16.687 -0.2122 -0.1913  0.0969
  596MPD2    H5 8894   3.743   1.125  16.669  1.2211  0.0208 -0.0251
  596MPD2    N1 8895   3.673   1.551  17.041  0.2947  0.8516 -0.4473
  596MPD2    H7 8896   3.643   1.613  16.966 -0.6450 -0.1787 -0.9238
  597TMC3    C1 8897   3.586   1.702  17.183  0.1241 -0.8882 -0.1854
  597TMC3    C2 8898   3.585   1.812  17.103 -0.5245 -0.5128  0.6192
  597TMC3    C3 8899   3.514   1.920  17.149  0.1777  0.3170  0.0401
  597TMC3    C4 8900   3.513   1.699  17.303  0.0303  0.6413  0.2211
  597TMC3    C5 8901   3.439   1.810  17.343 -0.3560 -0.3288 -0.0554
  597TMC3    C6 8902   3.439   1.922  17.262  0.5909 -0.0069  0.0127
  597TMC3     C 8903   3.673   1.591  17.171  0.1243 -0.2611  0.8373
  597TMC3     O 8904   3.708   1.539  17.272 -0.3367 -0.6609  0.6861
  597TMC3     H 8905   3.655   1.827  17.022 -0.2449 -0.5440  0.8547
  597TMC3    H1 8906   3.513   1.611  17.365  2.1980 -0.6219 -1.5855
  597TMC3    H2 8907   3.393   2.017  17.289 -1.1459 -0.3498 -1.8338
  597TMC3    C7 8908   3.353   1.788  17.460  0.4825 -0.2572  0.3731
  597TMC3    C8 8909   3.521   2.046  17.080 -0.1488 -0.4285 -0.3169
  597TMC3    O1 8910   3.335   1.672  17.494  0.2959 -0.4416 -0.8258
  597TMC3    O2 8911   3.431   2.131  17.107 -0.4974 -0.6710  0.1519
  598TMC3    C1 8912   1.764   2.570  15.502  0.1464  0.4668 -0.0948
  598TMC3    C2 8913   1.676   2.465  15.481  0.1593 -1.1605 -1.2634
  598TMC3    C3 8914   1.647   2.437  15.341 -0.0300  0.5177  0.5436
  598TMC3    C4 8915   1.812   2.649  15.402  0.3579 -0.2132  0.0875
  598TMC3    C5 8916   1.777   2.619  15.271  0.7471  0.3317 -0.1686
  598TMC3    C6 8917   1.714   2.505  15.234 -0.1900  0.5083 -0.2699
  598TMC3     C 8918   1.807   2.613  15.637  0.0015 -0.1252  0.2744
  598TMC3     O 8919   1.837   2.731  15.655  0.2670  0.4276 -0.8541
  598TMC3     H 8920   1.630   2.412  15.564  1.2102 -2.4571 -1.5071
  598TMC3    H1 8921   1.872   2.736  15.425 -0.8740  0.2918  1.4343
  598TMC3    H2 8922   1.662   2.508  15.138  1.3925  1.4797 -1.1027
  598TMC3    C7 8923   1.855   2.682  15.172 -0.5151  0.4022 -0.5363
  598TMC3    C8 8924   1.553   2.339  15.305  0.2671 -0.0260  0.6870
  598TMC3    O1 8925   1.881   2.621  15.069 -0.6283 -0.0610  0.0095
  598TMC3    O2 8926   1.454   2.327  15.378 -0.7145  0.5866 -0.6312
  599MPD2     C 8927   1.434   0.226  15.631 -0.3278  1.1566  0.8225
  599MPD2    C1 8928   1.409   0.103  15.689 -0.4592  0.1079 -0.3146
  599MPD2    C2 8929   1.301   0.083  15.778  0.3181  0.1555 -0.4372
  599MPD2    C3 8930   1.215   0.187  15.805 -0.3824  0.3106 -0.5140
  599MPD2    C4 8931   1.234   0.302  15.744 -0.4483 -0.4314 -0.1114
  599MPD2    C5 8932   1.340   0.324  15.656  0.0399 -0.8770 -0.2394
  599MPD2     H 8933   1.296   4.725  15.830  3.8132 -0.0745 -0.5297
  599MPD2    H1 8934   1.166   0.385  15.755 -0.1825 -0.6547  3.1095
  599MPD2    H2 8935   1.523   0.256  15.578 -0.2211 -0.5882  0.0075
  599MPD2    H3 8936   1.354   0.427  15.625 -1.4994 -1.2662 -2.2571
  599MPD2     N 8937   1.116   0.183  15.906 -0.2272 -0.2756 -0.6177
  599MPD2    H5 8938   1.067   0.272  15.917 -0.1376 -0.4534  1.1617
  599MPD2    N1 8939   1.515   0.015  15.675 -0.5988 -0.3851  0.2362
  599MPD2    H7 8940   1.597   0.050  15.626 -0.6821  0.1000  0.4406
  600TMC3    C1 8941   1.029   0.107  16.111 -0.1028  0.1210 -0.0678
  600TMC3    C2 8942   0.982   4.731  16.183 -0.6859  0.4409  0.5971
  600TMC3    C3 8943   0.958   0.013  16.321  0.4372  1.0427 -1.0089
  600TMC3    C4 8944   1.029   0.232  16.169  0.2515  0.1694 -0.4080
  600TMC3    C5 8945   1.005   0.250  16.308  0.0177  0.2209  0.1266
  600TMC3    C6 8946   0.970   0.141  16.383  0.1179 -0.1228  0.1248
  600TMC3     C 8947   1.098   0.078  15.990  0.4756 -0.1661  0.4842
  600TMC3     O 8948   1.124   4.696  15.977 -0.0589 -0.2187 -0.2870
  600TMC3     H 8949   0.981   4.632  16.140 -0.1528  1.0344 -0.7793
  600TMC3    H1 8950   1.056   0.316  16.107 -2.2197 -1.0638 -3.1129
  600TMC3    H2 8951   0.962   0.144  16.491 -2.2075 -3.0544  0.0292
  600TMC3    C7 8952   0.951   0.367  16.366  0.0387 -0.3978  0.3216
  600TMC3    C8 8953   0.916   4.650  16.409 -0.3959 -0.9617 -0.0066
  600TMC3    O1 8954   0.863   0.359  16.452  0.1107  0.3624 -0.2312
  600TMC3    O2 8955   0.927   4.670  16.530 -0.3371  0.4060  0.0568
  601MPD2     C 8956   3.981   3.537   0.183 -0.5965 -0.2143  0.3964
  601MPD2    C1 8957   3.873   3.456   0.159  0.2212 -0.8603  0.3774
  601MPD2    C2 8958   3.873   3.322   0.179 -0.0826 -0.1593 -0.0083
  601MPD2    C3 8959   3.984   3.261   0.244 -0.6422  0.1782  0.2795
  601MPD2    C4 8960   4.089   3.342   0.274  0.3198 -0.3584  0.5568
  601MPD2    C5 8961   4.084   3.480   0.248 -0.0438  0.0752  0.2899
  601MPD2     H 8962   3.787   3.264   0.147 -1.4726  1.1585  1.3239
  601MPD2    H1 8963   4.176   3.297   0.319  1.7585  3.8341  1.9883
  601MPD2    H2 8964   3.993   3.640   0.152  0.6903 -1.0737 -1.9214
  601MPD2    H3 8965   4.168   3.545   0.268  0.6060 -1.4522  2.4220
  601MPD2     N 8966   3.991   3.124   0.287  1.0058  0.1160 -0.5574
  601MPD2    H5 8967   4.069   3.089   0.341  0.3929 -1.9421 -1.0090
  601MPD2    N1 8968   3.744   3.513   0.121  0.5605 -0.2300 -0.0343
  601MPD2    H7 8969   3.676   3.447   0.084  1.1043 -0.8207  0.0169
  602TMC3    C1 8970   3.605   3.683   0.032  0.3719  0.3062  0.4203
  602TMC3    C2 8971   3.610   3.808  17.729 -0.1477 -0.3064  1.2005
  602TMC3    C3 8972   3.563   3.825  17.601  0.0768  0.6722  0.3714
  602TMC3    C4 8973   3.548   3.581  17.713 -1.2130 -0.3131 -0.2118
  602TMC3    C5 8974   3.500   3.610  17.591 -0.5137 -0.6269 -0.1086
  602TMC3    C6 8975   3.518   3.730  17.525  0.4489 -0.0892  0.2766
  602TMC3     C 8976   3.715   3.650   0.115 -0.3070  0.2216  0.2298
  602TMC3     O 8977   3.776   3.747   0.166  0.4701  0.2603 -0.4312
  602TMC3     H 8978   3.638   3.894   0.043  0.9546  1.1036 -1.2878
  602TMC3    H1 8979   3.509   3.489   0.010 -0.4291 -0.0576  1.0564
  602TMC3    H2 8980   3.499   3.742  17.419  1.1286  0.4217  0.2136
  602TMC3    C7 8981   3.386   3.539  17.547  0.0506 -0.1412 -0.1791
  602TMC3    C8 8982   3.480   3.942  17.578  0.0100 -0.0180 -0.5663
  602TMC3    O1 8983   3.368   3.427  17.587 -0.2986  0.4905  0.2915
  602TMC3    O2 8984   3.390   3.932  17.495  0.1621 -0.3981 -0.7459
  603TMC3    C1 8985   1.175   2.946  11.167 -0.4178 -0.0514  0.1860
  603TMC3    C2 8986   1.224   2.949  11.298 -0.9015  0.0497  0.0525
  603TMC3    C3 8987   1.332   3.029  11.322 -0.7240  0.0613  0.0803
  603TMC3    C4 8988   1.224   3.030  11.071  0.0143  0.3196 -0.1817
  603TMC3    C5 8989   1.322   3.110  11.106 -0.1800  0.5656 -0.2450
  603TMC3    C6 8990   1.385   3.103  11.230  0.6498 -0.2628  0.5511
  603TMC3     C 8991   1.064   2.862  11.127 -0.3888  0.5952 -0.4130
  603TMC3     O 8992   1.043   2.856  11.008  0.1162  0.2700 -0.2100
  603TMC3     H 8993   1.191   2.880  11.375 -1.5615 -0.3707 -0.6083
  603TMC3    H1 8994   1.156   3.058  10.992 -0.0204  1.5049  0.2586
  603TMC3    H2 8995   1.461   3.180  11.244 -0.6143  0.7407  1.9662
  603TMC3    C7 8996   1.372   3.212  11.017 -0.2939 -0.0180  1.1053
  603TMC3    C8 8997   1.388   3.018  11.456 -0.2626 -0.3431 -0.0240
  603TMC3    O1 8998   1.423   3.311  11.066 -0.1241  0.2472  0.6178
  603TMC3    O2 8999   1.366   2.922  11.531 -0.2868  0.3547 -0.0431
  604MPD2     C 9000   2.985   2.609  16.689  0.3600  0.0910 -0.4855
  604MPD2    C1 9001   2.872   2.552  16.634  0.0633  0.2791 -0.5063
  604MPD2    C2 9002   2.872   2.511  16.496 -0.6927  0.1202 -0.4340
  604MPD2    C3 9003   2.988   2.522  16.424 -0.4771  0.0642 -0.4479
  604MPD2    C4 9004   3.104   2.563  16.482  0.5684  0.4544  0.0440
  604MPD2    C5 9005   3.100   2.606  16.611 -0.1917 -0.5308 -0.2246
  604MPD2     H 9006   2.795   2.453  16.447  0.2175  0.8686 -2.7354
  604MPD2    H1 9007   3.198   2.570  16.428 -0.1255 -1.1258 -1.3717
  604MPD2    H2 9008   2.987   2.644  16.792 -0.7183 -0.4810 -0.2736
  604MPD2    H3 9009   3.197   2.637  16.648 -1.2385 -1.4018  3.2723
  604MPD2     N 9010   2.980   2.484  16.288  0.0232 -0.3488 -0.6702
  604MPD2    H5 9011   2.887   2.461  16.253 -0.5086  1.8672 -0.7643
  604MPD2    N1 9012   2.774   2.531  16.725  0.0433  0.5498 -0.0871
  604MPD2    H7 9013   2.796   2.561  16.820 -0.2972  1.3248 -0.2506
  605TMC3    C1 9014   2.552   2.525  16.800  0.7312 -0.4891 -0.1014
  605TMC3    C2 9015   2.588   2.619  16.893  0.1137  0.9571 -1.2323
  605TMC3    C3 9016   2.490   2.704  16.945  0.1303  0.4312  0.3707
  605TMC3    C4 9017   2.418   2.507  16.769 -0.1530 -0.9142 -0.3430
  605TMC3    C5 9018   2.322   2.596  16.825 -0.3034 -0.4549 -0.1727
  605TMC3    C6 9019   2.361   2.700  16.907 -0.2862 -0.3218  0.1218
  605TMC3     C 9020   2.644   2.492  16.694 -0.3240 -0.7059 -0.1105
  605TMC3     O 9021   2.608   2.431  16.595 -0.8990  0.1443 -0.1932
  605TMC3     H 9022   2.688   2.624  16.935 -0.3382 -1.5796  0.1087
  605TMC3    H1 9023   2.391   2.446  16.684 -1.8138  0.0249 -0.5014
  605TMC3    H2 9024   2.287   2.771  16.943 -0.6528 -1.4515  1.5767
  605TMC3    C7 9025   2.202   2.627  16.747 -0.1549 -0.4623 -0.2326
  605TMC3    C8 9026   2.539   2.830  16.979 -0.1305  0.7546 -0.2892
  605TMC3    O1 9027   2.180   2.748  16.732 -0.4014 -0.2892  0.2488
  605TMC3    O2 9028   2.481   2.901  17.056 -0.0751  0.2307  0.1033
  606TMC3    C1 9029   3.743   1.498  17.715 -0.7660 -0.5575 -0.1948
  606TMC3    C2 9030   3.750   1.439   0.097 -0.3783 -0.1830 -0.1516
  606TMC3    C3 9031   3.715   1.305   0.114 -0.3103 -0.7701  0.1073
  606TMC3    C4 9032   3.699   1.424  17.611 -0.1470 -0.1581 -0.5068
  606TMC3    C5 9033   3.658   1.296  17.634  0.5701  0.1841 -0.2546
  606TMC3    C6 9034   3.673   1.234   0.009 -0.0743  0.4735  0.4848
  606TMC3     C 9035   3.748   1.644  17.695 -0.6219  0.3732  0.0015
  606TMC3     O 9036   3.745   1.716   0.049 -0.1913 -0.3732 -0.0183
  606TMC3     H 9037   3.791   1.505   0.173 -2.9838  1.5299 -0.2119
  606TMC3    H1 9038   3.679   1.462  17.511  2.8685  0.5651 -0.8491
  606TMC3    H2 9039   3.654   1.128   0.022 -0.9571  0.6379  0.5085
  606TMC3    C7 9040   3.658   1.213  17.516 -0.1505  0.3230 -0.7555
  606TMC3    C8 9041   3.797   1.235   0.218 -0.8463 -0.3549 -0.7348
  606TMC3    O1 9042   3.698   1.255  17.410  0.2412 -0.4615  0.1750
  606TMC3    O2 9043   3.786   1.113   0.217  0.2011  0.1233  0.1806
  607MPD2     C 9044   0.800   2.753  11.686 -1.0268 -0.2958  0.3387
  607MPD2    C1 9045   0.847   2.846  11.776 -0.2951 -0.1715  0.3737
  607MPD2    C2 9046   0.826   2.817  11.912 -0.2458 -0.6871  0.0394
  607MPD2    C3 9047   0.769   2.696  11.954  0.2698  0.7146  0.1767
  607MPD2    C4 9048   0.734   2.605  11.859 -0.0452 -0.3992  0.4521
  607MPD2    C5 9049   0.744   2.636  11.726  0.1280 -0.0988 -0.2118
  607MPD2     H 9050   0.865   2.883  11.989  2.4693 -1.6613 -0.4875
  607MPD2    H1 9051   0.704   2.508  11.896  1.2321 -0.7021  0.6897
  607MPD2    H2 9052   0.816   2.782  11.583 -0.8904  1.5325  0.8711
  607MPD2    H3 9053   0.710   2.558  11.659 -1.8555  0.5920  0.0039
  607MPD2     N 9054   0.783   2.680  12.095 -0.1241 -0.6201  0.4061
  607MPD2    H5 9055   0.838   2.756  12.136 -0.1733  0.8503 -2.2268
  607MPD2    N1 9056   0.926   2.955  11.743  0.1588  0.9564 -0.2633
  607MPD2    H7 9057   0.951   3.021  11.816  2.5816  1.2655 -1.3645
  608TMC3    C1 9058   1.086   3.088  11.639 -0.1360 -0.0162 -0.4012
  608TMC3    C2 9059   1.157   3.104  11.758 -0.4496  0.1766  0.0424
  608TMC3    C3 9060   1.231   3.219  11.776 -0.4611 -0.7255 -0.2159
  608TMC3    C4 9061   1.103   3.180  11.537 -0.0187  0.8959 -0.6688
  608TMC3    C5 9062   1.175   3.295  11.566 -0.8452  0.3814 -0.1309
  608TMC3    C6 9063   1.245   3.315  11.681 -0.1427  0.0477 -0.3336
  608TMC3     C 9064   0.982   2.989  11.625  0.0075  0.2826 -0.3518
  608TMC3     O 9065   0.961   2.936  11.513  0.3345 -0.2540  0.1416
  608TMC3     H 9066   1.154   3.017  11.823 -1.4129 -0.4641 -0.8496
  608TMC3    H1 9067   1.047   3.170  11.445 -1.8390 -2.6075  0.8147
  608TMC3    H2 9068   1.309   3.401  11.695  0.1820 -0.0015 -1.4926
  608TMC3    C7 9069   1.194   3.385  11.456 -0.4709 -0.0713 -0.0463
  608TMC3    C8 9070   1.276   3.259  11.914  0.0597 -0.2743  0.1720
  608TMC3    O1 9071   1.168   3.331  11.348 -0.1463  0.4987 -0.0051
  608TMC3    O2 9072   1.348   3.353  11.940 -0.1964  0.2503  0.0364
  609TMC3    C1 9073   3.675   2.771   8.888  0.8832  0.2858  0.5106
  609TMC3    C2 9074   3.667   2.899   8.850  0.4042  0.2092 -0.4114
  609TMC3    C3 9075   3.781   2.956   8.798 -0.1274  0.1881  0.3940
  609TMC3    C4 9076   3.794   2.705   8.872 -0.4290  0.4410 -0.1918
  609TMC3    C5 9077   3.901   2.769   8.826  0.2314 -0.0892  1.0525
  609TMC3    C6 9078   3.900   2.899   8.788 -0.1725  0.1633  0.8297
  609TMC3     C 9079   3.603   2.734   9.011  0.2322 -0.1977  0.1705
  609TMC3     O 9080   3.655   2.647   9.076  0.0393 -0.1921  0.0787
  609TMC3     H 9081   3.582   2.956   8.886 -0.1281 -0.0259 -1.2899
  609TMC3    H1 9082   3.808   2.604   8.909  1.3025  0.8426  0.2727
  609TMC3    H2 9083   3.990   2.950   8.755 -0.1217  0.6470  1.7032
  609TMC3    C7 9084   4.026   2.696   8.805 -0.1111  0.9259  0.1722
  609TMC3    C8 9085   3.776   3.097   8.770 -0.0905 -0.2978 -0.2253
  609TMC3    O1 9086   4.130   2.759   8.788  0.4900  0.2391  0.3546
  609TMC3    O2 9087   3.877   3.163   8.795  0.1524  0.4357  0.3574
  610TMC3    C1 9088   1.640   3.085  12.275  0.5791  0.1058 -0.8165
  610TMC3    C2 9089   1.570   3.038  12.165 -0.1303 -0.3908  0.1076
  610TMC3    C3 9090   1.463   2.953  12.192 -0.4541 -0.4512  0.4531
  610TMC3    C4 9091   1.623   3.030  12.397 -0.2663  0.0133  0.0919
  610TMC3    C5 9092   1.528   2.930  12.412 -1.0848 -0.5682  0.0375
  610TMC3    C6 9093   1.431   2.903  12.316 -0.0067 -0.3476 -0.6851
  610TMC3     C 9094   1.776   3.124  12.258 -0.3902  0.3246 -0.4465
  610TMC3     O 9095   1.858   3.077  12.341 -0.7768  0.4258  0.4165
  610TMC3     H 9096   1.589   3.082  12.067  3.2552 -1.5085  0.2687
  610TMC3    H1 9097   1.686   3.062  12.479 -0.1906  0.3246 -0.0858
  610TMC3    H2 9098   1.369   2.817  12.334  0.2699 -0.7041 -1.4277
  610TMC3    C7 9099   1.536   2.866  12.543  0.1727  0.7346 -0.1748
  610TMC3    C8 9100   1.412   2.883  12.072 -0.4396 -0.1176  0.0440
  610TMC3    O1 9101   1.606   2.916  12.627  0.2499 -0.1309 -0.1704
  610TMC3    O2 9102   1.463   2.914  11.968  0.3527 -0.1034  0.5977
  611MPD2     C 9103   0.626   2.719  10.540 -0.3376 -0.4883 -0.3189
  611MPD2    C1 9104   0.578   2.743  10.416 -0.0301 -0.0570  0.5779
  611MPD2    C2 9105   0.652   2.823  10.335  0.7057  0.0034 -0.0790
  611MPD2    C3 9106   0.776   2.875  10.376 -0.3429  0.0622  0.5355
  611MPD2    C4 9107   0.822   2.842  10.503  0.2922 -0.4525 -0.5349
  611MPD2    C5 9108   0.748   2.767  10.586  0.5029  0.1882 -0.0663
  611MPD2     H 9109   0.623   2.854  10.235 -1.2992 -1.4758  0.0479
  611MPD2    H1 9110   0.916   2.880  10.541  0.8855 -2.3512 -0.1039
  611MPD2    H2 9111   0.577   2.646  10.603 -1.4636  1.7852  1.4295
  611MPD2    H3 9112   0.783   2.737  10.684 -3.0717 -2.0916  0.4836
  611MPD2     N 9113   0.864   2.960  10.300  0.2760 -0.5652 -0.4305
  611MPD2    H5 9114   0.946   2.982  10.356  0.6321  0.2034 -1.2499
  611MPD2    N1 9115   0.447   2.700  10.376 -0.2277  0.2598  0.2017
  611MPD2    H7 9116   0.412   2.721  10.283  1.2223  3.2133  0.3151
  612TMC3    C1 9117   0.916   3.150  10.152 -0.3076  0.7385 -0.2066
  612TMC3    C2 9118   0.996   3.205  10.245 -0.1283  0.0848  0.4839
  612TMC3    C3 9119   1.091   3.291  10.207  0.4579  1.0279  0.0107
  612TMC3    C4 9120   0.936   3.168  10.019 -0.1546  0.0351  0.6468
  612TMC3    C5 9121   1.046   3.250   9.982  0.1325 -0.5688 -1.2896
  612TMC3    C6 9122   1.118   3.323  10.075  0.2967 -0.6103  0.4985
  612TMC3     C 9123   0.828   3.038  10.190 -0.0353 -0.4129 -0.6074
  612TMC3     O 9124   0.750   3.007  10.102  0.1947 -0.3930 -0.0414
  612TMC3     H 9125   0.968   3.190  10.349 -1.3027 -0.1175  0.1319
  612TMC3    H1 9126   0.870   3.129   9.942  0.9023  0.7310 -0.6113
  612TMC3    H2 9127   1.199   3.393  10.059 -0.3088 -0.6137 -2.6339
  612TMC3    C7 9128   1.071   3.281   9.846  0.2777  0.1036  0.0298
  612TMC3    C8 9129   1.183   3.354  10.305  1.5454  0.1601  0.2463
  612TMC3    O1 9130   1.172   3.342   9.817 -0.8821 -0.6055 -0.0134
  612TMC3    O2 9131   1.242   3.453  10.260 -0.2258  0.1116 -0.6369
  613MPD2     C 9132   4.603   0.551  16.893 -0.3877 -0.4315  0.5263
  613MPD2    C1 9133   4.589   0.674  16.828  0.1583 -0.5628  0.4259
  613MPD2    C2 9134   4.460   0.715  16.783  0.2692 -0.3821 -0.1002
  613MPD2    C3 9135   4.356   0.625  16.787 -0.8969 -0.1925  0.1265
  613MPD2    C4 9136   4.372   0.498  16.849  0.3114  0.6396  0.6726
  613MPD2    C5 9137   4.492   0.472  16.910  0.4741  0.2937 -1.2856
  613MPD2     H 9138   4.455   0.808  16.728 -0.5590 -0.5618 -0.3306
  613MPD2    H1 9139   4.283   0.436  16.856  1.3585 -0.8112  0.9265
  613MPD2    H2 9140   4.701   0.513  16.920  0.1855 -0.6344 -1.8949
  613MPD2    H3 9141   4.506   0.383  16.971  0.9134  2.4639  1.7147
  613MPD2     N 9142   4.240   0.645  16.713  0.0933 -0.7206  0.5345
  613MPD2    H5 9143   4.194   0.556  16.695 -0.2773 -0.8102  1.9002
  613MPD2    N1 9144   4.705   0.746  16.801 -0.0725  0.1644 -0.1598
  613MPD2    H7 9145   0.052   0.691  16.813 -0.5628 -0.2637  1.4389
  614TMC3    C1 9146   0.076   0.896  16.655  0.3220  0.0956  0.3672
  614TMC3    C2 9147   0.114   0.783  16.585 -0.3553 -0.3567 -0.2672
  614TMC3    C3 9148   0.134   0.787  16.449 -0.3313  0.3309  0.2342
  614TMC3    C4 9149   0.046   1.009  16.588 -0.4748 -0.8322 -0.0864
  614TMC3    C5 9150   0.078   1.007  16.453 -0.3828  0.0692  0.3346
  614TMC3    C6 9151   0.110   0.904  16.376  0.7098 -0.0154 -0.1474
  614TMC3     C 9152   4.707   0.876  16.756  0.4404 -0.4462  0.2263
  614TMC3     O 9153   4.616   0.950  16.760  0.2184  0.2796 -0.2893
  614TMC3     H 9154   0.120   0.688  16.636  0.1418  1.2062  2.5608
  614TMC3    H1 9155   0.003   1.091  16.644  1.3179 -0.6562  1.0569
  614TMC3    H2 9156   0.136   0.914  16.271 -1.0503  1.6085 -0.4156
  614TMC3    C7 9157   0.061   1.135  16.392  0.9731  0.1036 -0.0782
  614TMC3    C8 9158   0.070   0.679  16.377  0.4305 -0.1944  0.5435
  614TMC3    O1 9159   0.083   1.243  16.445  0.4067  0.2120  0.2041
  614TMC3    O2 9160   4.735   0.715  16.290 -0.2040  1.2161  0.5953
  615MPD2     C 9161   4.355   2.132  15.932  0.4007  0.0089  0.4226
  615MPD2    C1 9162   4.416   2.251  15.966  0.2594 -0.8477 -0.8301
  615MPD2    C2 9163   4.432   2.351  15.868  0.2933 -0.3816  0.3183
  615MPD2    C3 9164   4.377   2.335  15.739 -0.6957 -0.3816  0.0693
  615MPD2    C4 9165   4.328   2.212  15.702 -0.0973  0.1981 -0.0483
  615MPD2    C5 9166   4.318   2.109  15.797  0.8874  0.7113  0.9144
  615MPD2     H 9167   4.471   2.446  15.902 -2.2737  1.5624 -2.0756
  615MPD2    H1 9168   4.289   2.181  15.606  0.1208  0.3398 -0.1826
  615MPD2    H2 9169   4.349   2.060  16.013  0.9604  0.1975  0.6341
  615MPD2    H3 9170   4.274   2.013  15.772  4.6677 -0.8626  0.2735
  615MPD2     N 9171   4.369   2.437  15.638 -0.3423 -0.2639  0.2633
  615MPD2    H5 9172   4.326   2.421  15.547 -3.2696  3.1590  1.0470
  615MPD2    N1 9173   4.469   2.285  16.094  0.2873  0.0559  0.1589
  615MPD2    H7 9174   4.511   2.377  16.103 -1.3194  0.9379 -1.2343
  616TMC3    C1 9175   4.503   2.299  16.321  0.5947  0.3994 -0.1055
  616TMC3    C2 9176   4.598   2.238  16.401 -0.0564 -0.2589 -0.2702
  616TMC3    C3 9177   4.664   2.322  16.488  0.5845 -0.3678  0.4033
  616TMC3    C4 9178   4.467   2.430  16.327  0.3609 -0.9452  0.3702
  616TMC3    C5 9179   4.527   2.498  16.426  0.0741 -0.2684  0.5226
  616TMC3    C6 9180   4.634   2.455  16.500  0.5398 -0.0133 -0.1528
  616TMC3     C 9181   4.448   2.222  16.209 -0.1416 -0.3131  0.0978
  616TMC3     O 9182   4.397   2.111  16.238  0.4324  0.1925  0.1300
  616TMC3     H 9183   4.631   2.138  16.376 -1.8976 -0.6645 -1.1178
  616TMC3    H1 9184   4.372   2.457  16.281  2.1168  0.8569 -2.1553
  616TMC3    H2 9185   4.684   2.521  16.570 -2.2353  1.1661  0.7083
  616TMC3    C7 9186   4.495   2.646  16.439  0.2845 -0.0455  1.0615
  616TMC3    C8 9187   0.053   2.270  16.544  0.7063 -0.0183  0.2235
  616TMC3    O1 9188   4.538   2.707  16.538 -0.0612 -0.2986 -0.3816
  616TMC3    O2 9189   0.071   2.149  16.559  0.0324 -0.0134 -0.3663
  617MPD2     C 9190   2.827   0.357  13.468  0.4619  0.0911 -0.4852
  617MPD2    C1 9191   2.759   0.363  13.586  0.6050  0.6469  0.0496
  617MPD2    C2 9192   2.620   0.379  13.590 -0.1987 -0.1767  0.0547
  617MPD2    C3 9193   2.547   0.395  13.474  0.1225 -0.1290 -0.4626
  617MPD2    C4 9194   2.620   0.400  13.359  0.1826  0.4389 -0.3392
  617MPD2    C5 9195   2.755   0.375  13.351  0.3557 -0.7447 -0.3446
  617MPD2     H 9196   2.569   0.392  13.685  0.9140 -0.6519  0.7206
  617MPD2    H1 9197   2.569   0.401  13.264  1.0342 -0.1789 -0.7940
  617MPD2    H2 9198   2.934   0.344  13.460  0.2236 -2.2553  0.1193
  617MPD2    H3 9199   2.805   0.354  13.258  0.5901 -0.4767 -0.2798
  617MPD2     N 9200   2.403   0.390  13.459  0.0485  0.8177 -0.3840
  617MPD2    H5 9201   2.357   0.399  13.369  0.5867  2.0683 -0.5334
  617MPD2    N1 9202   2.840   0.357  13.695  0.3272 -0.1249 -0.0717
  617MPD2    H7 9203   2.940   0.355  13.681  0.3926 -2.0673  0.5509
  618TMC3    C1 9204   2.915   0.351  13.906 -0.7964 -0.1306 -0.3632
  618TMC3    C2 9205   2.936   0.251  14.001 -0.3708  0.3475  0.2745
  618TMC3    C3 9206   3.072   0.225  14.015 -0.2042 -0.6077 -0.0191
  618TMC3    C4 9207   3.014   0.431  13.860  0.5618  0.4846  0.1059
  618TMC3    C5 9208   3.144   0.407  13.892  0.8131  0.3062 -0.1204
  618TMC3    C6 9209   3.179   0.303  13.971  0.3079  0.3445  1.0678
  618TMC3     C 9210   2.803   0.334  13.824  0.7797  0.3872 -0.1349
  618TMC3     O 9211   2.697   0.302  13.872  0.2411  0.2107 -0.1450
  618TMC3     H 9212   2.852   0.198  14.043 -0.6579  0.8018  0.2760
  618TMC3    H1 9213   2.990   0.513  13.793  2.1639  1.3772  0.6109
  618TMC3    H2 9214   3.280   0.267  13.988  0.3982  0.0782 -0.0451
  618TMC3    C7 9215   3.210   0.419  13.763 -0.1729 -0.0540 -0.5099
  618TMC3    C8 9216   3.106   0.110  14.094 -1.1809  0.5048 -0.0954
  618TMC3    O1 9217   3.132   0.420  13.669  0.1510 -0.2469  0.0485
  618TMC3    O2 9218   3.027   0.076  14.184 -0.0047 -0.1948 -0.7797
  619MPD2     C 9219   4.022   1.923  14.026  1.0425 -0.2999 -0.2682
  619MPD2    C1 9220   3.931   2.011  13.968 -0.1371  0.0897 -0.6373
  619MPD2    C2 9221   3.825   1.963  13.900  0.5361 -0.1868  0.0003
  619MPD2    C3 9222   3.796   1.831  13.889  0.4587  0.0602  0.2417
  619MPD2    C4 9223   3.874   1.741  13.960 -0.4693  0.2413  0.0482
  619MPD2    C5 9224   3.989   1.787  14.029  0.3693  0.1874 -0.4810
  619MPD2     H 9225   3.761   2.034  13.850 -1.3246 -1.5716  0.4177
  619MPD2    H1 9226   3.849   1.635  13.961 -0.8958  0.3463  0.5705
  619MPD2    H2 9227   4.106   1.963  14.082  0.4181  2.3899 -1.2240
  619MPD2    H3 9228   4.044   1.715  14.088  1.3837  2.1826  1.0152
  619MPD2     N 9229   3.682   1.778  13.819  0.2988 -0.2338  0.5496
  619MPD2    H5 9230   3.660   1.680  13.832  1.1643 -0.7032 -1.6495
  619MPD2    N1 9231   3.960   2.152  13.966  0.3055 -0.5763 -0.1933
  619MPD2    H7 9232   3.903   2.212  13.906  1.4142  0.9621  0.2718
  620TMC3    C1 9233   4.064   2.365  14.025  0.4468  0.2733  0.0102
  620TMC3    C2 9234   4.012   2.406  13.906  0.1261  0.1433 -0.5486
  620TMC3    C3 9235   3.959   2.535  13.885 -0.6316 -0.1777 -0.2865
  620TMC3    C4 9236   4.071   2.443  14.128  0.0519 -0.7580  0.3234
  620TMC3    C5 9237   4.005   2.567  14.112  0.1543  0.4521 -0.3177
  620TMC3    C6 9238   3.958   2.615  13.997  0.0984  0.6987 -0.0531
  620TMC3     C 9239   4.047   2.217  14.051 -0.3333 -0.2902  0.0008
  620TMC3     O 9240   4.082   2.172  14.162 -0.1516  0.0955 -0.0276
  620TMC3     H 9241   4.015   2.337  13.822 -0.8571 -1.2634  0.5715
  620TMC3    H1 9242   4.067   2.401  14.228  0.5008 -0.1635  0.5942
  620TMC3    H2 9243   3.921   2.717  14.002  1.4487  1.2023 -0.2798
  620TMC3    C7 9244   3.924   2.606  14.229  0.0806 -0.0592  0.3114
  620TMC3    C8 9245   3.826   2.540  13.831 -0.8535  0.1598 -0.2350
  620TMC3    O1 9246   3.966   2.574  14.335  0.2020  0.0791  0.3620
  620TMC3    O2 9247   3.749   2.581  13.920 -0.2010 -0.0319  0.1512
  621MPD2     C 9248   3.989   2.238   9.250  0.4016 -0.6055  0.1716
  621MPD2    C1 9249   4.034   2.195   9.375 -0.3071 -0.2245  0.5641
  621MPD2    C2 9250   4.152   2.249   9.432  0.1392 -0.3950  0.6995
  621MPD2    C3 9251   4.210   2.358   9.371  1.1606 -0.0757  0.1062
  621MPD2    C4 9252   4.167   2.396   9.241  0.1177 -0.3798 -0.1477
  621MPD2    C5 9253   4.062   2.329   9.185  0.6641  0.0097  0.2582
  621MPD2     H 9254   4.176   2.224   9.535 -0.2108 -1.2606  0.5764
  621MPD2    H1 9255   4.213   2.473   9.180 -0.6428 -0.2489 -0.5520
  621MPD2    H2 9256   3.908   2.195   9.192 -1.7116  2.5933  0.7549
  621MPD2    H3 9257   4.050   2.356   9.081 -0.0152  1.6186  0.7589
  621MPD2     N 9258   4.320   2.422   9.439  0.2606 -0.2073  0.2256
  621MPD2    H5 9259   4.367   2.368   9.512 -1.6260 -0.8744  0.9382
  621MPD2    N1 9260   3.974   2.089   9.442  0.4222 -0.8473 -0.4551
  621MPD2    H7 9261   4.022   2.064   9.528 -1.2088  1.7496  1.2265
  622TMC3    C1 9262   3.838   1.908   9.494  0.0001  0.0265 -0.8059
  622TMC3    C2 9263   3.942   1.858   9.573  0.5515  0.4663  0.2546
  622TMC3    C3 9264   3.914   1.740   9.651 -0.5260  0.2164  0.1141
  622TMC3    C4 9265   3.707   1.857   9.499  0.2903 -0.0849  0.1901
  622TMC3    C5 9266   3.688   1.742   9.580 -0.0388  0.7953 -1.3371
  622TMC3    C6 9267   3.790   1.688   9.649  0.1472 -0.7267  0.1492
  622TMC3     C 9268   3.865   2.019   9.399 -0.0967 -1.2125  0.4578
  622TMC3     O 9269   3.778   2.037   9.313 -0.6542  0.1544 -0.1030
  622TMC3     H 9270   4.046   1.889   9.572  0.9705 -0.9886 -1.4457
  622TMC3    H1 9271   3.629   1.896   9.434 -1.0334 -0.3483  1.6255
  622TMC3    H2 9272   3.774   1.599   9.709 -2.3334  1.5267  2.8064
  622TMC3    C7 9273   3.557   1.680   9.587 -0.3883 -0.5714 -0.8937
  622TMC3    C8 9274   4.016   1.692   9.745 -0.8861  0.5775 -0.0890
  622TMC3    O1 9275   3.554   1.564   9.621 -0.2067  0.3911 -0.3978
  622TMC3    O2 9276   4.137   1.713   9.737  0.5725  0.3003 -0.4064
  623MPD2     C 9277   3.091   2.813  15.694 -0.4801  0.7675 -0.3627
  623MPD2    C1 9278   3.002   2.879  15.771  0.6375  0.2162  0.6134
  623MPD2    C2 9279   3.010   2.879  15.913  1.0666  0.2074  0.2249
  623MPD2    C3 9280   3.132   2.824  15.965 -0.1036  0.3336  0.1389
  623MPD2    C4 9281   3.224   2.773  15.878  0.5345  0.0014  0.2623
  623MPD2    C5 9282   3.205   2.768  15.740  0.2824  0.1923  0.8119
  623MPD2     H 9283   2.935   2.936  15.967  1.8393  1.6496 -0.2225
  623MPD2    H1 9284   3.319   2.735  15.913  0.4173 -0.1659  0.4023
  623MPD2    H2 9285   3.083   2.812  15.586  4.5169  4.0015 -0.7644
  623MPD2    H3 9286   3.285   2.723  15.682 -2.6105 -4.0529  0.1706
  623MPD2     N 9287   3.147   2.837  16.105  0.2461 -0.3968 -0.0845
  623MPD2    H5 9288   3.075   2.887  16.156  0.7627 -0.5536  0.7921
  623MPD2    N1 9289   2.897   2.939  15.696 -0.7046 -0.6136 -0.2329
  623MPD2    H7 9290   2.907   2.951  15.596  0.3345 -2.0768 -0.3005
  624TMC3    C1 9291   3.379   2.912  16.501  0.0115  0.7674  0.2044
  624TMC3    C2 9292   3.264   2.946  16.569  0.0975  0.1570 -0.5938
  624TMC3    C3 9293   3.145   2.933  16.500  0.3410  0.3282 -0.3006
  624TMC3    C4 9294   3.379   2.875  16.368 -0.0339  0.0615  0.9238
  624TMC3    C5 9295   3.253   2.863  16.307 -0.3582 -0.0410  0.4814
  624TMC3    C6 9296   3.135   2.893  16.372 -0.2209 -0.6608  0.2198
  624TMC3     C 9297   3.494   2.863  16.579  0.2547 -0.3560 -0.3073
  624TMC3     O 9298   3.462   2.818  16.687 -0.2315  0.1205 -0.1893
  624TMC3     H 9299   3.260   2.968  16.674 -0.6852 -2.7414 -0.0081
  624TMC3    H1 9300   3.464   2.835  16.314 -2.9128 -1.8699 -2.1402
  624TMC3    H2 9301   3.040   2.892  16.320 -0.4075  1.9240  0.5033
  624TMC3    C7 9302   3.263   2.817  16.172  0.8294  0.0823 -0.3741
  624TMC3    C8 9303   3.021   2.948  16.569 -0.7306 -0.3889  1.2283
  624TMC3    O1 9304   3.372   2.773  16.136  0.0154 -0.1294  0.5353
  624TMC3    O2 9305   2.926   2.882  16.529 -0.4139 -0.0825  0.0722
  625MPD2     C 9306   3.451   4.125   0.649 -0.3418 -0.1560  0.0106
  625MPD2    C1 9307   3.501   4.253   0.649 -0.3362 -0.4354  0.7258
  625MPD2    C2 9308   3.628   4.278   0.709 -0.2783  0.0596 -0.2647
  625MPD2    C3 9309   3.715   4.174   0.740 -0.1614 -0.0542  0.2804
  625MPD2    C4 9310   3.657   4.047   0.737  0.1539 -0.4284  0.7785
  625MPD2    C5 9311   3.531   4.028   0.694  0.4914  0.2043  0.4547
  625MPD2     H 9312   3.662   4.379   0.728 -1.1042  0.3500 -0.3328
  625MPD2    H1 9313   3.707   3.955   0.766  2.5674  0.3540 -0.8618
  625MPD2    H2 9314   3.356   4.100   0.602 -0.1022 -0.8271 -0.1200
  625MPD2    H3 9315   3.496   3.925   0.695  2.8097 -0.5806  2.0106
  625MPD2     N 9316   3.841   4.195   0.796 -0.4407  0.2076 -0.4251
  625MPD2    H5 9317   3.863   4.294   0.801  1.5881 -0.2286 -0.7654
  625MPD2    N1 9318   3.414   4.365   0.623  0.4557  0.2242  0.1652
  625MPD2    H7 9319   3.449   4.455   0.652  3.5453 -1.0347  0.3624
  626TMC3    C1 9320   3.233   4.480   0.519  0.4538 -0.3698  0.0101
  626TMC3    C2 9321   3.165   4.478   0.402 -0.2662 -0.1762  0.3166
  626TMC3    C3 9322   3.067   4.572   0.385  0.0180 -0.8012  0.6753
  626TMC3    C4 9323   3.195   4.560   0.626 -0.3711  0.6213  0.0610
  626TMC3    C5 9324   3.087   4.641   0.611 -0.6437 -0.3738  0.6885
  626TMC3    C6 9325   3.030   4.657   0.488 -0.0948  0.0292  0.1128
  626TMC3     C 9326   3.303   4.355   0.539  0.1075  0.2055 -0.0595
  626TMC3     O 9327   3.263   4.265   0.469  0.1404  0.3607  0.3986
  626TMC3     H 9328   3.185   4.412   0.318  1.0488 -0.9809  1.2599
  626TMC3    H1 9329   3.238   4.549   0.725  0.4649 -0.0795 -0.3824
  626TMC3    H2 9330   2.956   4.735   0.470 -2.0989 -2.1524 -1.0932
  626TMC3    C7 9331   3.019   4.688   0.731  0.6549  0.0017 -0.3088
  626TMC3    C8 9332   3.023   4.593   0.251  0.1103 -0.6552 -0.5484
  626TMC3    O1 9333   3.068   4.659   0.836  0.0398  0.1251  0.1484
  626TMC3    O2 9334   3.048   4.509   0.165  0.0659 -0.6581  0.0254
  627MPD2     C 9335   2.026   3.965  14.164  0.9904  0.1691  0.2151
  627MPD2    C1 9336   1.989   3.984  14.295  0.5575 -0.8402  0.2147
  627MPD2    C2 9337   1.907   3.890  14.353 -0.0332 -0.7110 -0.0659
  627MPD2    C3 9338   1.870   3.774  14.284  0.1421 -0.1646 -0.2694
  627MPD2    C4 9339   1.899   3.762  14.152  0.1484  0.3592 -0.8256
  627MPD2    C5 9340   1.971   3.865  14.094 -0.0397  0.1706 -0.0587
  627MPD2     H 9341   1.888   3.912  14.458 -2.9094 -1.8274 -0.3613
  627MPD2    H1 9342   1.867   3.676  14.095 -3.2675  1.1263 -0.0198
  627MPD2    H2 9343   2.096   4.026  14.108  2.0439 -1.5521 -0.3499
  627MPD2    H3 9344   1.994   3.847  13.989 -3.0481  0.1639 -0.7327
  627MPD2     N 9345   1.787   3.681  14.348  0.0341 -0.0468 -0.4608
  627MPD2    H5 9346   1.772   3.698  14.448  1.4905  0.4553 -0.3310
  627MPD2    N1 9347   2.058   4.078  14.378  0.3302 -0.1417 -0.4393
  627MPD2    H7 9348   2.053   4.069  14.478 -0.2766 -0.3485 -0.4899
  628TMC3    C1 9349   2.199   4.270  14.413 -0.4765 -0.0706 -0.3787
  628TMC3    C2 9350   2.283   4.221  14.505 -0.0676 -0.4235  0.3439
  628TMC3    C3 9351   2.374   4.304  14.558  0.0686 -0.4894  0.6730
  628TMC3    C4 9352   2.209   4.399  14.367 -0.0316  0.3215 -0.4767
  628TMC3    C5 9353   2.306   4.482  14.420 -0.6043 -0.0341 -0.3008
  628TMC3    C6 9354   2.382   4.433  14.522 -0.5870  0.2804  0.3376
  628TMC3     C 9355   2.115   4.186  14.319 -0.1253 -0.1713 -0.0429
  628TMC3     O 9356   2.078   4.231  14.207  0.2618 -0.6534 -0.4205
  628TMC3     H 9357   2.278   4.119  14.539 -2.4604  0.0256  1.3183
  628TMC3    H1 9358   2.140   4.446  14.299  0.5996  0.6747 -0.8775
  628TMC3    H2 9359   2.469   4.489  14.553  0.5555 -0.6398 -1.2006
  628TMC3    C7 9360   2.331   4.620  14.387  0.7380 -0.0069  0.0512
  628TMC3    C8 9361   2.466   4.258  14.661 -1.0540 -0.3636 -0.3845
  628TMC3    O1 9362   2.411   4.683  14.455 -0.0321 -0.2338  0.7754
  628TMC3    O2 9363   2.572   4.321  14.669 -0.1588 -0.2606  0.0484
  629MPD2     C 9364   0.483   2.388  16.797 -0.2808  0.6547 -0.1822
  629MPD2    C1 9365   0.455   2.495  16.721 -0.2972  0.6063 -0.8578
  629MPD2    C2 9366   0.340   2.480  16.642  0.4033  0.9454  0.2310
  629MPD2    C3 9367   0.274   2.365  16.621  0.2270 -1.0035  0.7161
  629MPD2    C4 9368   0.312   2.257  16.695 -0.5812 -0.6085 -0.6135
  629MPD2    C5 9369   0.415   2.272  16.787 -0.1579  0.3101 -0.5049
  629MPD2     H 9370   0.302   2.567  16.589 -0.4561 -0.3457 -1.2663
  629MPD2    H1 9371   0.262   2.161  16.695  0.0824 -0.9646 -2.1294
  629MPD2    H2 9372   0.557   2.384  16.876  0.6050 -0.2702 -1.0686
  629MPD2    H3 9373   0.440   2.184  16.844  0.5135  0.4312 -0.6219
  629MPD2     N 9374   0.150   2.368  16.553  0.1508  0.2634 -0.5781
  629MPD2    H5 9375   0.117   2.459  16.523 -1.7048 -0.1799  0.0674
  629MPD2    N1 9376   0.530   2.610  16.731  0.5563 -0.6414 -0.1413
  629MPD2    H7 9377   0.608   2.607  16.796  2.2104 -2.7657 -2.2295
  630TMC3    C1 9378   0.619   2.828  16.693 -0.1550  0.4104 -0.3773
  630TMC3    C2 9379   0.616   2.940  16.618  0.0417 -0.3855  0.4467
  630TMC3    C3 9380   0.656   3.058  16.682 -0.5807 -0.2249 -0.7373
  630TMC3    C4 9381   0.660   2.825  16.826  0.3551  0.0594  0.1103
  630TMC3    C5 9382   0.716   2.939  16.879  0.5704  0.0100  0.6094
  630TMC3    C6 9383   0.709   3.052  16.810 -0.0378  0.4645  0.2154
  630TMC3     C 9384   0.523   2.719  16.648  0.1475 -0.0212  0.0103
  630TMC3     O 9385   0.457   2.735  16.546  0.3535 -0.6814  0.0002
  630TMC3     H 9386   0.581   2.944  16.515  0.0797  0.2151  0.4541
  630TMC3    H1 9387   0.690   2.732  16.871 -0.3581 -0.2941 -0.1418
  630TMC3    H2 9388   0.722   3.149  16.857 -2.5254 -1.0116  3.9553
  630TMC3    C7 9389   0.793   2.926  17.001  0.4504  0.4999 -0.0027
  630TMC3    C8 9390   0.689   3.176  16.601 -0.6090 -0.8975  0.5033
  630TMC3    O1 9391   0.785   2.822  17.063  0.3349 -0.0306 -0.0477
  630TMC3    O2 9392   0.749   3.266  16.650 -0.7407 -0.6054 -0.1464
  631MPD2     C 9393   3.520   2.956  15.588  0.6600  0.0340 -0.2332
  631MPD2    C1 9394   3.603   3.038  15.515  0.5733  0.7966 -0.0051
  631MPD2    C2 9395   3.739   2.997  15.508 -0.2560  0.5101 -0.7738
  631MPD2    C3 9396   3.788   2.887  15.571 -0.9404  0.3337 -0.0217
  631MPD2    C4 9397   3.696   2.799  15.628  0.3561 -0.0584  0.6010
  631MPD2    C5 9398   3.564   2.838  15.642 -0.1661 -0.0284 -0.7342
  631MPD2     H 9399   3.810   3.065  15.462  1.5344 -0.5985  0.3704
  631MPD2    H1 9400   3.724   2.703  15.670 -1.0869 -1.8274 -2.4593
  631MPD2    H2 9401   3.419   2.992  15.600  0.4356 -0.9261  0.7643
  631MPD2    H3 9402   3.496   2.777  15.700  0.6911 -1.4300 -1.1963
  631MPD2     N 9403   3.916   2.839  15.527 -0.3832  0.0753  0.5817
  631MPD2    H5 9404   3.967   2.903  15.468 -2.1568  1.4212  0.4935
  631MPD2    N1 9405   3.551   3.154  15.445  0.0398  0.5621  0.1523
  631MPD2    H7 9406   3.452   3.175  15.439 -0.2872 -1.4560 -1.6004
  632TMC3    C1 9407   3.552   3.295  15.258  0.0888  0.2927 -0.5802
  632TMC3    C2 9408   3.423   3.326  15.295  0.4735  0.3625  0.7088
  632TMC3    C3 9409   3.345   3.363  15.192  0.5105  0.6146 -0.4258
  632TMC3    C4 9410   3.598   3.277  15.134 -0.5079 -0.9189  0.3133
  632TMC3    C5 9411   3.507   3.305  15.033 -0.0202 -0.1719 -0.2577
  632TMC3    C6 9412   3.379   3.341  15.060  0.3767  0.2917  0.2095
  632TMC3     C 9413   3.627   3.216  15.351 -0.1755 -0.2111  0.0128
  632TMC3     O 9414   3.741   3.198  15.317 -0.5405 -0.1145  0.5336
  632TMC3     H 9415   3.402   3.350  15.398 -1.2999  1.3547  0.1249
  632TMC3    H1 9416   3.699   3.243  15.117 -0.1916 -0.2687  0.8463
  632TMC3    H2 9417   3.313   3.356  14.976 -0.2984 -0.1752  0.6506
  632TMC3    C7 9418   3.515   3.233  14.909 -0.1339 -0.1446 -0.3157
  632TMC3    C8 9419   3.229   3.446  15.235  0.3097 -0.3860  0.4444
  632TMC3    O1 9420   3.449   3.260  14.810 -0.9774  0.0754 -0.8862
  632TMC3    O2 9421   3.217   3.459  15.357 -0.0682  0.3978 -0.0119
  633MPD2     C 9422   3.285   1.141  17.721 -0.0865  0.1368  0.4153
  633MPD2    C1 9423   3.259   1.065  17.605 -0.7294 -0.3939  0.9314
  633MPD2    C2 9424   3.235   0.932  17.630  0.5068  0.6569 -0.1647
  633MPD2    C3 9425   3.233   0.877   0.002 -0.3693  0.0856 -0.3650
  633MPD2    C4 9426   3.265   0.954   0.115  0.2124 -0.3253  0.2088
  633MPD2    C5 9427   3.293   1.087   0.100 -0.1220 -0.7508  0.5381
  633MPD2     H 9428   3.231   0.866  17.544 -1.4249 -0.4113  0.7465
  633MPD2    H1 9429   3.282   0.915   0.215  2.2895  0.2161  0.0816
  633MPD2    H2 9430   3.300   1.248  17.713 -2.8499  0.4431 -0.8138
  633MPD2    H3 9431   3.302   1.152   0.186 -3.0504  0.9234 -0.4431
  633MPD2     N 9432   3.194   0.738   0.025  1.0484 -0.6435 -0.0389
  633MPD2    H5 9433   3.226   0.691   0.109  1.5970  0.2127  0.2320
  633MPD2    N1 9434   3.251   1.113  17.473  0.2015  0.0564  0.1549
  633MPD2    H7 9435   3.228   1.053  17.395  1.6178  1.7961 -1.5996
  634TMC3    C1 9436   3.272   1.261  17.288  0.1193 -0.1833 -0.7882
  634TMC3    C2 9437   3.340   1.166  17.211 -0.7370 -0.0490 -0.2733
  634TMC3    C3 9438   3.372   1.200  17.086 -0.9358 -0.0310  0.7556
  634TMC3    C4 9439   3.249   1.389  17.243 -0.0028  0.0461  0.2026
  634TMC3    C5 9440   3.300   1.422  17.118  0.1213  0.5198  0.0034
  634TMC3    C6 9441   3.354   1.325  17.032  0.9069 -0.3172 -0.3785
  634TMC3     C 9442   3.258   1.246  17.431  0.4187 -0.0664 -0.0852
  634TMC3     O 9443   3.272   1.340  17.512  0.0603  0.4617  0.7755
  634TMC3     H 9444   3.361   1.064  17.238 -0.6842  0.5316  1.8699
  634TMC3    H1 9445   3.188   1.461  17.296 -0.2810  0.0112 -0.0674
  634TMC3    H2 9446   3.398   1.352  16.937 -0.8666  1.4076 -0.7009
  634TMC3    C7 9447   3.248   1.543  17.045 -0.4801  0.4507  0.2895
  634TMC3    C8 9448   3.378   1.088  16.990 -0.0258 -0.2488 -0.7354
  634TMC3    O1 9449   3.276   1.540  16.930  0.0052  0.2277 -0.3638
  634TMC3    O2 9450   3.350   0.977  17.033  0.7273 -0.1723 -0.0873
  635TMC3    C1 9451   3.359   2.111   0.405 -0.2612  0.4791  0.0741
  635TMC3    C2 9452   3.365   1.980   0.418 -0.1615 -0.2286 -0.4698
  635TMC3    C3 9453   3.239   1.912   0.432  0.1709  0.3409  0.7021
  635TMC3    C4 9454   3.244   2.186   0.398  0.0803 -0.4286  0.0932
  635TMC3    C5 9455   3.127   2.119   0.398  0.1983 -0.5455  0.0140
  635TMC3    C6 9456   3.118   1.980   0.424 -0.0051  0.0530 -0.5585
  635TMC3     C 9457   3.480   2.182   0.360  0.0307 -0.6189  0.7387
  635TMC3     O 9458   3.482   2.295   0.399 -0.3817  0.5033 -0.1286
  635TMC3     H 9459   3.454   1.918   0.410  0.2041  0.1779  0.4372
  635TMC3    H1 9460   3.248   2.288   0.362 -1.5739 -0.0891  0.8848
  635TMC3    H2 9461   3.021   1.936   0.411 -0.1676 -0.0305  0.8880
  635TMC3    C7 9462   3.002   2.202   0.410  0.0323  0.0292 -0.2676
  635TMC3    C8 9463   3.243   1.775   0.478  0.6224 -0.2174  0.0158
  635TMC3    O1 9464   3.001   2.314   0.362  0.3487 -0.1090  0.2362
  635TMC3    O2 9465   3.340   1.707   0.448  0.0194 -0.4212 -0.9158
  636MPD2     C 9466   4.323   1.428  16.281  0.8131  0.8835 -0.2104
  636MPD2    C1 9467   4.231   1.415  16.386  0.2225 -0.3860  0.0157
  636MPD2    C2 9468   4.176   1.286  16.405  0.1718 -0.2628 -0.7336
  636MPD2    C3 9469   4.203   1.178  16.324 -0.1702 -0.3277 -0.3654
  636MPD2    C4 9470   4.284   1.202  16.215 -0.2009 -0.5237  0.4537
  636MPD2    C5 9471   4.340   1.322  16.203  0.2192  0.3993 -0.2581
  636MPD2     H 9472   4.104   1.273  16.484  2.3838 -0.3614  1.2634
  636MPD2    H1 9473   4.307   1.127  16.139  1.9053  0.7372 -0.1614
  636MPD2    H2 9474   4.361   1.525  16.250 -1.0165  1.1407 -1.7004
  636MPD2    H3 9475   4.403   1.348  16.118 -2.9425 -0.1498 -2.7906
  636MPD2     N 9476   4.142   1.054  16.346 -0.3849  0.5195 -0.0674
  636MPD2    H5 9477   4.074   1.047  16.421  0.3745 -2.0673  0.3722
  636MPD2    N1 9478   4.186   1.522  16.471  0.2849 -0.0684 -0.0703
  636MPD2    H7 9479   4.133   1.503  16.556 -0.1962  0.9594 -0.1347
  637TMC3    C1 9480   4.101   0.822  16.322 -0.5616  0.9263  0.2054
  637TMC3    C2 9481   4.071   0.826  16.456  0.3847 -0.6053  0.7465
  637TMC3    C3 9482   4.104   0.716  16.533  0.7940  0.5024  0.3893
  637TMC3    C4 9483   4.153   0.710  16.261 -0.5280  0.4171  0.9388
  637TMC3    C5 9484   4.165   0.596  16.332 -0.0469 -0.0378 -0.4305
  637TMC3    C6 9485   4.139   0.601  16.469 -0.3078  0.2148  0.5709
  637TMC3     C 9486   4.161   0.936  16.269  0.0927 -0.0197 -0.1374
  637TMC3     O 9487   4.229   0.930  16.170 -0.2747 -0.0310  0.2677
  637TMC3     H 9488   4.009   0.901  16.505  0.8613  1.5991 -1.9991
  637TMC3    H1 9489   4.161   0.692  16.155 -3.1589 -1.1972  1.0381
  637TMC3    H2 9490   4.137   0.509  16.526 -0.7174 -0.7978 -1.0897
  637TMC3    C7 9491   4.294   0.524  16.312  0.3998 -0.2743 -0.1999
  637TMC3    C8 9492   4.208   0.756  16.629 -0.4343 -0.4536  0.3392
  637TMC3    O1 9493   4.369   0.575  16.228  0.8766  0.3139  0.4402
  637TMC3    O2 9494   4.246   0.874  16.632 -0.2516 -0.5339 -0.3581
  638MPD2     C 9495   3.972   4.382  13.758 -0.1959  0.0662 -0.5999
  638MPD2    C1 9496   4.050   4.395  13.870  0.3900 -0.0930 -0.7068
  638MPD2    C2 9497   3.996   4.385  14.001  0.3014  0.8870 -0.0196
  638MPD2    C3 9498   3.862   4.366  14.008  0.9528  0.0525  0.1399
  638MPD2    C4 9499   3.782   4.363  13.898  0.1155 -0.0890 -0.2041
  638MPD2    C5 9500   3.839   4.375  13.774 -0.3143  0.6589 -0.8473
  638MPD2     H 9501   4.052   4.390  14.093 -2.1962 -2.0554  1.6525
  638MPD2    H1 9502   3.675   4.354  13.910 -0.1007 -0.6123 -2.5393
  638MPD2    H2 9503   4.013   4.411  13.662  1.6347 -1.8904 -0.4132
  638MPD2    H3 9504   3.772   4.373  13.689 -1.3737  2.4107 -0.0617
  638MPD2     N 9505   3.810   4.339  14.138  0.1489 -0.5872  0.4664
  638MPD2    H5 9506   3.868   4.351  14.220  0.1016  0.8051  0.2976
  638MPD2    N1 9507   4.186   4.399  13.850 -0.2659  0.4477  0.4441
  638MPD2    H7 9508   4.211   4.379  13.754  3.7845  0.5234  1.4656
  639TMC3    C1 9509   3.659   4.294  14.306 -0.1816 -0.1688  0.2880
  639TMC3    C2 9510   3.604   4.185  14.360  0.0543 -0.2669  0.2021
  639TMC3    C3 9511   3.568   4.189  14.495 -0.9000 -0.2001  1.0816
  639TMC3    C4 9512   3.675   4.410  14.375  0.3658 -0.2962  0.2418
  639TMC3    C5 9513   3.630   4.404  14.509  0.1511 -0.2082  0.5664
  639TMC3    C6 9514   3.581   4.294  14.575 -0.8689 -0.1441  0.1794
  639TMC3     C 9515   3.685   4.289  14.163  0.1123  0.1028  0.2420
  639TMC3     O 9516   3.609   4.217  14.097 -0.3754  0.0273 -0.9896
  639TMC3     H 9517   3.579   4.096  14.304 -1.0942  0.8085 -0.9905
  639TMC3    H1 9518   3.720   4.498  14.332  0.2045  0.9915  2.7167
  639TMC3    H2 9519   3.553   4.301  14.680  2.4886  3.3015  0.8395
  639TMC3    C7 9520   3.710   4.485  14.596  0.5783 -0.3402  0.5598
  639TMC3    C8 9521   3.565   4.060  14.556  0.3620  0.3665  0.8107
  639TMC3    O1 9522   3.649   4.522  14.695 -0.3266  0.0305 -0.7094
  639TMC3    O2 9523   3.610   3.965  14.490 -0.4221  0.0382  0.0864
  640MPD2     C 9524   3.206   2.999   9.370  0.4153 -0.2749 -0.0491
  640MPD2    C1 9525   3.335   2.974   9.403 -0.2844 -0.4338 -0.1945
  640MPD2    C2 9526   3.364   2.930   9.531  0.2731 -0.1989 -0.4123
  640MPD2    C3 9527   3.260   2.893   9.616  0.6321  0.4616 -0.4549
  640MPD2    C4 9528   3.131   2.912   9.580 -0.4090  0.1935  0.4445
  640MPD2    C5 9529   3.109   2.970   9.457 -0.1410 -0.4866 -0.3148
  640MPD2     H 9530   3.467   2.900   9.549  0.4112  0.2948 -0.3680
  640MPD2    H1 9531   3.041   2.885   9.634  0.1408 -1.7062  0.4178
  640MPD2    H2 9532   3.175   3.042   9.276 -0.8182  0.4647  0.6964
  640MPD2    H3 9533   3.007   2.994   9.430 -0.2561 -0.9340 -0.2832
  640MPD2     N 9534   3.274   2.848   9.750 -0.1386  0.5423 -0.2943
  640MPD2    H5 9535   3.190   2.844   9.808 -1.2764  3.1665 -1.7161
  640MPD2    N1 9536   3.428   3.006   9.302 -0.6151  0.0909  0.3308
  640MPD2    H7 9537   3.394   3.048   9.216  1.6109 -0.9019 -1.0304
  641TMC3    C1 9538   3.653   3.042   9.224 -0.1173 -0.0912  0.5397
  641TMC3    C2 9539   3.788   2.994   9.218 -0.2009 -0.0416  0.0588
  641TMC3    C3 9540   3.883   3.070   9.160 -0.2630 -0.5743  0.1386
  641TMC3    C4 9541   3.615   3.165   9.176  0.3392 -0.7715 -0.1523
  641TMC3    C5 9542   3.717   3.246   9.127 -0.1565 -0.1783 -0.1761
  641TMC3    C6 9543   3.845   3.194   9.112 -0.1087  0.0449 -0.3895
  641TMC3     C 9544   3.560   2.969   9.313 -0.0758  0.2052  0.1317
  641TMC3     O 9545   3.602   2.863   9.361 -0.5028 -0.6696  0.1552
  641TMC3     H 9546   3.811   2.899   9.265  0.5074  0.5002  0.7941
  641TMC3    H1 9547   3.516   3.206   9.193  0.7718  1.4090 -2.7947
  641TMC3    H2 9548   3.922   3.246   9.057 -0.1049  0.8263  0.3452
  641TMC3    C7 9549   3.686   3.387   9.097 -0.0178  0.0909 -0.4670
  641TMC3    C8 9550   4.024   3.019   9.161  0.0893 -0.0987  0.3306
  641TMC3    O1 9551   3.567   3.413   9.099 -0.5325  0.2328 -0.0857
  641TMC3    O2 9552   4.043   2.903   9.195 -0.0852 -0.0872  0.2709
  642TMC3    C1 9553   1.102   3.759  12.164 -0.1865 -0.0452 -0.0824
  642TMC3    C2 9554   1.183   3.765  12.054  0.1840 -0.0737  0.5955
  642TMC3    C3 9555   1.166   3.663  11.966 -0.2260  0.4724 -0.4940
  642TMC3    C4 9556   1.012   3.664  12.190 -0.0733 -1.1055 -0.6020
  642TMC3    C5 9557   0.988   3.578  12.087  0.8570  0.1638  0.4868
  642TMC3    C6 9558   1.061   3.582  11.970  0.0652 -0.0965 -0.0477
  642TMC3     C 9559   1.101   3.882  12.247  0.5205 -0.4212  0.4145
  642TMC3     O 9560   1.207   3.942  12.272  0.0539 -0.1224 -0.1490
  642TMC3     H 9561   1.248   3.850  12.035 -1.6204  0.6978 -2.1636
  642TMC3    H1 9562   0.953   3.664  12.281  0.9728 -0.4574  0.0838
  642TMC3    H2 9563   1.046   3.507  11.893 -0.2100 -1.6614  1.5437
  642TMC3    C7 9564   0.922   3.451  12.117  0.2263  0.3976  0.1673
  642TMC3    C8 9565   1.265   3.652  11.863 -0.3631 -1.0797  0.1458
  642TMC3    O1 9566   0.914   3.376  12.022 -0.0684  0.2677  1.4240
  642TMC3    O2 9567   1.208   3.618  11.757  0.4865 -0.1571  0.2422
  643TMC3    C1 9568   0.447   3.715   0.170  0.0283  0.1988  0.5513
  643TMC3    C2 9569   0.329   3.714   0.096 -0.0462 -0.0733 -0.3877
  643TMC3    C3 9570   0.306   3.604   0.005  0.4831  0.1697  0.3129
  643TMC3    C4 9571   0.537   3.621   0.145 -0.6236  0.3589 -0.4934
  643TMC3    C5 9572   0.530   3.527   0.041  0.5227 -0.1851 -0.0582
  643TMC3    C6 9573   0.403   3.514  17.731  0.4671  0.0103  0.0157
  643TMC3     C 9574   0.450   3.793   0.287  0.5352 -0.5114  0.3093
  643TMC3     O 9575   0.387   3.899   0.278  0.2222  0.4836 -0.0556
  643TMC3     H 9576   0.254   3.784   0.131  0.5544 -0.1937  1.1589
  643TMC3    H1 9577   0.634   3.633   0.192 -0.6502 -0.0833 -0.3233
  643TMC3    H2 9578   0.400   3.442  17.650  0.4910 -1.1688  1.0627
  643TMC3    C7 9579   0.609   3.563  17.673  0.1426  0.9747 -0.1489
  643TMC3    C8 9580   0.224   3.625  17.633 -0.4445 -0.3878  0.1802
  643TMC3    O1 9581   0.629   3.684  17.659 -0.0869  0.4346 -0.2743
  643TMC3    O2 9582   0.180   3.530  17.569 -0.3302 -0.3206  0.1503
  644MPD2     C 9583   4.328   3.105   9.612  0.4446  0.3457 -0.6179
  644MPD2    C1 9584   4.409   3.219   9.581 -0.0600  0.5021 -0.2824
  644MPD2    C2 9585   4.345   3.327   9.514 -1.6020 -0.0184 -0.2791
  644MPD2    C3 9586   4.206   3.328   9.488  0.1235  0.0292  0.1291
  644MPD2    C4 9587   4.128   3.220   9.527 -0.4098 -0.7075 -0.5948
  644MPD2    C5 9588   4.195   3.116   9.579  0.4986  0.1851 -0.0179
  644MPD2     H 9589   4.399   3.415   9.483  0.8336 -1.5387 -0.3476
  644MPD2    H1 9590   4.020   3.205   9.520 -0.2466 -2.4948  0.6459
  644MPD2    H2 9591   4.361   3.015   9.662 -2.4505 -0.5112 -0.2664
  644MPD2    H3 9592   4.134   3.028   9.599 -1.0441  1.1315 -0.5364
  644MPD2     N 9593   4.151   3.450   9.441  0.1210 -0.1272  0.5033
  644MPD2    H5 9594   4.205   3.536   9.441  0.8213 -0.5626  0.8600
  644MPD2    N1 9595   4.546   3.212   9.614  0.0934  0.6027 -0.2041
  644MPD2    H7 9596   4.572   3.143   9.684 -0.1732 -0.8201 -1.5064
  645TMC3    C1 9597   3.965   3.602   9.411  0.2734 -0.2955 -0.5072
  645TMC3    C2 9598   4.043   3.707   9.360  0.1927 -0.7437  0.2996
  645TMC3    C3 9599   3.998   3.830   9.355  0.2343  0.4197  0.0532
  645TMC3    C4 9600   3.841   3.627   9.469 -0.1975 -0.6540  0.7327
  645TMC3    C5 9601   3.791   3.750   9.450 -0.1203 -0.1352 -0.4482
  645TMC3    C6 9602   3.871   3.852   9.401 -0.3738  0.1134  0.3969
  645TMC3     C 9603   4.014   3.463   9.417 -0.2903  0.3401  0.5160
  645TMC3     O 9604   3.930   3.375   9.423  0.1157  0.3962 -0.2503
  645TMC3     H 9605   4.139   3.673   9.321  0.8824  1.2882  0.2510
  645TMC3    H1 9606   3.794   3.541   9.514 -3.0441  0.0863 -0.8141
  645TMC3    H2 9607   3.831   3.953   9.401  0.7870  0.5720  0.9709
  645TMC3    C7 9608   3.701   3.789   9.554  0.0610 -0.6969 -0.2684
  645TMC3    C8 9609   4.077   3.939   9.297  0.1468  0.2998  0.0782
  645TMC3    O1 9610   3.713   3.888   9.624  0.0407  0.1995  0.2213
  645TMC3    O2 9611   4.025   4.052   9.286 -0.0984 -0.2497  0.3729
  646MPD2     C 9612   4.324   2.757  15.018 -0.0647  0.1559 -0.4956
  646MPD2    C1 9613   4.400   2.849  14.956 -0.1967 -0.0651  0.5533
  646MPD2    C2 9614   4.340   2.974  14.932  0.4020  0.1534 -0.0095
  646MPD2    C3 9615   4.207   3.000  14.963  0.4801  0.2157  0.0162
  646MPD2    C4 9616   4.133   2.905  15.029 -0.2050  0.0049  0.2056
  646MPD2    C5 9617   4.196   2.786  15.058  0.4038 -0.0587  0.0061
  646MPD2     H 9618   4.401   3.058  14.900  1.0500 -0.9866 -1.7629
  646MPD2    H1 9619   4.027   2.917  15.048 -0.0279  0.6207  0.7914
  646MPD2    H2 9620   4.362   2.658  15.039 -2.8058 -0.9919 -0.9126
  646MPD2    H3 9621   4.134   2.702  15.086 -0.3722  0.5629  0.1698
  646MPD2     N 9622   4.151   3.129  14.929  0.5408 -0.5751 -0.5566
  646MPD2    H5 9623   4.210   3.184  14.868  0.0395  0.9601  0.3512
  646MPD2    N1 9624   4.527   2.815  14.909  0.3918 -1.0211  0.3325
  646MPD2    H7 9625   4.557   2.719  14.918  0.3892 -1.3279 -2.7685
  647TMC3    C1 9626   4.721   2.815  14.772  0.6840 -0.4231  0.6995
  647TMC3    C2 9627   4.706   2.688  14.721  0.0766 -0.6871 -0.0723
  647TMC3    C3 9628   0.078   2.620  14.682 -0.0102 -0.3967 -0.2427
  647TMC3    C4 9629   0.102   2.875  14.762  0.5506  0.0819 -0.9010
  647TMC3    C5 9630   0.209   2.802  14.722  0.3478  0.4572  0.2467
  647TMC3    C6 9631   0.202   2.675  14.681  0.5724  0.1585  0.3652
  647TMC3     C 9632   4.612   2.891  14.830 -0.0419 -0.4440  0.0508
  647TMC3     O 9633   4.608   3.010  14.811 -0.4843  0.5473  0.9432
  647TMC3     H 9634   4.610   2.641  14.742 -0.0613 -2.2226 -4.1257
  647TMC3    H1 9635   0.113   2.978  14.796 -0.4727 -0.0682 -0.1100
  647TMC3    H2 9636   0.288   2.608  14.680  0.3123 -0.1474 -0.8331
  647TMC3    C7 9637   0.328   2.850  14.781 -0.1654  0.3940 -0.8994
  647TMC3    C8 9638   0.083   2.481  14.726 -0.0976  0.8817 -0.0780
  647TMC3    O1 9639   0.326   2.876  14.900  0.0305  0.3466  0.4844
  647TMC3    O2 9640   0.151   2.453  14.822 -0.5611 -0.4213  0.4313
  648TMC3    C1 9641   3.747   1.281  16.448 -0.2813  0.8762 -0.4148
  648TMC3    C2 9642   3.770   1.149  16.429 -0.4974 -0.8940 -0.1259
  648TMC3    C3 9643   3.727   1.095  16.307 -0.2445  0.4862  0.4656
  648TMC3    C4 9644   3.708   1.363  16.344 -0.1693  0.1421 -0.2888
  648TMC3    C5 9645   3.671   1.310  16.227  0.3193 -0.3893 -0.1490
  648TMC3    C6 9646   3.683   1.172  16.197 -0.0769 -0.2737 -0.1875
  648TMC3     C 9647   3.737   1.322  16.582  0.4386 -0.0069 -0.3368
  648TMC3     O 9648   3.748   1.442  16.589 -0.2776 -0.2571 -0.0571
  648TMC3     H 9649   3.801   1.083  16.508  2.1293 -0.5492 -0.8807
  648TMC3    H1 9650   3.691   1.467  16.370  2.0742  0.2772  0.6112
  648TMC3    H2 9651   3.637   1.131  16.108  2.0135 -1.8917 -0.4969
  648TMC3    C7 9652   3.594   1.397  16.139 -0.5902 -0.5004 -0.4842
  648TMC3    C8 9653   3.703   0.952  16.308  0.6150  0.3726  0.5397
  648TMC3    O1 9654   3.590   1.366  16.021 -0.1662  0.4213 -0.1110
  648TMC3    O2 9655   3.688   0.894  16.417  0.8373 -0.6720 -0.7116
  649TMC3    C1 9656   2.715   1.718  13.161  0.5713  0.2885  0.7649
  649TMC3    C2 9657   2.851   1.736  13.158 -0.5320  0.8294 -0.1713
  649TMC3    C3 9658   2.928   1.672  13.249  0.3066 -0.6546 -0.0926
  649TMC3    C4 9659   2.662   1.649  13.268  0.5691  0.6955 -0.3396
  649TMC3    C5 9660   2.747   1.584  13.352 -0.0639  0.4744  0.4225
  649TMC3    C6 9661   2.880   1.591  13.350  0.7099  0.0063  0.0388
  649TMC3     C 9662   2.621   1.788  13.085  0.0767  0.1286  0.5490
  649TMC3     O 9663   2.513   1.817  13.133 -0.4862  0.0037 -0.4094
  649TMC3     H 9664   2.891   1.793  13.075  0.6904 -0.0540 -0.1890
  649TMC3    H1 9665   2.555   1.633  13.279  0.8381 -1.0028 -0.1328
  649TMC3    H2 9666   2.940   1.548  13.429  2.7304  0.1429 -1.4183
  649TMC3    C7 9667   2.673   1.532  13.473 -0.3431  1.1478  1.2277
  649TMC3    C8 9668   3.076   1.682  13.246  0.4301 -0.5118 -0.2765
  649TMC3    O1 9669   2.556   1.563  13.484  0.0338 -0.3929  0.2939
  649TMC3    O2 9670   3.142   1.622  13.331  0.3353  0.3347 -0.1026
  650TMC3    C1 9671   0.417   2.926  12.712  0.1400  0.6000  0.2999
  650TMC3    C2 9672   0.428   3.060  12.706 -0.4608 -0.1857  0.4394
  650TMC3    C3 9673   0.376   3.123  12.594  0.2154  0.2926  0.8477
  650TMC3    C4 9674   0.351   2.861  12.611 -0.6525 -0.2717  0.0835
  650TMC3    C5 9675   0.287   2.928  12.504 -0.0266  0.2110  0.1816
  650TMC3    C6 9676   0.303   3.065  12.491  0.4841 -0.0799  0.2272
  650TMC3     C 9677   0.463   2.848  12.831  0.6999 -0.2813 -0.4506
  650TMC3     O 9678   0.479   2.908  12.939 -0.3235 -0.2108 -0.5076
  650TMC3     H 9679   0.498   3.107  12.775 -1.2564  0.0115  1.1145
  650TMC3    H1 9680   0.347   2.753  12.602 -2.3776 -0.3097  1.3114
  650TMC3    H2 9681   0.254   3.139  12.428 -0.7123 -1.3716 -0.3549
  650TMC3    C7 9682   0.201   2.844  12.421  0.0498  0.3189  0.3491
  650TMC3    C8 9683   0.342   3.257  12.616 -0.4272  0.5221  0.1536
  650TMC3    O1 9684   0.198   2.723  12.441 -0.0810 -0.7977  0.2867
  650TMC3    O2 9685   0.350   3.318  12.514  0.1724 -0.0292 -0.1969
  651MPD2     C 9686   3.967   0.151  10.178 -0.0081  0.4930  0.1011
  651MPD2    C1 9687   3.960   0.279  10.215 -0.0939  0.2661  0.6479
  651MPD2    C2 9688   4.070   0.366  10.208 -0.9917  0.2230  0.3568
  651MPD2    C3 9689   4.187   0.316  10.158  0.2805  0.6316 -0.4513
  651MPD2    C4 9690   4.194   0.182  10.106  0.2625  0.1755  0.5473
  651MPD2    C5 9691   4.078   0.103  10.120 -1.0550  0.5130  0.4179
  651MPD2     H 9692   4.051   0.472  10.212  2.2370  0.8426 -0.7641
  651MPD2    H1 9693   4.271   0.138  10.044  0.1723  0.5807  0.1457
  651MPD2    H2 9694   3.882   0.084  10.172  0.0943  0.5786 -2.0526
  651MPD2    H3 9695   4.079   0.004  10.075  0.3197  1.0543 -0.7190
  651MPD2     N 9696   4.295   0.405  10.133 -0.6538  0.1164  0.3080
  651MPD2    H5 9697   4.281   0.502  10.158  1.9802  1.1597 -2.2374
  651MPD2    N1 9698   3.841   0.350  10.248  0.0885 -0.2838  0.0743
  651MPD2    H7 9699   3.859   0.449  10.254  0.8351 -0.3838 -0.6226
  652TMC3    C1 9700   4.691   0.593  10.216  0.6208 -0.7118  0.1456
  652TMC3    C2 9701   4.631   0.481  10.173 -0.8544 -0.8833 -0.0120
  652TMC3    C3 9702   4.506   0.488  10.115 -0.5947 -0.2367  0.1025
  652TMC3    C4 9703   4.646   0.713  10.187 -0.3508  0.2780 -0.7164
  652TMC3    C5 9704   4.526   0.714  10.123 -0.1118 -0.4409  0.4702
  652TMC3    C6 9705   4.448   0.607  10.093 -0.2215  0.6308 -0.0249
  652TMC3     C 9706   0.082   0.571  10.275 -0.2626 -0.7875  0.3719
  652TMC3     O 9707   0.093   0.458  10.320  0.6063  0.1194 -0.6714
  652TMC3     H 9708   4.660   0.378  10.191  0.5903  0.1267  3.3092
  652TMC3    H1 9709   4.697   0.803  10.219  1.1557 -1.0296  0.5926
  652TMC3    H2 9710   4.355   0.615  10.038 -0.2599 -0.5149 -0.1429
  652TMC3    C7 9711   4.467   0.839  10.086  0.2031  0.4262  0.1737
  652TMC3    C8 9712   4.429   0.376  10.111  0.3105 -0.3212 -0.3631
  652TMC3    O1 9713   4.345   0.845  10.070 -0.1409 -0.1281 -0.8206
  652TMC3    O2 9714   4.476   0.266  10.087  0.1343  0.3992  0.0895
  653MPD2     C 9715   2.864   1.075  17.686 -0.6526 -0.5556 -0.3164
  653MPD2    C1 9716   2.761   1.162  17.668  0.2706 -0.2564  0.2443
  653MPD2    C2 9717   2.660   1.138  17.573  0.1205 -0.5641  0.7906
  653MPD2    C3 9718   2.663   1.026  17.496  0.6526 -1.0954  0.2795
  653MPD2    C4 9719   2.768   0.935  17.515 -0.3917 -0.4463  0.6485
  653MPD2    C5 9720   2.864   0.958  17.611 -0.3627  0.7440  0.2356
  653MPD2     H 9721   2.576   1.204  17.553 -0.4313 -1.6414 -0.4323
  653MPD2    H1 9722   2.786   0.852  17.447 -0.1127  1.2797 -1.3787
  653MPD2    H2 9723   2.935   1.084   0.021 -3.0346  3.2269  1.3424
  653MPD2    H3 9724   2.943   0.887  17.633  0.7082  1.5102 -1.1368
  653MPD2     N 9725   2.566   1.006  17.393 -0.5970  0.3851 -0.2054
  653MPD2    H5 9726   2.497   1.078  17.373  0.4931  0.6202 -3.0873
  653MPD2    N1 9727   2.759   1.277   0.010 -0.8711  0.0350  0.3398
  653MPD2    H7 9728   2.834   1.285   0.077 -0.9244  0.1519  0.3863
  654TMC3    C1 9729   2.456   0.893  17.218  0.1740 -0.6986 -0.2693
  654TMC3    C2 9730   2.345   0.970  17.222 -0.4469 -0.9794 -0.1651
  654TMC3    C3 9731   2.255   0.946  17.124  0.6262  0.7186  0.4307
  654TMC3    C4 9732   2.471   0.796  17.125 -0.4924  0.1537 -0.5007
  654TMC3    C5 9733   2.370   0.757  17.048  0.2106  0.3946 -0.0398
  654TMC3    C6 9734   2.263   0.843  17.035 -1.0278  0.4508 -0.6411
  654TMC3     C 9735   2.557   0.893  17.319 -0.0357  0.7021  0.1073
  654TMC3     O 9736   2.599   0.784  17.352  0.2366  0.2520 -0.0468
  654TMC3     H 9737   2.329   1.049  17.294  0.5805 -1.0462  0.1430
  654TMC3    H1 9738   2.561   0.738  17.139 -1.2534 -0.9246 -0.0789
  654TMC3    H2 9739   2.196   0.825  16.952 -2.7495  1.3425  0.5519
  654TMC3    C7 9740   2.377   0.654  16.943 -0.3852 -0.2578 -0.0068
  654TMC3    C8 9741   2.133   1.021  17.111 -0.2386 -0.0319  0.1976
  654TMC3    O1 9742   2.308   0.663  16.839  0.4878 -0.2517  0.2868
  654TMC3    O2 9743   2.045   0.984  17.039  0.4101 -0.3495  1.2209
  655MPD2     C 9744   4.095   1.308  15.958 -0.1649 -0.8712 -0.3501
  655MPD2    C1 9745   4.006   1.384  15.892  0.2933 -0.0392 -0.7213
  655MPD2    C2 9746   3.947   1.343  15.778  0.2729 -0.9314  0.8701
  655MPD2    C3 9747   3.993   1.231  15.708 -0.2718 -0.3759  1.1856
  655MPD2    C4 9748   4.099   1.165  15.772  0.2680 -0.1589  0.0636
  655MPD2    C5 9749   4.136   1.196  15.898  0.1537 -0.3063  0.4448
  655MPD2     H 9750   3.854   1.394  15.759  1.0920  0.2202 -0.0554
  655MPD2    H1 9751   4.145   1.073  15.737 -2.1188 -0.8779 -1.1766
  655MPD2    H2 9752   4.146   1.339  16.049 -0.8979 -1.2600  0.2005
  655MPD2    H3 9753   4.213   1.131  15.939 -1.0293 -2.7144 -1.1878
  655MPD2     N 9754   3.940   1.179  15.590  0.0432 -0.3624 -0.6263
  655MPD2    H5 9755   4.002   1.112  15.546 -0.3573 -0.9271 -0.3382
  655MPD2    N1 9756   3.965   1.513  15.941 -0.5149 -0.4730  0.0932
  655MPD2    H7 9757   3.905   1.559  15.873 -1.4742  0.7974  1.7955
  656TMC3    C1 9758   3.928   1.705  16.078  0.0317  0.7801  0.4626
  656TMC3    C2 9759   3.881   1.739  16.202  0.0916 -0.2558 -0.5036
  656TMC3    C3 9760   3.856   1.874  16.214 -0.8444  0.0099 -0.2685
  656TMC3    C4 9761   3.942   1.793  15.975 -1.1514  0.0421 -0.4170
  656TMC3    C5 9762   3.913   1.921  15.998  0.6072  0.1285  0.1908
  656TMC3    C6 9763   3.857   1.968  16.114 -1.1351 -0.3545  0.6950
  656TMC3     C 9764   3.981   1.568  16.064  0.4920 -0.3172  0.0720
  656TMC3     O 9765   3.990   1.510  16.170  0.4851  0.7475 -0.2401
  656TMC3     H 9766   3.895   1.667  16.282  2.0821  0.8558  0.1306
  656TMC3    H1 9767   3.984   1.757  15.882 -2.2836 -0.8948 -0.5673
  656TMC3    H2 9768   3.858   2.075  16.134 -2.0846 -0.1143 -0.4984
  656TMC3    C7 9769   3.867   1.990  15.876 -0.5889  0.6056  0.3385
  656TMC3    C8 9770   3.774   1.920  16.330 -0.4799 -1.1019 -0.0445
  656TMC3    O1 9771   3.924   1.964  15.770  0.6680  0.2393  0.4609
  656TMC3    O2 9772   3.762   2.044  16.325  0.4453 -0.9300 -0.2731
  657TMC3    C1 9773   2.914   0.683  14.735  0.0893 -0.0550  0.1427
  657TMC3    C2 9774   2.930   0.723  14.866  0.2583 -0.4169 -0.0849
  657TMC3    C3 9775   2.845   0.820  14.916  0.1508 -0.1485 -0.6190
  657TMC3    C4 9776   2.812   0.727  14.658  0.0649 -0.1889 -0.4556
  657TMC3    C5 9777   2.724   0.816  14.719 -0.1599  0.2076 -0.3524
  657TMC3    C6 9778   2.734   0.864  14.849 -0.3149  0.1524 -0.7544
  657TMC3     C 9779   2.994   0.571  14.677 -1.0064 -0.4667 -0.4360
  657TMC3     O 9780   2.939   0.503  14.594  0.1512 -0.1391 -0.1559
  657TMC3     H 9781   2.999   0.675  14.935  0.7576 -2.9609 -2.3544
  657TMC3    H1 9782   2.803   0.697  14.554 -0.5745 -1.0681 -0.1438
  657TMC3    H2 9783   2.656   0.918  14.901 -0.3450 -0.1865 -0.4481
  657TMC3    C7 9784   2.608   0.858  14.635  0.2562  0.4777  0.1880
  657TMC3    C8 9785   2.875   0.874  15.048  0.1580 -0.5486  0.5999
  657TMC3    O1 9786   2.582   0.801  14.535  0.2553  0.1339 -0.0548
  657TMC3    O2 9787   2.954   0.807  15.108  0.9238 -0.0745 -0.0111
  658MPD2     C 9788   4.146   0.789  15.116  0.0870  0.6585 -0.2355
  658MPD2    C1 9789   4.099   0.902  15.055 -0.7186 -0.5954 -0.2744
  658MPD2    C2 9790   4.114   0.913  14.917 -0.2920 -0.1783 -0.0986
  658MPD2    C3 9791   4.190   0.828  14.841  0.3733 -0.0046  0.0751
  658MPD2    C4 9792   4.232   0.718  14.904  0.1959 -1.0860  0.8509
  658MPD2    C5 9793   4.204   0.695  15.040 -0.8275  0.8191  0.2525
  658MPD2     H 9794   4.061   0.992  14.864  0.7393  0.1456 -0.6577
  658MPD2    H1 9795   4.300   0.646  14.860 -0.0482 -0.9746  0.2974
  658MPD2    H2 9796   4.121   0.765  15.219 -1.6208  0.1286 -0.7742
  658MPD2    H3 9797   4.237   0.604  15.089 -1.0025  0.3515 -0.5032
  658MPD2     N 9798   4.201   0.847  14.703  0.0574 -0.4178 -0.0705
  658MPD2    H5 9799   4.154   0.932  14.674  0.1493  0.0178  1.0724
  658MPD2    N1 9800   4.032   0.994  15.134 -0.3182  0.0754  0.1425
  658MPD2    H7 9801   4.007   0.973  15.230 -0.9527 -5.0121 -1.1112
  659TMC3    C1 9802   3.901   1.185  15.179 -0.4259 -0.1536  0.7411
  659TMC3    C2 9803   3.908   1.162  15.315 -0.8092 -0.8292  0.1888
  659TMC3    C3 9804   3.802   1.201  15.389  0.5366 -0.3414 -0.4895
  659TMC3    C4 9805   3.795   1.247  15.122 -0.3705  0.3141  0.1937
  659TMC3    C5 9806   3.689   1.294  15.199  0.5669 -0.2709 -0.2348
  659TMC3    C6 9807   3.689   1.258  15.331 -0.3748 -0.0531  0.0413
  659TMC3     C 9808   3.985   1.116  15.092 -0.0590  0.2077  0.0889
  659TMC3     O 9809   3.976   1.160  14.979 -0.0470  0.5593 -0.0347
  659TMC3     H 9810   3.998   1.127  15.364  2.0178  2.7584 -2.4791
  659TMC3    H1 9811   3.789   1.276  15.018 -0.0939  2.7647  0.8567
  659TMC3    H2 9812   3.614   1.301  15.396 -0.9322 -0.3021 -0.4426
  659TMC3    C7 9813   3.556   1.318  15.146  0.1415 -0.1258 -0.4228
  659TMC3    C8 9814   3.825   1.228  15.529  0.0131 -0.5741 -0.1667
  659TMC3    O1 9815   3.474   1.353  15.230  0.0104 -1.2386 -0.2836
  659TMC3    O2 9816   3.741   1.297  15.585  0.3415  0.9225  0.5293
  660MPD2     C 9817   2.210   4.125  12.292  0.5390 -0.2588  0.3512
  660MPD2    C1 9818   2.104   4.209  12.328 -0.2912  0.1633  0.3973
  660MPD2    C2 9819   2.099   4.261  12.458  0.0513  0.1626  0.6113
  660MPD2    C3 9820   2.195   4.217  12.556  0.8881 -0.4786 -0.3596
  660MPD2    C4 9821   2.295   4.129  12.523  1.5600 -0.8327  0.4527
  660MPD2    C5 9822   2.300   4.091  12.389  0.4534 -0.0203  0.0095
  660MPD2     H 9823   2.021   4.327  12.495  0.8135  1.4843 -0.1162
  660MPD2    H1 9824   2.369   4.089  12.592  1.5486 -3.0868 -0.8411
  660MPD2    H2 9825   2.220   4.071  12.198 -0.7450  0.3312 -0.1230
  660MPD2    H3 9826   2.376   4.018  12.361 -0.4963 -1.0816  0.2156
  660MPD2     N 9827   2.200   4.257  12.693 -0.5743 -0.0855 -0.0779
  660MPD2    H5 9828   2.266   4.208  12.753  0.5729  2.7646  0.9481
  660MPD2    N1 9829   2.001   4.224  12.236  0.1670 -0.0611 -0.0359
  660MPD2    H7 9830   2.021   4.190  12.142  1.4970 -0.7320  0.4845
  661TMC3    C1 9831   1.796   4.287  12.130 -0.8473 -0.1063  0.3199
  661TMC3    C2 9832   1.857   4.296  12.013 -0.4959  0.7943  0.4819
  661TMC3    C3 9833   1.776   4.297  11.900 -0.4878  1.0080  0.6484
  661TMC3    C4 9834   1.663   4.308  12.152 -0.2090  0.2097  0.2421
  661TMC3    C5 9835   1.590   4.327  12.036  0.3525 -0.4099 -0.3121
  661TMC3    C6 9836   1.642   4.314  11.909  0.7125 -0.2647 -0.1341
  661TMC3     C 9837   1.876   4.278  12.249 -0.3897 -0.1121 -0.5647
  661TMC3     O 9838   1.814   4.288  12.354 -0.1519  0.3869  0.0884
  661TMC3     H 9839   1.964   4.300  11.994 -0.9507  0.1236 -2.2605
  661TMC3    H1 9840   1.610   4.295  12.246 -0.1675  2.1841  0.5420
  661TMC3    H2 9841   1.582   4.334  11.821 -0.4713 -1.1252  0.4744
  661TMC3    C7 9842   1.446   4.339  12.052 -0.3218 -0.4390  0.2357
  661TMC3    C8 9843   1.847   4.305  11.774 -0.5467 -0.1831 -0.0589
  661TMC3    O1 9844   1.402   4.379  12.161  0.2493  0.0860 -0.5209
  661TMC3    O2 9845   1.968   4.279  11.776  0.7369  0.2796 -0.2841
  662MPD2     C 9846   2.485   4.583  17.188  0.0073  0.5650  0.0861
  662MPD2    C1 9847   2.397   4.478  17.172  0.6373  0.1374  0.2656
  662MPD2    C2 9848   2.275   4.495  17.108 -0.2366 -0.4000 -0.3424
  662MPD2    C3 9849   2.242   4.616  17.061 -0.1928  0.9273 -0.1936
  662MPD2    C4 9850   2.325   4.724  17.077  0.2057 -0.1665 -0.7173
  662MPD2    C5 9851   2.449   4.704  17.137  0.2178  0.2268  0.3583
  662MPD2     H 9852   2.209   4.411  17.089 -1.0889  0.4795 -1.3176
  662MPD2    H1 9853   2.293   0.083  17.038 -1.0147 -0.9601 -1.6753
  662MPD2    H2 9854   2.577   4.564  17.242 -0.4923 -0.6125  0.5363
  662MPD2    H3 9855   2.503   0.057  17.161  1.9157 -0.2420 -1.7292
  662MPD2     N 9856   2.122   4.646  16.995 -0.4577 -0.2736  0.2869
  662MPD2    H5 9857   2.118   0.003  16.957  1.1105 -0.2083  0.3019
  662MPD2    N1 9858   2.421   4.346  17.220 -0.7431 -0.2883  0.3694
  662MPD2    H7 9859   2.363   4.271  17.185 -0.2378  0.2448 -1.5775
  663TMC3    C1 9860   2.515   4.175  17.352  0.2305 -0.7189 -0.1366
  663TMC3    C2 9861   2.554   4.145  17.479 -0.0915 -0.3913  0.3494
  663TMC3    C3 9862   2.508   4.020  17.530  0.2427 -0.6563 -0.4798
  663TMC3    C4 9863   2.467   4.086  17.263 -0.4978  0.2235 -0.1226
  663TMC3    C5 9864   2.446   3.959  17.310  0.2039 -0.0657  0.0273
  663TMC3    C6 9865   2.467   3.925  17.442 -1.0176 -0.4949 -0.3886
  663TMC3     C 9866   2.510   4.319  17.320 -0.0128 -0.3045  0.6072
  663TMC3     O 9867   2.580   4.391  17.393  0.0173 -0.0864  0.5363
  663TMC3     H 9868   2.559   4.228  17.548 -1.9881 -0.9712  1.1984
  663TMC3    H1 9869   2.434   4.107  17.162  1.1601 -1.8996 -1.1160
  663TMC3    H2 9870   2.475   3.825  17.483 -0.4317 -1.0511 -1.8583
  663TMC3    C7 9871   2.376   3.874  17.219 -0.1393  0.4492  0.0032
  663TMC3    C8 9872   2.589   3.970  17.636  0.1440 -0.3313 -0.6293
  663TMC3    O1 9873   2.355   3.905  17.099  0.3063 -0.1865  0.2595
  663TMC3    O2 9874   2.710   3.955  17.623  0.2839 -0.7296  0.5718
  664MPD2     C 9875   0.486   2.230  17.553 -0.2426 -0.1082  0.2271
  664MPD2    C1 9876   0.457   2.359  17.607 -0.1844 -0.3844 -0.4164
  664MPD2    C2 9877   0.360   2.373  17.707 -0.4670 -0.5241 -0.1422
  664MPD2    C3 9878   0.300   2.256   0.003  0.3516 -0.0452  0.0936
  664MPD2    C4 9879   0.322   2.133  17.692 -0.2269 -0.0020  0.3145
  664MPD2    C5 9880   0.411   2.124  17.592  0.4896 -1.1934 -0.6859
  664MPD2     H 9881   0.322   2.463   0.007 -1.3610 -0.6831 -0.5835
  664MPD2    H1 9882   0.271   2.045  17.732 -2.7104  2.0397  1.6345
  664MPD2    H2 9883   0.548   2.228  17.465 -0.8491  1.4909 -0.2352
  664MPD2    H3 9884   0.426   2.033  17.535  0.7830 -2.1514  0.9363
  664MPD2     N 9885   0.206   2.278   0.107  0.9047  0.0682  0.4380
  664MPD2    H5 9886   0.190   2.378   0.119 -0.0395  0.4657 -3.8166
  664MPD2    N1 9887   0.510   2.480  17.552  0.5221 -0.5622  0.4576
  664MPD2    H7 9888   0.462   2.565  17.580  0.8879 -0.8486  1.9467
  665TMC3    C1 9889   0.081   2.241   0.318  1.0081 -0.0596  0.4469
  665TMC3    C2 9890   0.058   2.154   0.417 -0.5872  0.1023 -0.1486
  665TMC3    C3 9891   0.077   2.187   0.550 -0.0004 -0.1110  0.6874
  665TMC3    C4 9892   0.124   2.370   0.351  0.1044 -0.0566 -0.0440
  665TMC3    C5 9893   0.146   2.402   0.483  0.1760  0.2649  1.2329
  665TMC3    C6 9894   0.128   2.310   0.585 -0.2481  0.5299 -0.3579
  665TMC3     C 9895   0.157   2.190   0.204  0.1330 -0.2047  0.1920
  665TMC3     O 9896   0.186   2.073   0.210  0.3211 -0.3286  0.6222
  665TMC3     H 9897   0.022   2.057   0.387 -1.6325 -0.1752  1.9988
  665TMC3    H1 9898   0.137   2.441   0.271 -4.2783  0.0879 -0.6520
  665TMC3    H2 9899   0.152   2.327   0.690  1.0658 -0.9559 -0.4286
  665TMC3    C7 9900   0.171   2.543   0.519 -0.8323  0.2141 -0.1459
  665TMC3    C8 9901   0.022   2.105   0.651 -0.0249 -0.0736 -0.1156
  665TMC3    O1 9902   0.170   2.621   0.426 -0.8456 -0.1712 -0.0782
  665TMC3    O2 9903   4.731   2.161   0.757 -0.0823 -0.5706 -0.1899
  666TMC3    C1 9904   4.484   2.576   9.495 -0.1504  0.5704  0.2547
  666TMC3    C2 9905   4.590   2.487   9.489 -0.4594 -0.0938  0.9742
  666TMC3    C3 9906   4.696   2.512   9.572  0.0395  0.1129  0.0551
  666TMC3    C4 9907   4.482   2.694   9.563 -0.5569 -0.3585 -0.1259
  666TMC3    C5 9908   4.590   2.710   9.646 -0.8119  0.0367  0.1887
  666TMC3    C6 9909   4.694   2.621   9.652  0.5149  0.6642 -0.0449
  666TMC3     C 9910   4.373   2.547   9.409  0.9774  0.1741 -0.0158
  666TMC3     O 9911   4.323   2.638   9.346  0.7229  0.1351 -0.4919
  666TMC3     H 9912   4.585   2.390   9.440 -1.5112  0.3534  0.1880
  666TMC3    H1 9913   4.388   2.749   9.562 -0.1408  0.4033  2.7917
  666TMC3    H2 9914   0.031   2.631   9.730 -1.2759 -0.7332  1.8699
  666TMC3    C7 9915   4.543   2.755   9.778  0.0614 -0.7596  0.7369
  666TMC3    C8 9916   0.032   2.396   9.625  0.6530 -0.2918  0.3157
  666TMC3    O1 9917   4.422   2.732   9.799  0.5283  0.0680 -0.1148
  666TMC3    O2 9918   4.707   2.292   9.603  0.1579  0.1557 -0.3501
  667MPD2     C 9919   1.538   2.369  14.743 -0.1324  0.3799  0.0051
  667MPD2    C1 9920   1.426   2.394  14.821  0.2143  0.3022 -0.3746
  667MPD2    C2 9921   1.320   2.302  14.812  0.4593  0.2445 -0.4854
  667MPD2    C3 9922   1.323   2.198  14.729 -0.2235 -1.0704 -0.0530
  667MPD2    C4 9923   1.443   2.174  14.655  0.8610 -0.5051 -0.6392
  667MPD2    C5 9924   1.546   2.258  14.663  0.0573  0.1403  0.2675
  667MPD2     H 9925   1.223   2.320  14.858 -0.3012 -0.6642 -1.7151
  667MPD2    H1 9926   1.447   2.088  14.590 -1.3554 -1.4128  0.4155
  667MPD2    H2 9927   1.622   2.437  14.748 -1.1901  1.4932  2.4855
  667MPD2    H3 9928   1.636   2.241  14.606  1.1280  0.8491  1.7423
  667MPD2     N 9929   1.217   2.107  14.709 -0.1887 -0.4322 -0.4222
  667MPD2    H5 9930   1.235   2.014  14.674 -2.2637 -0.5030 -1.3101
  667MPD2    N1 9931   1.410   2.498  14.917  0.0120 -0.0777 -0.3629
  667MPD2    H7 9932   1.321   2.513  14.962  0.2282 -0.0464  0.0546
  668TMC3    C1 9933   1.467   2.702  15.029 -0.0691 -0.2346 -0.2024
  668TMC3    C2 9934   1.483   2.833  14.997  0.9303  0.3612  0.5799
  668TMC3    C3 9935   1.431   2.919  15.089  0.8861  0.7299  0.1512
  668TMC3    C4 9936   1.401   2.658  15.138 -0.2271  0.3557 -0.1389
  668TMC3    C5 9937   1.359   2.753  15.227  0.2726  0.1344 -0.0377
  668TMC3    C6 9938   1.369   2.887  15.201  0.2097  0.0135  0.2386
  668TMC3     C 9939   1.502   2.604  14.926 -0.1131 -0.3243  0.4571
  668TMC3     O 9940   1.619   2.612  14.883 -0.2613  0.7349  0.2039
  668TMC3     H 9941   1.523   2.862  14.900 -1.9747  3.4132  0.3175
  668TMC3    H1 9942   1.391   2.553  15.162  2.7324  0.2944  0.7894
  668TMC3    H2 9943   1.336   2.965  15.268  0.3874  1.1689 -1.0088
  668TMC3    C7 9944   1.284   2.714  15.349  0.0155  0.7609 -0.2320
  668TMC3    C8 9945   1.487   3.048  15.090  0.5668 -0.1191 -0.1507
  668TMC3    O1 9946   1.306   2.775  15.452 -0.0765  0.2588  0.2847
  668TMC3    O2 9947   1.457   3.120  15.183 -0.1404 -0.1240  0.6628
  669TMC3    C1 9948   4.204   2.261  14.931 -1.0464  0.3215 -0.0285
  669TMC3    C2 9949   4.122   2.179  14.858 -0.6502  0.5716 -0.0007
  669TMC3    C3 9950   4.101   2.211  14.727  0.1626  0.2456  0.0688
  669TMC3    C4 9951   4.273   2.363  14.876 -0.7333  0.0822 -0.2878
  669TMC3    C5 9952   4.254   2.390  14.742  0.4004  0.7329  0.5055
  669TMC3    C6 9953   4.162   2.321  14.666 -0.3149 -0.8396 -0.3188
  669TMC3     C 9954   4.200   2.256  15.072 -0.1603 -0.2526 -0.3166
  669TMC3     O 9955   4.208   2.358  15.140 -0.7023  0.1526  0.0984
  669TMC3     H 9956   4.077   2.087  14.892  3.7485 -1.7451 -0.4257
  669TMC3    H1 9957   4.331   2.437  14.931  0.1017  0.1274 -1.2179
  669TMC3    H2 9958   4.139   2.355  14.565 -2.6741 -0.5222  0.3294
  669TMC3    C7 9959   4.340   2.485  14.672 -0.5010 -0.6020  0.2214
  669TMC3    C8 9960   3.977   2.174  14.664 -0.1000  0.1738 -0.3726
  669TMC3    O1 9961   4.384   2.583  14.732  0.7760 -0.2226  0.8775
  669TMC3    O2 9962   3.964   2.152  14.545  0.9391  0.0836 -0.0701
  670MPD2     C 9963   2.622   0.054  13.252 -0.3047  0.0634 -0.1156
  670MPD2    C1 9964   2.743   0.026  13.303 -0.3130 -0.0065 -0.2858
  670MPD2    C2 9965   2.757   0.000  13.438  0.1226 -0.1829  0.8478
  670MPD2    C3 9966   2.648   0.019  13.520 -0.3402  0.4753  0.4391
  670MPD2    C4 9967   2.523   0.058  13.466  0.1143 -0.3115 -0.0126
  670MPD2    C5 9968   2.513   0.072  13.334  0.3596 -0.4393 -0.8653
  670MPD2     H 9969   2.849   4.699  13.480 -0.2745 -0.6371  1.3187
  670MPD2    H1 9970   2.437   0.070  13.532 -0.1277  2.6364 -0.8827
  670MPD2    H2 9971   2.602   0.079  13.148 -3.2289  0.3640  0.5257
  670MPD2    H3 9972   2.424   0.115  13.290  0.5765  0.3634 -0.5217
  670MPD2     N 9973   2.648   4.723  13.659 -0.0406 -0.0992  0.2392
  670MPD2    H5 9974   2.556   4.719  13.699  0.0353 -1.7282  0.2255
  670MPD2    N1 9975   2.858   0.027  13.218 -0.1187 -0.1157 -1.2148
  670MPD2    H7 9976   2.945   0.036  13.271 -0.9651 -0.6110  0.2651
  671TMC3    C1 9977   2.738   4.654  13.857  0.7275 -0.1122  0.2265
  671TMC3    C2 9978   2.850   4.629  13.938 -0.0897 -0.1004  0.5610
  671TMC3    C3 9979   2.830   4.561  14.056  0.1057 -0.5142  0.0360
  671TMC3    C4 9980   2.613   4.608  13.889 -0.3357  0.2420 -0.4424
  671TMC3    C5 9981   2.598   4.544  14.008  1.0535  0.2418 -0.0136
  671TMC3    C6 9982   2.704   4.519  14.094  0.0270 -0.9253  0.9788
  671TMC3     C 9983   2.759   4.720  13.732 -0.3318 -0.2520 -0.2203
  671TMC3     O 9984   2.877   0.011  13.706 -0.3731  0.5329 -0.1133
  671TMC3     H 9985   2.948   4.654  13.899  0.1051 -2.7419 -0.6525
  671TMC3    H1 9986   2.516   4.617  13.843 -0.6322  2.1285  0.5323
  671TMC3    H2 9987   2.696   4.443  14.171 -3.4765  0.1951  1.7365
  671TMC3    C7 9988   2.502   4.442  14.013  0.4960 -0.6666  1.1193
  671TMC3    C8 9989   2.936   4.462  14.080  0.1180  0.0313 -0.7910
  671TMC3    O1 9990   2.464   4.410  14.123  0.3423  0.1816 -0.2274
  671TMC3    O2 9991   2.981   4.405  13.981 -0.1406  0.2574 -0.6980
  672MPD2     C 9992   2.786   1.078   0.840 -0.1504  0.6730 -0.1928
  672MPD2    C1 9993   2.892   0.994   0.814 -1.7153 -0.6670 -0.7979
  672MPD2    C2 9994   3.015   1.021   0.873 -0.1834 -0.0834  1.4284
  672MPD2    C3 9995   3.018   1.127   0.961  0.9630 -0.3441  0.0187
  672MPD2    C4 9996   2.911   1.205   0.994 -0.3986  0.9257  0.7911
  672MPD2    C5 9997   2.798   1.186   0.926 -0.1043 -0.5976 -0.7024
  672MPD2     H 9998   3.099   0.955   0.858 -0.6927 -0.2092 -0.8317
  672MPD2    H1 9999   2.914   1.295   1.054 -1.4044  0.7858  1.0493
  672MPD2    H210000   2.687   1.048   0.807 -0.3421  0.9168  0.1720
  672MPD2    H310001   2.711   1.247   0.948 -0.1359 -1.5610  1.8388
  672MPD2     N10002   3.132   1.154   1.036  0.1490  0.3348  0.1530
  672MPD2    H510003   3.134   1.243   1.086 -0.4417  0.7575 -0.5709
  672MPD2    N110004   2.877   0.875   0.737 -0.1559  0.3018  0.0000
  672MPD2    H710005   2.949   0.804   0.746 -0.0053  0.4782  0.1777
  673TMC3    C110006   2.764   0.718   0.594 -0.4353  0.2507 -0.5569
  673TMC3    C210007   2.855   0.616   0.621  0.8300 -0.0574 -0.5768
  673TMC3    C310008   2.812   0.489   0.584 -0.6716 -0.0608  0.4444
  673TMC3    C410009   2.653   0.703   0.510  0.4000 -0.1406  0.7553
  673TMC3    C510010   2.624   0.580   0.461  0.4956  0.9655  0.8182
  673TMC3    C610011   2.703   0.478   0.497  0.2960  0.1525  0.4920
  673TMC3     C10012   2.771   0.848   0.656 -0.4828  0.2930 -0.1925
  673TMC3     O10013   2.676   0.921   0.631 -1.0046 -0.5078 -0.0765
  673TMC3     H10014   2.946   0.630   0.678  0.7107 -2.3069  0.1705
  673TMC3    H110015   2.570   0.771   0.498  0.4350 -0.1952  0.1973
  673TMC3    H210016   2.696   0.390   0.434 -0.8180 -0.6183  1.7113
  673TMC3    C710017   2.502   0.555   0.386 -0.1404  0.0152  0.2919
  673TMC3    C810018   2.924   0.399   0.560 -0.0694  0.2389  0.4524
  673TMC3    O110019   2.466   0.442   0.365 -0.0613  0.7695 -0.1091
  673TMC3    O210020   2.923   0.337   0.453  0.4268  0.0811 -0.2353
  674MPD2     C10021   2.255   1.070  17.550  0.8312 -0.4415  1.0380
  674MPD2    C110022   2.219   0.933  17.525 -0.3088 -0.0020 -0.3951
  674MPD2    C210023   2.095   0.914  17.470  1.0890 -0.3218 -0.9080
  674MPD2    C310024   2.001   1.015  17.465 -0.0141  0.2364  1.0112
  674MPD2    C410025   2.045   1.147  17.490 -0.2082 -0.0233  0.1102
  674MPD2    C510026   2.170   1.175  17.524 -0.1162  0.0165  0.0328
  674MPD2     H10027   2.064   0.814  17.440 -2.8002 -0.2186  2.7094
  674MPD2    H110028   1.969   1.224  17.484  0.2230  0.2164 -2.2892
  674MPD2    H210029   2.360   1.088  17.572  0.4937  2.0864  0.5824
  674MPD2    H310030   2.192   1.279  17.548 -1.6801 -0.1784  2.2555
  674MPD2     N10031   1.872   0.975  17.432 -0.3173  0.1338 -0.4017
  674MPD2    H510032   1.857   0.877  17.411  0.3467  0.0909 -0.6920
  674MPD2    N110033   2.313   0.838  17.547  0.1514 -0.2189 -0.6125
  674MPD2    H710034   2.396   0.881  17.586  0.4900 -0.9742 -0.4921
  675TMC3    C110035   2.391   0.622  17.621 -0.8247  0.4699 -0.2876
  675TMC3    C210036   2.349   0.496  17.647 -0.4468 -0.0138  0.5025
  675TMC3    C310037   2.440   0.421  17.725 -0.1849 -0.2938  0.2132
  675TMC3    C410038   2.497   0.677  17.687 -0.3538  0.4277  0.5569
  675TMC3    C510039   2.582   0.596   0.003  0.1763 -0.1414 -0.3296
  675TMC3    C610040   2.553   0.470   0.032 -0.6907  0.4320 -0.0957
  675TMC3     C10041   2.293   0.702  17.553  0.1348  0.2621  0.1691
  675TMC3     O10042   2.199   0.640  17.508  0.1470  0.8502 -0.2576
  675TMC3     H10043   2.264   0.452  17.596 -0.1758  0.9929 -0.7982
  675TMC3    H110044   2.521   0.779  17.659  0.7730 -0.1557 -0.5750
  675TMC3    H210045   2.608   0.411   0.104  1.5814  1.5015 -0.9523
  675TMC3    C710046   2.689   0.646   0.093  0.0217  0.0944 -0.0876
  675TMC3    C810047   2.390   0.293   0.038  0.0662 -0.0236 -0.1196
  675TMC3    O110048   2.774   0.564   0.125 -0.1961 -0.3820  0.2534
  675TMC3    O210049   2.448   0.225   0.124  0.4250  0.1081  0.0070
  676MPD2     C10050   0.356   3.111  10.885 -0.5110 -0.4359  0.0758
  676MPD2    C110051   0.330   3.046  11.002  0.4456 -0.7653  0.0878
  676MPD2    C210052   0.307   2.909  10.993 -0.5934 -0.5516  0.2918
  676MPD2    C310053   0.325   2.845  10.875 -0.7003 -0.8590 -0.7298
  676MPD2    C410054   0.368   2.911  10.763 -0.3486 -0.2151  0.2399
  676MPD2    C510055   0.382   3.041  10.768  0.6596 -0.0920 -0.2161
  676MPD2     H10056   0.286   2.857  11.086  0.1505  1.0566  1.3652
  676MPD2    H110057   0.379   2.874  10.662 -0.0795  0.5678 -0.0237
  676MPD2    H210058   0.369   3.219  10.887 -0.9764 -0.4033  1.2222
  676MPD2    H310059   0.386   3.091  10.672  2.9130 -0.9090 -0.5225
  676MPD2     N10060   0.306   2.709  10.861  0.0384 -0.4173 -0.2447
  676MPD2    H510061   0.338   2.668  10.775  0.0783 -0.0165 -0.4224
  676MPD2    N110062   0.320   3.096  11.132 -0.2651 -0.1372 -0.7880
  676MPD2    H710063   0.287   3.029  11.201  2.9468 -1.9565 -0.9899
  677TMC3    C110064   0.316   3.254  11.309  0.2871 -0.3473  0.2427
  677TMC3    C210065   0.233   3.169  11.378  0.2402  0.3206  0.8255
  677TMC3    C310066   0.211   3.198  11.512 -0.5653 -0.0619  1.1611
  677TMC3    C410067   0.379   3.356  11.373  0.1617  0.0644 -0.4899
  677TMC3    C510068   0.365   3.370  11.510  0.4063  0.1807 -0.0252
  677TMC3    C610069   0.279   3.293  11.579  0.3535 -0.1092  0.3544
  677TMC3     C10070   0.361   3.220  11.171  0.5005  0.3831  0.1283
  677TMC3     O10071   0.431   3.293  11.103  0.5890 -0.2972  0.5736
  677TMC3     H10072   0.184   3.091  11.319 -0.5613  1.2853  0.2226
  677TMC3    H110073   0.459   3.417  11.331 -1.3207  2.2903 -0.0926
  677TMC3    H210074   0.246   3.324  11.677  3.0889  0.4904  1.0745
  677TMC3    C710075   0.449   3.456  11.596 -0.3340  0.4784 -0.3922
  677TMC3    C810076   0.147   3.102  11.601  0.8431 -0.0905 -0.5009
  677TMC3    O110077   0.457   3.419  11.714 -0.8512  0.4707 -0.3016
  677TMC3    O210078   0.189   3.107  11.715  0.3312 -0.1181 -0.1544
  678MPD2     C10079   2.057   2.819   1.132  0.1278  0.2820 -0.2733
  678MPD2    C110080   2.054   2.956   1.174 -0.3716 -0.0701  0.4795
  678MPD2    C210081   1.948   3.043   1.135  0.8730 -0.2866  0.2215
  678MPD2    C310082   1.847   2.990   1.052  0.7949  0.1588 -1.0137
  678MPD2    C410083   1.847   2.857   1.017 -0.2003 -0.3249 -0.3422
  678MPD2    C510084   1.942   2.771   1.073 -0.2156  0.3145 -0.0510
  678MPD2     H10085   1.952   3.144   1.171 -0.6315 -0.9767  2.2899
  678MPD2    H110086   1.772   2.813   0.952 -1.1375 -0.9130  1.1253
  678MPD2    H210087   2.139   2.756   1.164  0.7834  0.9250 -0.6799
  678MPD2    H310088   1.940   2.665   1.050 -0.1872  0.4914 -0.8855
  678MPD2     N10089   1.738   3.072   1.008 -0.0075 -0.2186 -0.4901
  678MPD2    H510090   1.666   3.023   0.955  1.2608 -1.2292 -1.2959
  678MPD2    N110091   2.158   3.011   1.253  0.3174 -0.0512  0.1574
  678MPD2    H710092   2.170   3.111   1.245 -0.9078 -0.0496 -1.7254
  679TMC3    C110093   2.598   3.043   1.386  0.5926  0.2206 -0.0492
  679TMC3    C210094   2.487   2.962   1.411  0.4421 -0.4726 -0.0241
  679TMC3    C310095   2.367   3.018   1.389 -0.4301  0.3595  0.0509
  679TMC3    C410096   2.597   3.179   1.378 -0.0370 -0.1510 -0.0924
  679TMC3    C510097   2.470   3.233   1.371  0.8709  0.4349 -0.2035
  679TMC3    C610098   2.362   3.151   1.366 -0.2182 -0.1708 -0.8680
  679TMC3     C10099   2.734   2.986   1.399 -0.2346 -0.5458 -0.4141
  679TMC3     O10100   2.816   3.064   1.447 -0.3401  0.5670  0.3540
  679TMC3     H10101   2.496   2.859   1.444 -2.4441 -0.0999  1.8889
  679TMC3    H110102   2.687   3.233   1.351  0.4913 -1.4481 -0.9291
  679TMC3    H210103   2.262   3.193   1.359  0.3388  1.2595 -0.3425
  679TMC3    C710104   2.462   3.346   1.285 -0.6461  0.5051 -0.1930
  679TMC3    C810105   2.265   2.943   1.319 -0.1619  0.8649 -0.1472
  679TMC3    O110106   2.349   3.370   1.238 -0.9137  0.3890 -0.4792
  679TMC3    O210107   2.279   2.830   1.342  0.6398  0.1407 -0.5741
  680MPD2     C10108   1.738   1.487  13.752  0.0281  0.0753 -0.1594
  680MPD2    C110109   1.814   1.490  13.863  0.1330 -0.9185  0.1445
  680MPD2    C210110   1.831   1.603  13.943 -0.7582 -0.4643  0.0074
  680MPD2    C310111   1.777   1.722  13.891 -0.1414 -0.5221 -0.8896
  680MPD2    C410112   1.704   1.718  13.774 -0.0026  0.1409  0.3660
  680MPD2    C510113   1.680   1.604  13.710 -0.1270  0.4546 -0.3336
  680MPD2     H10114   1.899   1.591  14.027 -1.3446  0.8148  0.6612
  680MPD2    H110115   1.658   1.808  13.734  1.8227  0.4499 -1.0889
  680MPD2    H210116   1.715   1.400  13.693  0.6163  0.5307 -1.0562
  680MPD2    H310117   1.607   1.610  13.630  1.5315  0.5068 -1.8280
  680MPD2     N10118   1.813   1.841  13.953  0.0319 -0.2618  0.0840
  680MPD2    H510119   1.775   1.928  13.916  0.3666 -0.0125  0.3304
  680MPD2    N110120   1.899   1.381  13.899 -0.0559  0.6381  0.7167
  680MPD2    H710121   1.952   1.390  13.986  2.1196  1.8742 -0.7447
  681TMC3    C110122   2.015   1.194  13.905  0.0783 -0.4718 -0.0272
  681TMC3    C210123   1.974   1.201  14.035 -0.4695  0.6093  0.0769
  681TMC3    C310124   2.055   1.226  14.138 -0.6094 -0.6462 -0.0311
  681TMC3    C410125   2.143   1.226  13.878 -0.4168 -0.6082  0.1700
  681TMC3    C510126   2.223   1.271  13.977 -0.4730 -0.4446  0.4071
  681TMC3    C610127   2.185   1.262  14.107 -0.4034 -0.0924  0.0062
  681TMC3     C10128   1.930   1.273  13.826  0.1151 -0.1328  0.4868
  681TMC3     O10129   1.892   1.240  13.715 -0.0292 -0.2521  0.2596
  681TMC3     H10130   1.869   1.183  14.059  0.1470 -0.4099  2.0085
  681TMC3    H110131   2.172   1.234  13.774 -2.5335  1.8597 -0.2402
  681TMC3    H210132   2.264   1.251  14.181 -1.2987 -1.3210  0.7623
  681TMC3    C710133   2.368   1.262  13.954  0.4611  0.2036 -0.0298
  681TMC3    C810134   1.991   1.327  14.223 -0.2343  0.5576  0.0495
  681TMC3    O110135   2.443   1.239  14.050 -0.4726  0.6386  0.2169
  681TMC3    O210136   1.869   1.351  14.213  0.0462  0.7361 -0.1762
  682MPD2     C10137   3.836   2.980  10.853  0.3469  0.4241  0.5772
  682MPD2    C110138   3.850   2.840  10.865 -0.2778  0.7893 -0.4601
  682MPD2    C210139   3.782   2.773  10.969 -0.3355  0.7862  0.0466
  682MPD2    C310140   3.718   2.848  11.070 -0.0843  0.1958  0.2099
  682MPD2    C410141   3.721   2.985  11.071  0.0443  0.4217 -0.2615
  682MPD2    C510142   3.776   3.048  10.958  0.5115 -0.5856  1.0643
  682MPD2     H10143   3.802   2.666  10.978  0.6118  0.8504 -1.2120
  682MPD2    H110144   3.668   3.041  11.147  0.8083  2.0352 -0.9177
  682MPD2    H210145   3.880   3.032  10.769 -2.1511  0.3919 -0.7504
  682MPD2    H310146   3.776   3.156  10.948  0.1225 -0.6874  0.0184
  682MPD2     N10147   3.649   2.793  11.180  1.0752  0.0945  0.7824
  682MPD2    H510148   3.604   2.854  11.248  0.1365 -0.1632  0.3968
  682MPD2    N110149   3.917   2.769  10.763  0.7045  0.4207 -0.0012
  682MPD2    H710150   3.895   2.670  10.753 -0.8663  0.6912  0.8511
  683TMC3    C110151   3.523   2.697  11.550 -0.3044  0.6026  0.1929
  683TMC3    C210152   3.433   2.598  11.575  0.1861  0.3431 -0.0012
  683TMC3    C310153   3.405   2.524  11.463 -0.1494 -0.6880 -0.1020
  683TMC3    C410154   3.581   2.725  11.429 -0.0726 -0.3463 -0.0677
  683TMC3    C510155   3.541   2.647  11.324 -0.2978 -0.2788 -0.3324
  683TMC3    C610156   3.450   2.545  11.337  0.0744  0.6229  0.3220
  683TMC3     C10157   3.584   2.763  11.664 -0.5636 -0.1414 -0.2675
  683TMC3     O10158   3.686   2.834  11.646  0.1567 -0.3204  0.0347
  683TMC3     H10159   3.401   2.567  11.673 -1.5506 -1.4740 -1.1320
  683TMC3    H110160   3.650   2.808  11.419 -0.0501 -0.2534  0.8329
  683TMC3    H210161   3.413   2.489  11.252 -2.1381  0.9603  1.0532
  683TMC3    C710162   3.630   2.657  11.208  0.2735  0.4083 -0.1784
  683TMC3    C810163   3.381   2.382  11.498  0.4908 -0.3948 -0.0768
  683TMC3    O110164   3.654   2.552  11.153 -0.1476 -0.3993  0.0251
  683TMC3    O210165   3.296   2.365  11.588 -0.6273 -0.0415 -0.3342
  684MPD2     C10166   2.978   3.589  15.791  0.0165  0.2137  0.6262
  684MPD2    C110167   2.852   3.543  15.816  0.5285 -0.3658  0.4214
  684MPD2    C210168   2.780   3.591  15.919 -0.0141  0.6668 -0.0278
  684MPD2    C310169   2.829   3.692  16.006  0.2968 -0.2113  0.2448
  684MPD2    C410170   2.963   3.735  15.974 -0.0492  0.6198 -0.1466
  684MPD2    C510171   3.031   3.677  15.875  0.3171  0.0967 -0.0824
  684MPD2     H10172   2.681   3.550  15.934  1.3865 -2.9771 -0.8000
  684MPD2    H110173   3.021   3.800  16.040 -1.2208  2.5775 -1.0500
  684MPD2    H210174   3.045   3.566  15.708 -0.4881 -0.6628  0.4557
  684MPD2    H310175   3.136   3.701  15.861  0.1285  0.8456 -0.2577
  684MPD2     N10176   2.758   3.758  16.112 -1.0063  0.2124  0.4834
  684MPD2    H510177   2.806   3.837  16.155 -0.0750 -0.2262  0.2534
  684MPD2    N110178   2.780   3.447  15.733 -0.4715 -0.1158 -0.1327
  684MPD2    H710179   2.709   3.391  15.779 -2.9007  1.1523 -2.3562
  685TMC3    C110180   2.755   3.286  15.561  1.4189  0.7776 -0.0870
  685TMC3    C210181   2.624   3.303  15.557  0.0989  0.2632  0.7251
  685TMC3    C310182   2.536   3.210  15.607  0.3097 -0.5237  0.1427
  685TMC3    C410183   2.812   3.177  15.614  0.6463  0.0002 -0.3507
  685TMC3    C510184   2.719   3.077  15.658 -0.2444 -0.5960 -0.1791
  685TMC3    C610185   2.584   3.094  15.657 -0.0535  1.2044  0.3233
  685TMC3     C10186   2.816   3.409  15.604 -0.3090  0.6970 -0.4560
  685TMC3     O10187   2.864   3.490  15.525 -0.2817  0.3289  0.0096
  685TMC3     H10188   2.570   3.390  15.522  1.0780  1.2165  1.5669
  685TMC3    H110189   2.916   3.169  15.644 -0.2449  0.3466  2.9158
  685TMC3    H210190   2.522   3.010  15.686  0.1105  1.8814  2.6035
  685TMC3    C710191   2.782   2.991  15.758  0.1807 -0.6211  0.8061
  685TMC3    C810192   2.394   3.208  15.564  0.3105  0.5150  0.6455
  685TMC3    O110193   2.739   2.972  15.866  0.5208 -0.3913 -0.0090
  685TMC3    O210194   2.375   3.259  15.457  0.5531 -0.0619  0.4574
  686MPD2     C10195   3.969   3.289  15.527 -0.1098 -0.7197 -0.6756
  686MPD2    C110196   4.037   3.206  15.614  1.2883 -1.1027 -0.5960
  686MPD2    C210197   4.147   3.144  15.561  0.7735  0.5921 -0.3100
  686MPD2    C310198   4.187   3.158  15.433  0.5200 -0.4085  0.2522
  686MPD2    C410199   4.129   3.248  15.353 -0.4287 -0.6248  0.1856
  686MPD2    C510200   4.017   3.308  15.403 -0.0105 -0.0292  0.6448
  686MPD2     H10201   4.200   3.073  15.622 -2.3403 -2.0295 -0.6983
  686MPD2    H110202   4.153   3.269  15.250  0.2184 -1.8209  0.0941
  686MPD2    H210203   3.870   3.324  15.554  0.1578 -1.6742  1.5981
  686MPD2    H310204   3.958   3.367  15.334 -2.5716 -0.6497  2.2998
  686MPD2     N10205   4.297   3.082  15.378 -0.5325  0.6430 -0.5203
  686MPD2    H510206   4.322   3.119  15.287  0.4696  0.2990 -0.3767
  686MPD2    N110207   3.967   3.172  15.734 -0.1302 -0.1809  0.1292
  686MPD2    H710208   3.885   3.226  15.759 -0.3286 -1.0689  1.3894
  687TMC3    C110209   4.304   2.879  15.515  0.1318 -0.8420  0.1466
  687TMC3    C210210   4.178   2.851  15.473  0.3399  0.7282  0.9536
  687TMC3    C310211   4.126   2.725  15.506 -0.4888 -1.0251  0.1540
  687TMC3    C410212   4.392   2.783  15.563  0.6201  0.1280  0.0960
  687TMC3    C510213   4.335   2.665  15.589 -0.5143  0.7612  0.5498
  687TMC3    C610214   4.208   2.632  15.558 -0.3334  0.6491  0.8078
  687TMC3     C10215   4.374   2.977  15.430  0.3493 -0.1322  0.5956
  687TMC3     O10216   4.479   2.937  15.384 -0.1552 -0.3218 -0.8333
  687TMC3     H10217   4.116   2.925  15.424  0.3421  0.4562  0.5309
  687TMC3    H110218   4.495   2.803  15.588  0.3137  0.8498  0.7847
  687TMC3    H210219   4.163   2.538  15.591 -2.0866  1.7095  1.4212
  687TMC3    C710220   4.418   2.565  15.655  0.2498  0.2162  0.3264
  687TMC3    C810221   3.982   2.723  15.558 -0.4012  0.0132  0.3482
  687TMC3    O110222   4.494   2.610  15.744  0.0900  0.1049  0.1257
  687TMC3    O210223   3.957   2.639  15.646 -0.5313 -0.1823 -0.0650
  688MPD2     C10224   3.059   1.949   0.089  0.0270  0.3558  0.3783
  688MPD2    C110225   3.060   1.826   0.029 -1.2599 -0.1179 -0.5269
  688MPD2    C210226   3.146   1.809  17.665 -0.5203 -0.0930 -0.3101
  688MPD2    C310227   3.236   1.910  17.625 -0.1913 -0.1684 -0.3633
  688MPD2    C410228   3.240   2.025  17.696  0.8161  0.0025 -0.7926
  688MPD2    C510229   3.158   2.048   0.058 -0.3309  0.9714 -0.5151
  688MPD2     H10230   3.132   1.716  17.612 -0.8725 -0.5172  0.5213
  688MPD2    H110231   3.312   2.099  17.661  1.4170 -0.8574 -1.3561
  688MPD2    H210232   2.984   1.975   0.162 -0.4091 -1.3561  0.5305
  688MPD2    H310233   3.158   2.144   0.109 -0.2425 -0.0186  1.3533
  688MPD2     N10234   3.319   1.909  17.516  0.7876 -0.5233 -0.2874
  688MPD2    H510235   3.369   1.995  17.499  2.6027 -1.1192  2.0917
  688MPD2    N110236   2.992   1.715   0.084  0.5857  0.9045 -0.7159
  688MPD2    H710237   3.015   1.625   0.043  0.0468  1.5664 -2.4924
  689TMC3    C110238   2.839   1.593   0.224  0.0397  0.2312 -0.5929
  689TMC3    C210239   2.773   1.591   0.343  0.1605 -1.0499 -0.4486
  689TMC3    C310240   2.657   1.521   0.355 -0.1939 -0.6058 -0.2589
  689TMC3    C410241   2.793   1.521   0.120  0.4082  0.2907 -0.2068
  689TMC3    C510242   2.673   1.455   0.132 -0.5069 -0.5130  0.2050
  689TMC3    C610243   2.599   1.453   0.252 -0.1509 -0.2194  0.1962
  689TMC3     C10244   2.923   1.708   0.197 -0.2135  0.6413 -0.2856
  689TMC3     O10245   2.906   1.799   0.281  0.7011 -0.8202 -0.3688
  689TMC3     H10246   2.817   1.637   0.431 -2.5926  0.9370 -0.0984
  689TMC3    H110247   2.854   1.517   0.030  0.7552  5.1040 -0.1689
  689TMC3    H210248   2.508   1.394   0.256 -0.2837 -0.1166 -1.1010
  689TMC3    C710249   2.647   1.342   0.046  0.6947 -0.2999 -0.0076
  689TMC3    C810250   2.591   1.532   0.478  0.6280 -0.2647  0.3305
  689TMC3    O110251   2.527   1.311   0.020  0.3834 -0.0389 -0.1212
  689TMC3    O210252   2.636   1.613   0.559 -0.5377 -0.6848 -1.1598
  690MPD2     C10253   0.504   3.613  15.532 -0.6226  0.2153  0.5874
  690MPD2    C110254   0.489   3.530  15.423  0.2805  0.2757  0.5479
  690MPD2    C210255   0.589   3.526  15.329  0.0438  1.5328 -0.3366
  690MPD2    C310256   0.711   3.583  15.345 -0.2849  0.4849  0.3043
  690MPD2    C410257   0.726   3.658  15.465 -0.0331 -0.1772 -0.5450
  690MPD2    C510258   0.622   3.681  15.551 -0.5203  0.6255  1.0156
  690MPD2     H10259   0.573   3.458  15.246  1.6565  1.7174 -0.8059
  690MPD2    H110260   0.824   3.696  15.489 -0.4706  0.7991 -0.3273
  690MPD2    H210261   0.420   3.629  15.598 -0.4019  0.2233  0.8638
  690MPD2    H310262   0.627   3.756  15.629 -0.3573  1.1035  0.5464
  690MPD2     N10263   0.810   3.568  15.244  0.7689 -0.4835 -0.5987
  690MPD2    H510264   0.790   3.516  15.159 -0.2641 -1.9410  0.5535
  690MPD2    N110265   0.369   3.452  15.396 -0.6298 -0.2719  0.3638
  690MPD2    H710266   0.362   3.384  15.321 -1.8112  1.5415 -1.1951
  691TMC3    C110267   0.164   3.359  15.440 -0.5415 -0.0764 -0.3497
  691TMC3    C210268   0.035   3.399  15.405  0.6606  0.1442 -0.3801
  691TMC3    C310269   4.683   3.302  15.375 -0.0251 -1.0135  0.4548
  691TMC3    C410270   0.202   3.231  15.433  0.0881  0.3458 -0.1661
  691TMC3    C510271   0.117   3.130  15.408  0.0172 -0.5676  0.6447
  691TMC3    C610272   4.726   3.170  15.376  0.2656 -0.1330 -0.2792
  691TMC3     C10273   0.252   3.461  15.472 -0.0069 -0.3499  0.4324
  691TMC3     O10274   0.212   3.547  15.544  0.0893  0.3771  0.0159
  691TMC3     H10275   0.001   3.500  15.426  1.7907  0.9059 -2.2920
  691TMC3    H110276   0.300   3.214  15.476  0.3733  0.3006 -0.8389
  691TMC3    H210277   4.655   3.096  15.343 -2.5409  2.0705  0.8735
  691TMC3    C710278   0.143   3.006  15.484 -0.6166  0.4848 -0.1988
  691TMC3    C810279   4.553   3.325  15.304  0.1812 -0.5300  0.1219
  691TMC3    O110280   0.247   3.002  15.549 -0.7255 -0.2287  0.5977
  691TMC3    O210281   4.516   3.237  15.227  0.4563  0.3529  1.3136
  692TMC3    C110282   1.647   4.561  15.694  0.9697 -0.2124 -0.3637
  692TMC3    C210283   1.752   4.645  15.715 -0.8388 -0.3030  0.5410
  692TMC3    C310284   1.882   4.593  15.738  0.2328 -0.5721 -0.6340
  692TMC3    C410285   1.669   4.426  15.697  0.5996 -0.5967 -0.1597
  692TMC3    C510286   1.790   4.375  15.736  0.3346  0.4176  0.7289
  692TMC3    C610287   1.891   4.459  15.769 -0.0163 -0.4348 -0.0623
  692TMC3     C10288   1.514   4.618  15.700  0.0581 -0.0275  0.1085
  692TMC3     O10289   1.419   4.544  15.709  0.2827 -0.3243  0.1020
  692TMC3     H10290   1.730   0.007  15.755  0.2906  0.2507 -0.2137
  692TMC3    H110291   1.594   4.349  15.684  1.7065 -1.7895  0.5395
  692TMC3    H210292   1.990   4.414  15.775  0.2184  0.1708  0.5635
  692TMC3    C710293   1.807   4.233  15.743 -0.1022 -0.2204  0.2005
  692TMC3    C810294   1.977   4.698  15.798 -0.1123  0.0531  0.7706
  692TMC3    O110295   1.724   4.167  15.682 -0.6736 -0.0498 -0.2015
  692TMC3    O210296   2.055   4.654  15.880 -0.2574  0.8577 -0.0917
  693MPD2     C10297   1.422   2.240  10.905 -0.2415  0.5842  0.1457
  693MPD2    C110298   1.405   2.115  10.968 -0.5077 -0.3914  0.0033
  693MPD2    C210299   1.518   2.057  11.024  0.6487 -0.1727 -0.3071
  693MPD2    C310300   1.647   2.120  11.015  0.6519  0.2829  0.0661
  693MPD2    C410301   1.653   2.245  10.960 -0.2194 -0.4532  0.0429
  693MPD2    C510302   1.541   2.304  10.908 -0.5542 -0.6682  0.0222
  693MPD2     H10303   1.504   1.959  11.067 -1.5169  0.4523  0.3672
  693MPD2    H110304   1.748   2.296  10.950 -0.0231 -0.8015  0.1354
  693MPD2    H210305   1.354   2.282  10.832 -0.3667 -1.4941 -0.9345
  693MPD2    H310306   1.541   2.392  10.845 -1.3109 -0.4808  0.2902
  693MPD2     N10307   1.763   2.051  11.058  0.0446 -0.4404 -0.5036
  693MPD2    H510308   1.853   2.097  11.070 -1.3774  1.8635  1.6205
  693MPD2    N110309   1.287   2.039  10.970  0.0415  0.2498 -0.2161
  693MPD2    H710310   1.286   1.955  11.026 -1.2623 -0.4050 -1.2062
  694TMC3    C110311   1.077   1.952  10.899 -0.1690 -0.0277  0.0951
  694TMC3    C210312   1.019   1.902  10.782 -0.8198  0.1192 -0.6682
  694TMC3    C310313   0.982   1.768  10.782  0.1447  0.1289 -0.0719
  694TMC3    C410314   1.081   1.873  11.021  0.4790  0.0385 -0.1266
  694TMC3    C510315   1.013   1.760  11.015 -0.1870 -0.6956  0.1610
  694TMC3    C610316   0.965   1.702  10.903  0.5479  0.1154  0.0132
  694TMC3     C10317   1.174   2.061  10.887  0.1926 -0.0246 -0.3411
  694TMC3     O10318   1.164   2.130  10.784 -0.3439  0.8225  0.0360
  694TMC3     H10319   1.029   1.965  10.694  1.7838  2.8924  1.6264
  694TMC3    H110320   1.111   1.917  11.116  0.4595 -1.7371  0.6961
  694TMC3    H210321   0.927   1.601  10.901 -1.6116  0.9305 -0.4709
  694TMC3    C710322   1.000   1.689  11.146 -0.3799 -0.4020  0.3258
  694TMC3    C810323   0.937   1.699  10.662  0.1409  0.4154  0.0579
  694TMC3    O110324   1.085   1.715  11.234 -0.2769  0.6437 -0.1722
  694TMC3    O210325   0.925   1.576  10.658 -0.2197 -0.3945  0.4670
  695MPD2     C10326   3.312   3.862  13.395 -0.1931  0.3910  0.5003
  695MPD2    C110327   3.215   3.861  13.496  0.5629 -0.5171  0.4298
  695MPD2    C210328   3.087   3.893  13.460  0.1073 -0.1873  0.1246
  695MPD2    C310329   3.047   3.914  13.328 -0.1205 -0.1267 -0.5655
  695MPD2    C410330   3.143   3.908  13.227  0.4724 -0.8041 -0.2677
  695MPD2    C510331   3.275   3.880  13.266 -0.4222  0.2239  0.0659
  695MPD2     H10332   3.012   3.911  13.536  0.7601  2.2299  0.2038
  695MPD2    H110333   3.124   3.914  13.120 -0.3221 -1.9536 -0.2031
  695MPD2    H210334   3.415   3.848  13.424 -0.5176 -1.9030  0.5512
  695MPD2    H310335   3.347   3.861  13.187  0.8314  3.2868  0.4752
  695MPD2     N10336   2.907   3.915  13.306  0.0397  0.4204  0.0708
  695MPD2    H510337   2.859   3.915  13.396 -0.0948 -1.3239  0.0013
  695MPD2    N110338   3.241   3.839  13.630 -0.6044 -0.0513 -0.3920
  695MPD2    H710339   3.160   3.854  13.690 -1.4576 -1.4009 -1.2091
  696TMC3    C110340   2.704   3.983  13.207  0.2414 -0.4446  0.3599
  696TMC3    C210341   2.637   3.951  13.322 -0.9056  0.5633 -0.2019
  696TMC3    C310342   2.526   4.025  13.360 -0.3167 -0.3453 -0.2185
  696TMC3    C410343   2.651   4.084  13.131 -0.0952  0.4071  0.1814
  696TMC3    C510344   2.548   4.162  13.174 -0.4354 -0.4926 -0.3847
  696TMC3    C610345   2.483   4.132  13.292 -0.0702  0.0301  0.0232
  696TMC3     C10346   2.839   3.950  13.191 -0.2877  0.3963  0.4039
  696TMC3     O10347   2.884   3.961  13.080 -1.5154  0.8305  0.4810
  696TMC3     H10348   2.667   3.880  13.398 -2.2399 -0.2361 -0.4319
  696TMC3    H110349   2.705   4.106  13.040 -1.6076 -0.2598 -0.8869
  696TMC3    H210350   2.399   4.190  13.330  1.4074  1.6055  0.9099
  696TMC3    C710351   2.524   4.288  13.098 -0.2256 -0.7680  0.0301
  696TMC3    C810352   2.527   4.050  13.506  0.9272 -0.8186  0.8107
  696TMC3    O110353   2.579   4.301  12.987  0.4531  0.2737  0.0724
  696TMC3    O210354   2.640   4.064  13.549  0.3948 -0.4394  0.1263
  697MPD2     C10355   1.417   1.378  15.695 -0.3664 -0.6715  0.1975
  697MPD2    C110356   1.418   1.345  15.564 -0.1805 -0.3931  0.3651
  697MPD2    C210357   1.462   1.440  15.469  0.1517  0.4284 -0.5065
  697MPD2    C310358   1.506   1.567  15.510 -0.1289  0.1217  0.4837
  697MPD2    C410359   1.507   1.596  15.642  0.0991 -0.4044 -0.2037
  697MPD2    C510360   1.465   1.499  15.732 -0.5261 -0.2853 -0.5125
  697MPD2     H10361   1.470   1.415  15.364  1.2567  2.5228 -0.9189
  697MPD2    H110362   1.547   1.689  15.681  0.1815 -0.0832 -1.0434
  697MPD2    H210363   1.384   1.307  15.769  1.7933 -1.1549  0.7174
  697MPD2    H310364   1.464   1.517  15.839 -1.9124 -0.2984 -0.5152
  697MPD2     N10365   1.539   1.668  15.416  0.3807  0.0088 -0.0206
  697MPD2    H510366   1.543   1.638  15.319 -0.7050  2.5847 -0.8719
  697MPD2    N110367   1.366   1.226  15.508 -0.3394 -0.6646  0.6119
  697MPD2    H710368   1.362   1.217  15.407  0.7927  0.8727  0.4337
  698TMC3    C110369   1.684   1.833  15.332 -0.3397  0.7081  0.7638
  698TMC3    C210370   1.742   1.954  15.346  0.0570  0.1931  0.2478
  698TMC3    C310371   1.826   1.999  15.251  0.6446  0.3901  0.2644
  698TMC3    C410372   1.715   1.747  15.234  0.5428  0.1101 -1.0246
  698TMC3    C510373   1.812   1.796  15.145 -0.0326 -1.0447 -0.1776
  698TMC3    C610374   1.863   1.924  15.145  0.1519 -0.7827 -0.6716
  698TMC3     C10375   1.599   1.787  15.442 -0.6168 -0.1457  0.0003
  698TMC3     O10376   1.598   1.856  15.542  0.5311  0.5485 -0.3192
  698TMC3     H10377   1.715   2.022  15.426  0.5030  0.3417  0.2680
  698TMC3    H110378   1.698   1.640  15.239 -2.7870  0.6403 -0.7741
  698TMC3    H210379   1.932   1.959  15.070  0.7945 -2.5279 -0.8938
  698TMC3    C710380   1.862   1.705  15.049  0.7046 -0.1195  0.1785
  698TMC3    C810381   1.884   2.133  15.268  0.0416 -0.0822 -0.3436
  698TMC3    O110382   1.981   1.721  15.028 -0.3469 -0.1526  0.8643
  698TMC3    O210383   1.847   2.189  15.369 -0.6248 -0.2488 -0.7602
  699TMC3    C110384   2.107   4.325  12.893 -0.6888  0.1005  0.7933
  699TMC3    C210385   2.170   4.225  12.958  0.4511 -0.7335 -0.2904
  699TMC3    C310386   2.127   4.201  13.089  0.3406 -0.3828  0.4553
  699TMC3    C410387   2.015   4.404  12.961  0.0714 -0.0077  0.0512
  699TMC3    C510388   2.013   4.395  13.099  0.1179 -0.3096 -0.0226
  699TMC3    C610389   2.072   4.298  13.173  0.8845  0.0986  0.2338
  699TMC3     C10390   2.108   4.335  12.748 -0.5845 -0.0330 -0.2491
  699TMC3     O10391   2.013   4.400  12.701  0.4118  0.5534 -0.1315
  699TMC3     H10392   2.224   4.147  12.907  0.8109 -0.2329 -0.6814
  699TMC3    H110393   1.968   4.489  12.914 -0.1213 -1.2327 -1.9733
  699TMC3    H210394   2.051   4.277  13.277  0.5649 -0.6532  0.0196
  699TMC3    C710395   1.889   4.432  13.162  1.1277  0.0086  0.0140
  699TMC3    C810396   2.165   4.073  13.150 -0.1672  0.2572 -0.1403
  699TMC3    O110397   1.879   4.427  13.282 -0.1614  0.9941  0.2904
  699TMC3    O210398   2.110   4.048  13.255  0.2997  0.5511  0.2404
  700TMC3    C110399   0.754   1.963  17.372 -0.0315 -0.0265  0.3665
  700TMC3    C210400   0.799   1.834  17.335  0.1078 -0.2864 -0.2594
  700TMC3    C310401   0.915   1.785  17.395  0.2694  0.0599 -0.4395
  700TMC3    C410402   0.827   2.041  17.463  0.0117  0.0474  0.4541
  700TMC3    C510403   0.949   1.992  17.506 -0.9884  0.4371 -0.0870
  700TMC3    C610404   0.991   1.862  17.471  0.0945  0.5501 -0.3813
  700TMC3     C10405   0.670   2.033  17.276  0.7891 -0.4032  0.9761
  700TMC3     O10406   0.546   2.037  17.297 -0.0462 -0.2858  0.7548
  700TMC3     H10407   0.745   1.788  17.253  0.1718 -0.6712 -0.0859
  700TMC3    H110408   0.782   2.129  17.508 -0.8871  0.3616 -1.0541
  700TMC3    H210409   1.082   1.819  17.511  0.7021  0.6347 -1.6628
  700TMC3    C710410   1.055   2.087  17.537  0.0773  0.0764  1.1926
  700TMC3    C810411   0.979   1.660  17.349  0.5075 -0.2857 -0.2627
  700TMC3    O110412   1.146   2.043  17.602  0.0461  0.0064 -0.0666
  700TMC3    O210413   1.098   1.641  17.372 -0.0934  0.2119  0.5213
  701TMC3    C110414   0.584   0.543  15.561 -0.7531  0.5161  0.0917
  701TMC3    C210415   0.625   0.466  15.448 -0.5869 -0.9936 -0.0493
  701TMC3    C310416   0.720   0.518  15.361 -0.2485  0.1553  0.0032
  701TMC3    C410417   0.636   0.670  15.580  0.7037 -0.2112 -1.0670
  701TMC3    C510418   0.733   0.709  15.489  0.1642 -0.0574  0.3858
  701TMC3    C610419   0.774   0.641  15.378  0.5434  0.0094  0.6870
  701TMC3     C10420   0.482   0.493  15.649  0.0428  0.2900 -0.7119
  701TMC3     O10421   0.454   0.379  15.639  0.5294 -0.2804  0.1158
  701TMC3     H10422   0.577   0.373  15.422  0.8278 -1.5044 -0.8296
  701TMC3    H110423   0.612   0.740  15.660  0.8799 -0.5747 -0.6992
  701TMC3    H210424   0.855   0.672  15.313 -0.4370  3.0736  0.9395
  701TMC3    C710425   0.803   0.835  15.510 -0.2087 -0.3482 -1.0450
  701TMC3    C810426   0.744   0.451  15.229 -0.1436  0.2027 -0.1022
  701TMC3    O110427   0.831   0.908  15.417  0.1971  0.1077  0.0155
  701TMC3    O210428   0.776   0.527  15.137  0.6565  0.2466  0.3527
  702MPD2     C10429   0.484   2.230  10.401  0.5636  0.5001  0.0605
  702MPD2    C110430   0.349   2.242  10.425  0.3600 -0.0105 -0.1327
  702MPD2    C210431   0.263   2.273  10.325  0.1713  0.3384 -0.2982
  702MPD2    C310432   0.307   2.294  10.199  0.1061 -0.5308  0.0332
  702MPD2    C410433   0.435   2.259  10.169  0.5304  0.1459 -0.6513
  702MPD2    C510434   0.523   2.223  10.268 -0.5893  0.5233 -0.6121
  702MPD2     H10435   0.156   2.277  10.341  0.0708  3.0420 -1.7407
  702MPD2    H110436   0.464   2.268  10.065  0.2819  0.6907 -0.6742
  702MPD2    H210437   0.554   2.213  10.481 -0.6858  0.5512  1.1581
  702MPD2    H310438   0.627   2.208  10.242 -0.1561 -0.8300  1.9049
  702MPD2     N10439   0.220   2.332  10.092 -0.3056  0.6020 -0.2176
  702MPD2    H510440   0.251   2.290  10.005 -2.9026  0.1544 -0.9288
  702MPD2    N110441   0.295   2.249  10.551 -0.1668  0.5100  0.3053
  702MPD2    H710442   0.196   2.269  10.560 -0.4755 -0.9916  0.2281
  703TMC3    C110443   0.106   2.499  10.219 -0.1974 -0.6358  0.7045
  703TMC3    C210444   4.731   2.493  10.292 -0.1001  0.2199  1.0300
  703TMC3    C310445   0.002   2.532  10.423  0.3342  0.3635  0.2828
  703TMC3    C410446   0.220   2.568  10.256  0.0606  0.1664  0.5631
  703TMC3    C510447   0.233   2.597  10.390  0.1716 -0.1398  0.2128
  703TMC3    C610448   0.123   2.570  10.471 -0.5639  1.0403  0.6176
  703TMC3     C10449   0.109   2.409  10.104  0.0353 -0.6987 -1.0126
  703TMC3     O10450   0.017   2.402  10.025 -0.3198  0.1691  0.5185
  703TMC3     H10451   4.636   2.455  10.255 -0.1749 -1.0666  2.5337
  703TMC3    H110452   0.310   2.566  10.195 -0.0883 -3.3054  0.4352
  703TMC3    H210453   0.145   2.601  10.573 -0.5304  0.1506  0.8803
  703TMC3    C710454   0.360   2.628  10.454  0.5057 -0.4461 -0.0440
  703TMC3    C810455   4.632   2.510  10.515 -0.9284  0.3113 -0.1955
  703TMC3    O110456   0.363   2.602  10.571  0.2473 -0.1597 -0.3244
  703TMC3    O210457   4.660   2.551  10.626 -0.1844  0.1497  0.2246
  704TMC3    C110458   3.200   1.080  12.589  0.1588 -0.1591 -0.2120
  704TMC3    C210459   3.287   1.072  12.482  0.4260  0.5045  0.3923
  704TMC3    C310460   3.366   0.960  12.472 -0.1974  0.8091  0.3541
  704TMC3    C410461   3.189   0.987  12.687  0.9631 -0.4035 -0.0834
  704TMC3    C510462   3.264   0.874  12.672  0.7470  0.7364 -0.1521
  704TMC3    C610463   3.351   0.859  12.564 -0.4940  0.4537  0.6446
  704TMC3     C10464   3.101   1.184  12.601  0.1837 -0.2432  0.5718
  704TMC3     O10465   3.014   1.162  12.688  0.2893  0.0606 -0.2289
  704TMC3     H10466   3.289   1.154  12.411 -1.0983 -0.5666 -0.9063
  704TMC3    H110467   3.108   0.989  12.759 -1.3050  2.9102 -2.7738
  704TMC3    H210468   3.395   0.763  12.540 -1.4203  0.1086  0.3149
  704TMC3    C710469   3.189   0.744  12.694 -0.3065 -0.0831 -0.4214
  704TMC3    C810470   3.423   0.927  12.343  0.0007 -0.2111 -0.4031
  704TMC3    O110471   3.252   0.638  12.676  0.4156 -0.0011  0.1855
  704TMC3    O210472   3.379   0.997  12.251 -0.3263  0.0187 -0.5600
  705MPD2     C10473   2.172   4.349  16.543 -0.3303 -0.6792 -0.1234
  705MPD2    C110474   2.152   4.439  16.435  0.3275  0.5243  0.3620
  705MPD2    C210475   2.023   4.486  16.418  0.6426 -0.3818  0.3495
  705MPD2    C310476   1.920   4.440  16.494 -0.0166  0.3696 -0.2512
  705MPD2    C410477   1.946   4.344  16.587 -0.8650 -0.4737  0.0615
  705MPD2    C510478   2.068   4.299  16.612  0.3785  0.4961  0.5726
  705MPD2     H10479   2.011   4.561  16.341  1.4056  0.4989  1.0880
  705MPD2    H110480   1.869   4.316  16.658 -1.1085  1.8273  0.7185
  705MPD2    H210481   2.272   4.317  16.570 -0.9141 -2.4461 -0.0829
  705MPD2    H310482   2.087   4.242  16.703 -0.3511 -1.1852 -0.3338
  705MPD2     N10483   1.791   4.499  16.472 -0.2280  0.0156 -0.0282
  705MPD2    H510484   1.790   4.570  16.400  0.1857 -0.7084 -0.7487
  705MPD2    N110485   2.254   4.499  16.360  0.1279  0.3411 -0.1917
  705MPD2    H710486   2.229   4.575  16.297 -0.9530  0.7410  0.7112
  706TMC3    C110487   2.635   4.550  16.112 -0.1513  0.6699  0.1977
  706TMC3    C210488   2.618   4.692  16.110 -0.6356  0.7358  0.4732
  706TMC3    C310489   2.516   0.016  16.183 -0.0849  0.8425  0.4874
  706TMC3    C410490   2.549   4.478  16.178  0.2092  0.4254 -1.1482
  706TMC3    C510491   2.451   4.538  16.247 -0.0574 -0.3875 -0.0772
  706TMC3    C610492   2.429   4.675  16.251 -0.6447  0.0402  0.2150
  706TMC3     C10493   2.718   4.493  16.011  0.0308  0.2356 -0.0321
  706TMC3     O10494   2.812   4.560  15.974  0.0420  0.3633  0.4109
  706TMC3     H10495   2.680   0.013  16.043 -0.9644  0.9855  0.3832
  706TMC3    H110496   2.547   4.370  16.162 -0.5424  0.2749  0.0229
  706TMC3    H210497   2.350   4.723  16.308 -0.4996  0.8438 -0.2540
  706TMC3    C710498   2.382   4.452  16.342 -0.4507  0.4134 -0.0268
  706TMC3    C810499   2.464   0.138  16.125  0.3478 -0.4722  0.6772
  706TMC3    O110500   2.420   4.338  16.364 -0.3658  0.6686  0.3324
  706TMC3    O210501   2.345   0.138  16.103  0.1048  0.1398  0.3979
  707TMC3    C110502   3.708   2.939   1.382 -0.5913  0.2291 -0.5072
  707TMC3    C210503   3.728   2.807   1.416  0.0351  0.0919  0.8156
  707TMC3    C310504   3.619   2.728   1.429  0.0704  0.0291  0.2031
  707TMC3    C410505   3.589   2.989   1.360  0.7424 -0.0868  0.6825
  707TMC3    C510506   3.488   2.900   1.349  0.5675  0.2161 -0.1345
  707TMC3    C610507   3.501   2.774   1.391 -0.2761  0.0185  0.6300
  707TMC3     C10508   3.823   3.005   1.339  0.4425  0.0230  0.0827
  707TMC3     O10509   3.922   2.935   1.347  0.2819  0.7084 -0.2216
  707TMC3     H10510   3.828   2.769   1.438 -0.4999 -0.5227  2.2071
  707TMC3    H110511   3.567   3.095   1.347  0.6590 -0.5985 -3.3879
  707TMC3    H210512   3.414   2.710   1.394  0.1560 -0.6684 -1.3215
  707TMC3    C710513   3.355   2.939   1.309  0.2777  0.7028  0.8659
  707TMC3    C810514   3.633   2.593   1.481 -0.1269 -0.1801 -0.0688
  707TMC3    O110515   3.265   2.886   1.371 -0.2470  0.1570 -0.1116
  707TMC3    O210516   3.530   2.541   1.523 -0.5139 -0.3054 -0.6608
  708MPD2     C10517   0.780   2.375  13.768  0.7902 -0.0498  0.2857
  708MPD2    C110518   0.669   2.403  13.844  0.5677  0.1569  0.1184
  708MPD2    C210519   0.665   2.376  13.979 -0.2389  0.1660  0.1383
  708MPD2    C310520   0.772   2.320  14.038  0.3144 -0.0018  0.4862
  708MPD2    C410521   0.884   2.284  13.959 -0.6058 -0.4085  0.3734
  708MPD2    C510522   0.886   2.310  13.827  0.0490  0.2568  0.2265
  708MPD2     H10523   0.579   2.399  14.041  2.2342  2.5294  2.7072
  708MPD2    H110524   0.959   2.214  13.994 -1.9457 -1.8190  0.4344
  708MPD2    H210525   0.771   2.381  13.660  0.0094 -1.6121  0.2641
  708MPD2    H310526   0.967   2.274  13.765 -1.0660  1.4407 -1.9259
  708MPD2     N10527   0.788   2.290  14.174  0.2614  0.1505 -0.3287
  708MPD2    H510528   0.878   2.270  14.218 -0.8797 -0.3901  1.7842
  708MPD2    N110529   0.546   2.453  13.791 -0.2100 -0.1856 -0.6259
  708MPD2    H710530   0.478   2.471  13.864  2.6113  1.7353  1.5227
  709TMC3    C110531   0.375   2.462  13.657 -0.0953  0.0198  0.0801
  709TMC3    C210532   0.353   2.336  13.613  0.4382 -0.3310  0.0163
  709TMC3    C310533   0.240   2.269  13.668 -0.0912  0.0740 -0.1229
  709TMC3    C410534   0.304   2.503  13.774  0.4433 -0.3637 -0.5582
  709TMC3    C510535   0.208   2.424  13.840 -0.1652 -0.2775  0.1088
  709TMC3    C610536   0.169   2.309  13.778 -0.3363 -0.1526 -0.5194
  709TMC3     C10537   0.518   2.487  13.661 -0.0400  0.6036 -0.3340
  709TMC3     O10538   0.591   2.496  13.561  0.1708 -0.0331 -0.6383
  709TMC3     H10539   0.424   2.300  13.539  0.5828  0.0245 -0.0155
  709TMC3    H110540   0.333   2.595  13.823 -0.7950  0.3490 -1.1622
  709TMC3    H210541   0.107   2.239  13.834  2.2149 -1.0886  1.1710
  709TMC3    C710542   0.211   2.423  13.987 -0.8316  0.4589 -0.4362
  709TMC3    C810543   0.207   2.137  13.612  0.1971  0.6463 -0.3530
  709TMC3    O110544   0.311   2.479  14.036 -0.1865  0.0748 -0.0546
  709TMC3    O210545   0.107   2.084  13.669 -0.7939 -0.1811  0.1298
  710TMC3    C110546   2.037   3.760   0.712 -0.1566  0.2346  0.4262
  710TMC3    C210547   2.098   3.796   0.594  0.5385  0.0670  0.4346
  710TMC3    C310548   2.225   3.827   0.598  0.7250 -0.0149 -0.1349
  710TMC3    C410549   2.104   3.751   0.831  0.4341  0.0379  0.1119
  710TMC3    C510550   2.235   3.776   0.832  0.0644  0.0239  0.1768
  710TMC3    C610551   2.297   3.806   0.711  0.6647  0.4021  0.3564
  710TMC3     C10552   1.898   3.751   0.721 -0.1742  0.7102 -0.9219
  710TMC3     O10553   1.849   3.673   0.804  0.6868 -0.4565  0.2355
  710TMC3     H10554   2.043   3.794   0.500  1.9002 -0.3694 -0.3502
  710TMC3    H110555   2.050   3.744   0.925  0.7668  0.9251  0.3636
  710TMC3    H210556   2.404   3.827   0.705  0.8288 -0.5083  0.1731
  710TMC3    C710557   2.306   3.712   0.932  0.4118  0.0930 -0.5134
  710TMC3    C810558   2.291   3.837   0.467 -0.7588 -0.1542 -0.7698
  710TMC3    O110559   2.247   3.616   0.984 -0.2835 -0.5370  0.0909
  710TMC3    O210560   2.230   3.830   0.362  0.2501 -0.3087 -0.3175
  711TMC3    C110561   2.040   0.200  14.515  0.7417  0.5281 -0.0169
  711TMC3    C210562   1.969   0.309  14.545 -0.1030 -0.5138  0.8854
  711TMC3    C310563   2.039   0.407  14.602  0.1300 -0.2960 -1.1285
  711TMC3    C410564   2.174   0.196  14.542 -0.5843 -0.7609 -0.2697
  711TMC3    C510565   2.236   0.300  14.602  0.1884  0.1351  0.5557
  711TMC3    C610566   2.173   0.415  14.628 -0.5422 -0.1405  0.1267
  711TMC3     C10567   1.963   0.081  14.504  0.0945  0.6191 -1.0710
  711TMC3     O10568   1.860   0.070  14.438  0.1884  0.6279 -0.3963
  711TMC3     H10569   1.861   0.313  14.534  0.1067 -0.6045 -1.1686
  711TMC3    H110570   2.218   0.100  14.515  1.0926 -0.3673  1.0400
  711TMC3    H210571   2.210   0.490  14.696  2.6864  0.0831 -1.8836
  711TMC3    C710572   2.365   0.288  14.667  1.1516  0.5343 -0.0668
  711TMC3    C810573   1.951   0.503  14.667  0.0648 -0.0216 -0.4748
  711TMC3    O110574   2.420   0.387  14.721 -0.7859  0.1974  0.8731
  711TMC3    O210575   1.853   0.547  14.608  0.0496 -0.1612 -0.1236
  712MPD2     C10576   3.445   0.988  13.880  0.6116  0.0595  0.8449
  712MPD2    C110577   3.327   1.036  13.820 -0.5697  0.2533 -0.6354
  712MPD2    C210578   3.312   1.172  13.791  0.5391 -0.4999  0.2110
  712MPD2    C310579   3.417   1.256  13.825 -0.0881 -0.6232 -0.1770
  712MPD2    C410580   3.528   1.200  13.881  0.8966 -0.0226  0.5890
  712MPD2    C510581   3.546   1.072  13.913  0.0904  0.1072 -0.0586
  712MPD2     H10582   3.222   1.203  13.740  0.4851  1.5066  1.5255
  712MPD2    H110583   3.616   1.261  13.898  3.0495 -2.7089 -1.0926
  712MPD2    H210584   3.462   0.885  13.907  0.5779 -0.2309 -0.2297
  712MPD2    H310585   3.645   1.038  13.945  0.2173  1.5703  1.1130
  712MPD2     N10586   3.415   1.392  13.790 -0.3930 -0.0824 -0.5786
  712MPD2    H510587   3.505   1.436  13.806  0.3550 -2.4005  1.8148
  712MPD2    N110588   3.227   0.950  13.768 -0.4699 -0.3598  0.1385
  712MPD2    H710589   3.144   0.988  13.722 -0.5836 -0.2183  0.4605
  713TMC3    C110590   3.337   1.602  13.706  0.6347 -0.1584 -0.1811
  713TMC3    C210591   3.460   1.654  13.733 -0.3951  0.3631 -0.2189
  713TMC3    C310592   3.484   1.785  13.699 -0.1497  0.9598  0.0758
  713TMC3    C410593   3.242   1.665  13.635 -0.4681  0.1705 -0.4894
  713TMC3    C510594   3.274   1.791  13.604  0.1554  0.0437 -0.2025
  713TMC3    C610595   3.393   1.852  13.628  0.4703  0.1816  0.5121
  713TMC3     C10596   3.305   1.465  13.734  0.1004 -0.5283 -0.1459
  713TMC3     O10597   3.194   1.427  13.707 -0.4723  0.6924  0.7599
  713TMC3     H10598   3.522   1.613  13.812 -0.7246  2.8837  1.3479
  713TMC3    H110599   3.154   1.612  13.602 -0.0672  0.3150 -1.7958
  713TMC3    H210600   3.417   1.955  13.604 -0.6265  0.0600 -1.0982
  713TMC3    C710601   3.169   1.883  13.573  0.4192 -0.0608 -0.4405
  713TMC3    C810602   3.611   1.853  13.731  0.7699  0.2030 -0.0863
  713TMC3    O110603   3.207   1.989  13.518 -0.2413  0.1010  0.3106
  713TMC3    O210604   3.641   1.956  13.670  0.1796 -0.2253 -0.7286
  714MPD2     C10605   0.859   0.086   1.406  0.2616 -0.2975 -0.9451
  714MPD2    C110606   0.838   0.028   1.282  0.0170  0.2784 -0.2402
  714MPD2    C210607   0.720   0.041   1.221 -1.1026  0.6607 -0.8752
  714MPD2    C310608   0.624   0.122   1.286 -0.1452  0.1453  0.6185
  714MPD2    C410609   0.650   0.178   1.400  0.6546 -0.3687  0.7705
  714MPD2    C510610   0.767   0.168   1.461  0.4343 -0.2661  0.3835
  714MPD2     H10611   0.698   4.735   1.124  0.9450 -0.7586 -0.7041
  714MPD2    H110612   0.579   0.247   1.445  1.0078 -0.0201  0.7869
  714MPD2    H210613   0.944   0.070   1.470 -0.7684  0.1348  0.5364
  714MPD2    H310614   0.777   0.196   1.565  0.0884 -1.5520  0.7581
  714MPD2     N10615   0.508   0.137   1.211  0.0704  0.2715  0.4570
  714MPD2    H510616   0.495   0.101   1.117  1.3601 -0.1498  0.4460
  714MPD2    N110617   0.949   4.676   1.241  0.2659 -0.0414  0.5000
  714MPD2    H710618   1.033   4.665   1.297  0.7656 -0.1301 -0.2645
  715TMC3    C110619   1.045   4.489   1.152 -0.1324 -0.5454  0.1384
  715TMC3    C210620   1.021   4.358   1.170 -0.2257  0.1091  0.4052
  715TMC3    C310621   1.117   4.284   1.224 -0.0785 -0.3495  0.1680
  715TMC3    C410622   1.173   4.547   1.182 -0.3306 -0.5176 -0.0414
  715TMC3    C510623   1.268   4.454   1.211 -0.0800 -0.0959 -0.6359
  715TMC3    C610624   1.250   4.320   1.243  0.0612  0.3476  0.1692
  715TMC3     C10625   0.929   4.576   1.147  0.6990  0.0454  0.7469
  715TMC3     O10626   0.822   4.544   1.092  0.2525 -0.2327  0.3949
  715TMC3     H10627   0.925   4.320   1.135 -0.9242  1.9485  0.3533
  715TMC3    H110628   1.190   4.654   1.179  0.3054 -0.5822  0.9144
  715TMC3    H210629   1.326   4.256   1.287 -0.1861 -0.6437 -0.8329
  715TMC3    C710630   1.393   4.515   1.243  1.0536  0.3810  0.3244
  715TMC3    C810631   1.075   4.144   1.230  0.2330 -0.7397  0.0807
  715TMC3    O110632   1.416   4.625   1.198 -0.5325 -0.6690 -0.7099
  715TMC3    O210633   0.984   4.104   1.160  0.1915 -0.6008 -0.2099
  716MPD2     C10634   4.343   3.214   9.199 -0.3711 -0.2096 -0.1897
  716MPD2    C110635   4.260   3.102   9.182  0.9309  0.4073  0.2093
  716MPD2    C210636   4.324   2.972   9.179 -0.3509 -0.1286 -0.5513
  716MPD2    C310637   4.465   2.965   9.202 -0.7790 -0.1618  0.8603
  716MPD2    C410638   4.541   3.079   9.228 -0.4676  0.5444 -0.1533
  716MPD2    C510639   4.478   3.196   9.219 -0.2916  0.6530 -0.7109
  716MPD2     H10640   4.262   2.885   9.162  0.5520 -0.6168 -1.3510
  716MPD2    H110641   4.645   3.074   9.256 -0.5693  2.0837  0.5107
  716MPD2    H210642   4.302   3.314   9.194  0.0480  0.0204  1.0653
  716MPD2    H310643   4.531   3.286   9.248 -1.3822  1.2925 -0.6776
  716MPD2     N10644   4.520   2.840   9.184  0.5848  0.4839 -0.2563
  716MPD2    H510645   4.457   2.778   9.134 -0.1192 -0.4394  1.7777
  716MPD2    N110646   4.121   3.121   9.161  0.3886  0.5164  0.3777
  716MPD2    H710647   4.088   3.217   9.161  0.7802  0.6509 -0.4878
  717TMC3    C110648   4.691   2.707   9.114 -0.1902  0.5801 -0.3924
  717TMC3    C210649   4.600   2.668   9.019 -0.2713  0.3409 -0.3635
  717TMC3    C310650   4.605   2.540   8.978 -0.4921 -0.2587 -0.0414
  717TMC3    C410651   0.038   2.614   9.174 -0.2559 -0.1196 -0.2495
  717TMC3    C510652   0.026   2.482   9.131 -0.1889  0.0744  0.7256
  717TMC3    C610653   4.670   2.440   9.044 -0.1214 -0.0707 -0.9455
  717TMC3     C10654   4.656   2.818   9.197  0.2445 -0.3552 -0.4437
  717TMC3     O10655   0.007   2.880   9.255  0.2395 -0.3096 -0.9119
  717TMC3     H10656   4.525   2.736   8.982 -0.8634 -0.2798 -0.2915
  717TMC3    H110657   0.106   2.644   9.254 -0.0518  2.5332 -1.3996
  717TMC3    H210658   4.672   2.337   9.011  1.8888 -0.2343 -0.3019
  717TMC3    C710659   0.104   2.382   9.217  0.6105 -0.0315  0.0042
  717TMC3    C810660   4.511   2.505   8.869  0.6773 -0.6347  0.0369
  717TMC3    O110661   0.202   2.421   9.274  0.9134  0.2703  0.7599
  717TMC3    O210662   4.482   2.600   8.795  0.4388 -0.7359  0.4611
  718MPD2     C10663   0.164   1.136  13.788  0.4303 -0.1960  0.0683
  718MPD2    C110664   0.103   1.054  13.691  0.1485  1.0299 -0.0339
  718MPD2    C210665   4.712   1.009  13.715  0.0640  0.2840 -0.0716
  718MPD2    C310666   4.650   1.048  13.829  0.3754 -0.5769 -0.4295
  718MPD2    C410667   4.704   1.129  13.922  0.6923 -0.0120 -0.4143
  718MPD2    C510668   0.096   1.171  13.905 -0.5077  0.0780  0.1101
  718MPD2     H10669   4.662   0.941  13.646  0.3082  1.2581 -1.2107
  718MPD2    H110670   4.656   1.153  14.017  0.9286 -3.1005  0.4770
  718MPD2    H210671   0.268   1.164  13.777  0.9675 -2.2979 -0.1364
  718MPD2    H310672   0.145   1.226  13.984 -1.8069  0.3260  0.7380
  718MPD2     N10673   4.521   0.990  13.849  0.0330 -0.1158 -0.0495
  718MPD2    H510674   4.478   0.937  13.775 -0.1592 -0.3894  0.2558
  718MPD2    N110675   0.179   1.019  13.576 -0.0460 -0.2201  1.0474
  718MPD2    H710676   0.278   1.039  13.587 -0.3980  1.5878  0.9051
  719TMC3    C110677   0.211   0.871  13.401 -0.4692  0.6660  1.0610
  719TMC3    C210678   0.217   0.748  13.466  0.0781  0.2791 -0.3208
  719TMC3    C310679   0.198   0.643  13.387 -0.5605  0.0436  0.3742
  719TMC3    C410680   0.201   0.875  13.266  0.4105 -0.1895 -0.0883
  719TMC3    C510681   0.218   0.761  13.193  0.7469  0.7733  0.1234
  719TMC3    C610682   0.205   0.641  13.250 -0.5938  0.4447  0.2119
  719TMC3     C10683   0.122   0.967  13.460 -0.0330 -0.2833 -0.3292
  719TMC3     O10684   0.007   0.964  13.421  0.5298  0.1921 -0.5105
  719TMC3     H10685   0.215   0.748  13.575 -1.1033  2.6071 -0.3619
  719TMC3    H110686   0.212   0.974  13.223  0.8962  0.1626  0.8487
  719TMC3    H210687   0.180   0.554  13.191 -0.5420 -0.3936  1.4165
  719TMC3    C710688   0.234   0.763  13.051 -0.0310  0.3642  0.5785
  719TMC3    C810689   0.085   0.567  13.442  0.2931  0.2114  0.1603
  719TMC3    O110690   0.218   0.876  13.015 -0.1260 -0.1726 -0.2314
  719TMC3    O210691   4.713   0.581  13.387  0.1598 -0.4442  0.5094
  720MPD2     C10692   2.968   3.138  13.808 -0.1477 -0.0858  0.1943
  720MPD2    C110693   3.061   3.084  13.724  0.6198 -0.4414 -0.4505
  720MPD2    C210694   3.179   3.044  13.773 -0.2398  0.2334  0.7871
  720MPD2    C310695   3.216   3.061  13.902  0.1997  1.5030  0.9139
  720MPD2    C410696   3.120   3.120  13.987 -0.5209 -0.0974  0.0713
  720MPD2    C510697   2.995   3.151  13.942  0.2372 -0.2270 -0.7635
  720MPD2     H10698   3.254   2.996  13.711  0.8106  0.1487  2.1242
  720MPD2    H110699   3.143   3.117  14.093  0.9238  1.7119 -0.2051
  720MPD2    H210700   2.866   3.160  13.780 -0.0128 -0.6956 -0.8193
  720MPD2    H310701   2.912   3.180  14.005  0.8839 -0.2713  0.1122
  720MPD2     N10702   3.348   3.024  13.941  0.6666 -0.2051 -0.1347
  720MPD2    H510703   3.406   2.978  13.872  1.0097  0.4469 -0.2803
  720MPD2    N110704   3.030   3.058  13.590  0.1205  0.2754 -0.4346
  720MPD2    H710705   3.093   2.995  13.542 -1.6766 -3.4598  2.1580
  721TMC3    C110706   3.545   2.997  14.076  0.2347 -0.4269  0.0204
  721TMC3    C210707   3.596   3.000  14.201 -0.0996 -0.5428 -0.0024
  721TMC3    C310708   3.730   2.992  14.226 -0.7698 -0.4332  0.0167
  721TMC3    C410709   3.631   2.979  13.969  0.2608  1.2577  0.6456
  721TMC3    C510710   3.767   2.974  13.995  0.0426  0.5283 -0.7305
  721TMC3    C610711   3.812   2.975  14.124  0.1011  0.3939 -0.0049
  721TMC3     C10712   3.402   3.035  14.070  0.3830  0.6006 -0.1205
  721TMC3     O10713   3.343   3.059  14.174  0.3031  0.2538 -0.1936
  721TMC3     H10714   3.527   3.019  14.282  1.6164  1.3598  1.0141
  721TMC3    H110715   3.592   2.979  13.868  0.3474 -2.1685  0.5835
  721TMC3    H210716   3.914   2.951  14.151  0.5008  1.3030 -0.7122
  721TMC3    C710717   3.859   2.976  13.886  0.1926  0.1264 -0.6660
  721TMC3    C810718   3.777   2.958  14.364 -0.6035  0.2463  0.0765
  721TMC3    O110719   3.977   3.003  13.917  0.1787 -0.2158  0.1698
  721TMC3    O210720   3.891   2.912  14.366 -0.1096  0.4255 -0.2723
  722MPD2     C10721   2.121   1.347  13.468 -0.1097 -0.0861 -0.1857
  722MPD2    C110722   2.030   1.448  13.490  0.9154  0.2559 -0.1891
  722MPD2    C210723   1.916   1.449  13.419  0.3491 -0.0697  0.4787
  722MPD2    C310724   1.878   1.346  13.337  0.2396 -0.8020  0.6337
  722MPD2    C410725   1.961   1.237  13.313  0.0717  0.6332 -0.0412
  722MPD2    C510726   2.079   1.243  13.382 -0.7247  0.0665 -0.4665
  722MPD2     H10727   1.850   1.531  13.443 -1.3726 -0.7358 -1.9540
  722MPD2    H110728   1.944   1.150  13.250  1.5733 -1.2826  2.2011
  722MPD2    H210729   2.222   1.352  13.507 -0.4630  0.2793  0.6776
  722MPD2    H310730   2.145   1.161  13.355 -1.6593  0.0661 -2.6968
  722MPD2     N10731   1.744   1.354  13.281  0.0381  0.4211  0.3683
  722MPD2    H510732   1.684   1.434  13.298 -0.2596  0.1584  0.5678
  722MPD2    N110733   2.063   1.558  13.564  0.5351  0.0559  0.7598
  722MPD2    H710734   2.002   1.638  13.555 -0.0030 -0.1210  2.7639
  723TMC3    C110735   1.579   1.303  13.124  0.4356 -0.1895 -0.4803
  723TMC3    C210736   1.473   1.217  13.109 -0.2365  0.4042  0.4896
  723TMC3    C310737   1.372   1.262  13.033 -0.4082 -0.2605  0.2080
  723TMC3    C410738   1.577   1.438  13.072  0.3134 -0.2802  0.3520
  723TMC3    C510739   1.455   1.472  13.017  0.1665  0.3619 -0.4793
  723TMC3    C610740   1.347   1.392  12.995  0.2508  0.4357  0.2430
  723TMC3     C10741   1.692   1.254  13.200  0.6645  0.2014 -0.0521
  723TMC3     O10742   1.706   1.132  13.206 -0.4230  0.7050  0.4182
  723TMC3     H10743   1.492   1.116  13.145 -1.7036  0.1762  0.6006
  723TMC3    H110744   1.660   1.508  13.078 -0.3320  0.8100 -3.1414
  723TMC3    H210745   1.248   1.429  12.972 -0.9130 -3.5183 -1.2137
  723TMC3    C710746   1.439   1.608  12.982 -0.1557  0.5167 -0.0497
  723TMC3    C810747   1.260   1.175  13.033  0.0318  0.4687  0.2627
  723TMC3    O110748   1.485   1.696  13.056 -0.5834 -0.3175 -0.4758
  723TMC3    O210749   1.156   1.230  13.008 -0.3057  0.0351  0.0874
  724TMC3    C110750   1.894   4.226  10.892 -0.3866  1.0377 -0.0193
  724TMC3    C210751   1.886   4.234  10.757  0.2945 -0.1392  0.1824
  724TMC3    C310752   1.984   4.303  10.684 -0.1976  0.0586  0.0841
  724TMC3    C410753   1.977   4.314  10.956 -0.3253  0.3577 -0.5891
  724TMC3    C510754   2.067   4.384  10.881  0.2583  0.2539  0.0312
  724TMC3    C610755   2.073   4.381  10.744 -0.3131 -0.5611  0.9298
  724TMC3     C10756   1.799   4.140  10.958 -0.7291 -0.2083  0.1124
  724TMC3     O10757   1.697   4.117  10.891 -0.0675 -0.2046  0.1775
  724TMC3     H10758   1.841   4.149  10.707 -2.0352  0.1731  1.7098
  724TMC3    H110759   1.977   4.308  11.064 -0.0182 -1.4334 -0.6829
  724TMC3    H210760   2.139   4.437  10.679 -0.2311  0.3134  1.7770
  724TMC3    C710761   2.160   4.474  10.950 -0.0547 -0.0785 -0.8593
  724TMC3    C810762   1.960   4.301  10.542  0.2610  0.2860 -0.7765
  724TMC3    O110763   2.138   4.494  11.068 -0.5807 -0.5221 -0.4343
  724TMC3    O210764   1.879   4.224  10.492 -0.2523 -0.1952 -0.2720
  725TMC3    C110765   3.962   2.969  12.665  0.1890 -0.3154  0.3810
  725TMC3    C210766   3.828   2.964  12.638 -0.7103 -0.2026 -0.3717
  725TMC3    C310767   3.771   2.838  12.635  0.4938 -0.2347  0.4990
  725TMC3    C410768   4.030   2.852  12.688  0.5029  0.5207  0.0614
  725TMC3    C510769   3.967   2.733  12.701  0.0897 -0.7545 -0.4275
  725TMC3    C610770   3.831   2.727  12.679 -0.3612 -0.2681 -0.7476
  725TMC3     C10771   4.023   3.106  12.675  0.1132  0.0863  0.4515
  725TMC3     O10772   3.941   3.195  12.669  0.1328  0.1154  0.4809
  725TMC3     H10773   3.772   3.056  12.624 -0.7978 -0.2347 -0.2326
  725TMC3    H110774   4.138   2.853  12.700  0.8844  1.6892 -3.4845
  725TMC3    H210775   3.777   2.632  12.681 -1.1365  0.1679 -0.9742
  725TMC3    C710776   4.049   2.614  12.714  0.2086  0.5172  0.4330
  725TMC3    C810777   3.624   2.838  12.615  0.6161 -0.1813 -0.7710
  725TMC3    O110778   4.165   2.629  12.676  0.0042 -0.3727  0.1359
  725TMC3    O210779   3.550   2.775  12.689  0.5484  1.0746  0.0829
  726MPD2     C10780   1.279   4.655  10.218 -0.0733 -0.0629  0.1789
  726MPD2    C110781   1.190   4.697  10.116 -0.0719  0.0743 -0.7899
  726MPD2    C210782   1.059   4.655  10.120  0.5590 -0.0858 -0.2264
  726MPD2    C310783   1.011   4.567  10.213  0.5529 -0.1627  0.4718
  726MPD2    C410784   1.094   4.531  10.316 -0.4221 -0.8709  0.5474
  726MPD2    C510785   1.229   4.567  10.313  0.2849  0.3558 -0.2777
  726MPD2     H10786   0.987   4.688  10.047  0.0145 -1.3138 -0.2576
  726MPD2    H110787   1.055   4.467  10.394 -0.1339  0.1615  1.5415
  726MPD2    H210788   1.383   4.684  10.231 -0.1627 -0.4011  1.6255
  726MPD2    H310789   1.294   4.530  10.391  0.0646 -1.6763 -1.0403
  726MPD2     N10790   0.877   4.520  10.220  0.2245  0.4739 -0.4438
  726MPD2    H510791   0.851   4.462  10.299 -0.9938  1.6143 -0.0034
  726MPD2    N110792   1.236   0.055  10.024 -0.5856  0.3895  0.6144
  726MPD2    H710793   1.304   0.123  10.055 -2.5194  1.5523  2.3441
  727TMC3    C110794   1.182   0.246   9.898 -0.4323 -0.0691  0.4691
  727TMC3    C210795   1.223   0.312  10.010  0.5620  0.9725 -0.3606
  727TMC3    C310796   1.248   0.448  10.003  0.6641  0.1395 -1.0034
  727TMC3    C410797   1.180   0.309   9.775  0.4209  0.5689 -0.4431
  727TMC3    C510798   1.238   0.439   9.766  0.7537 -0.3081 -0.3512
  727TMC3    C610799   1.269   0.511   9.879  0.2303 -0.0830  0.2985
  727TMC3     C10800   1.163   0.101   9.917  0.1936  1.0831 -0.9158
  727TMC3     O10801   1.077   0.037   9.857 -0.0985 -0.1232  0.0066
  727TMC3     H10802   1.232   0.263  10.107  1.4266  0.9998 -0.4345
  727TMC3    H110803   1.151   0.247   9.691 -0.3432  1.6401 -0.9621
  727TMC3    H210804   1.303   0.613   9.867 -4.5955  1.1652 -2.6068
  727TMC3    C710805   1.246   0.513   9.640  0.0058 -0.0440  0.1266
  727TMC3    C810806   1.297   0.512  10.124 -0.1646  0.5382 -0.4599
  727TMC3    O110807   1.257   0.636   9.643 -0.0655  0.5230  0.2810
  727TMC3    O210808   1.327   0.446  10.217  0.3226  0.2738  0.5885
  728TMC3    C110809   1.027   3.591  15.147  0.1247  0.1171  0.0650
  728TMC3    C210810   1.157   3.584  15.168 -0.3747  0.5678 -0.1887
  728TMC3    C310811   1.231   3.588  15.053 -0.0818 -0.5743 -0.1448
  728TMC3    C410812   0.966   3.597  15.026 -0.2744 -0.1785 -0.0746
  728TMC3    C510813   1.041   3.579  14.916  0.2127 -0.1762  0.0055
  728TMC3    C610814   1.178   3.587  14.924 -0.0469 -0.4304 -0.4496
  728TMC3     C10815   0.943   3.605  15.264 -0.4907 -0.0735 -0.0012
  728TMC3     O10816   1.000   3.632  15.371  0.6349  0.1524 -0.6883
  728TMC3     H10817   1.207   3.588  15.264 -1.3918  0.9470  0.3309
  728TMC3    H110818   0.859   3.614  15.017 -0.2091  0.5477  0.5706
  728TMC3    H210819   1.240   3.550  14.843  0.6899 -1.1539  0.4414
  728TMC3    C710820   0.981   3.607  14.780  0.7245  0.4836  1.2081
  728TMC3    C810821   1.357   3.657  15.067 -0.0288  0.2583 -0.0397
  728TMC3    O110822   0.858   3.595  14.773 -0.4310  0.1506 -0.2867
  728TMC3    O210823   1.421   3.640  15.171 -0.1473  0.4754  0.4294
  729MPD2     C10824   2.841   0.609  17.021 -0.0958  0.4234 -0.4546
  729MPD2    C110825   2.924   0.499  17.012 -0.3106 -0.0969 -0.4705
  729MPD2    C210826   2.970   0.451  17.131  0.3078 -0.9322  0.3225
  729MPD2    C310827   2.946   0.520  17.252 -0.1106  0.3764  0.3344
  729MPD2    C410828   2.877   0.636  17.253 -0.3802  0.0801  0.1580
  729MPD2    C510829   2.831   0.680  17.134  0.0778 -0.1269 -0.3428
  729MPD2     H10830   3.020   0.354  17.130 -0.6179 -1.4065 -0.3541
  729MPD2    H110831   2.864   0.692  17.345  0.9962 -0.1695  0.5030
  729MPD2    H210832   2.793   0.640  16.929 -0.2552 -0.0842 -0.5453
  729MPD2    H310833   2.771   0.771  17.135  0.4642  0.1414 -2.9830
  729MPD2     N10834   3.011   0.480  17.371  0.1733  0.3035  0.5446
  729MPD2    H510835   2.998   0.536  17.455  0.0035 -0.6661  1.1755
  729MPD2    N110836   2.970   0.462  16.890 -0.5269  0.1695  0.5432
  729MPD2    H710837   2.930   0.504  16.806 -1.1430 -1.0811  0.2162
  730TMC3    C110838   3.134   0.368  17.522 -0.2280 -0.0878 -0.1987
  730TMC3    C210839   3.267   0.354  17.518  0.0944 -0.1986  0.9042
  730TMC3    C310840   3.355   0.435  17.583 -0.1735  0.0440  0.3585
  730TMC3    C410841   3.079   0.457  17.611  0.3265  0.6486 -0.1940
  730TMC3    C510842   3.158   0.528  17.695  0.0662 -0.4653 -0.2218
  730TMC3    C610843   3.295   0.508  17.685 -0.3136 -0.2763 -0.6373
  730TMC3     C10844   3.076   0.361  17.391 -0.4818 -0.4138 -0.4154
  730TMC3     O10845   3.112   0.280  17.309  0.4616 -0.3330  0.4870
  730TMC3     H10846   3.294   0.288  17.437 -0.6705  1.6853 -0.8724
  730TMC3    H110847   2.973   0.463  17.631  1.1759  2.8100  3.5894
  730TMC3    H210848   3.355   0.545   0.022 -1.2422  2.1057 -1.0297
  730TMC3    C710849   3.129   0.662  17.678  0.3098  1.0474  0.0727
  730TMC3    C810850   3.439   0.513  17.496  0.2952  0.1733 -0.8474
  730TMC3    O110851   3.073   0.688  17.574 -0.2582 -0.4025  0.0860
  730TMC3    O210852   3.443   0.481  17.376 -0.0560 -0.4290  0.6973
  731MPD2     C10853   3.017   2.670  12.502  0.6068  0.1942  0.5935
  731MPD2    C110854   3.056   2.604  12.620  0.5890 -0.0447 -0.4943
  731MPD2    C210855   2.982   2.604  12.733 -0.6121  0.3506 -0.3093
  731MPD2    C310856   2.858   2.663  12.731 -0.5061 -0.1368 -0.9004
  731MPD2    C410857   2.810   2.721  12.615 -0.0034 -0.0487  0.1852
  731MPD2    C510858   2.894   2.721  12.503  0.9699 -0.3398 -0.6864
  731MPD2     H10859   3.023   2.563  12.825  2.2460  1.2419 -1.1974
  731MPD2    H110860   2.713   2.765  12.594 -0.1107  0.4076  1.6185
  731MPD2    H210861   3.087   2.676  12.419 -0.6344 -2.7791 -0.6826
  731MPD2    H310862   2.855   2.768  12.413 -0.4625 -0.2955 -0.0403
  731MPD2     N10863   2.787   2.669  12.847 -0.6534  0.0885  0.2453
  731MPD2    H510864   2.843   2.634  12.924  0.9005 -1.6311 -1.6731
  731MPD2    N110865   3.184   2.546  12.617  0.7387  0.3770  0.2197
  731MPD2    H710866   3.239   2.561  12.533  0.5460 -2.7578 -0.4784
  732TMC3    C110867   3.379   2.411  12.698  0.0713  0.2923 -0.9418
  732TMC3    C210868   3.397   2.277  12.708 -0.3787 -0.3055  0.0424
  732TMC3    C310869   3.480   2.211  12.613 -0.3808 -0.7224  0.2009
  732TMC3    C410870   3.450   2.482  12.612 -0.1571  0.2399 -0.3645
  732TMC3    C510871   3.543   2.419  12.529  0.1852 -0.1983 -0.4341
  732TMC3    C610872   3.559   2.282  12.534  0.2542  0.4703  0.3325
  732TMC3     C10873   3.239   2.459  12.715  0.1163  0.4410  0.8734
  732TMC3     O10874   3.174   2.403  12.800  0.7165 -0.2086 -0.6844
  732TMC3     H10875   3.337   2.209  12.768 -1.9185  0.0421 -1.1351
  732TMC3    H110876   3.436   2.589  12.598 -1.2628  0.0104 -1.0322
  732TMC3    H210877   3.638   2.241  12.472  1.1983  0.3847  1.5992
  732TMC3    C710878   3.630   2.496  12.440  0.2408 -0.6035  0.2045
  732TMC3    C810879   3.408   2.109  12.541  0.0536  0.7299 -0.1331
  732TMC3    O110880   3.583   2.596  12.396  0.4130  0.3428  0.2418
  732TMC3    O210881   3.308   2.053  12.596  0.2092 -0.8079 -0.2720
  733TMC3    C110882   4.215   0.788  13.795  0.1994 -0.1319  0.0187
  733TMC3    C210883   4.283   0.899  13.838 -0.8937  0.3883  0.8031
  733TMC3    C310884   4.355   0.886  13.951  0.9380  0.1589 -0.2001
  733TMC3    C410885   4.236   0.665  13.843 -0.0406  1.0411  0.3250
  733TMC3    C510886   4.309   0.649  13.957 -0.6930  0.2170  0.7119
  733TMC3    C610887   4.372   0.759  14.004  0.0456  0.2049 -0.0570
  733TMC3     C10888   4.129   0.794  13.670 -1.2166 -0.2265 -0.5824
  733TMC3     O10889   4.106   0.906  13.634  0.6458 -0.1374 -0.4332
  733TMC3     H10890   4.275   0.999  13.797  1.1103 -0.2800 -1.1707
  733TMC3    H110891   4.186   0.576  13.806  0.8927  1.2344 -1.3777
  733TMC3    H210892   4.446   0.751  14.083 -0.4368  1.6582  0.5375
  733TMC3    C710893   4.394   0.534  13.953 -0.8544 -0.0887  0.7055
  733TMC3    C810894   4.464   0.979  13.971  0.2707  0.3815 -0.6037
  733TMC3    O110895   4.413   0.479  14.059 -0.6048  0.4215 -0.1953
  733TMC3    O210896   4.514   0.995  14.082  0.6663 -0.4445  0.6230
  734MPD2     C10897   1.163   3.178  12.421 -0.1815  0.0468 -0.3798
  734MPD2    C110898   1.104   3.084  12.343 -0.2664 -0.3232  0.2208
  734MPD2    C210899   1.121   3.090  12.205 -0.7037 -0.6864  0.5898
  734MPD2    C310900   1.210   3.182  12.145  0.4407  0.2099 -0.2856
  734MPD2    C410901   1.271   3.278  12.225 -0.6213 -0.5398 -0.1703
  734MPD2    C510902   1.245   3.270  12.363  0.1607  0.4146 -0.1040
  734MPD2     H10903   1.081   3.012  12.141 -0.1493 -1.6476  1.4221
  734MPD2    H110904   1.331   3.361  12.190 -0.5104 -1.6269 -2.5393
  734MPD2    H210905   1.146   3.192  12.528 -0.2122 -1.9856 -0.1228
  734MPD2    H310906   1.307   3.323  12.435 -0.4796  0.0317  0.7274
  734MPD2     N10907   1.217   3.175  12.001  0.3026  0.3884 -1.0188
  734MPD2    H510908   1.164   3.101  11.957 -1.5124  2.3029 -2.0357
  734MPD2    N110909   1.043   2.974  12.399 -0.0768  0.6895 -0.1856
  734MPD2    H710910   1.045   2.968  12.501  0.4283 -1.8927 -0.3537
  735TMC3    C110911   0.908   2.782  12.410  0.2391 -0.0641 -0.2567
  735TMC3    C210912   0.805   2.727  12.339  0.2163  0.4166 -0.8972
  735TMC3    C310913   0.811   2.596  12.307 -0.1322 -0.3579  0.6352
  735TMC3    C410914   1.002   2.698  12.458 -0.1975  0.6782 -0.3446
  735TMC3    C510915   1.004   2.565  12.418  0.6911  0.1323  0.2745
  735TMC3    C610916   0.911   2.510  12.340 -0.0983  0.0183 -0.0126
  735TMC3     C10917   0.957   2.889  12.327 -0.0521 -0.9277 -0.7876
  735TMC3     O10918   0.908   2.892  12.216 -0.0682 -0.2268  0.2762
  735TMC3     H10919   0.720   2.788  12.310  0.6582  1.4798  0.0429
  735TMC3    H110920   1.089   2.735  12.511 -0.2481 -0.8611  0.8387
  735TMC3    H210921   0.910   2.404  12.316  2.1355  0.0082 -0.0469
  735TMC3    C710922   1.142   2.536  12.382  0.5084 -0.4022 -0.1704
  735TMC3    C810923   0.764   2.572  12.169  0.3425  0.1344  0.1903
  735TMC3    O110924   1.218   2.632  12.381 -0.2956  0.2915  0.1757
  735TMC3    O210925   0.739   2.455  12.144  0.3005  0.5723  0.4777
  736MPD2     C10926   1.307   2.205  12.363  1.2880  0.3908 -0.7938
  736MPD2    C110927   1.288   2.339  12.334 -0.2982  0.2061 -0.0447
  736MPD2    C210928   1.392   2.414  12.281  0.1006 -0.3426  0.4023
  736MPD2    C310929   1.521   2.368  12.295 -0.2051  0.4438 -0.1273
  736MPD2    C410930   1.538   2.242  12.340  0.1940 -0.3811 -0.5980
  736MPD2    C510931   1.434   2.161  12.380  0.2327 -0.3770  0.8529
  736MPD2     H10932   1.373   2.512  12.239  0.7792  0.3683  1.7555
  736MPD2    H110933   1.636   2.195  12.344 -0.0810 -0.6466  2.5126
  736MPD2    H210934   1.228   2.144  12.404  0.7206  1.2331 -0.6383
  736MPD2    H310935   1.463   2.058  12.399 -1.3962 -1.2870 -1.6030
  736MPD2     N10936   1.636   2.438  12.253 -0.3837  0.1117  0.8535
  736MPD2    H510937   1.713   2.376  12.232 -0.8456 -0.7638  1.7316
  736MPD2    N110938   1.167   2.398  12.365 -0.3950  0.4239 -0.3867
  736MPD2    H710939   1.099   2.333  12.404  0.6423 -0.3125  0.1919
  737TMC3    C110940   1.761   2.627  12.160  0.2513 -0.2680 -0.4806
  737TMC3    C210941   1.747   2.713  12.052  0.4485 -0.2260  0.2375
  737TMC3    C310942   1.848   2.733  11.965  0.2840  0.3863 -0.2614
  737TMC3    C410943   1.875   2.553  12.176 -0.2138 -0.2441 -0.4804
  737TMC3    C510944   1.982   2.578  12.086  0.2349 -0.2458  0.2042
  737TMC3    C610945   1.971   2.673  11.993  0.0686 -0.3442 -0.3864
  737TMC3     C10946   1.634   2.567  12.204 -0.9343  0.1817 -0.2201
  737TMC3     O10947   1.540   2.646  12.208 -0.1605  0.1306 -0.2488
  737TMC3     H10948   1.647   2.752  12.036  0.7881 -0.3141 -2.0433
  737TMC3    H110949   1.903   2.494  12.263 -2.3927  1.6325  1.4915
  737TMC3    H210950   2.045   2.690  11.916 -0.2391 -0.6573 -0.7502
  737TMC3    C710951   2.106   2.502  12.093 -0.2797  0.6228  0.1138
  737TMC3    C810952   1.857   2.865  11.903 -0.3907 -0.4289  0.7772
  737TMC3    O110953   2.119   2.432  12.190 -0.0934 -0.3708  0.4154
  737TMC3    O210954   1.970   2.916  11.894 -0.3119 -0.3772  0.3280
  738MPD2     C10955   2.074   2.354  15.309 -1.1550  0.5070 -0.1219
  738MPD2    C110956   2.067   2.287  15.192 -0.2963 -0.4205 -0.4666
  738MPD2    C210957   2.152   2.318  15.086 -0.9390  0.1996 -0.0171
  738MPD2    C310958   2.225   2.439  15.091 -0.1084  0.0176  0.8663
  738MPD2    C410959   2.216   2.526  15.193  0.3313  0.6631 -0.7248
  738MPD2    C510960   2.147   2.476  15.303 -0.1772  0.2474  0.2966
  738MPD2     H10961   2.154   2.263  14.993  1.6080 -1.3830  0.9958
  738MPD2    H110962   2.264   2.623  15.195 -1.3333  1.5028 -1.7540
  738MPD2    H210963   2.027   2.320  15.401 -1.5048  0.4976 -0.3071
  738MPD2    H310964   2.144   2.539  15.391 -0.0320  0.6192  0.0367
  738MPD2     N10965   2.303   2.472  14.978 -0.4796  0.5242 -0.1222
  738MPD2    H510966   2.299   2.411  14.897  0.6991 -0.2978  0.4469
  738MPD2    N110967   1.980   2.175  15.176 -0.3154 -0.2097 -0.5325
  738MPD2    H710968   1.983   2.132  15.084 -1.0619 -2.1602  0.3620
  739TMC3    C110969   2.474   2.566  14.831 -0.6074  0.0301  0.8114
  739TMC3    C210970   2.425   2.506  14.717  0.3362  0.0352 -0.5308
  739TMC3    C310971   2.510   2.507  14.610 -0.0588 -0.3977 -0.1007
  739TMC3    C410972   2.590   2.637  14.831 -0.0600  0.7907  0.0567
  739TMC3    C510973   2.676   2.633  14.719  0.5623 -0.5366 -0.3018
  739TMC3    C610974   2.641   2.556  14.616 -0.5874  0.0576 -0.2745
  739TMC3     C10975   2.397   2.576  14.964 -0.5406  0.0611  0.4087
  739TMC3     O10976   2.427   2.667  15.039  0.5686 -1.0223 -0.0374
  739TMC3     H10977   2.339   2.440  14.722 -1.2391  2.1261  0.1566
  739TMC3    H110978   2.621   2.678  14.926 -1.2021  0.0082  0.7716
  739TMC3    H210979   2.714   2.541  14.537 -2.2124 -0.5517 -1.6739
  739TMC3    C710980   2.811   2.677  14.723  0.4385 -0.2582 -0.4462
  739TMC3    C810981   2.454   2.476  14.480  0.2243  0.5421 -0.2213
  739TMC3    O110982   2.890   2.623  14.645 -0.2586 -0.8958  0.0180
  739TMC3    O210983   2.352   2.405  14.483  0.1337 -0.1916 -0.4233
  740TMC3    C110984   2.811   3.874  14.361  0.4194  0.7853 -0.1940
  740TMC3    C210985   2.850   3.935  14.472  0.2341  1.1275 -0.2017
  740TMC3    C310986   2.979   3.915  14.509 -0.1581  0.7735 -0.2745
  740TMC3    C410987   2.894   3.810  14.268 -0.3737  0.1433  0.2087
  740TMC3    C510988   3.023   3.785  14.316 -0.0527  0.2852  0.3736
  740TMC3    C610989   3.064   3.839  14.434  0.5644  0.2833 -0.1193
  740TMC3     C10990   2.669   3.851  14.350 -0.4912 -0.3025  0.7147
  740TMC3     O10991   2.624   3.825  14.241 -0.4571  0.2435 -0.7514
  740TMC3     H10992   2.796   4.007  14.533 -0.6949  1.1320 -1.0268
  740TMC3    H110993   2.861   3.757  14.180  1.2705 -1.1588  0.3733
  740TMC3    H210994   3.167   3.832  14.466  0.3541  1.5174  0.8358
  740TMC3    C710995   3.115   3.684  14.269  0.6426  0.4903 -0.0115
  740TMC3    C810996   3.031   3.979  14.626 -0.5809 -0.1642 -0.1450
  740TMC3    O110997   3.178   3.627  14.355 -0.1767  0.1666  0.1444
  740TMC3    O210998   3.140   3.943  14.667 -0.0954  0.0903  0.9469
  741TMC3    C110999   2.240   2.897  14.174  0.2987  0.6950 -0.5684
  741TMC3    C211000   2.165   2.784  14.165  0.0530 -0.1573 -0.2065
  741TMC3    C311001   2.167   2.688  14.264 -0.4436 -0.0375  0.1758
  741TMC3    C411002   2.304   2.931  14.286  0.2720 -0.1786 -0.2663
  741TMC3    C511003   2.292   2.840  14.390 -0.0255  0.3811  0.5615
  741TMC3    C611004   2.222   2.724  14.382 -0.3322  0.2529 -0.0706
  741TMC3     C11005   2.272   2.983  14.058  0.2020 -0.1778  0.7962
  741TMC3     O11006   2.330   3.090  14.078 -0.1305 -0.0702 -0.2844
  741TMC3     H11007   2.110   2.765  14.073 -1.0381  0.0303  0.4150
  741TMC3    H111008   2.341   3.032  14.298  0.1418 -0.5580  3.4507
  741TMC3    H211009   2.209   2.668  14.473  1.4115 -1.0537 -0.6369
  741TMC3    C711010   2.346   2.878  14.522 -0.5452 -0.6282  0.3112
  741TMC3    C811011   2.073   2.582  14.255 -0.0995  0.5799  0.1196
  741TMC3    O111012   2.285   2.838  14.620  0.2257 -0.2716 -0.0430
  741TMC3    O211013   1.974   2.606  14.182 -0.1773  0.2218  0.4679
  742TMC3    C111014   2.141   1.768  15.472  0.3706  0.2785 -0.8476
  742TMC3    C211015   2.074   1.672  15.399 -0.4041 -0.7464 -0.5149
  742TMC3    C311016   2.136   1.581  15.325 -0.3049  0.1114  0.5089
  742TMC3    C411017   2.273   1.771  15.473  0.3237 -0.3001  0.9885
  742TMC3    C511018   2.338   1.675  15.406 -0.1679  0.5445 -0.3812
  742TMC3    C611019   2.277   1.582  15.326 -0.1093 -0.1346 -0.0359
  742TMC3     C11020   2.072   1.868  15.561  0.5447 -0.0615 -0.0538
  742TMC3     O11021   1.979   1.821  15.621 -0.7209  0.9754 -0.2781
  742TMC3     H11022   1.967   1.659  15.416  0.0534 -0.0871  2.9226
  742TMC3    H111023   2.321   1.837  15.544  0.5971  0.4240  0.1189
  742TMC3    H211024   2.338   1.507  15.276  1.3237  0.4292  0.8678
  742TMC3    C711025   2.481   1.665  15.418 -0.1072 -0.1013  0.1995
  742TMC3    C811026   2.068   1.479  15.254 -0.0426  0.4869 -0.0789
  742TMC3    O111027   2.552   1.625  15.329 -0.1817 -0.1688  0.3155
  742TMC3    O211028   2.131   1.442  15.156  0.4590  0.2833 -0.1953
  743MPD2     C11029   4.580   1.797   1.724  0.3806 -0.7332 -0.2972
  743MPD2    C111030   4.600   1.849   1.593 -0.4668 -0.8368 -0.0824
  743MPD2    C211031   4.731   1.879   1.540  0.5311  0.4578  0.2020
  743MPD2    C311032   0.104   1.882   1.623  0.2188  0.1969 -0.2123
  743MPD2    C411033   0.084   1.825   1.749  0.4639 -0.0958 -0.5572
  743MPD2    C511034   4.702   1.783   1.798 -0.6578 -0.7258 -0.6441
  743MPD2     H11035   4.732   1.918   1.439  0.9167 -0.1448 -0.0271
  743MPD2    H111036   0.167   1.816   1.818  0.2101 -1.3790 -0.4103
  743MPD2    H211037   4.484   1.776   1.769 -1.3826  1.8513 -2.7885
  743MPD2    H311038   4.706   1.751   1.902  1.0674  1.2968 -0.0770
  743MPD2     N11039   0.229   1.947   1.582 -0.4344  0.3492 -0.5523
  743MPD2    H511040   0.231   1.981   1.487 -2.6191 -1.4201 -1.2398
  743MPD2    N111041   4.483   1.867   1.513  0.3498  0.1997 -0.0451
  743MPD2    H711042   4.395   1.868   1.565  1.0319  0.9908  1.0993
  744TMC3    C111043   4.333   1.918   1.336  0.3412  1.0250  0.4865
  744TMC3    C211044   4.284   2.040   1.380  0.1106 -0.1669 -0.5408
  744TMC3    C311045   4.234   2.127   1.290  0.2278 -0.6562 -0.1290
  744TMC3    C411046   4.331   1.890   1.208 -0.6162 -0.4223  0.1726
  744TMC3    C511047   4.280   1.977   1.115 -0.9568 -0.8335 -0.2704
  744TMC3    C611048   4.225   2.095   1.157 -0.2963 -0.2507 -0.2285
  744TMC3     C11049   4.468   1.902   1.383  0.0603  0.7136  0.3168
  744TMC3     O11050   4.550   1.907   1.298 -0.0066 -0.2455  0.1667
  744TMC3     H11051   4.294   2.067   1.484 -1.0201 -0.2457 -0.4083
  744TMC3    H111052   4.376   1.796   1.176 -1.3371 -0.9434  0.6844
  744TMC3    H211053   4.174   2.160   1.086 -0.1820  0.2647  0.1637
  744TMC3    C711054   4.361   1.990   0.995  0.0524  0.2325 -0.4035
  744TMC3    C811055   4.142   2.227   1.342 -0.5349  0.0502  0.2066
  744TMC3    O111056   4.398   2.102   0.970 -0.4353 -0.4313  0.1642
  744TMC3    O211057   4.107   2.318   1.267  0.2466  0.1122 -0.0741
  745TMC3    C111058   3.135   0.756  13.678  0.0210 -0.1563  0.2035
  745TMC3    C211059   3.008   0.797  13.712  0.0630  0.6310 -0.3960
  745TMC3    C311060   2.907   0.755  13.626  0.3848  0.0077  0.1811
  745TMC3    C411061   3.166   0.695  13.562 -0.2257  0.3111  0.0015
  745TMC3    C511062   3.067   0.664  13.475 -0.1643  0.4088  0.3269
  745TMC3    C611063   2.937   0.694  13.508 -0.3154  1.0374 -0.5532
  745TMC3     C11064   3.238   0.815  13.760  0.4238  0.0685 -0.0800
  745TMC3     O11065   3.332   0.742  13.796 -0.4206 -1.2677 -0.2980
  745TMC3     H11066   2.976   0.841  13.806 -1.1409 -0.9367 -0.0758
  745TMC3    H111067   3.271   0.670  13.552 -0.3142  0.1206 -0.4626
  745TMC3    H211068   2.859   0.649  13.448  1.3805 -1.0827 -1.1778
  745TMC3    C711069   3.114   0.719  13.345  0.9418  0.2820 -0.1282
  745TMC3    C811070   2.768   0.756  13.667 -0.1244  0.1021 -0.4597
  745TMC3    O111071   3.233   0.747  13.337  0.1270  0.2946 -0.2972
  745TMC3    O211072   2.688   0.776  13.573 -0.2046 -0.1382 -0.3702
  746TMC3    C111073   0.222   2.496  10.913  0.0323 -0.1727  0.2079
  746TMC3    C211074   0.321   2.438  10.833 -0.1066  0.1179  0.6039
  746TMC3    C311075   0.283   2.326  10.769  0.1167 -0.3382 -0.5752
  746TMC3    C411076   0.102   2.428  10.944 -0.8569 -0.4275  0.8542
  746TMC3    C511077   0.084   2.309  10.879  0.4143  0.0870  0.3057
  746TMC3    C611078   0.169   2.259  10.785 -0.2619 -0.6792 -0.5581
  746TMC3     C11079   0.235   2.635  10.949  1.0419 -0.3640 -0.6653
  746TMC3     O11080   0.179   2.669  11.054  0.6599  0.2714 -0.0317
  746TMC3     H11081   0.419   2.483  10.824 -1.1410  2.3131  0.1546
  746TMC3    H111082   0.027   2.472  11.008 -1.0626 -1.0860  1.0664
  746TMC3    H211083   0.153   2.168  10.729  2.0518 -2.3543  1.4361
  746TMC3    C711084   4.697   2.239  10.887 -0.2083 -0.4381 -0.2570
  746TMC3    C811085   0.370   2.288  10.662 -0.4085  0.3664  0.1454
  746TMC3    O111086   4.687   2.144  10.812 -0.4653 -0.0914 -0.0144
  746TMC3    O211087   0.494   2.307  10.680 -0.1596 -0.2360  0.0990
  747TMC3    C111088   2.582   2.520  11.279 -0.1808 -0.3485 -0.6366
  747TMC3    C211089   2.567   2.485  11.408 -0.3867 -0.6103  0.2302
  747TMC3    C311090   2.675   2.457  11.489 -0.1570  0.4145 -0.3480
  747TMC3    C411091   2.707   2.524  11.229 -0.4175  0.2802 -0.2985
  747TMC3    C511092   2.812   2.498  11.313 -0.1932 -0.1563 -0.5934
  747TMC3    C611093   2.798   2.458  11.441 -0.2419 -0.4798 -0.5683
  747TMC3     C11094   2.478   2.603  11.222  0.1811 -0.1003 -0.4579
  747TMC3     O11095   2.415   2.670  11.297 -0.0546 -0.2151 -0.8470
  747TMC3     H11096   2.466   2.491  11.447  0.6600  0.0014  2.8514
  747TMC3    H111097   2.726   2.573  11.134 -0.5397 -0.1800 -0.5594
  747TMC3    H211098   2.886   2.434  11.498 -1.4389 -1.8680  0.7002
  747TMC3    C711099   2.944   2.533  11.259  0.2166  0.5698  0.5331
  747TMC3    C811100   2.662   2.424  11.629  0.5397  0.4160 -0.0293
  747TMC3    O111101   2.942   2.534  11.136 -0.3439  0.2445 -0.0312
  747TMC3    O211102   2.760   2.384  11.685  0.0938  0.0855  0.4964
  748MPD2     C11103   4.356   3.320   0.858  0.2612  0.1792 -0.4960
  748MPD2    C111104   4.320   3.449   0.887  0.1825  0.4446  0.5063
  748MPD2    C211105   4.428   3.537   0.890 -0.0573 -0.0988 -0.7337
  748MPD2    C311106   4.559   3.495   0.875 -0.7202 -0.1085  0.5627
  748MPD2    C411107   4.584   3.365   0.839  0.4255  0.4233  0.0189
  748MPD2    C511108   4.482   3.278   0.834 -0.1421 -0.2955 -0.1917
  748MPD2     H11109   4.425   3.640   0.924  1.9030 -0.3375  0.1374
  748MPD2    H111110   4.683   3.325   0.819 -0.2894 -0.8633 -0.9955
  748MPD2    H211111   4.283   3.240   0.854 -1.5490  1.8263 -0.3788
  748MPD2    H311112   4.504   3.174   0.810 -1.6459 -0.7711  0.5242
  748MPD2     N11113   4.661   3.584   0.917  0.9987  0.6109 -0.6498
  748MPD2    H511114   4.626   3.674   0.949 -0.8891 -0.4090  0.2044
  748MPD2    N111115   4.186   3.480   0.923  0.6449  0.6497 -0.5481
  748MPD2    H711116   4.113   3.410   0.927  0.5633  0.9155  2.1287
  749TMC3    C111117   0.141   3.667   0.981  0.0009  0.2779  0.4447
  749TMC3    C211118   0.233   3.638   1.072 -0.0371 -0.5825  0.3990
  749TMC3    C311119   0.324   3.731   1.104  0.0555  0.3992  0.4697
  749TMC3    C411120   0.124   3.795   0.922  0.3870 -0.2829  0.1662
  749TMC3    C511121   0.220   3.883   0.958 -0.0297 -0.7051 -0.7804
  749TMC3    C611122   0.317   3.857   1.051 -0.1673  0.4912  0.6215
  749TMC3     C11123   0.059   3.553   0.929  0.3040  0.1078  0.7977
  749TMC3     O11124   0.109   3.438   0.926  0.2338  0.1340  0.6088
  749TMC3     H11125   0.232   3.546   1.130 -1.7570  0.5824  2.2314
  749TMC3    H111126   0.042   3.815   0.854 -0.8321 -0.7354  1.5050
  749TMC3    H211127   0.384   3.933   1.089  0.3108  0.2231  0.3061
  749TMC3    C711128   0.238   4.003   0.883 -0.1017 -0.1573 -0.0884
  749TMC3    C811129   0.420   3.705   1.209 -0.3911  1.0503  0.5233
  749TMC3    O111130   0.287   4.103   0.938  0.2498  0.3842 -0.0451
  749TMC3    O211131   0.483   3.797   1.255  0.1264  0.0276 -0.9792
  750MPD2     C11132   0.210   4.269  11.026  0.1104 -0.6593  0.0852
  750MPD2    C111133   0.134   4.210  11.120  0.2808  0.1201  1.0296
  750MPD2    C211134   0.057   4.100  11.084  0.2295 -0.0965  0.6734
  750MPD2    C311135   0.081   4.031  10.964 -0.4767 -0.1236 -0.0715
  750MPD2    C411136   0.167   4.088  10.876 -0.1197 -0.4927  0.0763
  750MPD2    C511137   0.222   4.213  10.902 -0.1544 -0.2829 -0.0646
  750MPD2     H11138   4.718   4.055  11.148  0.3584 -4.1965 -2.0196
  750MPD2    H111139   0.185   4.052  10.775 -0.6678  0.9881 -0.5489
  750MPD2    H211140   0.256   4.365  11.047  1.1895 -1.3918  1.0675
  750MPD2    H311141   0.288   4.259  10.829  0.7288 -0.3094  0.7190
  750MPD2     N11142   0.017   3.913  10.926  0.2551 -0.1131  0.3585
  750MPD2    H511143   0.050   3.861  10.846 -0.9879 -0.5215  0.1059
  750MPD2    N111144   0.151   4.264  11.252 -0.5960  0.7425 -0.8364
  750MPD2    H711145   0.219   4.338  11.269 -1.3072  0.6061  2.5774
  751TMC3    C111146   4.618   3.719  10.935 -0.7567 -0.7058 -0.0361
  751TMC3    C211147   4.535   3.640  11.010  1.1146  1.0979 -0.0579
  751TMC3    C311148   4.509   3.515  10.958 -0.0731 -0.0546  0.0939
  751TMC3    C411149   4.663   3.688  10.805 -0.1552  0.5834  0.8882
  751TMC3    C511150   4.635   3.561  10.764  0.4404  0.0623 -0.0220
  751TMC3    C611151   4.565   3.468  10.838  0.2053 -0.4840  0.2334
  751TMC3     C11152   4.663   3.840  11.001  0.2690 -1.3051 -0.9775
  751TMC3     O11153   4.611   3.867  11.111  0.1128  0.0670 -0.2927
  751TMC3     H11154   4.507   3.670  11.110  0.9799 -0.0492  0.2503
  751TMC3    H111155   4.725   3.755  10.747  0.0070 -0.1727  0.1968
  751TMC3    H211156   4.551   3.364  10.812 -0.8700 -0.4078  0.4778
  751TMC3    C711157   4.682   3.530  10.632 -0.4230 -0.0765 -0.4453
  751TMC3    C811158   4.421   3.423  11.028 -0.9812  0.0504  0.5019
  751TMC3    O111159   0.042   3.595  10.588 -0.3260 -0.5421  0.8376
  751TMC3    O211160   4.399   3.323  10.965 -0.1125 -0.0328 -0.4190
  752TMC3    C111161   3.669   4.629  17.312 -0.0225  0.1639 -0.3152
  752TMC3    C211162   3.737   4.528  17.382  0.2361 -0.7563 -0.2924
  752TMC3    C311163   3.710   4.506  17.517  0.4413 -0.2934  0.5381
  752TMC3    C411164   3.567   4.703  17.376 -0.6189  0.2209 -0.2336
  752TMC3    C511165   3.558   4.682  17.514 -0.7866 -0.1275  0.3656
  752TMC3    C611166   3.623   4.586  17.585  0.3757 -1.0978 -0.1264
  752TMC3     C11167   3.719   4.666  17.177  0.6095  0.2178  0.2292
  752TMC3     O11168   3.827   4.619  17.140  0.5307 -0.4517  0.6220
  752TMC3     H11169   3.808   4.468  17.327  0.1235 -0.3044 -0.9307
  752TMC3    H111170   3.498   0.036  17.331  2.5369  2.2779 -1.9094
  752TMC3    H211171   3.594   4.561  17.687 -0.1206  0.1058  0.0348
  752TMC3    C711172   3.450   0.010  17.592  0.7932 -0.3920  0.2972
  752TMC3    C811173   3.767   4.400  17.594  0.1809 -0.1734 -0.1364
  752TMC3    O111174   3.334   4.736  17.548 -0.7927  0.2946  0.4666
  752TMC3    O211175   3.757   4.414  17.714 -0.4260 -0.1273  0.2659
  753TMC3    C111176   1.214   0.729  13.544 -0.1483 -0.3419 -0.8912
  753TMC3    C211177   1.227   0.694  13.677  0.7009 -0.4357  0.0139
  753TMC3    C311178   1.189   0.566  13.717 -0.7321  0.5654 -0.7862
  753TMC3    C411179   1.165   0.642  13.450  0.3214  0.8178  0.7052
  753TMC3    C511180   1.133   0.519  13.495 -0.8737 -0.1589  0.7019
  753TMC3    C611181   1.140   0.474  13.626 -0.3997 -0.0327 -0.1654
  753TMC3     C11182   1.227   0.862  13.500 -0.0795 -0.1032  0.8072
  753TMC3     O11183   1.169   0.902  13.401 -0.1677 -0.0597  0.1647
  753TMC3     H11184   1.259   0.762  13.756 -0.1894  1.9981 -1.7152
  753TMC3    H111185   1.183   0.667  13.346 -0.2273 -1.1625  0.1296
  753TMC3    H211186   1.115   0.375  13.659 -0.7520  0.2980  0.5466
  753TMC3    C711187   1.106   0.420  13.393 -0.1986  0.2047 -0.0221
  753TMC3    C811188   1.166   0.534  13.855 -0.3717 -0.1049  0.2612
  753TMC3    O111189   1.147   0.438  13.275 -0.2517 -0.7088  0.2864
  753TMC3    O211190   1.157   0.416  13.888 -0.2385  0.1249  0.1588
  754MPD2     C11191   4.669   4.362  12.755  0.1485  0.2000  0.2365
  754MPD2    C111192   4.652   4.234  12.797 -0.4738 -0.2792  0.0318
  754MPD2    C211193   4.538   4.166  12.770  0.7456 -0.3967  0.4428
  754MPD2    C311194   4.430   4.239  12.723 -0.0753  0.3123  0.5603
  754MPD2    C411195   4.442   4.373  12.687 -1.1094 -1.0344  0.3415
  754MPD2    C511196   4.563   4.429  12.699  0.1365 -0.5409 -0.3565
  754MPD2     H11197   4.526   4.063  12.801 -1.4328  0.0165  0.9925
  754MPD2    H111198   4.364   4.427  12.634  0.1673 -0.4141 -0.8920
  754MPD2    H211199   0.026   4.415  12.766 -0.5153  1.5518 -0.7598
  754MPD2    H311200   4.579   4.531  12.665 -2.6994  0.1084  0.3188
  754MPD2     N11201   4.307   4.174  12.698 -0.0366 -0.1673  0.6062
  754MPD2    H511202   4.222   4.230  12.696  0.0329 -0.0550  0.8007
  754MPD2    N111203   0.028   4.176  12.855 -0.2259  0.0449 -0.2341
  754MPD2    H711204   0.117   4.220  12.833 -0.3709  0.0794 -0.7438
  755MPD2     C11205   3.494   4.239  13.082  0.5223  1.2003  0.4990
  755MPD2    C111206   3.571   4.149  13.152  0.2707 -0.0494 -0.5691
  755MPD2    C211207   3.658   4.068  13.085 -0.0160 -0.9300 -0.4676
  755MPD2    C311208   3.686   4.103  12.948  0.6378 -0.6267  0.0284
  755MPD2    C411209   3.606   4.189  12.878 -0.0221  0.2409 -0.6427
  755MPD2    C511210   3.514   4.258  12.948  0.2935 -0.0745 -0.5863
  755MPD2     H11211   3.719   3.994  13.137  2.2013  0.6535 -0.8279
  755MPD2    H111212   3.616   4.193  12.770 -2.0089  0.7263 -0.8064
  755MPD2    H211213   3.423   4.300  13.136  0.5951 -1.4336  3.6189
  755MPD2    H311214   3.462   4.335  12.893 -0.8424  1.2477  2.3312
  755MPD2     N11215   3.790   4.036  12.881 -0.4852  0.2777  0.9414
  755MPD2    H511216   3.847   3.972  12.936 -2.5402 -1.2037  1.3238
  755MPD2    N111217   3.548   4.121  13.292 -0.4360 -0.4400 -0.1138
  755MPD2    H711218   3.609   4.047  13.327 -0.6738 -0.2700  0.6710
  756MPD2     C11219   3.969   0.380   9.346 -0.4648 -0.6507 -1.1161
  756MPD2    C111220   3.971   0.268   9.426  0.0437  0.2124  0.2490
  756MPD2    C211221   3.854   0.231   9.496 -0.3064  0.5469  0.5252
  756MPD2    C311222   3.733   0.288   9.468 -0.5659  0.6641 -0.1496
  756MPD2    C411223   3.732   0.398   9.387 -0.2172  0.5523 -0.1414
  756MPD2    C511224   3.849   0.443   9.325  0.3706 -0.4115 -0.2064
  756MPD2     H11225   3.860   0.151   9.569 -0.7063  0.6530  0.6688
  756MPD2    H111226   3.646   0.461   9.366 -1.1333 -0.5002  0.4742
  756MPD2    H211227   4.053   0.422   9.291  0.2304 -0.3053  0.1999
  756MPD2    H311228   3.843   0.526   9.256 -1.8913  0.8100  1.4934
  756MPD2     N11229   3.615   0.229   9.515 -0.2616  0.8776 -0.2679
  756MPD2    H511230   3.609   0.148   9.575  1.2738  0.3957 -0.7396
  756MPD2    N111231   4.088   0.192   9.467  0.1759  0.3250  0.2660
  756MPD2    H711232   4.079   0.111   9.528 -3.0380 -1.1929 -2.2659
  757MPD2     C11233   3.503   4.135   9.633  0.1289  0.0833  0.1425
  757MPD2    C111234   3.608   4.228   9.629  0.4694  1.3167 -0.3302
  757MPD2    C211235   3.577   4.361   9.644 -0.0931  0.3378 -0.1102
  757MPD2    C311236   3.452   4.409   9.674 -0.9718  0.4485 -0.3208
  757MPD2    C411237   3.350   4.311   9.683 -0.2568 -0.1594  0.6687
  757MPD2    C511238   3.378   4.178   9.661 -0.7429 -0.3601 -0.5668
  757MPD2     H11239   3.653   4.438   9.636  0.1165  0.1148 -0.2424
  757MPD2    H111240   3.249   4.339   9.709 -0.6345 -0.5532 -0.4023
  757MPD2    H211241   3.514   4.027   9.625  0.1812  0.0615  0.5222
  757MPD2    H311242   3.286   4.121   9.669 -1.0678  0.0617 -1.2813
  757MPD2     N11243   3.433   4.545   9.684  0.1803  0.1845  0.4560
  757MPD2    H511244   3.514   4.604   9.669  0.6277 -0.8841 -1.3304
  757MPD2    N111245   3.738   4.179   9.618  0.9941  0.3936  0.7008
  757MPD2    H711246   3.747   4.079   9.628 -1.9992  0.4949  4.1957
  758MPD2     C11247   4.085   3.853  15.802 -0.1791  0.1711  0.1483
  758MPD2    C111248   4.187   3.790  15.872  0.3724 -0.1823  1.2375
  758MPD2    C211249   4.205   3.833  16.003 -0.4976 -0.5762 -0.5532
  758MPD2    C311250   4.123   3.931  16.062  0.2127  0.7200  0.1187
  758MPD2    C411251   4.017   3.987  15.997 -0.3822  0.5410 -0.2824
  758MPD2    C511252   3.996   3.944  15.868 -0.3401  0.0219 -0.1454
  758MPD2     H11253   4.287   3.801  16.065 -0.1081 -0.0869 -0.8112
  758MPD2    H111254   3.953   4.058  16.047 -1.2304 -0.2615 -0.2398
  758MPD2    H211255   4.072   3.833  15.696 -2.8451 -1.4616  0.7903
  758MPD2    H311256   3.918   3.987  15.806  0.1680 -1.6537 -1.9300
  758MPD2     N11257   4.159   3.994  16.183 -0.5892 -0.2333  0.4659
  758MPD2    H511258   4.135   4.092  16.186 -1.6862 -0.4894 -0.0368
  758MPD2    N111259   4.280   3.711  15.810 -0.2354 -0.3063 -0.7330
  758MPD2    H711260   4.278   3.693  15.711 -0.6050 -0.6161 -0.6728
  759MPD2     C11261   3.243   2.120  10.399  0.0441  0.2084  0.4336
  759MPD2    C111262   3.375   2.085  10.361  0.3596  0.9360 -0.0230
  759MPD2    C211263   3.430   2.160  10.257 -0.0121  0.0859 -0.1128
  759MPD2    C311264   3.346   2.262  10.196 -0.0514  0.0213  0.1429
  759MPD2    C411265   3.222   2.291  10.242 -0.0282 -0.3345  0.1048
  759MPD2    C511266   3.165   2.217  10.342 -0.3605  0.1601  0.4596
  759MPD2     H11267   3.532   2.144  10.226 -0.6811 -1.6776 -1.3727
  759MPD2    H111268   3.160   2.373  10.208 -1.3126 -1.1313  0.5299
  759MPD2    H211269   3.189   2.070  10.479 -0.0091  0.2477  0.4218
  759MPD2    H311270   3.064   2.230  10.378  0.0893  1.9415  1.0588
  759MPD2     N11271   3.404   2.342  10.088 -0.2408 -0.4727  0.5856
  759MPD2    H511272   3.500   2.323  10.061  0.1218  0.7122  1.0580
  759MPD2    N111273   3.449   1.983  10.417  0.3364  0.3098 -0.5579
  759MPD2    H711274   3.532   1.959  10.364 -0.6547 -2.6485 -0.7958
  760MPD2     C11275   3.116   4.315  12.071 -0.2026  0.4550 -0.2410
  760MPD2    C111276   3.238   4.284  12.020 -0.0102 -0.0469 -0.4758
  760MPD2    C211277   3.277   4.151  12.026  0.3339 -0.3133  0.1626
  760MPD2    C311278   3.194   4.052  12.075  0.5105  0.0693 -0.0251
  760MPD2    C411279   3.070   4.091  12.128  0.5396 -0.2388  0.3507
  760MPD2    C511280   3.032   4.224  12.130 -0.3689 -0.2990 -0.2745
  760MPD2     H11281   3.377   4.134  11.988 -0.2934  1.5003 -2.3510
  760MPD2    H111282   2.998   4.023  12.173  0.5727 -0.9699 -0.7044
  760MPD2    H211283   3.068   4.412  12.070 -0.1752  0.4799  0.5513
  760MPD2    H311284   2.940   4.255  12.178  0.3669  2.9624 -0.9690
  760MPD2     N11285   3.235   3.917  12.066  0.4072 -0.3178  0.0912
  760MPD2    H511286   3.324   3.893  12.023  1.1003  0.1200  1.2554
  760MPD2    N111287   3.317   4.379  11.949 -0.3397  0.5460 -0.0032
  760MPD2    H711288   3.405   4.345  11.913 -0.0780  1.0543  0.1653
  761MPD2     C11289   4.107   3.243  11.385  0.8820 -0.4815  0.4228
  761MPD2    C111290   4.162   3.186  11.275  0.2401  0.4013 -0.6846
  761MPD2    C211291   4.245   3.264  11.191  0.1903  0.7174  0.6809
  761MPD2    C311292   4.276   3.392  11.224  0.3805 -0.0114  0.2918
  761MPD2    C411293   4.218   3.450  11.331  0.5470 -0.3092  0.1385
  761MPD2    C511294   4.137   3.371  11.413 -0.2865  0.2731 -0.4751
  761MPD2     H11295   4.269   3.215  11.097 -3.5171 -1.5292  0.8910
  761MPD2    H111296   4.232   3.552  11.365 -3.2493  0.7579 -1.4992
  761MPD2    H211297   4.053   3.179  11.454 -1.5137 -1.6119 -2.5261
  761MPD2    H311298   4.103   3.413  11.507  0.5472  1.6748 -0.7913
  761MPD2     N11299   4.372   3.469  11.147  0.1861  0.0724 -0.2765
  761MPD2    H511300   4.401   3.563  11.172  2.7791 -0.6343 -0.6154
  761MPD2    N111301   4.113   3.064  11.236  0.0290 -0.1565 -0.0675
  761MPD2    H711302   4.074   3.001  11.305 -1.3078 -0.6105 -1.2365
  762MPD2     C11303   4.209   2.301  10.706  0.3923  0.6964 -0.2985
  762MPD2    C111304   4.267   2.419  10.732 -0.0821  0.1666 -0.0816
  762MPD2    C211305   4.383   2.458  10.666 -0.3249 -0.4224 -0.1258
  762MPD2    C311306   4.426   2.384  10.556 -0.1964  0.9514  0.4022
  762MPD2    C411307   4.358   2.274  10.521  0.1428  0.4835 -0.4961
  762MPD2    C511308   4.248   2.232  10.595 -0.1630  0.2165  0.4285
  762MPD2     H11309   4.437   2.550  10.688 -1.5771  0.2515  0.1384
  762MPD2    H111310   4.386   2.217  10.434 -2.5641  0.1156 -1.1113
  762MPD2    H211311   4.129   2.254  10.764 -0.3366  2.0124 -0.2465
  762MPD2    H311312   4.210   2.132  10.575 -1.3331  0.5495  0.9966
  762MPD2     N11313   4.532   2.427  10.470 -0.7390 -0.4579  0.3789
  762MPD2    H511314   4.546   2.368  10.389  2.8279 -0.8411  1.2591
  762MPD2    N111315   4.213   2.486  10.845  0.4269  0.3417  0.5380
  762MPD2    H711316   4.129   2.446  10.885  0.5951 -1.8928 -1.3439
  763MPD2     C11317   1.719   4.406  16.107  1.1138 -1.0302 -0.1408
  763MPD2    C111318   1.599   4.433  16.057 -0.0175  0.4682  0.4437
  763MPD2    C211319   1.554   4.557  16.048 -0.1705 -1.1760 -0.2883
  763MPD2    C311320   1.641   4.668  16.081 -0.0910  1.0399  0.4229
  763MPD2    C411321   1.770   4.638  16.129  0.1599 -0.3968  0.4007
  763MPD2    C511322   1.805   4.502  16.148  0.5700  0.3043  0.4049
  763MPD2     H11323   1.457   4.584  16.008  0.5953  0.2213 -1.1609
  763MPD2    H111324   1.848   4.711  16.146 -1.6888  0.8938  3.2842
  763MPD2    H211325   1.759   4.305  16.116  2.9098 -0.3838 -0.9009
  763MPD2    H311326   1.905   4.483  16.186  1.4658  3.4103 -0.4264
  763MPD2     N11327   1.614   0.067  16.066  0.1989  0.6835 -0.0410
  763MPD2    H511328   1.691   0.133  16.078  2.0044 -1.3487 -0.3887
  763MPD2    N111329   1.508   4.339  16.009 -0.4492  0.3169  0.8730
  763MPD2    H711330   1.420   4.377  15.976  0.3370  0.1845 -1.3766
  764MPD2     C11331   4.352   0.380  17.296  0.0644  0.0775  0.7448
  764MPD2    C111332   4.235   0.433  17.347 -0.0702  0.0399  0.0593
  764MPD2    C211333   4.241   0.482  17.475 -0.6209 -0.3246 -0.7858
  764MPD2    C311334   4.353   0.490  17.549 -0.1294 -0.6759 -0.4594
  764MPD2    C411335   4.471   0.446  17.497 -0.0830  0.2243  0.2856
  764MPD2    C511336   4.471   0.387  17.371  0.3014 -0.2773 -0.0168
  764MPD2     H11337   4.149   0.521  17.519  0.1437  0.6236 -0.0127
  764MPD2    H111338   4.568   0.473  17.537  0.0538  0.8501 -0.4554
  764MPD2    H211339   4.363   0.346  17.193 -1.6537  1.0762  0.2358
  764MPD2    H311340   4.556   0.369  17.306 -0.3120  1.1012 -1.1992
  764MPD2     N11341   4.356   0.556  17.673 -0.0692  0.1306 -0.1923
  764MPD2    H511342   4.267   0.597  17.696 -0.0379 -0.7172  1.4454
  764MPD2    N111343   4.117   0.431  17.271 -0.4587 -0.0638  0.1420
  764MPD2    H711344   4.038   0.484  17.307 -2.3177 -2.8429  0.2475
  765MPD2     C11345   4.135   3.595  15.170 -1.3651 -0.2524 -0.0241
  765MPD2    C111346   4.195   3.653  15.282 -0.2250 -0.0891  0.4295
  765MPD2    C211347   4.304   3.592  15.337 -0.8979 -1.0183  0.4942
  765MPD2    C311348   4.366   3.489  15.274  0.7184 -0.3209 -0.0153
  765MPD2    C411349   4.315   3.444  15.153 -0.3964  1.0847 -0.5622
  765MPD2    C511350   4.192   3.487  15.103 -0.8313 -0.1225 -0.9358
  765MPD2     H11351   4.354   3.631  15.425  1.1869 -3.7341  0.5147
  765MPD2    H111352   4.366   3.363  15.103 -1.5233  0.8018 -1.2704
  765MPD2    H211353   4.040   3.636  15.137 -2.3956 -1.1763  1.8016
  765MPD2    H311354   4.158   3.441  15.011  1.1313 -1.8436 -0.8092
  765MPD2     N11355   4.486   3.438  15.336  0.2876 -0.0972  0.3958
  765MPD2    H511356   4.522   3.491  15.414 -2.6829 -0.4262  2.0030
  765MPD2    N111357   4.132   3.773  15.327  0.1030 -0.3586 -0.0640
  765MPD2    H711358   4.055   3.803  15.268 -0.2553 -0.5442  0.3110
  766MPD2     C11359   3.507   4.150  15.286 -0.5383  0.0359  0.5915
  766MPD2    C111360   3.607   4.063  15.319  0.1126  0.3656 -0.1705
  766MPD2    C211361   3.703   4.036  15.229 -0.4072  0.5358  0.5275
  766MPD2    C311362   3.718   4.105  15.105 -0.7080  0.1059  0.0791
  766MPD2    C411363   3.619   4.192  15.071 -0.2671 -0.3960 -0.1007
  766MPD2    C511364   3.520   4.210  15.164  0.8051  0.5825 -0.3506
  766MPD2     H11365   3.772   3.955  15.251  1.6469  2.0729 -0.2706
  766MPD2    H111366   3.615   4.232  14.970 -1.3581  0.3355  0.2369
  766MPD2    H211367   3.424   4.166  15.353 -1.3057  2.6008 -0.9488
  766MPD2    H311368   3.439   4.279  15.143  1.5523  1.8242  0.8310
  766MPD2     N11369   3.826   4.079  15.017  0.0283 -0.3584 -0.0432
  766MPD2    H511370   3.834   4.135  14.932 -1.9964 -0.3977 -0.2574
  766MPD2    N111371   3.603   3.998  15.446  0.0398 -0.1177  0.3301
  766MPD2    H711372   3.514   4.000  15.496 -0.5606  0.4822 -0.7764
  767MPD2     C11373   3.447   3.971  14.892 -0.0399  0.1162  0.7518
  767MPD2    C111374   3.511   3.952  14.772 -0.4981  0.0145 -0.4297
  767MPD2    C211375   3.582   3.837  14.750  0.0253  0.0429  0.3979
  767MPD2    C311376   3.581   3.738  14.846 -0.5091 -0.1583 -0.8580
  767MPD2    C411377   3.530   3.765  14.974 -0.2582  0.2023  0.5947
  767MPD2    C511378   3.463   3.886  14.996 -0.5127 -0.1546 -0.6650
  767MPD2     H11379   3.645   3.813  14.666  0.0944 -0.2773  0.5422
  767MPD2    H111380   3.537   3.698  15.059 -1.9336 -2.9867 -1.7629
  767MPD2    H211381   3.405   4.066  14.921 -1.9490 -0.8713  1.1977
  767MPD2    H311382   3.420   3.921  15.089 -0.5616 -1.2653 -0.2785
  767MPD2     N11383   3.651   3.619  14.818  0.2344  0.1641 -0.3219
  767MPD2    H511384   3.651   3.605  14.718 -0.6892 -1.3415 -0.1238
  767MPD2    N111385   3.504   4.059  14.680 -0.0266 -0.0757 -0.3792
  767MPD2    H711386   3.469   4.148  14.713  0.2575 -0.6292  1.4318
  768MPD2     C11387   4.459   1.320  10.734  0.4303 -0.0679  0.4101
  768MPD2    C111388   4.468   1.436  10.806  0.3997  0.6154  0.0273
  768MPD2    C211389   4.567   1.441  10.902 -0.2809 -0.5850 -0.1893
  768MPD2    C311390   4.662   1.348  10.921 -0.3714  0.0436 -0.0766
  768MPD2    C411391   4.648   1.229  10.849  0.3686 -0.8719 -0.1864
  768MPD2    C511392   4.551   1.223  10.752  0.5129 -0.6905 -0.0916
  768MPD2     H11393   4.587   1.533  10.957  0.2812  0.0286 -1.4183
  768MPD2    H111394   4.727   1.155  10.854 -0.3486 -1.6201  0.1592
  768MPD2    H211395   4.374   1.305  10.669  0.4857  0.9839  0.1118
  768MPD2    H311396   4.543   1.136  10.688 -2.9007 -0.5709  0.1990
  768MPD2     N11397   0.030   1.355  11.011  0.4813  0.0825 -0.6655
  768MPD2    H511398   0.089   1.272  11.012 -1.8282 -1.5437  0.0023
  768MPD2    N111399   4.392   1.558  10.772  0.7871  0.2001 -0.1334
  768MPD2    H711400   4.407   1.639  10.831 -0.0831 -0.0958  0.5011
  769MPD2     C11401   0.808   0.035  14.938  0.0832  0.3831  0.4626
  769MPD2    C111402   0.769   0.163  14.899 -0.3534 -0.0018  0.1792
  769MPD2    C211403   0.765   0.268  14.996 -0.5025  0.5936 -0.2475
  769MPD2    C311404   0.787   0.237  15.130 -1.2850  0.0885  0.3713
  769MPD2    C411405   0.824   0.110  15.160 -0.5406  0.2730  0.8265
  769MPD2    C511406   0.842   0.010  15.067 -0.2064  0.0807 -0.2107
  769MPD2     H11407   0.731   0.366  14.967  0.9450  0.8353 -1.1211
  769MPD2    H111408   0.856   0.097  15.263  1.8702  1.9006  0.2893
  769MPD2    H211409   0.807   4.684  14.875  1.3332  1.0431 -0.4802
  769MPD2    H311410   0.890   4.656  15.101 -0.1395 -0.4221 -1.6097
  769MPD2     N11411   0.755   0.319  15.241  0.4147 -0.2188 -0.1231
  769MPD2    H511412   0.747   0.283  15.336 -0.1670  1.7112  0.5499
  769MPD2    N111413   0.725   0.179  14.766  0.6293 -0.2016  0.2891
  769MPD2    H711414   0.715   0.093  14.712  0.6741  0.1194 -0.2286
  770MPD2     C11415   4.614   0.016  14.807  0.6063 -0.1778  0.2639
  770MPD2    C111416   4.693   4.676  14.727 -0.1245  0.1354 -0.0940
  770MPD2    C211417   0.062   4.733  14.665  0.1493 -0.0323 -0.3824
  770MPD2    C311418   0.088   0.128  14.675  0.2384  0.4770 -0.6697
  770MPD2    C411419   0.013   0.204  14.755  0.3133 -1.1267 -0.3973
  770MPD2    C511420   4.650   0.145  14.823  0.3347  0.3961 -0.4971
  770MPD2     H11421   0.119   4.671  14.597 -1.5074 -3.5158  1.4297
  770MPD2    H111422   0.040   0.306  14.780  0.2548 -1.0542 -0.6342
  770MPD2    H211423   4.539   4.710  14.872  1.0049  0.0418  0.8701
  770MPD2    H311424   4.594   0.199  14.899 -0.8349  0.6682 -1.5593
  770MPD2     N11425   0.194   0.173  14.597 -0.2779  0.0785  0.9174
  770MPD2    H511426   0.241   0.102  14.542 -2.5348  0.8989 -2.0752
  770MPD2    N111427   4.646   4.543  14.724  0.0058 -0.2953 -1.1575
  770MPD2    H711428   4.564   4.519  14.780  1.3870  1.7368  1.7350
  771MPD2     C11429   1.438   3.200  12.840 -0.6696 -0.1316  0.4730
  771MPD2    C111430   1.485   3.128  12.948 -0.1976 -0.0816 -0.0843
  771MPD2    C211431   1.453   2.996  12.972 -0.5769  0.6219  0.3597
  771MPD2    C311432   1.376   2.926  12.879  0.0825  0.0161 -0.7581
  771MPD2    C411433   1.333   2.995  12.770  0.5443 -0.0354  0.1129
  771MPD2    C511434   1.363   3.125  12.752  0.8859 -0.2181  0.3138
  771MPD2     H11435   1.490   2.939  13.056 -0.5756 -1.3375 -0.9677
  771MPD2    H111436   1.285   2.939  12.690  4.8003 -0.6442 -1.9915
  771MPD2    H211437   1.453   3.301  12.805  1.0959 -1.0570 -1.4847
  771MPD2    H311438   1.339   3.176  12.659  0.7280  0.2782  0.6304
  771MPD2     N11439   1.346   2.794  12.922  0.3132 -0.4978 -0.2599
  771MPD2    H511440   1.417   2.752  12.982 -0.5168 -0.7234  0.5501
  771MPD2    N111441   1.553   3.185  13.055 -0.0959  0.0834 -0.0829
  771MPD2    H711442   1.554   3.131  13.141 -2.1169 -1.4950 -1.0349
  772MPD2     C11443   1.541   3.145  13.768 -0.0236  0.1793 -0.2654
  772MPD2    C111444   1.509   3.114  13.643  0.4352 -0.3009  0.3197
  772MPD2    C211445   1.399   3.031  13.626 -0.5137  0.1411  0.4217
  772MPD2    C311446   1.333   2.978  13.728 -0.3674  0.0026 -0.2730
  772MPD2    C411447   1.372   3.002  13.854 -0.0457  0.2145 -0.3665
  772MPD2    C511448   1.476   3.094  13.875  0.3299  0.1954  0.2578
  772MPD2     H11449   1.376   3.003  13.524 -0.7233 -0.2452  0.5752
  772MPD2    H111450   1.336   2.945  13.939  0.1506 -0.0815 -0.4801
  772MPD2    H211451   1.627   3.203  13.797  0.5568 -1.1503  0.6567
  772MPD2    H311452   1.510   3.119  13.975 -3.4364  0.8417  1.4224
  772MPD2     N11453   1.214   2.903  13.713  0.2698 -0.8236  0.0010
  772MPD2    H511454   1.161   2.877  13.795 -3.1167 -0.2243 -2.0034
  772MPD2    N111455   1.570   3.159  13.525  0.5061  0.4328 -0.3728
  772MPD2    H711456   1.530   3.121  13.440 -2.8978  3.0339  0.1136
  773MPD2     C11457   0.386   4.700   0.090  0.4907  0.1605  0.2828
  773MPD2    C111458   0.392   4.579   0.032  0.8663 -0.1184  0.3338
  773MPD2    C211459   0.457   4.480   0.101  0.1767  0.0569  0.4221
  773MPD2    C311460   0.499   4.499   0.225 -0.3131 -0.6428  0.2366
  773MPD2    C411461   0.482   4.614   0.289  0.2260 -0.1335  0.5809
  773MPD2    C511462   0.428   4.717   0.220  0.4477 -0.5044 -0.0359
  773MPD2     H11463   0.475   4.386   0.049 -1.3662  0.1161 -0.2199
  773MPD2    H111464   0.515   4.642   0.388  1.5251  0.0964  0.0811
  773MPD2    H211465   0.316   0.036   0.049 -1.7125 -3.4552 -2.4664
  773MPD2    H311466   0.426   0.083   0.256 -2.5178 -0.5721  0.0048
  773MPD2     N11467   0.573   4.395   0.282 -0.1725 -0.1784  0.7014
  773MPD2    H511468   0.603   4.318   0.223 -3.0163  0.2511 -1.3087
  773MPD2    N111469   0.341   4.554  17.647  0.0171 -0.0177  0.1185
  773MPD2    H711470   0.324   4.457  17.623  1.6069 -0.1094 -0.5836
  774MPD2     C11471   4.245   3.359  13.118  0.6504 -0.4767  0.3586
  774MPD2    C111472   4.370   3.370  13.181  0.2686  0.0631 -0.0275
  774MPD2    C211473   4.431   3.495  13.186  0.1827  0.0117 -0.1162
  774MPD2    C311474   4.373   3.603  13.123  0.5045 -0.7683 -0.6086
  774MPD2    C411475   4.256   3.588  13.055 -0.1871  0.0451 -0.6522
  774MPD2    C511476   4.189   3.469  13.063 -0.6822  1.0108  0.4702
  774MPD2     H11477   4.517   3.511  13.249 -0.9383 -0.4068  1.5329
  774MPD2    H111478   4.207   3.664  12.995 -0.5059 -2.1194 -3.1145
  774MPD2    H211479   4.184   3.270  13.115  1.0438 -0.7316 -0.1740
  774MPD2    H311480   4.091   3.456  13.020 -0.3174  1.0397 -0.3759
  774MPD2     N11481   4.436   3.728  13.133 -0.2241  0.1647 -0.0661
  774MPD2    H511482   4.531   3.724  13.168  0.4917 -2.4966 -2.2623
  774MPD2    N111483   4.419   3.260  13.247 -0.2420  0.2410  1.1712
  774MPD2    H711484   4.359   3.179  13.234 -0.7089  0.7161  0.3670
  775MPD2     C11485   0.897   0.228  15.655 -0.5907  0.8058  0.2201
  775MPD2    C111486   0.880   0.347  15.715  0.3810 -0.2386 -0.1841
  775MPD2    C211487   0.943   0.459  15.665 -0.0101 -0.5686 -0.7084
  775MPD2    C311488   1.015   0.457  15.544  0.3434 -0.7003 -0.6214
  775MPD2    C411489   1.025   0.339  15.481 -0.3254  0.5774  0.0678
  775MPD2    C511490   0.966   0.230  15.539 -0.0417 -0.4035 -0.0827
  775MPD2     H11491   0.928   0.548  15.725  0.0619 -0.9815 -0.0787
  775MPD2    H111492   1.068   0.323  15.383  0.7383  0.1392  0.6042
  775MPD2    H211493   0.858   0.138  15.701 -1.3105  0.6464 -0.7053
  775MPD2    H311494   0.977   0.134  15.490 -0.4200 -0.8598  0.7240
  775MPD2     N11495   1.097   0.563  15.507  0.0357 -0.5354  0.4994
  775MPD2    H511496   1.129   0.565  15.411  0.5911 -2.1121  0.6555
  775MPD2    N111497   0.801   0.342  15.831 -0.2620 -0.0594 -0.1726
  775MPD2    H711498   0.751   0.254  15.839  1.7470 -1.1540  0.4166
  776MPD2     C11499   0.701   4.584  11.700 -0.7998 -0.4602 -1.2877
  776MPD2    C111500   0.583   4.626  11.642 -0.0269 -0.1528  0.3298
  776MPD2    C211501   0.587   4.736  11.558 -0.1817 -0.4367  0.2620
  776MPD2    C311502   0.704   0.081  11.557  0.1974 -0.9792  0.1093
  776MPD2    C411503   0.817   0.048  11.623 -0.1387 -0.4554 -1.1255
  776MPD2    C511504   0.810   4.670  11.700  0.9463  0.6998 -0.1405
  776MPD2     H11505   0.497   0.032  11.507  0.3331  0.7117  0.1130
  776MPD2    H111506   0.901   0.115  11.614 -1.0943  0.9849  0.6578
  776MPD2    H211507   0.704   4.491  11.756 -0.3847  0.6682  0.5796
  776MPD2    H311508   0.891   4.653  11.770 -0.4048 -0.0187  1.2451
  776MPD2     N11509   0.706   0.201  11.490 -0.6346 -0.1618 -0.4261
  776MPD2    H511510   0.775   0.274  11.506  0.3413 -0.9868 -0.8668
  776MPD2    N111511   0.461   4.556  11.658  0.7183 -0.1932  0.2787
  776MPD2    H711512   0.474   4.474  11.717  0.5338 -1.0234 -0.8396
  777MPD2     C11513   0.368   2.915   0.798 -0.3691  0.1418  0.1997
  777MPD2    C111514   0.396   2.804   0.869 -0.4064  0.2972  0.9707
  777MPD2    C211515   0.352   2.680   0.814 -0.6714 -0.4755 -0.1365
  777MPD2    C311516   0.274   2.679   0.700  0.1288  0.6548 -0.7281
  777MPD2    C411517   0.246   2.797   0.638  0.1752  0.4258 -0.5694
  777MPD2    C511518   0.288   2.913   0.689  0.2150  0.3162  0.1421
  777MPD2     H11519   0.376   2.589   0.868 -1.9726 -0.3352  0.6791
  777MPD2    H111520   0.179   2.812   0.554 -0.1579  1.2519 -0.1571
  777MPD2    H211521   0.402   3.012   0.833 -1.6766 -0.0441  1.9540
  777MPD2    H311522   0.257   3.005   0.642  0.5617  0.5163  0.3037
  777MPD2     N11523   0.223   2.556   0.644  0.4417  0.2462  0.0699
  777MPD2    H511524   0.248   2.474   0.699  3.5019  1.4899  0.5348
  777MPD2    N111525   0.469   2.807   0.987 -0.5225 -0.1254 -0.4145
  777MPD2    H711526   0.505   2.902   0.997  0.0535 -0.5757  1.7669
  778MPD2     C11527   1.597   3.309  15.007  0.4920 -0.7731  0.5221
  778MPD2    C111528   1.641   3.190  14.955 -0.0953 -0.1987  0.7712
  778MPD2    C211529   1.755   3.191  14.872 -0.2281 -0.3021  0.3334
  778MPD2    C311530   1.820   3.302  14.837  0.1139 -0.6428 -0.7465
  778MPD2    C411531   1.775   3.424  14.889  0.4418  0.4645  0.2971
  778MPD2    C511532   1.670   3.420  14.978 -0.6804  0.0771  0.1759
  778MPD2     H11533   1.792   3.098  14.832 -1.5616 -0.4635 -0.5070
  778MPD2    H111534   1.824   3.517  14.862 -0.2734  0.4986 -0.9019
  778MPD2    H211535   1.508   3.323  15.067 -0.3244 -1.1195 -0.6114
  778MPD2    H311536   1.639   3.520  15.007 -2.1255 -0.4061  0.3375
  778MPD2     N11537   1.933   3.285  14.748  0.0478 -0.5373 -0.0841
  778MPD2    H511538   1.968   3.191  14.728  3.7565  0.5712  1.1938
  778MPD2    N111539   1.579   3.070  14.991 -0.3006  0.1301 -0.1255
  778MPD2    H711540   1.611   2.989  14.939  0.4541  0.3427  0.0031
  779MPD2     C11541   0.990   1.721  14.413 -0.3519 -0.3414  0.0110
  779MPD2    C111542   1.124   1.715  14.410  0.2230  0.4839  0.3664
  779MPD2    C211543   1.195   1.828  14.373  0.7956 -0.0425  0.9499
  779MPD2    C311544   1.132   1.941  14.341 -0.2493  0.0815 -0.2454
  779MPD2    C411545   0.994   1.945  14.353  0.2669 -0.5114 -0.7944
  779MPD2    C511546   0.923   1.833  14.382 -0.4803  1.2283 -0.3033
  779MPD2     H11547   1.304   1.831  14.367  0.6965 -0.7129 -1.1952
  779MPD2    H111548   0.942   2.037  14.326  2.0697  0.8231  0.2534
  779MPD2    H211549   0.934   1.630  14.432 -1.9218  0.7464  0.5657
  779MPD2    H311550   0.815   1.838  14.385 -0.5277 -0.7451  1.2742
  779MPD2     N11551   1.206   2.057  14.301  0.0772  0.8648 -0.3500
  779MPD2    H511552   1.307   2.045  14.304  0.2034  1.8835 -0.3554
  779MPD2    N111553   1.199   1.591  14.428  0.4182  0.2748  0.3705
  779MPD2    H711554   1.299   1.599  14.415  0.1906 -2.9202 -3.2945
  780MPD2     C11555   1.294   1.808   1.021  0.1121 -0.2988 -0.1738
  780MPD2    C111556   1.165   1.823   0.985  0.0068 -1.2655 -0.7257
  780MPD2    C211557   1.147   1.884   0.861  0.1568  0.5425 -0.2089
  780MPD2    C311558   1.250   1.924   0.778 -0.1084  0.4574 -0.5283
  780MPD2    C411559   1.380   1.916   0.823  0.1235 -0.6453 -0.4032
  780MPD2    C511560   1.397   1.864   0.950  0.7241 -0.4714  0.2797
  780MPD2     H11561   1.053   1.890   0.807  0.8365 -2.0515 -1.6748
  780MPD2    H111562   1.463   1.934   0.756 -0.4138  0.5599 -0.7386
  780MPD2    H211563   1.324   1.748   1.106  0.3728 -0.8829 -0.6819
  780MPD2    H311564   1.495   1.846   0.993 -0.3169 -1.8866  2.0897
  780MPD2     N11565   1.211   1.981   0.660  0.0607  1.2291 -0.4648
  780MPD2    H511566   1.113   1.976   0.636  0.3324 -5.0898 -0.2702
  780MPD2    N111567   1.053   1.783   1.068  0.0624  0.1239 -0.1792
  780MPD2    H711568   1.067   1.706   1.132  2.5059  0.6414 -0.0965
  781MPD2     C11569   2.922   3.605  11.921  0.4895  0.0105 -0.2866
  781MPD2    C111570   2.954   3.496  12.000 -0.0046 -0.2820 -0.5337
  781MPD2    C211571   3.058   3.414  11.959 -0.2160 -0.3733 -0.4940
  781MPD2    C311572   3.118   3.428  11.834  0.5019 -0.1683 -0.3148
  781MPD2    C411573   3.079   3.541  11.754  0.0460  0.1075 -0.1851
  781MPD2    C511574   2.982   3.622  11.800 -0.0526 -0.2128  0.1802
  781MPD2     H11575   3.079   3.327  12.020 -1.8323 -0.3817  0.0662
  781MPD2    H111576   3.125   3.543  11.656  0.3944 -1.3045 -0.0515
  781MPD2    H211577   2.844   3.678  11.938 -0.6867 -1.0780 -1.0569
  781MPD2    H311578   2.958   3.709  11.740 -0.6014 -0.6513 -0.2281
  781MPD2     N11579   3.210   3.332  11.771 -0.4054 -0.2671 -0.1291
  781MPD2    H511580   3.222   3.354  11.673 -1.2283  0.3147 -0.1029
  781MPD2    N111581   2.884   3.466  12.120  0.3540 -0.3850 -0.0780
  781MPD2    H711582   2.914   3.383  12.170  1.1253 -0.7896 -1.1942
  782MPD2     C11583   0.163   3.967   9.812 -1.0227  0.3436  0.4545
  782MPD2    C111584   0.267   3.915   9.887  0.4679  0.2845 -0.0499
  782MPD2    C211585   0.334   4.006   9.968 -0.1951 -0.5566 -0.2004
  782MPD2    C311586   0.302   4.140   9.963  1.0503 -0.1600 -0.6153
  782MPD2    C411587   0.192   4.189   9.889  0.2344  0.3657  0.2562
  782MPD2    C511588   0.124   4.098   9.813 -0.5338 -0.0670 -0.1094
  782MPD2     H11589   0.403   3.973  10.044  0.0199  1.6144  0.5396
  782MPD2    H111590   0.157   4.290   9.873 -1.0777 -0.1818 -0.3570
  782MPD2    H211591   0.107   3.900   9.747  3.7511 -0.7441 -2.6518
  782MPD2    H311592   0.047   4.133   9.745 -0.0803 -0.2246 -0.7058
  782MPD2     N11593   0.386   4.219  10.043  0.0410 -0.3244 -0.3170
  782MPD2    H511594   0.462   4.182  10.099 -0.3703 -3.4943 -1.8721
  782MPD2    N111595   0.294   3.773   9.885 -0.2302  0.3256 -0.4652
  782MPD2    H711596   0.225   3.710   9.843 -2.3391 -0.9302  4.8170
  783MPD2     C11597   4.553   3.264  10.411 -0.5382  0.2915 -0.0512
  783MPD2    C111598   4.629   3.373  10.444  0.1134 -0.2831 -0.6720
  783MPD2    C211599   4.724   3.417  10.352 -0.2678 -0.1904 -0.2281
  783MPD2    C311600   0.013   3.332  10.239  0.0835  0.5204 -0.0296
  783MPD2    C411601   4.684   3.222  10.212  0.3578 -0.4276  0.3305
  783MPD2    C511602   4.579   3.186  10.298 -0.0213  0.2795  0.4198
  783MPD2     H11603   0.036   3.510  10.378 -0.7697 -0.4514  1.5978
  783MPD2    H111604   4.697   3.164  10.121  1.8895  0.3723  0.0443
  783MPD2    H211605   4.470   3.236  10.475 -0.8114 -1.0158 -0.9775
  783MPD2    H311606   4.513   3.102  10.280 -2.0582  1.9070  0.2055
  783MPD2     N11607   0.119   3.374  10.157 -0.3689  1.0649 -0.4284
  783MPD2    H511608   0.168   3.460  10.182  1.8953 -0.2255 -0.4605
  783MPD2    N111609   4.605   3.434  10.569 -0.3289 -0.9341  0.1074
  783MPD2    H711610   4.528   3.400  10.626  0.5879 -0.0292  1.9016
  784MPD2     C11611   3.387   0.200   0.660 -0.2744 -0.5335  0.1295
  784MPD2    C111612   3.345   0.265   0.769  0.6870  0.1436 -0.1569
  784MPD2    C211613   3.217   0.316   0.769 -0.5913  0.3959 -0.2289
  784MPD2    C311614   3.140   0.318   0.655  0.0009  0.0316 -0.2525
  784MPD2    C411615   3.185   0.250   0.537  0.7909  0.6413 -0.2484
  784MPD2    C511616   3.312   0.193   0.550 -1.0255 -0.2167  0.0600
  784MPD2     H11617   3.190   0.357   0.865  0.0583 -0.2906  0.2483
  784MPD2    H111618   3.131   0.233   0.445 -0.0774 -0.7792  0.5172
  784MPD2    H211619   3.477   0.142   0.646 -1.8686 -2.7514 -0.8207
  784MPD2    H311620   3.354   0.143   0.464 -0.0059 -0.7604  0.8712
  784MPD2     N11621   3.014   0.384   0.663 -0.0019 -0.5234 -0.6667
  784MPD2    H511622   2.994   0.432   0.750 -1.6473 -1.2470 -0.6493
  784MPD2    N111623   3.420   0.267   0.885  0.9160  0.0668 -0.5005
  784MPD2    H711624   3.376   0.322   0.958 -0.4327  0.5202 -1.6707
  785MPD2     C11625   2.946   3.009  11.107  0.1384 -0.3025 -0.1178
  785MPD2    C111626   2.896   3.124  11.057  0.1315  0.3135  0.2115
  785MPD2    C211627   2.795   3.109  10.963  0.2402  0.0605 -0.3289
  785MPD2    C311628   2.731   2.987  10.928 -0.6541 -0.3440 -0.4827
  785MPD2    C411629   2.773   2.876  10.994  0.0826 -0.0629  0.2183
  785MPD2    C511630   2.884   2.889  11.076  0.3497 -0.0647 -1.3985
  785MPD2     H11631   2.751   3.195  10.913 -0.6000 -0.0964  0.1462
  785MPD2    H111632   2.731   2.776  10.981 -0.3732  0.2129 -0.3884
  785MPD2    H211633   3.025   3.000  11.180  1.5190  0.0062 -1.5813
  785MPD2    H311634   2.925   2.800  11.123 -1.3671  1.7613  3.4884
  785MPD2     N11635   2.624   2.991  10.835 -0.0200  0.0898 -0.2578
  785MPD2    H511636   2.587   3.080  10.803 -1.1852 -0.7166 -1.1482
  785MPD2    N111637   2.956   3.251  11.094  0.2236 -0.2579 -0.3014
  785MPD2    H711638   3.048   3.245  11.136 -0.7665 -0.0130  1.8754
  786MPD2     C11639   1.696   1.152  15.124  0.1429  0.5294 -0.3688
  786MPD2    C111640   1.811   1.185  15.058  0.0385  0.8839  0.1173
  786MPD2    C211641   1.894   1.282  15.112  0.2046 -0.4954  0.3724
  786MPD2    C311642   1.856   1.350  15.222  0.1667  0.0703  0.2253
  786MPD2    C411643   1.736   1.326  15.280  0.4133  0.5915 -0.4822
  786MPD2    C511644   1.664   1.220  15.237 -0.2210  0.8077 -0.1089
  786MPD2     H11645   1.988   1.300  15.060  0.7074 -0.1658  1.4064
  786MPD2    H111646   1.706   1.384  15.367 -0.7368 -1.4910  0.5183
  786MPD2    H211647   1.637   1.066  15.091  0.5088 -0.0308  0.4519
  786MPD2    H311648   1.581   1.186  15.299  0.6870 -0.3107  0.4978
  786MPD2     N11649   1.935   1.455  15.286 -0.2597 -0.0731  0.2439
  786MPD2    H511650   1.893   1.488  15.373  0.6631  1.6390  0.0369
  786MPD2    N111651   1.850   1.106  14.947  0.6556  0.2684 -0.9984
  786MPD2    H711652   1.950   1.110  14.926  0.7801 -1.0685 -0.6498
  787MPD2     C11653   2.370   0.869  15.042  0.4106 -0.0441 -0.5233
  787MPD2    C111654   2.326   0.798  14.936 -0.7997 -0.6194  0.3157
  787MPD2    C211655   2.392   0.686  14.888 -0.1110 -0.1328  0.2674
  787MPD2    C311656   2.505   0.643  14.954 -0.1927 -0.3621 -0.1971
  787MPD2    C411657   2.550   0.712  15.064  0.9886  0.2125 -0.0852
  787MPD2    C511658   2.482   0.825  15.105 -0.0225  0.0623 -0.1293
  787MPD2     H11659   2.350   0.622  14.812 -1.8755  0.4578  0.7504
  787MPD2    H111660   2.622   0.670  15.133  0.4527 -1.3437 -0.4820
  787MPD2    H211661   2.320   0.955  15.085 -0.4382 -0.5570 -0.4888
  787MPD2    H311662   2.521   0.875  15.194 -0.8586 -0.2490  0.4089
  787MPD2     N11663   2.565   0.521  14.903 -0.2213 -0.6759  0.4111
  787MPD2    H511664   2.514   0.468  14.833 -1.0880  2.2347 -1.1709
  787MPD2    N111665   2.207   0.839  14.871  0.0708 -0.2951 -0.2162
  787MPD2    H711666   2.155   0.915  14.913 -0.5657  0.4002 -2.2659
  788MPD2     C11667   4.454   4.725   0.879 -0.1050 -0.1461  0.0214
  788MPD2    C111668   4.372   4.666   0.790  0.2545 -0.3524  0.0423
  788MPD2    C211669   4.362   4.717   0.660  0.4426 -0.4449 -0.1475
  788MPD2    C311670   4.410   0.106   0.633  0.9119  0.3821 -0.4618
  788MPD2    C411671   4.467   0.182   0.732 -0.2164  0.6581 -0.5323
  788MPD2    C511672   4.489   0.119   0.849 -0.1567  0.2787  0.0038
  788MPD2     H11673   4.312   4.656   0.586  0.3787  0.3383 -0.7435
  788MPD2    H111674   4.508   0.279   0.706 -1.1149  0.9236 -0.9598
  788MPD2    H211675   4.462   4.688   0.980 -2.4561 -0.1580  0.1926
  788MPD2    H311676   4.537   0.169   0.932 -1.7768 -0.7521  1.5451
  788MPD2     N11677   4.419   0.164   0.508 -0.5874 -0.1614  0.0087
  788MPD2    H511678   4.429   0.265   0.506 -2.6999  0.0544  0.7602
  788MPD2    N111679   4.319   4.538   0.826 -0.4888 -0.7999 -0.9460
  788MPD2    H711680   4.342   4.496   0.915  0.9171  0.2417 -0.8117
  789MPD2     C11681   4.363   3.619  16.701  0.9526  0.5873  0.2164
  789MPD2    C111682   4.304   3.681  16.591  0.1085  0.1798 -0.4304
  789MPD2    C211683   4.233   3.797  16.613  0.2772  0.4185 -1.0135
  789MPD2    C311684   4.217   3.839  16.740 -0.1484  0.6973 -0.0163
  789MPD2    C411685   4.291   3.788  16.843  0.1593 -0.2464  1.0871
  789MPD2    C511686   4.370   3.676  16.817 -0.4369  0.6336 -0.2780
  789MPD2     H11687   4.186   3.840  16.526 -0.4133  0.0063 -0.8396
  789MPD2    H111688   4.295   3.810  16.949 -2.2359 -0.7756  1.2925
  789MPD2    H211689   4.432   3.536  16.692  2.0080  1.5146 -0.1707
  789MPD2    H311690   4.420   3.630  16.901  0.6698 -0.8744 -1.7711
  789MPD2     N11691   4.140   3.954  16.772  0.8810 -0.8126 -0.4006
  789MPD2    H511692   4.151   3.978  16.870 -0.0041  0.7524 -0.6833
  789MPD2    N111693   4.300   3.632  16.462 -0.3267 -0.2449 -0.5673
  789MPD2    H711694   4.269   3.691  16.385  2.6495 -2.1308 -3.2544
  790MPD2     C11695   0.668   0.483  13.489  0.0625  0.9195 -0.6865
  790MPD2    C111696   0.610   0.370  13.541 -0.3663  0.1914 -0.0853
  790MPD2    C211697   0.514   0.300  13.472  0.9954 -0.3143 -0.1760
  790MPD2    C311698   0.474   0.341  13.347 -0.4119  0.7453  0.5017
  790MPD2    C411699   0.537   0.450  13.290  0.3508  0.3211 -0.3640
  790MPD2    C511700   0.637   0.511  13.361  0.9736 -0.5823 -0.2570
  790MPD2     H11701   0.451   0.225  13.518  0.8012  0.9497  1.6121
  790MPD2    H111702   0.517   0.488  13.191 -2.8602 -0.3896  0.0148
  790MPD2    H211703   0.736   0.544  13.548  2.3527 -1.3752 -0.9455
  790MPD2    H311704   0.675   0.593  13.301  0.9150 -1.5373 -1.5992
  790MPD2     N11705   0.394   0.253  13.268 -0.2108  0.4011 -0.1168
  790MPD2    H511706   0.374   0.161  13.305  1.8194 -0.8667 -2.1545
  790MPD2    N111707   0.642   0.321  13.670  0.8114 -0.5851  0.0402
  790MPD2    H711708   0.582   0.248  13.706 -0.5677 -0.0155 -1.1086
  791MPD2     C11709   4.588   0.386  12.702 -0.7346  0.3290 -0.9925
  791MPD2    C111710   4.597   0.256  12.741 -0.0776  0.0832 -0.7756
  791MPD2    C211711   4.502   0.167  12.693  0.3378 -0.0184  0.8971
  791MPD2    C311712   4.398   0.208  12.611 -0.4960  0.2019  0.4378
  791MPD2    C411713   4.386   0.343  12.589 -0.2445 -0.3213 -0.1164
  791MPD2    C511714   4.482   0.429  12.630 -0.0414  0.0475 -0.3319
  791MPD2     H11715   4.501   0.062  12.719 -1.3416 -1.1089 -3.7036
  791MPD2    H111716   4.299   0.373  12.532 -0.5038 -1.1849 -0.1670
  791MPD2    H211717   4.662   0.453  12.745 -0.0784 -2.3963  2.1507
  791MPD2    H311718   4.477   0.532  12.595 -2.4746  0.2881  0.7107
  791MPD2     N11719   4.304   0.110  12.567  0.1174  0.0838  0.2153
  791MPD2    H511720   4.321   0.012  12.590  1.8618  0.2385 -0.3741
  791MPD2    N111721   4.711   0.221  12.816 -0.1965 -0.5440  0.1252
  791MPD2    H711722   0.035   0.294  12.852 -0.5676  0.2866 -0.9549
  792MPD2     C11723   0.348   4.713  10.252  0.9780  0.5755  0.0539
  792MPD2    C111724   0.346   4.693  10.388  0.4515 -0.1292 -0.0570
  792MPD2    C211725   0.245   4.612  10.443  1.0323 -0.8812 -1.2756
  792MPD2    C311726   0.147   4.554  10.360 -0.0356  0.5393  0.6641
  792MPD2    C411727   0.146   4.595  10.232  0.0093  0.2811 -0.3508
  792MPD2    C511728   0.243   4.671  10.169 -0.1851 -0.2141 -0.0375
  792MPD2     H11729   0.241   4.591  10.549  1.6996  2.8398 -0.5222
  792MPD2    H111730   0.072   4.551  10.166  2.6306 -1.1978 -2.2956
  792MPD2    H211731   0.428   0.027  10.201  0.7291  0.4251 -0.4909
  792MPD2    H311732   0.245   4.696  10.064 -0.2033 -4.1087 -0.9513
  792MPD2     N11733   0.047   4.468  10.404  0.0157 -0.2132 -0.0287
  792MPD2    H511734   4.721   4.437  10.331  1.0760 -3.1405  0.2744
  792MPD2    N111735   0.466   0.015  10.452 -0.1840 -0.0140 -0.3072
  792MPD2    H711736   0.525   0.074  10.396  1.3546  0.1685  1.4793
  793MPD2     C11737   4.107   4.509   9.990  0.0325  0.5799 -0.5375
  793MPD2    C111738   4.241   4.510   9.976 -0.1886  0.1798 -0.7848
  793MPD2    C211739   4.317   4.457  10.078 -0.1263  0.5695 -0.0737
  793MPD2    C311740   4.259   4.408  10.192  0.2519  0.9010 -0.5938
  793MPD2    C411741   4.124   4.407  10.210 -0.8614  0.2645  0.3457
  793MPD2    C511742   4.050   4.460  10.107 -0.6725 -0.1686  0.1178
  793MPD2     H11743   4.426   4.455  10.071 -0.1101  0.0786  0.3580
  793MPD2    H111744   4.070   4.376  10.299 -1.2902  1.0932  0.3749
  793MPD2    H211745   4.038   4.548   9.917 -0.9980 -1.6457 -0.7433
  793MPD2    H311746   3.942   4.456  10.115 -0.7854  2.1634 -0.3277
  793MPD2     N11747   4.353   4.365  10.289  0.2733 -0.0148  0.5338
  793MPD2    H511748   4.452   4.381  10.274  0.3853 -0.8063  0.4052
  793MPD2    N111749   4.306   4.563   9.857 -0.4337 -0.1655 -0.5742
  793MPD2    H711750   4.407   4.562   9.852 -0.3810  0.9551  0.2872
  794MPD2     C11751   4.519   0.090  17.016 -0.4280 -0.5596  0.5421
  794MPD2    C111752   4.613   0.002  16.969 -0.0140 -0.4933  0.3350
  794MPD2    C211753   4.599   4.692  16.841  0.1014  0.0147 -0.6172
  794MPD2    C311754   4.492   4.736  16.760 -1.1528  0.1185  0.0792
  794MPD2    C411755   4.395   0.089  16.812  0.6111 -0.2403 -0.2069
  794MPD2    C511756   4.418   0.132  16.938 -0.1374 -1.0336  0.7439
  794MPD2     H11757   4.672   4.617  16.810  1.0406  0.9769 -0.7541
  794MPD2    H111758   4.310   0.128  16.758  0.3721  0.8523  0.9647
  794MPD2    H211759   4.520   0.131  17.117 -1.4777  0.3984  0.1617
  794MPD2    H311760   4.351   0.202  16.988  0.2472 -0.8474  0.9975
  794MPD2     N11761   4.495   4.712  16.619  0.0075  0.0633 -0.0267
  794MPD2    H511762   4.423   0.023  16.566  0.0365 -0.3573 -0.4466
  794MPD2    N111763   4.710   4.676  17.057  0.0853 -0.2735  0.5176
  794MPD2    H711764   0.023   4.592  17.029  3.2177  1.1658  1.8494
  795MPD2     C11765   2.686   2.014  13.462  0.2253  0.1600  0.3095
  795MPD2    C111766   2.690   1.923  13.574  0.8643 -0.3128 -0.3366
  795MPD2    C211767   2.810   1.874  13.613  0.2836 -0.2619 -0.1793
  795MPD2    C311768   2.927   1.903  13.555 -0.0619 -0.5456 -0.3612
  795MPD2    C411769   2.925   1.986  13.448  0.4608  0.2955 -0.7651
  795MPD2    C511770   2.802   2.046  13.405 -0.1522 -0.0039 -1.2368
  795MPD2     H11771   2.812   1.812  13.702 -3.2606 -1.1970 -0.7460
  795MPD2    H111772   3.015   2.006  13.391  1.1720  0.2176  0.3412
  795MPD2    H211773   2.597   2.064  13.426 -0.6440 -1.7803 -0.2565
  795MPD2    H311774   2.795   2.111  13.319 -1.2943  1.7386  0.1871
  795MPD2     N11775   3.044   1.835  13.589  0.3055  0.0445  0.3806
  795MPD2    H511776   3.046   1.760  13.658  1.0844 -2.1628 -2.0387
  795MPD2    N111777   2.577   1.879  13.639  0.0365  0.0010  0.7236
  795MPD2    H711778   2.593   1.823  13.722 -0.6778 -3.0188 -1.1666
  796MPD2     C11779   2.011   3.817  15.951 -0.3249 -0.7269 -0.4314
  796MPD2    C111780   2.073   3.926  16.009  0.1568  0.2731  0.5108
  796MPD2    C211781   2.042   4.051  15.961  0.1277  0.1781 -0.4123
  796MPD2    C311782   1.944   4.061  15.862  0.7195  0.1443 -0.3430
  796MPD2    C411783   1.877   3.951  15.812  1.1517  0.1823 -0.4276
  796MPD2    C511784   1.910   3.830  15.860 -0.7933 -0.0589 -0.0556
  796MPD2     H11785   2.093   4.138  16.000  0.5604 -1.1372  1.9855
  796MPD2    H111786   1.802   3.950  15.733  1.6229  1.9800 -0.9062
  796MPD2    H211787   2.034   3.714  15.975  0.7464 -0.2562  0.5666
  796MPD2    H311788   1.855   3.745  15.820  2.0213 -0.6994 -2.6615
  796MPD2     N11789   1.905   4.199  15.832  0.6500  0.7868  0.3805
  796MPD2    H511790   1.964   4.270  15.874  0.3387  0.9940  0.4613
  796MPD2    N111791   2.172   3.903  16.099  0.0663 -0.1641 -0.6544
  796MPD2    H711792   2.188   3.804  16.117  0.9198 -0.2369 -1.7257
  797MPD2     C11793   3.128   3.495  17.376 -0.4366 -0.2877  0.1750
  797MPD2    C111794   3.181   3.616  17.427 -1.2853 -0.9929 -0.5930
  797MPD2    C211795   3.111   3.736  17.407  0.2508 -0.0973 -0.5805
  797MPD2    C311796   2.987   3.736  17.342  0.7487  0.4388 -0.3801
  797MPD2    C411797   2.938   3.617  17.292 -0.5147 -0.2996  0.0224
  797MPD2    C511798   3.007   3.497  17.308 -0.6899  0.1856  0.4436
  797MPD2     H11799   3.153   3.821  17.458 -1.6601 -0.4722  1.5656
  797MPD2    H111800   2.837   3.606  17.255 -0.1693  0.1525 -1.0660
  797MPD2    H211801   3.171   3.401  17.407  0.8083  0.2791  0.1789
  797MPD2    H311802   2.967   3.400  17.282  2.7383 -0.6696 -1.7123
  797MPD2     N11803   2.912   3.851  17.318 -0.1106 -0.3010  0.1533
  797MPD2    H511804   2.827   3.835  17.265 -0.6969  2.8443  0.1265
  797MPD2    N111805   3.301   3.632  17.500  0.1068  0.2220 -0.3422
  797MPD2    H711806   3.331   3.725  17.527 -1.1543 -0.0899  2.1277
  798MPD2     C11807   3.259   4.389  17.659  0.2027 -0.4188 -0.2772
  798MPD2    C111808   3.211   4.272  17.601 -0.3620  0.5629  0.4642
  798MPD2    C211809   3.294   4.167  17.602 -0.4981 -0.2757 -0.0937
  798MPD2    C311810   3.422   4.168  17.658  0.1778  0.7098  0.0330
  798MPD2    C411811   3.460   4.284  17.719  0.1266  0.0050 -0.4581
  798MPD2    C511812   3.377   4.391  17.727 -0.7607 -0.0342 -0.0269
  798MPD2     H11813   3.238   4.076  17.585 -1.3869  0.3318 -0.3784
  798MPD2    H111814   3.557   4.304   0.017  0.2255 -0.8140 -0.2978
  798MPD2    H211815   3.195   4.477  17.662 -0.0276 -0.6197  0.6658
  798MPD2    H311816   3.410   4.477   0.038 -1.6880  0.6956 -0.5974
  798MPD2     N11817   3.507   4.057  17.653  0.3710 -0.2228 -0.4034
  798MPD2    H511818   3.601   4.064  17.690  0.7088 -0.5166 -1.2022
  798MPD2    N111819   3.077   4.251  17.559  0.4045 -0.3328  0.4935
  798MPD2    H711820   3.054   4.156  17.531  0.8246 -0.1404 -0.4875
  799MPD2     C11821   2.444   0.081  14.198  0.1604  0.4739 -0.1049
  799MPD2    C111822   2.317   0.018  14.179  0.2633 -0.6159 -0.1610
  799MPD2    C211823   2.240   0.052  14.065 -0.6907  0.0121 -0.1321
  799MPD2    C311824   2.282   0.140  13.971 -0.2557 -0.2393  0.1615
  799MPD2    C411825   2.405   0.194  13.989 -0.6136 -0.7715 -0.1872
  799MPD2    C511826   2.480   0.169  14.099 -0.2079 -0.3275  0.2011
  799MPD2     H11827   2.140   0.012  14.063 -0.7079  0.0799 -0.4709
  799MPD2    H111828   2.437   0.268  13.916  4.3641 -2.6942  0.1187
  799MPD2    H211829   2.509   0.070  14.284  0.8004  0.4865 -0.5898
  799MPD2    H311830   2.574   0.222  14.109 -1.6825  2.4799 -0.7432
  799MPD2     N11831   2.202   0.185  13.859  0.4867  0.1765  0.5893
  799MPD2    H511832   2.243   0.261  13.806  0.5299  0.6553  1.3126
  799MPD2    N111833   2.259   4.661  14.272  0.1228 -0.0548 -0.5757
  799MPD2    H711834   2.177   4.611  14.239  1.2284 -1.6021 -0.9673
  800MPD2     C11835   2.417   0.906  14.005  0.3761 -0.1766 -0.2624
  800MPD2    C111836   2.541   0.902  14.064  0.3959 -0.3881 -0.1348
  800MPD2    C211837   2.652   0.855  13.997  0.8832 -0.2362 -0.1615
  800MPD2    C311838   2.643   0.818  13.868  0.7103  0.3552  0.3013
  800MPD2    C411839   2.529   0.858  13.802  0.7471  1.0100 -0.3070
  800MPD2    C511840   2.416   0.889  13.869 -0.5096 -0.2224  0.3547
  800MPD2     H11841   2.742   0.827  14.051  2.4203 -0.2242 -2.7614
  800MPD2    H111842   2.512   0.841  13.696 -0.5122 -0.3050  0.0933
  800MPD2    H211843   2.330   0.942  14.058 -1.1071 -1.9200 -1.5039
  800MPD2    H311844   2.339   0.925  13.802  0.9188 -1.5822 -2.0322
  800MPD2     N11845   2.756   0.768  13.804 -0.5506 -0.3613  0.6874
  800MPD2    H511846   2.836   0.741  13.862  2.1212  2.7334 -1.5577
  800MPD2    N111847   2.556   0.962  14.196 -0.4051  0.2119  0.6625
  800MPD2    H711848   2.471   0.987  14.247 -0.5144 -0.1736  0.6699
  801MPD2     C11849   2.397   1.619  14.144  0.8294 -0.2790 -1.4125
  801MPD2    C111850   2.505   1.633  14.233  0.2289  0.4757 -0.4207
  801MPD2    C211851   2.551   1.763  14.264  0.3856 -0.2546  0.2552
  801MPD2    C311852   2.484   1.869  14.208 -0.0991  0.1696  0.4339
  801MPD2    C411853   2.388   1.852  14.114  0.8658  0.0922  0.2012
  801MPD2    C511854   2.338   1.730  14.086 -0.1091  0.1007  0.1274
  801MPD2     H11855   2.631   1.787  14.334  1.5697  2.4583 -2.0284
  801MPD2    H111856   2.336   1.934  14.065 -0.8852  0.3376  2.5122
  801MPD2    H211857   2.356   1.521  14.124 -0.0163 -0.4184  1.0439
  801MPD2    H311858   2.253   1.724  14.019  1.0471  1.7004 -1.4769
  801MPD2     N11859   2.501   2.002  14.255 -0.5328  0.2370 -0.0011
  801MPD2    H511860   2.419   2.059  14.233  0.7163  1.1010 -2.4434
  801MPD2    N111861   2.569   1.530  14.298  0.1067  0.3764 -0.1018
  801MPD2    H711862   2.668   1.535  14.318  0.5073 -2.2578 -1.3437
  802MPD2     C11863   2.411   2.696   0.257 -0.0437 -0.3030  0.3950
  802MPD2    C111864   2.281   2.653   0.257  0.6886 -0.0165 -0.1271
  802MPD2    C211865   2.248   2.531   0.210 -0.4417  0.8275 -0.2306
  802MPD2    C311866   2.348   2.442   0.171 -0.7696  0.3904  0.2000
  802MPD2    C411867   2.481   2.475   0.190  0.0052 -0.0810 -0.8552
  802MPD2    C511868   2.506   2.605   0.219 -0.2008  0.1162 -0.2126
  802MPD2     H11869   2.143   2.505   0.211  0.2862 -2.0283  2.2757
  802MPD2    H111870   2.567   2.425   0.147 -0.6331 -1.3839 -0.6185
  802MPD2    H211871   2.442   2.800   0.258 -2.6510  0.5066 -0.9999
  802MPD2    H311872   2.609   2.637   0.212 -0.0513 -0.7597 -2.1576
  802MPD2     N11873   2.311   2.315   0.118  0.5800  0.8195 -1.2180
  802MPD2    H511874   2.209   2.316   0.115  0.5688  2.4035 -0.4312
  802MPD2    N111875   2.177   2.740   0.282  0.0915 -0.8275 -0.0488
  802MPD2    H711876   2.089   2.697   0.255  1.0851 -2.1779 -1.1107
  803MPD2     C11877   2.836   0.735  11.745  0.3331  0.5230  0.3756
  803MPD2    C111878   2.925   0.632  11.735 -0.5172  0.1342  1.0223
  803MPD2    C211879   2.914   0.519  11.814  0.5962 -0.4032 -0.6501
  803MPD2    C311880   2.811   0.508  11.901  0.6465 -0.0006 -0.2549
  803MPD2    C411881   2.724   0.615  11.915  0.4254 -0.0356 -0.0462
  803MPD2    C511882   2.733   0.726  11.835 -0.4002  0.4329  0.2754
  803MPD2     H11883   2.989   0.442  11.794  2.3928  0.7837  1.5520
  803MPD2    H111884   2.652   0.614  11.996  1.0535 -0.8415  0.5032
  803MPD2    H211885   2.847   0.824  11.683  0.6564 -0.9688 -1.7182
  803MPD2    H311886   2.656   0.801  11.844  2.3048  3.1245  1.0702
  803MPD2     N11887   2.793   0.394  11.986 -0.0484  0.3453 -0.3115
  803MPD2    H511888   2.744   0.414  12.073 -0.9914 -1.0545 -0.5214
  803MPD2    N111889   3.052   0.635  11.667  0.1978 -0.5048  0.2900
  803MPD2    H711890   3.126   0.569  11.687  1.8559  0.4568 -2.7095
  804MPD2     C11891   2.613   2.306  17.229  1.1611 -0.1769 -0.1542
  804MPD2    C111892   2.730   2.283  17.290 -0.1025 -0.3219  0.1938
  804MPD2    C211893   2.805   2.394  17.328  0.1498 -0.3593  0.3546
  804MPD2    C311894   2.748   2.517  17.329 -0.8950  0.2083  0.0653
  804MPD2    C411895   2.624   2.544  17.260 -0.2501  0.0402  0.0938
  804MPD2    C511896   2.560   2.429  17.205  0.2098  0.2489 -0.4685
  804MPD2     H11897   2.905   2.385  17.369  1.2926  1.3606 -2.0457
  804MPD2    H111898   2.578   2.641  17.256 -0.9909 -0.3558 -0.9365
  804MPD2    H211899   2.558   2.218  17.197  2.1629 -0.5087 -0.9667
  804MPD2    H311900   2.463   2.444  17.158  0.1256  2.1170  0.3256
  804MPD2     N11901   2.826   2.622  17.386 -0.1990  0.7428 -0.0108
  804MPD2    H511902   2.909   2.601  17.440 -0.3091 -0.2094 -0.2154
  804MPD2    N111903   2.773   2.154  17.340 -0.4907 -0.7353 -0.2943
  804MPD2    H711904   2.858   2.152  17.396 -1.0845 -0.4207  0.6097
  805MPD2     C11905   1.809   0.664  14.880 -0.2453  0.0499 -0.3115
  805MPD2    C111906   1.927   0.590  14.899  0.0173  0.4103  0.3167
  805MPD2    C211907   1.982   0.589  15.030 -0.0383  0.6974 -0.3798
  805MPD2    C311908   1.908   0.644  15.126 -0.0264 -0.1278  0.5470
  805MPD2    C411909   1.784   0.710  15.101 -0.6482  0.7142 -0.0959
  805MPD2    C511910   1.733   0.718  14.979 -0.0118 -0.2432 -0.3140
  805MPD2     H11911   2.077   0.539  15.042 -0.6291  0.4303  3.1913
  805MPD2    H111912   1.718   0.746  15.179 -1.8828 -0.0466 -0.8015
  805MPD2    H211913   1.753   0.659  14.787 -0.6123  0.6208 -0.1215
  805MPD2    H311914   1.638   0.768  14.963 -0.7811 -0.8165  2.6026
  805MPD2     N11915   1.959   0.635  15.257  0.6028 -0.9207  0.3205
  805MPD2    H511916   2.054   0.601  15.264  2.5668  4.0692 -1.9176
  805MPD2    N111917   1.986   0.505  14.798 -0.2122  0.3013 -0.3278
  805MPD2    H711918   2.065   0.446  14.825  0.6699  1.0434 -1.2528
  806MPD2     C11919   2.032   4.661   0.098 -0.3261 -0.6582  0.4731
  806MPD2    C111920   2.102   4.729   0.193 -0.2407 -0.0655 -0.1855
  806MPD2    C211921   2.192   0.088   0.153  0.2629  0.0362 -0.5208
  806MPD2    C311922   2.202   0.131   0.022 -0.5099  0.0488 -0.1227
  806MPD2    C411923   2.105   0.081  17.677  0.2609 -0.1078 -0.1563
  806MPD2    C511924   2.028   4.711  17.718  1.4129 -0.5427 -0.4662
  806MPD2     H11925   2.264   0.136   0.217 -0.1164 -0.4322  0.2554
  806MPD2    H111926   2.098   0.123  17.578  5.0386 -2.0450 -1.3254
  806MPD2    H211927   1.966   4.579   0.124 -1.7537 -0.5868 -2.8915
  806MPD2    H311928   1.960   4.674  17.643  0.2134  0.1149  0.3032
  806MPD2     N11929   2.286   0.235  17.719 -0.0367 -0.4081 -0.4711
  806MPD2    H511930   2.260   0.267  17.626  0.8923 -3.0580 -1.6548
  806MPD2    N111931   2.087   4.691   0.326 -0.2510 -0.0636  0.5656
  806MPD2    H711932   2.020   4.626   0.365 -0.3540 -0.5266 -0.3772
  807MPD2     C11933   1.865   4.176   0.869  0.3544  0.3761  0.4099
  807MPD2    C111934   1.999   4.208   0.897  0.0229  0.0852  0.0779
  807MPD2    C211935   2.072   4.139   0.997  0.4775  1.0458 -0.3333
  807MPD2    C311936   2.016   4.022   1.052  0.3794 -0.6460 -0.2954
  807MPD2    C411937   1.896   3.973   1.007 -0.0766 -0.7695  0.4341
  807MPD2    C511938   1.822   4.054   0.922  0.0591  0.8089 -0.3181
  807MPD2     H11939   2.173   4.172   1.020  0.6511  0.8470 -0.8017
  807MPD2    H111940   1.860   3.878   1.045 -1.4354 -1.1011 -1.6839
  807MPD2    H211941   1.789   4.230   0.813  0.1132 -0.4949 -0.1153
  807MPD2    H311942   1.725   4.014   0.895 -0.1115  0.4924  0.7890
  807MPD2     N11943   2.092   3.953   1.153 -0.1377 -0.8248  0.3190
  807MPD2    H511944   2.182   3.989   1.184 -0.6050 -0.1771  0.9282
  807MPD2    N111945   2.067   4.323   0.833  0.4813 -0.3786  0.5716
  807MPD2    H711946   2.160   4.347   0.868  1.3204  0.0865 -1.9707
  808MPD2     C11947   2.417   0.608   9.845  0.1225 -0.1502  0.0232
  808MPD2    C111948   2.425   0.660   9.976 -0.2186 -0.7907  0.1695
  808MPD2    C211949   2.498   0.768  10.006  0.2306  0.4617  0.2446
  808MPD2    C311950   2.573   0.828   9.912  1.0836  0.0849  0.7308
  808MPD2    C411951   2.562   0.784   9.784 -0.2013  0.5401 -0.1883
  808MPD2    C511952   2.481   0.680   9.746  0.3293 -0.1675  0.1028
  808MPD2     H11953   2.494   0.801  10.109  0.8303 -0.2861  0.5128
  808MPD2    H111954   2.628   0.832   9.711  2.4388 -3.2387 -0.2912
  808MPD2    H211955   2.378   0.511   9.815 -1.5248  0.5578 -0.1175
  808MPD2    H311956   2.479   0.640   9.645  0.2541 -0.8961  0.3948
  808MPD2     N11957   2.678   0.916   9.931 -0.2485 -0.7233  0.1310
  808MPD2    H511958   2.729   0.957   9.854 -2.6078  1.7161 -0.1486
  808MPD2    N111959   2.361   0.600  10.081  0.1484 -0.0606 -0.1630
  808MPD2    H711960   2.396   0.629  10.171  1.0287 -0.7947 -0.2694
  809MPD2     C11961   2.348   1.633   9.626 -0.0286  0.3447 -0.1428
  809MPD2    C111962   2.472   1.679   9.660  0.4708  0.6555 -0.6386
  809MPD2    C211963   2.556   1.597   9.734  0.2492  0.1858 -0.0803
  809MPD2    C311964   2.506   1.478   9.794  0.0173  0.2337  0.8759
  809MPD2    C411965   2.376   1.445   9.769  0.2796 -0.4765 -0.6576
  809MPD2    C511966   2.307   1.512   9.677  0.5586 -0.4596  0.4389
  809MPD2     H11967   2.662   1.616   9.748  0.1093  0.4862  0.5675
  809MPD2    H111968   2.338   1.355   9.816  1.3120 -0.2798  0.5488
  809MPD2    H211969   2.274   1.684   9.565  1.1505  1.1371 -0.9313
  809MPD2    H311970   2.207   1.472   9.662  0.7328 -0.3159 -1.0200
  809MPD2     N11971   2.592   1.395   9.871  0.1497 -0.6824 -0.4061
  809MPD2    H511972   2.555   1.309   9.909 -0.6397  1.0662  2.7920
  809MPD2    N111973   2.530   1.793   9.599  0.1552  0.2512 -0.3667
  809MPD2    H711974   2.625   1.820   9.621  0.2426  2.6049 -3.4937
  810MPD2     C11975   1.923   0.037  10.965  0.0691 -0.0901  0.0974
  810MPD2    C111976   1.866   0.084  10.847  0.6505  0.6592 -0.0457
  810MPD2    C211977   1.861   0.220  10.817  0.6585  0.2300  0.3042
  810MPD2    C311978   1.911   0.310  10.903  1.0314 -0.3866  0.1181
  810MPD2    C411979   1.960   0.267  11.021 -0.1201  0.3432  0.3079
  810MPD2    C511980   1.961   0.136  11.056  0.0594  0.0110 -0.1905
  810MPD2     H11981   1.817   0.252  10.723  0.1659 -0.4544  0.2976
  810MPD2    H111982   1.997   0.342  11.091  0.4388  1.9807 -1.7416
  810MPD2    H211983   1.946   4.672  10.991 -1.8932 -0.7114 -0.5933
  810MPD2    H311984   2.006   0.106  11.150  0.3823 -0.7977 -0.5954
  810MPD2     N11985   1.914   0.450  10.867  0.0349 -0.6120  0.1894
  810MPD2    H511986   1.960   0.512  10.933  2.3620 -1.8004 -0.3183
  810MPD2    N111987   1.820   4.736  10.746 -0.1756  0.0833 -0.4257
  810MPD2    H711988   1.777   0.041  10.665 -2.1791 -0.1487  0.4947
  811MPD2     C11989   1.586   0.087  10.004 -0.6141  0.5620  0.4108
  811MPD2    C111990   1.630   0.117  10.129  0.4182  0.7059  0.5421
  811MPD2    C211991   1.669   0.254  10.153  0.6987  0.3543  0.0656
  811MPD2    C311992   1.655   0.353  10.056 -0.3157 -0.2145  1.0795
  811MPD2    C411993   1.590   0.320   9.940 -0.0687 -0.4389 -0.5691
  811MPD2    C511994   1.566   0.187   9.916  0.9799 -0.1512 -0.0308
  811MPD2     H11995   1.723   0.282  10.243 -1.2999  1.4307  0.9392
  811MPD2    H111996   1.587   0.379   9.849  0.4517  0.0310 -0.2735
  811MPD2    H211997   1.549   4.723   9.988 -2.0402  1.0294  0.6928
  811MPD2    H311998   1.531   0.146   9.822 -1.8879  0.1538  0.9206
  811MPD2     N11999   1.697   0.479  10.087 -0.4701  0.2585 -0.1305
  811MPD2    H512000   1.724   0.488  10.185 -1.3235  1.1683  0.0151
  811MPD2    N112001   1.648   0.006  10.216  0.0146  0.4098 -0.7356
  811MPD2    H712002   1.641   4.647  10.185 -1.0729  0.8556 -1.8456
  812MPD2     C12003   0.926   4.613  12.226  0.3076 -0.2677 -0.1766
  812MPD2    C112004   0.954   4.733  12.287  0.2967 -0.3230 -0.3488
  812MPD2    C212005   1.064   4.735  12.373 -0.3554 -0.0950  0.1105
  812MPD2    C312006   1.138   4.621  12.397  0.2623  0.2797  0.0139
  812MPD2    C412007   1.092   4.500  12.354 -0.1672  0.4142  0.3553
  812MPD2    C512008   0.977   4.495  12.276 -0.2038  0.8228  0.3808
  812MPD2     H12009   1.095   0.096  12.406 -1.1801  0.1850  0.0363
  812MPD2    H112010   1.134   4.409  12.395 -1.8463 -0.2508  0.6161
  812MPD2    H212011   0.845   4.610  12.155 -0.0569 -1.3577  0.2801
  812MPD2    H312012   0.937   4.404  12.232 -1.3357  0.9663  1.1151
  812MPD2     N12013   1.244   4.631  12.488 -0.0547  0.0679  0.4083
  812MPD2    H512014   1.285   4.723  12.484  0.1056 -0.0071  0.3436
  812MPD2    N112015   0.881   0.109  12.253  0.6758  0.7556 -0.3411
  812MPD2    H712016   0.817   0.094  12.175  0.7903  0.3420 -0.3563
  813MPD2     C12017   0.003   1.558  13.091 -0.5390  0.5190  0.0178
  813MPD2    C112018   0.054   1.690  13.084 -0.3917  0.1991 -0.2338
  813MPD2    C212019   0.013   1.785  13.179 -0.6421 -0.3203  0.2857
  813MPD2    C312020   4.671   1.753  13.285  0.3504 -0.0749  1.1549
  813MPD2    C412021   4.640   1.619  13.299  0.5321  0.1588  0.0831
  813MPD2    C512022   4.659   1.529  13.198  0.2826 -0.3041  0.5308
  813MPD2     H12023   0.042   1.890  13.181 -1.5295 -0.0891  0.8004
  813MPD2    H112024   4.581   1.593  13.386 -1.1689  1.4353 -0.6841
  813MPD2    H212025   0.018   1.490  13.008  0.2599 -0.0523  0.6259
  813MPD2    H312026   4.633   1.426  13.222  1.5333 -1.3308 -2.5089
  813MPD2     N12027   4.646   1.846  13.389  0.2534  0.8613 -0.8418
  813MPD2    H512028   4.699   1.932  13.375  1.5412 -0.1530 -2.0797
  813MPD2    N112029   0.137   1.716  12.977 -0.1967  0.1238 -0.1174
  813MPD2    H712030   0.164   1.632  12.928 -0.6871  0.1561 -0.4453
  814MPD2     C12031   0.651   3.077  12.363  0.5125 -1.0801  0.2008
  814MPD2    C112032   0.651   3.132  12.233 -0.0119  0.7318 -0.4185
  814MPD2    C212033   0.727   3.239  12.197 -0.4275  0.2966 -0.0528
  814MPD2    C312034   0.811   3.307  12.285  0.4115  0.1536  0.3723
  814MPD2    C412035   0.801   3.267  12.416  0.6636  0.5186 -0.2007
  814MPD2    C512036   0.725   3.156  12.451 -0.0990  0.1471  0.1997
  814MPD2     H12037   0.711   3.279  12.097 -1.6887  0.5744  0.2612
  814MPD2    H112038   0.858   3.312  12.497  0.7182  0.2446 -0.0857
  814MPD2    H212039   0.584   3.002  12.402 -0.4400 -0.1366  0.3778
  814MPD2    H312040   0.722   3.127  12.556 -0.6547  1.0713  0.4367
  814MPD2     N12041   0.884   3.423  12.251  0.0675  0.4404 -0.1975
  814MPD2    H512042   0.913   3.493  12.319 -3.2454 -0.0613  1.7400
  814MPD2    N112043   0.581   3.070  12.126  0.1251  0.7688 -0.4277
  814MPD2    H712044   0.579   3.110  12.033  0.9130 -2.6690 -1.9377
  815MPD2     C12045   1.004   1.043  12.282  0.7242  0.0628 -0.4272
  815MPD2    C112046   0.942   1.070  12.163 -0.1401  0.5932  0.0233
  815MPD2    C212047   0.822   1.128  12.155 -0.3693  0.7571 -0.2757
  815MPD2    C312048   0.750   1.154  12.267  0.2450  0.5640  0.3519
  815MPD2    C412049   0.815   1.142  12.389  0.5030  0.4459  0.2550
  815MPD2    C512050   0.946   1.094  12.397  0.2110 -0.7998  0.5538
  815MPD2     H12051   0.780   1.154  12.059  0.0816 -0.1800 -0.7285
  815MPD2    H112052   0.776   1.152  12.490  1.5856  0.4488  0.6803
  815MPD2    H212053   1.102   0.996  12.289  1.0420  0.6441 -0.9891
  815MPD2    H312054   0.993   1.071  12.491  0.8139 -1.7076  0.0306
  815MPD2     N12055   0.612   1.171  12.255  0.4335  0.2305  0.3138
  815MPD2    H512056   0.581   1.172  12.158  1.7762 -0.5444 -0.1195
  815MPD2    N112057   1.007   1.046  12.040  0.4236 -0.0635  0.3106
  815MPD2    H712058   0.959   1.070  11.954 -0.6656 -1.1335  0.6217
  816MPD2     C12059   0.843   1.367  17.172  0.3062 -0.5427 -0.1889
  816MPD2    C112060   0.936   1.465  17.206  0.1116 -0.2782 -0.5782
  816MPD2    C212061   1.061   1.455  17.142  0.1998 -0.1023 -0.3247
  816MPD2    C312062   1.097   1.346  17.069 -0.7180  0.0795  0.2198
  816MPD2    C412063   1.007   1.247  17.052 -1.3120  0.2212  0.7174
  816MPD2    C512064   0.875   1.259  17.093 -0.4869 -0.1052  0.4444
  816MPD2     H12065   1.132   1.536  17.154 -1.3425  1.0754  0.7741
  816MPD2    H112066   1.023   1.161  16.988 -0.4705  0.0949  1.0962
  816MPD2    H212067   0.740   1.372  17.206  0.5337  0.8745  0.2752
  816MPD2    H312068   0.806   1.176  17.079 -0.2542 -0.1630 -0.3403
  816MPD2     N12069   1.213   1.351  16.992 -0.3261 -0.3749 -0.5724
  816MPD2    H512070   1.271   1.432  17.009  1.8310 -2.4219  1.7667
  816MPD2    N112071   0.891   1.576  17.285 -0.5306  0.3677 -0.7272
  816MPD2    H712072   0.791   1.588  17.300 -0.2904  2.9542 -1.3214
  817MPD2     C12073   0.463   2.591   9.970  0.3043 -0.4550  0.6114
  817MPD2    C112074   0.546   2.698   9.976  0.2725  0.1260  0.7028
  817MPD2    C212075   0.502   2.820   9.926 -0.2077  0.5415 -0.2883
  817MPD2    C312076   0.376   2.833   9.870 -0.0868  0.6660  0.0313
  817MPD2    C412077   0.300   2.719   9.848 -0.9564  0.3879  0.4827
  817MPD2    C512078   0.338   2.610   9.912  0.0305 -0.6368 -0.3973
  817MPD2     H12079   0.555   2.911   9.952 -0.0460  0.5864 -0.7730
  817MPD2    H112080   0.206   2.712   9.794  0.0555  0.5453 -1.3219
  817MPD2    H212081   0.490   2.495  10.011  0.7651 -0.5817  0.0136
  817MPD2    H312082   0.284   2.519   9.886  1.8527 -1.8270 -0.0438
  817MPD2     N12083   0.334   2.962   9.823  0.5823  0.5360  0.2473
  817MPD2    H512084   0.400   3.037   9.839 -0.7093  1.8378 -0.4962
  817MPD2    N112085   0.672   2.701  10.030 -0.0595 -0.0221  0.4611
  817MPD2    H712086   0.724   2.788  10.034  0.8743 -0.5104 -1.2415
  818MPD2     C12087   4.616   2.856  10.260  0.1039 -0.0266 -0.2262
  818MPD2    C112088   4.527   2.767  10.207  0.4882 -0.2825 -1.0004
  818MPD2    C212089   4.543   2.723  10.075 -0.5615  0.0026 -0.6039
  818MPD2    C312090   4.647   2.775   9.997 -0.0829 -0.0791  0.0211
  818MPD2    C412091   0.007   2.851  10.056 -0.0612 -0.8627  0.0848
  818MPD2    C512092   4.724   2.887  10.186  0.3980  0.8892  0.3510
  818MPD2     H12093   4.467   2.663  10.027 -2.9172 -1.0633  4.4521
  818MPD2    H112094   0.083   2.888   9.988  0.5926 -1.7959  0.3025
  818MPD2    H212095   4.619   2.895  10.362 -0.5276 -0.2262 -0.1312
  818MPD2    H312096   0.056   2.964  10.221  1.8778  0.6208 -1.9557
  818MPD2     N12097   4.650   2.783   9.857 -0.2661 -0.2736 -0.9213
  818MPD2    H512098   4.732   2.818   9.809  1.1610 -0.2049  1.6178
  818MPD2    N112099   4.414   2.719  10.278 -0.5949  0.2923 -0.9237
  818MPD2    H712100   4.358   2.646  10.235  0.3553 -0.1492 -1.4381
  819MPD2     C12101   2.861   0.331  15.724  0.5789 -0.8864  0.0940
  819MPD2    C112102   2.783   0.219  15.733  0.3994 -0.0497  0.5547
  819MPD2    C212103   2.818   0.120  15.823 -0.1835  0.4689 -0.3856
  819MPD2    C312104   2.934   0.132  15.894 -0.0472 -0.2468 -0.6903
  819MPD2    C412105   3.002   0.253  15.893  0.1441  0.1585  0.1602
  819MPD2    C512106   2.964   0.351  15.804 -0.5174 -0.2522 -0.2483
  819MPD2     H12107   2.760   0.028  15.823 -1.1702  1.0869 -1.3355
  819MPD2    H112108   3.095   0.274  15.943 -0.8694 -1.5694  2.8015
  819MPD2    H212109   2.825   0.413  15.661  1.9306 -0.2290  0.1754
  819MPD2    H312110   3.027   0.438  15.784 -2.9757  1.4110 -0.7030
  819MPD2     N12111   2.983   0.018  15.955  0.0447 -1.1414  0.2683
  819MPD2    H512112   2.919   4.677  15.950 -1.4619  0.0027  1.5247
  819MPD2    N112113   2.661   0.224  15.657  0.1756 -0.0659  0.0187
  819MPD2    H712114   2.647   0.306  15.599  0.5947  0.1650  0.2471
  820MPD2     C12115   2.557   4.731  14.768 -0.1934  0.2997 -0.4011
  820MPD2    C112116   2.486   0.109  14.785 -0.1652 -0.4287 -0.0038
  820MPD2    C212117   2.470   0.161  14.913 -0.6282 -0.0240  0.1957
  820MPD2    C312118   2.532   0.094  15.021  1.1412 -0.0258  0.5495
  820MPD2    C412119   2.616   4.725  14.999 -0.1714  0.1931  0.1430
  820MPD2    C512120   2.627   4.679  14.873 -0.2479 -0.0081 -0.3277
  820MPD2     H12121   2.416   0.254  14.928  0.6442  0.7566 -0.1098
  820MPD2    H112122   2.673   4.666  15.069 -1.7959 -2.2851 -0.6394
  820MPD2    H212123   2.579   4.697  14.668  1.1113  0.3953 -0.1418
  820MPD2    H312124   2.704   4.606  14.851  0.9110  0.4541  2.1852
  820MPD2     N12125   2.521   0.133  15.159  1.0600  0.0946 -0.6530
  820MPD2    H512126   2.558   0.067  15.226  2.4671  1.7572  0.2061
  820MPD2    N112127   2.406   0.156  14.673 -0.1896 -0.2206  0.5993
  820MPD2    H712128   2.394   0.092  14.596  0.2812  0.6889 -0.2357
  821MPD2     C12129   2.922   0.921  13.113  0.2049  0.4904 -0.7297
  821MPD2    C112130   3.031   0.854  13.156 -0.2845  0.4226 -0.6526
  821MPD2    C212131   3.153   0.888  13.103  0.0669  0.4968 -0.2763
  821MPD2    C312132   3.173   0.991  13.024 -0.2518 -0.5605  0.3214
  821MPD2    C412133   3.064   1.063  12.979 -0.0450  0.3700  0.0711
  821MPD2    C512134   2.933   1.024  13.016 -0.0977 -0.4316 -0.7953
  821MPD2     H12135   3.243   0.854  13.152 -0.1796 -0.1204 -0.2528
  821MPD2    H112136   3.081   1.149  12.915  0.6443  0.4874  0.4135
  821MPD2    H212137   2.829   0.903  13.167 -0.4998  0.8826 -1.8324
  821MPD2    H312138   2.841   1.079  12.998 -0.9229 -1.0581  1.5168
  821MPD2     N12139   3.304   1.044  12.994  0.3418  0.1190  0.1375
  821MPD2    H512140   3.310   1.133  12.947  0.7413 -0.7732 -1.5207
  821MPD2    N112141   3.012   0.764  13.266 -0.1808  0.3704  0.0722
  821MPD2    H712142   2.919   0.753  13.306 -0.6646  2.1441 -0.5722
  822MPD2     C12143   3.543   1.659  16.014  0.5579  0.0657 -0.1402
  822MPD2    C112144   3.507   1.624  16.143  0.2084 -0.2112  0.3034
  822MPD2    C212145   3.427   1.704  16.213  0.0838  0.1428  0.3284
  822MPD2    C312146   3.365   1.817  16.161 -0.1576  1.0967  0.0032
  822MPD2    C412147   3.401   1.854  16.031 -0.4627  0.0378 -1.2837
  822MPD2    C512148   3.491   1.777  15.963 -0.6716  0.1875  0.4607
  822MPD2     H12149   3.402   1.662  16.310  1.2304  0.4584  0.7625
  822MPD2    H112150   3.366   1.945  15.984 -0.2728 -0.2565 -1.9898
  822MPD2    H212151   3.611   1.610  15.946  0.4340  0.5185 -0.5906
  822MPD2    H312152   3.522   1.796  15.861  1.0764  0.2947  1.0118
  822MPD2     N12153   3.268   1.877  16.243  0.7062 -0.3315 -0.1873
  822MPD2    H512154   3.255   1.836  16.335 -3.3853  0.7983 -0.2630
  822MPD2    N112155   3.540   1.504  16.204  0.1642 -0.5217  0.2011
  822MPD2    H712156   3.524   1.495  16.304  0.0648  1.7511  0.3989
  823MPD2     C12157   3.059   2.019  17.017 -0.0493  0.1905 -0.5428
  823MPD2    C112158   3.104   1.937  16.918  0.5973  0.5154  0.9542
  823MPD2    C212159   3.155   1.813  16.945  0.0353 -0.1453  0.0859
  823MPD2    C312160   3.160   1.772  17.076  0.4587 -0.0919  0.1507
  823MPD2    C412161   3.114   1.856  17.178  0.2411 -0.7244 -0.0320
  823MPD2    C512162   3.067   1.977  17.144 -0.4799 -0.4194 -0.1627
  823MPD2     H12163   3.199   1.749  16.869 -0.4085  0.6947 -0.8860
  823MPD2    H112164   3.138   1.832  17.281 -1.3713  0.0299  0.5208
  823MPD2    H212165   3.022   2.118  16.994  1.9402  0.6106 -1.9249
  823MPD2    H312166   3.043   2.046  17.225  0.7630  0.5902 -0.6584
  823MPD2     N12167   3.187   1.641  17.122 -0.5792  0.3788 -0.4585
  823MPD2    H512168   3.169   1.615  17.219 -2.0100  0.3543 -0.7331
  823MPD2    N112169   3.095   1.991  16.788  0.8262 -0.2560 -0.2509
  823MPD2    H712170   3.070   2.089  16.779  2.6591  0.0939 -1.6019
  824MPD2     C12171   3.585   0.688  16.235 -0.2013  0.0379  0.3416
  824MPD2    C112172   3.672   0.765  16.152  0.7126 -0.0666  0.2362
  824MPD2    C212173   3.717   0.703  16.039 -0.2416  0.3719  0.0703
  824MPD2    C312174   3.700   0.572  16.021  0.2399 -0.3507 -0.5675
  824MPD2    C412175   3.612   0.497  16.098 -0.6220  0.1919  0.4948
  824MPD2    C512176   3.550   0.558  16.202  0.1839  0.1177 -0.2427
  824MPD2     H12177   3.783   0.757  15.972 -1.0236  3.5075  1.8427
  824MPD2    H112178   3.585   0.396  16.069 -2.7009  0.3535  1.9301
  824MPD2    H212179   3.528   0.731  16.317 -1.8862  0.2007 -0.9251
  824MPD2    H312180   3.480   0.508  16.268  2.2359 -2.2305  0.1273
  824MPD2     N12181   3.769   0.521  15.906  0.2644  0.0485  0.0156
  824MPD2    H512182   3.833   0.585  15.860  0.3596 -0.8045 -1.0261
  824MPD2    N112183   3.712   0.898  16.180 -0.3615  1.0459  0.6278
  824MPD2    H712184   3.759   0.961  16.115  0.1736  0.0678  0.0789
  825MPD2     C12185   4.409   0.575  15.388 -0.3083 -0.4130  0.1924
  825MPD2    C112186   4.294   0.637  15.434 -0.9370 -0.5920 -0.1272
  825MPD2    C212187   4.295   0.774  15.448  0.0618 -0.2085 -0.2736
  825MPD2    C312188   4.398   0.852  15.401 -0.2134  0.2618 -0.1936
  825MPD2    C412189   4.516   0.791  15.362 -0.2123 -0.2353 -0.1657
  825MPD2    C512190   4.514   0.652  15.353 -0.0473  1.5461  0.0055
  825MPD2     H12191   4.215   0.820  15.505 -0.8893 -1.5556 -0.5200
  825MPD2    H112192   4.603   0.848  15.331 -0.2371 -1.2511 -2.0860
  825MPD2    H212193   4.421   0.469  15.371  2.2739 -0.1762  0.4948
  825MPD2    H312194   4.609   0.608  15.326 -0.2042  1.1191  0.1520
  825MPD2     N12195   4.388   0.991  15.412 -0.2482  0.1307  0.2275
  825MPD2    H512196   4.468   1.051  15.395  0.5631 -0.1736  2.9181
  825MPD2    N112197   4.192   0.547  15.472 -0.2183  0.6989  0.5955
  825MPD2    H712198   4.218   0.450  15.458 -1.9428  0.4647 -0.9436
  826MPD2     C12199   3.299   0.360  12.900 -0.1158 -0.8358 -0.2216
  826MPD2    C112200   3.409   0.321  12.968  0.4742 -0.0302 -0.4266
  826MPD2    C212201   3.456   0.399  13.074 -0.7038 -0.2351 -0.0223
  826MPD2    C312202   3.385   0.502  13.119  0.1447 -0.3455  0.3337
  826MPD2    C412203   3.268   0.534  13.049  0.2600 -0.0415 -0.3153
  826MPD2    C512204   3.225   0.465  12.939  0.7570 -0.2189  0.0854
  826MPD2     H12205   3.546   0.373  13.128 -0.6631  0.6740  0.3373
  826MPD2    H112206   3.203   0.615  13.080 -0.7022 -0.3716 -1.4480
  826MPD2    H212207   3.264   0.309  12.811 -0.5092  1.5040 -1.4228
  826MPD2    H312208   3.129   0.491  12.897  0.9376  0.8729  0.3516
  826MPD2     N12209   3.426   0.594  13.216  0.3247 -0.2882  0.2326
  826MPD2    H512210   3.359   0.661  13.252  2.1233  1.3780  0.4653
  826MPD2    N112211   3.465   0.196  12.936 -0.3451  0.3112  0.0825
  826MPD2    H712212   3.435   0.150  12.850 -1.2665 -1.6073  1.4314
  827MPD2     C12213   0.464   1.539   9.639  0.5966  0.0708  0.1791
  827MPD2    C112214   0.391   1.436   9.704 -0.0140  0.5341 -0.0001
  827MPD2    C212215   0.280   1.384   9.644  0.0348  1.0642 -0.1790
  827MPD2    C312216   0.223   1.439   9.535  0.6461  0.0124  0.2434
  827MPD2    C412217   0.292   1.541   9.476  0.1746  0.0731 -0.0348
  827MPD2    C512218   0.411   1.590   9.526 -0.0267 -0.3672  0.5044
  827MPD2     H12219   0.228   1.300   9.689  1.1347 -0.2814 -1.4186
  827MPD2    H112220   0.263   1.585   9.381  0.8203 -1.0510 -0.7592
  827MPD2    H212221   0.557   1.580   9.676  1.8680 -0.9659 -1.8725
  827MPD2    H312222   0.464   1.670   9.476  0.7743 -1.4979 -0.4809
  827MPD2     N12223   0.090   1.398   9.506  0.4942 -0.2926 -0.2321
  827MPD2    H512224   0.050   1.317   9.552 -0.6760 -0.2975 -1.2652
  827MPD2    N112225   0.455   1.374   9.815  0.7044  0.1978  0.4411
  827MPD2    H712226   0.552   1.397   9.830  0.9515 -0.7921  0.3712
  828MPD2     C12227   3.613   1.117  12.645 -0.5335  0.1425  0.0323
  828MPD2    C112228   3.571   1.221  12.564  0.0153  0.2506  0.8022
  828MPD2    C212229   3.628   1.225  12.439 -0.5144  1.1245 -0.0681
  828MPD2    C312230   3.724   1.135  12.403 -0.0153  0.4513  0.0277
  828MPD2    C412231   3.762   1.032  12.482  0.3829  0.3620 -0.6048
  828MPD2    C512232   3.708   1.026  12.605  0.0636  0.3776  0.2614
  828MPD2     H12233   3.589   1.304  12.375 -2.1232  0.1558 -0.2797
  828MPD2    H112234   3.831   0.951  12.461  0.0730 -0.3729  1.1632
  828MPD2    H212235   3.565   1.103  12.741  0.4783  2.8632  0.9227
  828MPD2    H312236   3.742   0.946  12.671  1.1525  1.4432  1.0015
  828MPD2     N12237   3.770   1.124  12.267 -0.8879  0.2132  0.6468
  828MPD2    H512238   3.839   1.054  12.243 -1.5523 -0.2694  0.1864
  828MPD2    N112239   3.474   1.316  12.600  0.1696 -0.2257 -0.4341
  828MPD2    H712240   3.454   1.393  12.537  0.1776  0.0193 -0.1394
  829MPD2     C12241   3.043   1.884  12.075 -0.2054  0.5929  0.6145
  829MPD2    C112242   2.958   1.909  12.185  0.1922  0.3226 -0.0788
  829MPD2    C212243   2.997   1.865  12.308  0.4660 -0.7710 -0.0552
  829MPD2    C312244   3.117   1.810  12.336  0.1597 -0.4898 -0.3869
  829MPD2    C412245   3.199   1.786  12.228 -0.2959 -0.8821 -0.5860
  829MPD2    C512246   3.169   1.828  12.098  0.3668 -0.1009 -0.3074
  829MPD2     H12247   2.927   1.875  12.391 -0.2275  1.6765 -0.9308
  829MPD2    H112248   3.292   1.732  12.238 -0.0505 -0.4592 -0.5703
  829MPD2    H212249   3.004   1.892  11.974  0.8424  1.8793  0.3118
  829MPD2    H312250   3.239   1.796  12.021  0.4708  0.9065 -0.6255
  829MPD2     N12251   3.154   1.779  12.473  0.2982  0.5728  0.0828
  829MPD2    H512252   3.080   1.808  12.536 -0.4696 -0.1651 -0.4699
  829MPD2    N112253   2.828   1.954  12.155 -0.5040 -0.7387  0.4272
  829MPD2    H712254   2.800   1.960  12.058 -1.2202 -0.1098  0.6745
  830MPD2     C12255   3.234   4.384  15.524  0.0769 -0.1923  0.4029
  830MPD2    C112256   3.303   4.474  15.608 -1.3691 -0.1705 -0.3776
  830MPD2    C212257   3.360   4.590  15.565 -0.2166 -0.1834 -1.2409
  830MPD2    C312258   3.363   4.616  15.432 -0.3692 -0.5286 -0.1938
  830MPD2    C412259   3.288   4.530  15.347  0.2101 -0.7992 -0.2371
  830MPD2    C512260   3.223   4.422  15.394  0.0083  0.0476  0.6537
  830MPD2     H12261   3.413   4.652  15.636 -2.0352  1.5528 -1.4130
  830MPD2    H112262   3.269   4.562  15.245  0.6578  1.8701  0.5042
  830MPD2    H212263   3.200   4.284  15.549  0.7125 -0.6475 -0.5673
  830MPD2    H312264   3.178   4.365  15.314 -0.1271  2.1180 -0.7671
  830MPD2     N12265   3.418   4.726  15.375  0.0312 -0.0850 -0.1492
  830MPD2    H512266   3.387   0.009  15.280 -0.0141  1.7432  0.2356
  830MPD2    N112267   3.317   4.445  15.747 -0.8288 -0.1169  0.5588
  830MPD2    H712268   3.370   4.517  15.796  2.3916 -1.6156 -0.7093
  831MPD2     C12269   3.598   1.941  16.573 -0.4351  0.4882  0.1275
  831MPD2    C112270   3.611   1.829  16.499  0.2113 -0.1014 -0.2371
  831MPD2    C212271   3.539   1.719  16.528  0.0382 -0.0311  0.0581
  831MPD2    C312272   3.437   1.719  16.617 -0.0554 -0.0250 -0.0065
  831MPD2    C412273   3.424   1.830  16.694 -0.0868 -0.4173  0.5432
  831MPD2    C512274   3.506   1.939  16.673 -0.0890 -0.0370 -0.0772
  831MPD2     H12275   3.570   1.630  16.475 -1.0754 -0.5973  0.3521
  831MPD2    H112276   3.360   1.837  16.781  0.0130 -1.5098  0.7026
  831MPD2    H212277   3.652   2.032  16.549 -1.8301  1.6241  1.3152
  831MPD2    H312278   3.493   2.022  16.742  0.1643  0.5469 -0.7324
  831MPD2     N12279   3.343   1.611  16.628 -0.1646  0.0148 -0.1435
  831MPD2    H512280   3.263   1.617  16.691 -0.8840  0.1712 -1.0561
  831MPD2    N112281   3.700   1.820  16.388 -0.5051  0.3404 -0.7018
  831MPD2    H712282   3.717   1.728  16.346  1.6223  1.0948 -1.4814
  832MPD2     C12283   1.842   2.497  17.443 -0.3710 -0.0734  0.1136
  832MPD2    C112284   1.838   2.621  17.382  0.1375  0.5740  0.1652
  832MPD2    C212285   1.735   2.654  17.293 -0.2887 -0.3455  0.1613
  832MPD2    C312286   1.637   2.557  17.267  0.1433 -0.3487 -0.6027
  832MPD2    C412287   1.646   2.433  17.335  0.0611 -0.2664  0.4184
  832MPD2    C512288   1.743   2.408  17.422 -0.0302  0.4213  0.4757
  832MPD2     H12289   1.721   2.752  17.251  0.2789  0.0830  0.9667
  832MPD2    H112290   1.569   2.360  17.315 -0.4268  1.0249 -2.5569
  832MPD2    H212291   1.926   2.477  17.508 -0.7587 -1.2324  0.2569
  832MPD2    H312292   1.748   2.312  17.472  1.0765 -0.0068 -0.4463
  832MPD2     N12293   1.518   2.585  17.190  0.1825 -0.2769  0.6625
  832MPD2    H512294   1.452   2.508  17.184  1.5091 -1.0863 -3.2529
  832MPD2    N112295   1.939   2.721  17.422  0.6635  0.3532 -0.2345
  832MPD2    H712296   2.002   2.685  17.493  0.6607  0.8957  0.0442
  833MPD2     C12297   4.426   3.754  12.333  0.1217  0.7329 -0.4365
  833MPD2    C112298   4.288   3.748  12.323  0.5976  0.0348  0.4544
  833MPD2    C212299   4.226   3.622  12.328  0.0758 -0.0043 -0.0762
  833MPD2    C312300   4.300   3.513  12.359 -0.2850  0.6216 -0.2883
  833MPD2    C412301   4.433   3.522  12.375  0.7354  0.3838 -0.3734
  833MPD2    C512302   4.497   3.640  12.362  0.0412  0.1361 -0.1677
  833MPD2     H12303   4.123   3.616  12.294  0.6223 -1.7165 -1.4601
  833MPD2    H112304   4.495   3.434  12.390  1.2080  0.9309  0.8508
  833MPD2    H212305   4.483   3.845  12.319 -2.1573  2.5616  2.1319
  833MPD2    H312306   4.603   3.645  12.388 -0.2318 -1.3320  1.2955
  833MPD2     N12307   4.255   3.381  12.354 -0.1726  0.3907  0.1546
  833MPD2    H512308   4.325   3.308  12.346 -1.1823 -0.5090 -0.5287
  833MPD2    N112309   4.221   3.864  12.288  0.0078 -0.2077 -0.1822
  833MPD2    H712310   4.276   3.941  12.252  0.0446  0.6717  1.7695
  834MPD2     C12311   3.424   2.775  11.988  0.1653  0.4639 -0.0805
  834MPD2    C112312   3.529   2.798  11.896 -0.4227 -0.1717  0.0990
  834MPD2    C212313   3.637   2.861  11.937 -0.1802 -0.7762  0.2263
  834MPD2    C312314   3.653   2.912  12.066 -0.2909  0.7736 -0.1590
  834MPD2    C412315   3.546   2.895  12.155 -0.0333 -0.7954  0.3658
  834MPD2    C512316   3.433   2.819  12.120 -0.1614 -0.3998  0.2877
  834MPD2     H12317   3.722   2.879  11.872 -1.2256  1.4472 -0.5093
  834MPD2    H112318   3.543   2.953  12.246  0.5781 -0.3726  0.1120
  834MPD2    H212319   3.334   2.718  11.963 -0.4044  1.2840  0.0941
  834MPD2    H312320   3.351   2.805  12.190  0.7326 -0.9331  1.2327
  834MPD2     N12321   3.762   2.992  12.086  0.2564 -0.6925  0.2728
  834MPD2    H512322   3.818   3.011  12.004  0.9484 -2.7454  0.2611
  834MPD2    N112323   3.501   2.752  11.771  0.2450 -0.4699 -0.6839
  834MPD2    H712324   3.420   2.690  11.773 -1.3481  1.6019 -0.9399
  835MPD2     C12325   4.399   0.973  11.061  0.0645  0.1523 -0.4422
  835MPD2    C112326   4.357   1.092  11.120  0.9227  0.4830  0.5315
  835MPD2    C212327   4.404   1.114  11.249 -0.6442  0.4309 -0.0637
  835MPD2    C312328   4.480   1.025  11.327  0.2313 -0.2144  0.4565
  835MPD2    C412329   4.516   0.910  11.268 -0.4741  0.6149 -0.6238
  835MPD2    C512330   4.477   0.887  11.134 -0.0674  0.0261  0.3809
  835MPD2     H12331   4.366   1.208  11.288 -0.4022  0.3139  0.4556
  835MPD2    H112332   4.569   0.834  11.324  1.5757  1.1743 -1.8162
  835MPD2    H212333   4.377   0.956  10.956  0.6869 -0.2521 -0.5100
  835MPD2    H312334   4.517   0.799  11.085  1.3521  1.4972 -1.1161
  835MPD2     N12335   4.508   1.046  11.466  0.5769 -0.0397  0.5704
  835MPD2    H512336   4.539   0.972  11.528  0.6928 -0.0201  0.5342
  835MPD2    N112337   4.277   1.193  11.055  0.6345  0.1372  0.2298
  835MPD2    H712338   4.258   1.278  11.106  0.8141 -0.6118  1.5300
  836MPD2     C12339   3.898   1.316  11.701  0.0362  0.4898  0.6360
  836MPD2    C112340   3.982   1.313  11.810  0.3284 -0.2242  0.3959
  836MPD2    C212341   3.947   1.384  11.927 -0.2224  0.0946  0.2702
  836MPD2    C312342   3.828   1.447  11.930 -0.1898 -0.5144  0.2837
  836MPD2    C412343   3.751   1.454  11.811 -0.5844  0.4307  0.1153
  836MPD2    C512344   3.780   1.383  11.699  0.4149  0.2400 -0.1963
  836MPD2     H12345   4.018   1.398  12.008  0.3569 -1.8575  0.0832
  836MPD2    H112346   3.660   1.512  11.818 -0.8466  0.2052 -1.3353
  836MPD2    H212347   3.911   1.267  11.605  0.4515  0.5427  0.6636
  836MPD2    H312348   3.725   1.379  11.606 -2.0464  2.0273  1.1846
  836MPD2     N12349   3.786   1.528  12.036  0.1695  0.3431 -0.0750
  836MPD2    H512350   3.705   1.588  12.023 -0.8498 -0.8569  0.7749
  836MPD2    N112351   4.101   1.245  11.794 -0.1659  0.2124 -0.1353
  836MPD2    H712352   4.118   1.194  11.708  1.8680 -1.3626  1.1902
  837MPD2     C12353   2.162   1.013  10.488 -0.4182 -0.3200 -0.1524
  837MPD2    C112354   2.027   1.045  10.484  0.5865 -0.4248  0.9011
  837MPD2    C212355   1.980   1.153  10.551 -0.5893  0.4511  0.4271
  837MPD2    C312356   2.065   1.251  10.592 -0.1691  0.3584 -0.4171
  837MPD2    C412357   2.201   1.222  10.599 -0.8492 -0.1775  0.1170
  837MPD2    C512358   2.240   1.099  10.562  0.3136  0.1550 -0.0100
  837MPD2     H12359   1.872   1.166  10.548 -0.9039 -2.2657 -0.0017
  837MPD2    H112360   2.262   1.285  10.663  1.1935 -1.7941 -0.2782
  837MPD2    H212361   2.204   0.922  10.447 -0.6383  0.3266 -1.8303
  837MPD2    H312362   2.343   1.071  10.582 -0.2261 -0.9603  1.2127
  837MPD2     N12363   2.003   1.375  10.623 -0.3172  0.0743 -0.4330
  837MPD2    H512364   1.902   1.378  10.618 -0.2704  0.9935 -0.8117
  837MPD2    N112365   1.932   0.962  10.417  0.0461  0.1784  0.0824
  837MPD2    H712366   1.837   0.984  10.444 -0.7043 -0.1755 -2.2303
  838MPD2     C12367   0.110   3.469  11.108 -0.2254  0.4387 -0.2492
  838MPD2    C112368   0.127   3.558  11.215  0.6207  0.4096 -0.4449
  838MPD2    C212369   0.058   3.541  11.330 -0.0499  0.2125 -0.3436
  838MPD2    C312370   4.710   3.435  11.346 -0.0325  0.4201 -0.1194
  838MPD2    C412371   4.686   3.347  11.240  0.5577  0.0647 -0.5910
  838MPD2    C512372   0.021   3.361  11.126  0.3323  1.1497  0.1322
  838MPD2     H12373   0.088   3.598  11.417 -0.9762 -0.9317  0.7078
  838MPD2    H112374   4.629   3.257  11.261 -1.0518  1.2316  0.0943
  838MPD2    H212375   0.169   3.478  11.018 -0.1487 -1.5430 -0.4013
  838MPD2    H312376   4.733   3.292  11.046 -0.1738  0.6019  0.7669
  838MPD2     N12377   4.655   3.413  11.477  0.7899 -0.2458 -0.2112
  838MPD2    H512378   4.679   3.485  11.544 -1.3999  0.9399 -0.7137
  838MPD2    N112379   0.212   3.666  11.184 -0.1637  0.2038 -0.3296
  838MPD2    H712380   0.266   3.670  11.098  0.7472  1.0143  0.2787
  839MPD2     C12381   0.498   3.702  11.743  0.0543 -0.0614 -0.6591
  839MPD2    C112382   0.523   3.686  11.607 -0.0086 -0.9519 -0.0132
  839MPD2    C212383   0.552   3.800  11.540 -0.2206 -0.1331 -0.3890
  839MPD2    C312384   0.547   3.926  11.592 -0.2127  0.3224 -0.2767
  839MPD2    C412385   0.511   3.943  11.722 -0.3238 -0.4250  0.0015
  839MPD2    C512386   0.492   3.827  11.795 -0.1378 -0.5916  0.1260
  839MPD2     H12387   0.592   3.784  11.440 -1.9054  0.4636 -1.1654
  839MPD2    H112388   0.512   4.039  11.772 -0.2747 -0.1504 -0.5324
  839MPD2    H212389   0.478   3.623  11.815  1.9193  0.0930  0.0420
  839MPD2    H312390   0.459   3.831  11.899 -2.4987 -1.1890 -0.6185
  839MPD2     N12391   0.566   4.052  11.519 -0.2509 -0.3715 -0.3597
  839MPD2    H512392   0.565   4.136  11.576 -0.2657  1.2434 -2.7397
  839MPD2    N112393   0.495   3.567  11.533  0.6119 -0.3812  0.4525
  839MPD2    H712394   0.506   3.571  11.433 -1.1707  1.6916  0.3279
  840MPD2     C12395   0.783   1.751  10.171 -0.2723  0.2027 -0.2339
  840MPD2    C112396   0.781   1.638  10.254  0.5785  0.1201  0.0223
  840MPD2    C212397   0.838   1.639  10.382 -0.4042  0.4819 -0.6015
  840MPD2    C312398   0.877   1.757  10.431  0.3008  0.5484 -0.4486
  840MPD2    C412399   0.874   1.870  10.354  0.1359 -0.1486  0.4298
  840MPD2    C512400   0.833   1.870  10.226  0.2260  0.0322  0.0209
  840MPD2     H12401   0.833   1.551  10.445 -0.7319  1.1886  0.3607
  840MPD2    H112402   0.919   1.963  10.388  1.8508 -0.3981 -1.1207
  840MPD2    H212403   0.745   1.760  10.070  1.3865 -0.2107 -0.9007
  840MPD2    H312404   0.845   1.961  10.167  0.2175  0.7848  1.1760
  840MPD2     N12405   0.928   1.784  10.555  0.2849 -0.3902 -0.0754
  840MPD2    H512406   0.941   1.882  10.578  1.9990 -0.4390 -0.8935
  840MPD2    N112407   0.719   1.522  10.197 -0.5757 -0.1644  0.6249
  840MPD2    H712408   0.661   1.540  10.116  0.5617  0.9527  0.0688
  841MPD2     C12409   0.136   1.948  14.726  0.6319 -0.3064 -0.2207
  841MPD2    C112410   0.193   1.843  14.667  0.5823  0.4685  0.6377
  841MPD2    C212411   0.332   1.846  14.651 -0.3517  0.3523 -0.2148
  841MPD2    C312412   0.408   1.952  14.681  0.1009 -0.2553  0.0298
  841MPD2    C412413   0.344   2.061  14.732  0.3329  0.0212  0.5385
  841MPD2    C512414   0.210   2.053  14.766 -0.5138  0.4518  0.0903
  841MPD2     H12415   0.386   1.762  14.609 -0.0734  1.0863 -1.3379
  841MPD2    H112416   0.394   2.151  14.767  0.1637  0.1466  0.4598
  841MPD2    H212417   0.030   1.940  14.748  0.3840  0.4637 -1.0947
  841MPD2    H312418   0.167   2.143  14.809 -0.3100  1.1579 -1.1995
  841MPD2     N12419   0.553   1.941  14.677  0.2571 -0.3033 -0.1210
  841MPD2    H512420   0.585   1.849  14.649 -2.2278 -1.2609  0.2070
  841MPD2    N112421   0.135   1.717  14.636 -0.2606  0.2482  0.3441
  841MPD2    H712422   0.190   1.634  14.617 -2.6377 -0.8518 -1.6997
  842MPD2     C12423   1.011   3.183  17.154  0.1414 -0.0245 -0.1357
  842MPD2    C112424   0.943   3.062  17.143 -0.3087  0.0334  0.0671
  842MPD2    C212425   0.948   2.977  17.246 -0.2952  0.8416  0.7273
  842MPD2    C312426   1.008   3.017  17.368 -0.6035 -0.5256  0.4061
  842MPD2    C412427   1.077   3.137  17.371  1.0495 -0.3566 -0.1121
  842MPD2    C512428   1.078   3.223  17.264 -0.5402  0.4529 -0.2761
  842MPD2     H12429   0.891   2.886  17.256  2.1194 -0.7072  0.1949
  842MPD2    H112430   1.121   3.183  17.459 -0.0667  0.1515  0.1797
  842MPD2    H212431   1.005   3.256  17.073 -2.0326  0.3943  0.3925
  842MPD2    H312432   1.130   3.318  17.267 -1.2297  0.8964 -2.6746
  842MPD2     N12433   1.006   2.937  17.489  0.2883 -0.5235  0.4765
  842MPD2    H512434   1.072   2.969  17.559 -0.8179 -0.0428  1.2991
  842MPD2    N112435   0.865   3.041  17.021  0.5486  0.2774  0.1370
  842MPD2    H712436   0.863   3.120  16.958  0.8311 -0.5804 -0.9408
  843MPD2     C12437   2.993   3.919   0.055  0.3230  0.5687  0.0589
  843MPD2    C112438   3.092   3.827   0.094  0.8460 -0.6490  0.6016
  843MPD2    C212439   3.200   3.879   0.167 -0.1955  0.5662 -0.0018
  843MPD2    C312440   3.212   4.016   0.192  0.1953  0.5033 -0.3868
  843MPD2    C412441   3.110   4.104   0.154 -0.8368 -0.3299 -0.3720
  843MPD2    C512442   3.002   4.051   0.087 -0.2492  0.0704  1.2028
  843MPD2     H12443   3.277   3.812   0.203  1.7427  1.7536 -1.8899
  843MPD2    H112444   3.114   4.211   0.169  0.2127 -0.3566 -0.4204
  843MPD2    H212445   2.912   3.885  17.738  0.6458  1.7684 -0.9930
  843MPD2    H312446   2.928   4.121   0.050 -1.2439 -0.9106  1.3397
  843MPD2     N12447   3.330   4.081   0.244  0.4393 -0.0430 -0.1724
  843MPD2    H512448   3.325   4.178   0.270 -0.4217  0.0690 -0.7685
  843MPD2    N112449   3.073   3.686   0.084 -0.3207 -0.0171 -0.2781
  843MPD2    H712450   2.983   3.652   0.051  0.5010 -2.4332 -0.0385
  844MPD2     C12451   1.125   2.000  16.543 -0.3051 -0.3586  0.3550
  844MPD2    C112452   1.205   2.082  16.462  0.1411 -0.3247  0.3225
  844MPD2    C212453   1.259   2.198  16.501  0.2072 -0.3731  0.9161
  844MPD2    C312454   1.277   2.212  16.641  0.1327 -0.3552 -0.2676
  844MPD2    C412455   1.200   2.138  16.725  0.0517  0.7265  0.1345
  844MPD2    C512456   1.114   2.044  16.672  0.6421 -0.4351 -0.9456
  844MPD2     H12457   1.320   2.256  16.432  1.2528  0.4863  2.5496
  844MPD2    H112458   1.207   2.147  16.833 -0.9754  0.0471  0.2558
  844MPD2    H212459   1.065   1.922  16.498 -0.2596  0.4592 -1.1201
  844MPD2    H312460   1.055   1.989  16.745  1.7174 -0.1524  0.1540
  844MPD2     N12461   1.371   2.308  16.679 -0.5610  0.4250  0.4004
  844MPD2    H512462   1.405   2.368  16.605 -0.3771  1.7793  1.5655
  844MPD2    N112463   1.239   2.056  16.327 -0.6222 -0.0512  0.0838
  844MPD2    H712464   1.308   2.118  16.286 -1.7683  1.2554  0.1756
  845MPD2     C12465   1.672   3.225  16.696 -0.3906 -0.3845 -0.3339
  845MPD2    C112466   1.720   3.179  16.819  0.1911  0.1371 -0.9000
  845MPD2    C212467   1.742   3.038  16.822  0.3022 -0.5540  0.1962
  845MPD2    C312468   1.707   2.957  16.723 -0.4904  0.4838 -0.4327
  845MPD2    C412469   1.658   3.008  16.600  0.4058  0.0065 -0.4085
  845MPD2    C512470   1.648   3.141  16.587  0.2484  0.6997  0.8400
  845MPD2     H12471   1.762   2.990  16.917  1.6120 -0.4683 -0.0362
  845MPD2    H112472   1.614   2.951  16.519  0.8469  1.2136 -1.5034
  845MPD2    H212473   1.659   3.333  16.694 -0.8107 -0.4354 -0.4393
  845MPD2    H312474   1.617   3.183  16.492 -0.6002 -2.7238 -0.3945
  845MPD2     N12475   1.697   2.821  16.754  0.3246 -0.5632  0.2868
  845MPD2    H512476   1.720   2.782  16.845 -0.4216 -6.7703 -2.2018
  845MPD2    N112477   1.741   3.272  16.922  0.2502  0.1938 -0.1357
  845MPD2    H712478   1.713   3.369  16.911 -1.5762 -0.4672 -1.4193
  846MPD2     C12479   3.326   3.384  13.908 -0.5974 -0.3132 -0.4497
  846MPD2    C112480   3.228   3.458  13.850 -0.1033  0.0893 -0.7911
  846MPD2    C212481   3.146   3.540  13.926 -0.0146  0.1308  0.5617
  846MPD2    C312482   3.172   3.552  14.064  0.2186 -0.5544 -0.3291
  846MPD2    C412483   3.270   3.477  14.123 -0.5607 -0.1314  0.5066
  846MPD2    C512484   3.352   3.392  14.041  0.3295  0.7134  0.3088
  846MPD2     H12485   3.063   3.597  13.886 -0.5159 -0.9077  0.1366
  846MPD2    H112486   3.294   3.478  14.228  0.1872  3.1769  0.3079
  846MPD2    H212487   3.383   3.320  13.842 -0.6761  1.2909 -2.0560
  846MPD2    H312488   3.423   3.317  14.075  0.1811  0.4132 -0.0366
  846MPD2     N12489   3.105   3.659  14.135 -0.6375  0.1306 -0.3473
  846MPD2    H512490   3.049   3.724  14.081  0.0867  0.5454 -0.5930
  846MPD2    N112491   3.207   3.454  13.713 -0.3073 -0.2491 -0.5015
  846MPD2    H712492   3.129   3.512  13.681 -0.5327 -0.1419  0.2559
  847MPD2     C12493   3.717   0.447  14.300  0.2021 -0.0161  0.0190
  847MPD2    C112494   3.663   0.552  14.368 -0.6933 -0.0993  0.2152
  847MPD2    C212495   3.728   0.609  14.475 -0.2328 -0.7946  0.7068
  847MPD2    C312496   3.844   0.549  14.531  0.3386  0.2838  0.0152
  847MPD2    C412497   3.897   0.445  14.459  0.0487  0.5488 -0.5552
  847MPD2    C512498   3.835   0.393  14.343 -0.0360  0.5037 -0.0990
  847MPD2     H12499   3.672   0.690  14.519 -0.0407 -0.0977 -0.3318
  847MPD2    H112500   3.981   0.395  14.506 -0.7414  2.3688  2.8526
  847MPD2    H212501   3.658   0.388  14.231  0.5658 -2.5525  1.8711
  847MPD2    H312502   3.878   0.305  14.297 -1.5155  0.4161 -1.3213
  847MPD2     N12503   3.902   0.593  14.653 -0.3331  0.0415  0.4723
  847MPD2    H512504   3.980   0.536  14.685  0.2400  1.7639  2.1669
  847MPD2    N112505   3.545   0.611  14.332  0.5240 -0.2640  0.3930
  847MPD2    H712506   3.531   0.707  14.363  1.5349  0.4520 -1.3411
  848MPD2     C12507   1.344   2.855  16.437 -0.1148  0.1680  0.3086
  848MPD2    C112508   1.308   2.943  16.541 -0.1950 -0.5724  0.4984
  848MPD2    C212509   1.317   3.078  16.522 -0.0828  0.1055 -0.4312
  848MPD2    C312510   1.329   3.130  16.395 -1.0810  0.3766 -0.8402
  848MPD2    C412511   1.347   3.043  16.287 -0.3401 -0.3603 -0.0802
  848MPD2    C512512   1.367   2.910  16.312  0.6277  0.3390 -0.1633
  848MPD2     H12513   1.302   3.141  16.609 -0.6732  2.1460 -2.0192
  848MPD2    H112514   1.358   3.083  16.187 -0.3198 -2.0665 -0.7618
  848MPD2    H212515   1.352   2.749  16.455  0.3911  0.1882  0.1894
  848MPD2    H312516   1.397   2.849  16.228 -0.3091 -0.6061  0.1885
  848MPD2     N12517   1.316   3.268  16.369 -0.1299 -0.6374 -0.1220
  848MPD2    H512518   1.308   3.293  16.271 -0.7923  0.4019  0.1992
  848MPD2    N112519   1.289   2.900  16.671 -0.0750  0.1385  0.3273
  848MPD2    H712520   1.296   2.964  16.749 -1.2469  0.1755  0.3983
  849MPD2     C12521   0.015   2.223  14.225 -0.4690 -0.5716  0.1808
  849MPD2    C112522   0.122   2.304  14.189  0.1888  1.1036  0.8630
  849MPD2    C212523   0.224   2.332  14.274 -0.0738  0.0682  0.1981
  849MPD2    C312524   0.218   2.278  14.401  0.8253 -0.8415 -0.0849
  849MPD2    C412525   0.109   2.207  14.446 -0.4544  1.1126 -0.5783
  849MPD2    C512526   0.010   2.183  14.354 -0.3938  0.3950 -0.2783
  849MPD2     H12527   0.310   2.384  14.235 -0.1355 -0.2386 -0.3420
  849MPD2    H112528   0.085   2.189  14.550  0.1096 -2.1102 -1.0056
  849MPD2    H212529   4.666   2.205  14.161  2.5302  0.5354 -4.1957
  849MPD2    H312530   4.663   2.129  14.394  1.1134 -1.8955 -0.1918
  849MPD2     N12531   0.331   2.283  14.483 -0.3868  0.3797 -0.0073
  849MPD2    H512532   0.344   2.222  14.563 -1.0228 -1.0945 -1.0344
  849MPD2    N112533   0.117   2.351  14.058  0.2299 -0.4600  0.1334
  849MPD2    H712534   0.034   2.328  14.004 -0.7299  4.7472 -0.5199
  850MPD2     C12535   3.177   1.259  14.820  0.0981 -0.9086  0.2482
  850MPD2    C112536   3.190   1.323  14.943 -0.3447  0.0415 -0.4403
  850MPD2    C212537   3.312   1.336  14.998 -0.2066 -0.1589  0.1408
  850MPD2    C312538   3.424   1.287  14.940 -0.9242 -0.0567  0.6118
  850MPD2    C412539   3.414   1.235  14.812 -0.6401  0.7886 -0.4059
  850MPD2    C512540   3.290   1.216  14.756  0.4775  0.2055  0.7291
  850MPD2     H12541   3.317   1.396  15.088 -1.5836 -0.6890  0.5643
  850MPD2    H112542   3.496   1.180  14.766 -1.4247 -0.3747 -0.4020
  850MPD2    H212543   3.078   1.247  14.778 -0.4908 -1.4863  1.7800
  850MPD2    H312544   3.276   1.169  14.660  1.9932  2.0469 -0.3918
  850MPD2     N12545   3.544   1.276  15.013 -0.0288  0.4548  0.2152
  850MPD2    H512546   3.627   1.240  14.968 -1.7888  1.1572 -3.5492
  850MPD2    N112547   3.068   1.370  15.005 -0.6126 -0.1255  0.1371
  850MPD2    H712548   2.994   1.373  14.936 -1.0871  0.9920  0.7037
  851MPD2     C12549   3.545   1.017  15.630  0.2101  0.0665 -0.0799
  851MPD2    C112550   3.466   0.998  15.522  0.1740  0.1549  0.5195
  851MPD2    C212551   3.464   0.880  15.453 -0.0567  0.2614  0.6040
  851MPD2    C312552   3.541   0.774  15.502  0.4419  0.4653  0.9040
  851MPD2    C412553   3.614   0.798  15.615 -0.6167 -0.6598 -0.2541
  851MPD2    C512554   3.629   0.922  15.672 -0.4135  0.4415 -0.1161
  851MPD2     H12555   3.395   0.860  15.372 -0.0958  0.9189  0.4794
  851MPD2    H112556   3.672   0.718  15.661 -0.8431 -0.5059  0.3084
  851MPD2    H212557   3.554   1.115  15.676 -0.5013  0.4292 -0.7229
  851MPD2    H312558   3.693   0.946  15.756  0.8826 -4.1496  0.2147
  851MPD2     N12559   3.542   0.644  15.443  0.7406  0.4171  0.6254
  851MPD2    H512560   3.505   0.635  15.349 -0.4615 -2.5882  1.3936
  851MPD2    N112561   3.387   1.111  15.482 -0.1386 -0.2137 -0.4879
  851MPD2    H712562   3.397   1.201  15.528  2.5264 -0.6002 -0.3305
  852MPD2     C12563   2.741   2.915  10.074 -0.8611  0.1165  0.3296
  852MPD2    C112564   2.768   2.997  10.178  0.1322  0.5089  0.3380
  852MPD2    C212565   2.887   3.064  10.189 -0.1323 -0.4141 -0.0958
  852MPD2    C312566   2.976   3.059  10.089 -0.1834  0.1400  0.0455
  852MPD2    C412567   2.960   2.982   9.979 -0.4448  0.6199  0.5183
  852MPD2    C512568   2.847   2.897   9.980  0.5545 -0.3440 -0.7235
  852MPD2     H12569   2.901   3.130  10.274 -1.7715  0.5792 -0.5895
  852MPD2    H112570   3.032   2.967   9.899 -0.8227  2.7490 -0.2073
  852MPD2    H212571   2.652   2.853  10.065 -1.0397  0.1391  2.0872
  852MPD2    H312572   2.825   2.817   9.909  2.9937 -1.7337  0.0894
  852MPD2     N12573   3.089   3.138  10.102 -0.3997  0.1792  0.7988
  852MPD2    H512574   3.081   3.207  10.176  1.3963 -0.1448  1.2943
  852MPD2    N112575   2.691   3.016  10.294  0.2139  0.1357  0.0287
  852MPD2    H712576   2.721   3.085  10.361  0.3142  1.9250 -1.8647
  853MPD2     C12577   0.183   2.063  12.467  0.2553 -0.3360  0.5287
  853MPD2    C112578   0.121   2.182  12.429  0.2496  0.2787  0.6617
  853MPD2    C212579   0.110   2.219  12.293 -0.0760  0.1931 -0.3287
  853MPD2    C312580   0.162   2.130  12.196 -0.4335 -0.3294 -0.0895
  853MPD2    C412581   0.228   2.014  12.240  0.0445  0.3974  0.0156
  853MPD2    C512582   0.237   1.982  12.369 -0.1526  0.1070 -1.0560
  853MPD2     H12583   0.062   2.313  12.267  1.5743  0.6594 -1.7208
  853MPD2    H112584   0.266   1.943  12.169  1.7127 -0.2085  1.5265
  853MPD2    H212585   0.178   2.029  12.570  0.7574 -0.9623  0.3443
  853MPD2    H312586   0.283   1.887  12.398 -1.2827 -0.4653 -1.1396
  853MPD2     N12587   0.161   2.149  12.058 -0.2384  0.4368 -0.0784
  853MPD2    H512588   0.216   2.081  12.006  0.0283  1.0673 -0.6187
  853MPD2    N112589   0.085   2.266  12.533 -0.0729 -0.3808  0.4410
  853MPD2    H712590   0.108   2.241  12.629 -0.0411  0.8536  0.7650
  854MPD2     C12591   1.453   2.519  12.599  0.1586 -0.0987 -0.3261
  854MPD2    C112592   1.501   2.642  12.637  0.6293 -0.5202 -0.0669
  854MPD2    C212593   1.581   2.646  12.752  0.1515 -0.6293  0.1464
  854MPD2    C312594   1.613   2.526  12.817  0.2481 -0.1129 -0.1898
  854MPD2    C412595   1.572   2.406  12.767  0.4498  0.2577  0.5095
  854MPD2    C512596   1.492   2.402  12.654  0.0285  0.9848  0.4432
  854MPD2     H12597   1.624   2.742  12.776  3.3989 -1.9868 -0.2522
  854MPD2    H112598   1.581   2.312  12.822 -0.6024  0.6456  1.3457
  854MPD2    H212599   1.385   2.510  12.515 -0.7065  2.5295  0.0737
  854MPD2    H312600   1.451   2.308  12.619 -1.4068  1.0358  1.9665
  854MPD2     N12601   1.698   2.527  12.935  0.1452 -0.3996 -0.1906
  854MPD2    H512602   1.747   2.441  12.957  1.2170  0.6430  1.4615
  854MPD2    N112603   1.471   2.746  12.547 -0.3535 -0.4531  0.2130
  854MPD2    H712604   1.434   2.713  12.459 -1.7393  0.0805  0.6028
  855MPD2     C12605   1.585   2.515  13.875  0.2270  0.2966  0.0201
  855MPD2    C112606   1.715   2.482  13.832  0.3674  0.0146 -0.1454
  855MPD2    C212607   1.769   2.546  13.722  0.2378  0.0948 -0.4481
  855MPD2    C312608   1.691   2.637  13.645 -1.1216 -0.0393  0.3623
  855MPD2    C412609   1.563   2.669  13.688 -0.2226  0.9194 -0.4383
  855MPD2    C512610   1.515   2.611  13.802 -0.2036  0.4462 -0.9483
  855MPD2     H12611   1.859   2.507  13.677  1.0812 -0.9640  2.1422
  855MPD2    H112612   1.516   2.751  13.635  0.8390  1.9503  0.2233
  855MPD2    H212613   1.539   2.463  13.958  0.8668  1.9197  1.4070
  855MPD2    H312614   1.416   2.638  13.837 -0.8728 -2.5440 -0.5574
  855MPD2     N12615   1.730   2.683  13.517 -0.3226 -0.5069 -0.7105
  855MPD2    H512616   1.659   2.714  13.451 -1.9635  1.0281  1.7935
  855MPD2    N112617   1.791   2.384  13.890 -0.0710 -0.6523 -0.2633
  855MPD2    H712618   1.892   2.372  13.882 -0.3932 -2.2356 -2.0556
  856MPD2     C12619   0.077   3.129  14.058 -0.3321 -0.4130  0.4508
  856MPD2    C112620   0.096   3.247  13.998 -0.1151  0.0420 -0.8245
  856MPD2    C212621   4.733   3.305  13.924  0.1747 -0.0542  0.5152
  856MPD2    C312622   4.610   3.244  13.901  0.5266  0.2562 -0.3905
  856MPD2    C412623   4.595   3.118  13.957  0.0549 -0.2727 -0.0268
  856MPD2    C512624   4.694   3.065  14.042  0.5599  0.4450  0.4332
  856MPD2     H12625   0.015   3.407  13.891  1.0539 -0.6165 -0.7316
  856MPD2    H112626   4.501   3.063  13.958 -0.0404 -0.1018  0.3166
  856MPD2    H212627   0.154   3.072  14.109 -1.2850 -0.6585  1.6286
  856MPD2    H312628   4.677   2.971  14.092 -1.8233  0.8975  0.4686
  856MPD2     N12629   4.511   3.306  13.823 -0.0741 -0.1406  0.5479
  856MPD2    H512630   4.414   3.280  13.840 -0.8284  1.5315 -1.1489
  856MPD2    N112631   0.213   3.320  14.014  0.0761  0.3283  0.0345
  856MPD2    H712632   0.212   3.406  13.961 -1.9681  0.0372 -0.4288
  857MPD2     C12633   0.972   0.749  13.081 -0.0656 -0.7330  0.0500
  857MPD2    C112634   1.083   0.723  13.000  0.0720 -0.1728  0.5399
  857MPD2    C212635   1.177   0.818  12.996  0.0971 -0.3759  0.3682
  857MPD2    C312636   1.167   0.948  13.043  0.6030 -0.4106 -0.2931
  857MPD2    C412637   1.050   0.976  13.108 -0.1130  0.0589  0.1693
  857MPD2    C512638   0.959   0.880  13.127 -0.1240 -0.2763  0.7282
  857MPD2     H12639   1.263   0.801  12.933  0.4235  0.0792  0.6901
  857MPD2    H112640   1.034   1.073  13.154 -0.8966 -1.2948  2.7586
  857MPD2    H212641   0.887   0.682  13.095 -0.3467 -0.3056  0.3682
  857MPD2    H312642   0.869   0.903  13.183 -0.4003  0.8826 -0.1996
  857MPD2     N12643   1.278   1.039  13.032  0.1091 -0.3447 -0.5267
  857MPD2    H512644   1.369   1.000  13.010 -0.1909 -1.3881  0.0683
  857MPD2    N112645   1.091   0.596  12.938 -0.4571 -0.3623  0.2605
  857MPD2    H712646   1.015   0.530  12.954  0.5924 -1.3879  0.9643
  858MPD2     C12647   1.344   0.933  16.214  0.7009 -0.1970  0.3479
  858MPD2    C112648   1.376   0.800  16.239  0.1229 -0.2972 -0.3136
  858MPD2    C212649   1.418   0.767  16.370  0.0663 -0.2359  0.6124
  858MPD2    C312650   1.425   0.861  16.471 -0.1608  0.0114 -0.8209
  858MPD2    C412651   1.378   0.994  16.449  0.1217  0.5341  0.1886
  858MPD2    C512652   1.353   1.030  16.313 -0.4049 -0.8166  0.0043
  858MPD2     H12653   1.431   0.662  16.393  1.5927 -0.0870  0.4878
  858MPD2    H112654   1.390   1.072  16.523 -0.4949 -0.4852  1.3595
  858MPD2    H212655   1.317   0.960  16.113 -1.9561  0.2274  1.1615
  858MPD2    H312656   1.316   1.129  16.289 -0.1485 -1.3958 -2.7947
  858MPD2     N12657   1.453   0.823  16.601 -0.5661 -0.4528  0.0809
  858MPD2    H512658   1.390   0.851  16.675  0.1155 -1.8797  1.1921
  858MPD2    N112659   1.370   0.701  16.134  0.0566 -0.4660 -0.0273
  858MPD2    H712660   1.372   0.732  16.038  0.4905 -2.6325 -0.7034
  859MPD2     C12661   0.538   2.772  15.790  0.6438 -0.4291  0.2595
  859MPD2    C112662   0.599   2.695  15.691  0.5050  0.9879 -0.5159
  859MPD2    C212663   0.559   2.563  15.676 -0.8891 -0.4957 -0.4087
  859MPD2    C312664   0.444   2.515  15.741  0.0487  0.1817  0.5062
  859MPD2    C412665   0.385   2.590  15.837  0.2678  0.2540 -0.8072
  859MPD2    C512666   0.437   2.710  15.866  0.6779  0.3169  0.2217
  859MPD2     H12667   0.616   2.507  15.602  2.4496  0.8696  1.1443
  859MPD2    H112668   0.298   2.560  15.894  2.3433 -1.0276  1.6658
  859MPD2    H212669   0.568   2.874  15.811  0.8679 -0.2878 -0.7911
  859MPD2    H312670   0.380   2.767  15.938  2.0170 -1.3175  2.5862
  859MPD2     N12671   0.399   2.383  15.709 -0.5469 -0.1406 -0.0126
  859MPD2    H512672   0.323   2.347  15.767 -1.9734  1.7980 -0.6980
  859MPD2    N112673   0.694   2.765  15.608  0.7819  0.3534  0.1935
  859MPD2    H712674   0.720   2.861  15.625  0.6000  0.6042 -0.9530
  860MPD2     C12675   3.349   2.131  12.174 -0.2703  1.2199  0.7807
  860MPD2    C112676   3.334   2.153  12.307  0.0396  0.4374 -0.6523
  860MPD2    C212677   3.211   2.210  12.352  0.7114 -0.2904  0.3135
  860MPD2    C312678   3.104   2.237  12.261 -0.4767 -0.2723  0.3040
  860MPD2    C412679   3.127   2.210  12.125  0.1671 -0.1478  0.3888
  860MPD2    C512680   3.248   2.165  12.086  0.0399  0.0831 -0.1027
  860MPD2     H12681   3.196   2.240  12.455 -0.9093  1.9273 -0.5660
  860MPD2    H112682   3.046   2.201  12.054  0.6102 -2.1748  0.1232
  860MPD2    H212683   3.436   2.081  12.134 -1.1360 -0.8847  1.4882
  860MPD2    H312684   3.250   2.128  11.984 -5.3404  0.6134 -0.3527
  860MPD2     N12685   2.977   2.269  12.312  0.0151 -0.1996 -0.1472
  860MPD2    H512686   2.965   2.257  12.412 -0.7329  0.0567 -0.2051
  860MPD2    N112687   3.435   2.111  12.404 -0.1390  0.0766  0.1574
  860MPD2    H712688   3.530   2.093  12.372 -0.9226 -3.3809 -0.2561
  861MPD2     C12689   1.544   0.444  10.948  0.4048  0.1583  0.6920
  861MPD2    C112690   1.440   0.355  10.955 -0.1785 -0.1747  0.0386
  861MPD2    C212691   1.331   0.390  10.873  0.5132 -0.4804  0.1736
  861MPD2    C312692   1.333   0.499  10.789 -0.5183 -0.5148 -0.6877
  861MPD2    C412693   1.437   0.583  10.788  0.2105 -0.1518 -0.2655
  861MPD2    C512694   1.534   0.563  10.884 -0.3450  0.3798  0.7526
  861MPD2     H12695   1.247   0.321  10.867  0.8057 -0.7940 -0.3873
  861MPD2    H112696   1.446   0.669  10.723  1.6570  0.3716  0.6396
  861MPD2    H212697   1.637   0.412  10.995  1.3220  1.7582 -0.0570
  861MPD2    H312698   1.620   0.628  10.878 -1.4901  1.7969 -0.2406
  861MPD2     N12699   1.217   0.550  10.726  0.0204  0.1483 -0.3057
  861MPD2    H512700   1.227   0.645  10.692  2.1215 -0.3778 -1.1270
  861MPD2    N112701   1.439   0.234  11.037  0.2363  0.4168  0.3659
  861MPD2    H712702   1.354   0.181  11.027  0.2967  0.9451 -3.0608
  862MPD2     C12703   0.871   0.942  10.202 -0.3917  0.1164  0.2591
  862MPD2    C112704   0.916   0.816  10.232  0.9057  0.0984 -1.4373
  862MPD2    C212705   0.919   0.722  10.131 -0.9737 -0.3248  0.9561
  862MPD2    C312706   0.863   0.735  10.009 -0.9141 -0.1607  0.3602
  862MPD2    C412707   0.819   0.861   9.976 -0.7149 -0.4711 -0.4512
  862MPD2    C512708   0.820   0.961  10.076  0.2233 -0.4669  1.1086
  862MPD2     H12709   0.962   0.628  10.165 -1.1902 -0.4735  0.8247
  862MPD2    H112710   0.779   0.887   9.879 -0.1443  1.3769 -0.1809
  862MPD2    H212711   0.869   1.015  10.282 -0.6407 -0.9954  1.2716
  862MPD2    H312712   0.795   1.061  10.044  1.2302 -0.6712 -0.3504
  862MPD2     N12713   0.837   0.627   9.917  0.7123  0.4462  0.2440
  862MPD2    H512714   0.765   0.639   9.847  1.0907 -0.0658 -0.2332
  862MPD2    N112715   0.968   0.781  10.357 -0.4509 -0.1711 -0.2185
  862MPD2    H712716   0.970   0.681  10.376 -0.8337 -0.3430 -1.0625
  863MPD2     C12717   4.718   3.665  16.687 -0.0363  0.1251 -0.2416
  863MPD2    C112718   0.004   3.799  16.663  0.3235 -0.2712 -0.0974
  863MPD2    C212719   0.113   3.861  16.728  0.2562  0.6030 -0.6000
  863MPD2    C312720   0.202   3.779  16.804 -0.2644  0.0232  0.1167
  863MPD2    C412721   0.166   3.648  16.833  0.4319 -0.0983 -0.3927
  863MPD2    C512722   0.066   3.594  16.767 -0.0316 -0.0099  0.0968
  863MPD2     H12723   0.132   3.967  16.716 -0.8817  0.8266 -0.4154
  863MPD2    H112724   0.218   3.591  16.909 -1.2702 -2.7831 -1.2346
  863MPD2    H212725   4.636   3.606  16.646 -1.0812  1.4981 -0.1026
  863MPD2    H312726   0.043   3.492  16.796  0.3453 -0.3834 -0.9004
  863MPD2     N12727   0.319   3.821  16.870  0.4288  0.4615 -0.4629
  863MPD2    H512728   0.354   3.756  16.939 -0.4262  1.2258  0.6865
  863MPD2    N112729   4.644   3.873  16.585 -0.0696 -0.6444 -0.2444
  863MPD2    H712730   4.577   3.814  16.536  0.6186  0.9754 -3.1131
  864MPD2     C12731   0.303   0.343  17.373  0.2264 -0.2078  0.5811
  864MPD2    C112732   0.398   0.313  17.272  0.5561  0.3254 -0.2256
  864MPD2    C212733   0.458   0.418  17.203 -0.2071  0.0946 -0.0461
  864MPD2    C312734   0.433   0.543  17.234 -0.4451 -0.3575  0.4460
  864MPD2    C412735   0.337   0.571  17.327 -0.1029 -0.3742 -1.1587
  864MPD2    C512736   0.272   0.473  17.394  1.5125 -0.1396 -0.2498
  864MPD2     H12737   0.539   0.400  17.133 -0.5686 -0.3855 -0.3485
  864MPD2    H112738   0.316   0.672  17.362 -0.3044 -1.9188  3.2407
  864MPD2    H212739   0.248   0.268  17.429  1.0966 -1.3418 -0.0686
  864MPD2    H312740   0.185   0.499  17.454  1.7743 -1.1421  0.5686
  864MPD2     N12741   0.493   0.655  17.169  0.2804 -0.2678 -0.0379
  864MPD2    H512742   0.470   0.746  17.208  1.8128 -0.4420  1.2542
  864MPD2    N112743   0.417   0.174  17.242 -0.2788 -0.2851  0.6601
  864MPD2    H712744   0.375   0.108  17.306 -0.9668 -0.0482  0.4521
  865MPD2     C12745   0.441   0.925  16.219  0.6151  0.5804 -0.6217
  865MPD2    C112746   0.475   0.814  16.299 -0.5428  0.4546 -0.1182
  865MPD2    C212747   0.466   0.827  16.438 -0.2721 -0.2239  0.6081
  865MPD2    C312748   0.423   0.951  16.494  0.0349 -0.5700  0.4047
  865MPD2    C412749   0.403   1.064  16.415 -0.3029 -0.0794  0.2575
  865MPD2    C512750   0.400   1.045  16.278 -0.0970 -0.5042  0.1996
  865MPD2     H12751   0.499   0.753  16.511  2.2078  0.8794  0.6045
  865MPD2    H112752   0.379   1.160  16.460 -1.1519 -0.1254 -0.0927
  865MPD2    H212753   0.459   0.932  16.113  0.2105  4.0476 -0.4567
  865MPD2    H312754   0.375   1.128  16.213 -0.6329 -1.4225 -0.7875
  865MPD2     N12755   0.432   0.967  16.631  0.1815  0.3161 -0.6318
  865MPD2    H512756   0.444   1.063  16.662 -1.8755  0.9712 -1.8924
  865MPD2    N112757   0.506   0.693  16.237 -0.6874  0.4669 -0.3384
  865MPD2    H712758   0.517   0.697  16.136  3.8355 -2.5162  0.0353
  866MPD2     C12759   2.052   0.434  11.429 -0.7172  0.1935  0.9422
  866MPD2    C112760   2.051   0.488  11.304  0.2291  0.5470  0.5679
  866MPD2    C212761   1.937   0.560  11.254  0.4333  0.2206 -0.9085
  866MPD2    C312762   1.819   0.566  11.332  0.0248 -0.4386  0.5596
  866MPD2    C412763   1.833   0.512  11.457 -0.1539 -0.3932  0.7848
  866MPD2    C512764   1.940   0.447  11.505 -1.3685 -0.4043 -0.1306
  866MPD2     H12765   1.944   0.607  11.156  2.8058  1.5573 -0.0932
  866MPD2    H112766   1.747   0.528  11.522  1.4093 -3.3313  3.5563
  866MPD2    H212767   2.141   0.381  11.463  0.3264  1.1076 -0.3469
  866MPD2    H312768   1.940   0.412  11.607 -0.4834 -0.3893 -0.1230
  866MPD2     N12769   1.701   0.638  11.299 -0.1676  0.6525  0.3988
  866MPD2    H512770   1.624   0.635  11.366 -0.8665 -1.2355 -0.4587
  866MPD2    N112771   2.174   0.466  11.233  0.4426  0.6260 -0.3694
  866MPD2    H712772   2.243   0.403  11.273  0.0404  0.2654 -0.2396
  867MPD2     C12773   3.965   0.235  16.225  0.0724  0.0186 -0.1365
  867MPD2    C112774   4.059   0.211  16.318  0.5432 -0.4447 -0.5502
  867MPD2    C212775   4.043   0.265  16.451  0.5381  0.1276  0.6063
  867MPD2    C312776   3.923   0.323  16.488 -0.1899 -0.2685 -0.3091
  867MPD2    C412777   3.827   0.348  16.391  0.0741  0.2395  0.0884
  867MPD2    C512778   3.853   0.310  16.261  0.1002 -0.2574  0.0063
  867MPD2     H12779   4.113   0.236  16.528  0.6504 -0.7369  0.1851
  867MPD2    H112780   3.732   0.388  16.423  0.8819  0.0495  2.7353
  867MPD2    H212781   3.978   0.182  16.131  0.1440 -1.5107  0.7264
  867MPD2    H312782   3.781   0.333  16.184  1.7605  1.8742 -0.8957
  867MPD2     N12783   3.889   0.370  16.619 -0.0121 -0.8089 -0.3226
  867MPD2    H512784   3.790   0.391  16.633  0.3460  0.6078  0.0606
  867MPD2    N112785   4.172   0.140  16.274  0.5208  0.7807  0.1101
  867MPD2    H712786   4.184   0.127  16.174  1.1740 -0.9817  0.4276
  868MPD2     C12787   1.578   4.381  12.960  0.6408  0.3539  0.3158
  868MPD2    C112788   1.657   4.404  13.071  0.1191  0.2578  0.0302
  868MPD2    C212789   1.605   4.379  13.198 -0.2934 -0.0424 -0.6235
  868MPD2    C312790   1.471   4.342  13.210  0.2557  0.5380 -0.1111
  868MPD2    C412791   1.391   4.324  13.101 -0.1304 -0.3324  0.3820
  868MPD2    C512792   1.446   4.343  12.975 -0.2812  0.5325  0.1020
  868MPD2     H12793   1.667   4.396  13.285  0.0287  0.9856 -1.0563
  868MPD2    H112794   1.285   4.300  13.113  0.2364 -1.5555  1.1344
  868MPD2    H212795   1.617   4.404  12.862 -1.6884 -0.8571 -0.8945
  868MPD2    H312796   1.381   4.328  12.889 -1.5467  2.1903  0.7577
  868MPD2     N12797   1.433   4.314  13.342 -0.2273 -0.3062 -0.1825
  868MPD2    H512798   1.495   4.358  13.409  1.1085 -1.7593 -0.4630
  868MPD2    N112799   1.790   4.433  13.055 -0.4095 -0.4427 -0.0817
  868MPD2    H712800   1.814   4.430  12.957 -0.1009  0.0879 -0.0244
  869MPD2     C12801   1.543   3.299   0.648  0.4004  0.0634 -0.1493
  869MPD2    C112802   1.547   3.158   0.639  0.8376  0.3486  0.1293
  869MPD2    C212803   1.668   3.095   0.672 -0.5568  0.6429 -0.1104
  869MPD2    C312804   1.782   3.169   0.699 -0.5983  0.5140  0.1676
  869MPD2    C412805   1.766   3.307   0.698 -0.0929  0.3888 -0.5518
  869MPD2    C512806   1.651   3.375   0.680 -0.0624 -0.6328 -0.3662
  869MPD2     H12807   1.674   2.988   0.654  0.9837  0.2526  2.8366
  869MPD2    H112808   1.850   3.372   0.719 -0.7651  1.1592 -0.2459
  869MPD2    H212809   1.448   3.350   0.636  0.4876  0.3459  0.3614
  869MPD2    H312810   1.642   3.482   0.688 -0.4215 -0.7721  1.0398
  869MPD2     N12811   1.915   3.118   0.717 -0.0439 -0.2372 -0.4309
  869MPD2    H512812   1.988   3.181   0.750 -0.2105 -0.0563 -0.4073
  869MPD2    N112813   1.430   3.089   0.606 -0.0647  0.4219  0.1130
  869MPD2    H712814   1.344   3.142   0.600  0.5508  1.3675 -0.4215
  870MPD2     C12815   2.487   1.369   1.505 -1.0551  0.0665  0.7061
  870MPD2    C112816   2.446   1.278   1.408  0.0819 -0.1042 -0.0946
  870MPD2    C212817   2.314   1.280   1.370  0.0164 -0.2176  0.4980
  870MPD2    C312818   2.215   1.358   1.430  0.2469 -0.0968  0.2216
  870MPD2    C412819   2.250   1.433   1.537  0.2731  0.2528  0.4378
  870MPD2    C512820   2.385   1.429   1.577 -0.0785  0.4903  0.0430
  870MPD2     H12821   2.280   1.231   1.279  3.8083 -0.6598 -0.6695
  870MPD2    H112822   2.187   1.496   1.599  2.8287  1.0908  2.1985
  870MPD2    H212823   2.588   1.379   1.542  0.6796 -1.0754 -3.7754
  870MPD2    H312824   2.412   1.472   1.673 -0.6890 -0.6824  0.7439
  870MPD2     N12825   2.088   1.363   1.373 -0.2210 -0.0142 -0.3962
  870MPD2    H512826   2.067   1.303   1.294  2.4034  0.1151 -1.1859
  870MPD2    N112827   2.546   1.197   1.344 -1.3978  0.0471 -0.2313
  870MPD2    H712828   2.642   1.205   1.376 -1.4922 -0.6444  0.2262
  871MPD2     C12829   3.413   1.097  16.625  1.1609 -0.8138  0.2218
  871MPD2    C112830   3.382   1.041  16.745  0.0434 -0.4412  0.4966
  871MPD2    C212831   3.325   0.919  16.751  0.4676 -0.5276  0.6083
  871MPD2    C312832   3.294   0.854  16.630 -0.1174 -0.1784 -0.2339
  871MPD2    C412833   3.324   0.914  16.512 -0.2520  1.1519  0.1061
  871MPD2    C512834   3.382   1.037  16.505  0.0990 -0.4533 -0.4517
  871MPD2     H12835   3.302   0.872  16.847 -2.9657 -2.5740 -1.2260
  871MPD2    H112836   3.300   0.882  16.412 -1.7688  0.3721  0.7153
  871MPD2    H212837   3.447   1.200  16.627  0.0292 -0.4354 -0.1563
  871MPD2    H312838   3.421   1.084  16.416 -0.6860 -0.5487 -0.8417
  871MPD2     N12839   3.239   0.725  16.636  0.1874 -0.0512  0.1005
  871MPD2    H512840   3.219   0.690  16.729 -1.6214  0.4475 -0.0949
  871MPD2    N112841   3.400   1.124  16.860  0.0020  0.0597 -0.1290
  871MPD2    H712842   3.442   1.216  16.848  0.3110 -0.2466 -1.4190
  872MPD2     C12843   4.021   2.789  13.440 -0.0157 -0.1734 -0.5193
  872MPD2    C112844   4.090   2.861  13.538 -0.1501  0.0322 -0.9587
  872MPD2    C212845   4.022   2.894  13.656  0.1755 -0.7303  0.0428
  872MPD2    C312846   3.885   2.871  13.673  0.0549  0.3130 -0.6404
  872MPD2    C412847   3.817   2.801  13.576 -0.4017 -0.2399 -0.2859
  872MPD2    C512848   3.887   2.761  13.465 -0.3176  0.6326  0.8394
  872MPD2     H12849   4.077   2.950  13.731 -2.4173  1.5442  0.2138
  872MPD2    H112850   3.714   2.769  13.586 -0.8248  1.0209 -0.6719
  872MPD2    H212851   4.066   2.754  13.348 -3.4711 -2.0363 -1.5005
  872MPD2    H312852   3.829   2.704  13.393  0.6920  0.3885  0.2276
  872MPD2     N12853   3.805   2.915  13.781  0.1624 -0.7117  0.1253
  872MPD2    H512854   3.707   2.888  13.781 -0.0363 -0.0065  1.0206
  872MPD2    N112855   4.225   2.884  13.522 -1.0439  0.3603 -0.5202
  872MPD2    H712856   4.268   2.870  13.431  0.8959  3.6076 -0.1089
  873MPD2     C12857   1.250   2.740   1.048  0.4108  0.0396 -0.2899
  873MPD2    C112858   1.197   2.851   0.983  0.2892 -0.6010 -0.0296
  873MPD2    C212859   1.077   2.840   0.919  0.2156  0.0726  0.4534
  873MPD2    C312860   1.011   2.716   0.917  0.9962  0.2027 -0.6843
  873MPD2    C412861   1.064   2.604   0.981  0.4009  0.5260 -0.3781
  873MPD2    C512862   1.183   2.622   1.042 -0.4855  0.4556  0.1657
  873MPD2     H12863   1.032   2.924   0.867  2.2833  0.7428 -0.2545
  873MPD2    H112864   1.017   2.511   1.011  3.5317 -1.2593 -0.9246
  873MPD2    H212865   1.350   2.752   1.087 -0.0437 -0.5466  1.0367
  873MPD2    H312866   1.226   2.540   1.098 -0.3260  0.1730 -0.3721
  873MPD2     N12867   0.887   2.689   0.863  0.2170 -0.6720 -0.1335
  873MPD2    H512868   0.848   2.597   0.877  0.9247 -0.9132  0.2679
  873MPD2    N112869   1.277   2.976   0.976 -0.2887 -0.0170 -0.0329
  873MPD2    H712870   1.366   2.968   1.025 -0.3494  0.4492  0.1506
  874MPD2     C12871   0.599   3.224  16.263  0.0683  0.2019 -0.2212
  874MPD2    C112872   0.664   3.258  16.374 -0.3844 -0.0719 -0.1705
  874MPD2    C212873   0.766   3.347  16.371 -0.1074  0.1043 -0.1587
  874MPD2    C312874   0.811   3.404  16.253 -0.6133  0.0553 -0.9115
  874MPD2    C412875   0.753   3.356  16.137  0.3591 -0.0617 -0.2301
  874MPD2    C512876   0.642   3.279  16.149  0.4771 -0.6896  0.4570
  874MPD2     H12877   0.822   3.373  16.460 -0.6535  2.1072 -0.4210
  874MPD2    H112878   0.781   3.383  16.036  0.7771  2.6085  0.6118
  874MPD2    H212879   0.519   3.151  16.267 -0.1464  0.4664  0.2857
  874MPD2    H312880   0.583   3.262  16.059  0.0126  0.7737  0.4845
  874MPD2     N12881   0.911   3.503  16.241  0.1680 -0.4520 -0.5804
  874MPD2    H512882   0.934   3.531  16.146 -0.9244  1.3196 -0.3131
  874MPD2    N112883   0.630   3.175  16.482  0.3264  0.1069  0.3104
  874MPD2    H712884   0.544   3.120  16.482  0.8475 -0.7037 -0.2188
  875MPD2     C12885   1.822   1.333  14.711 -0.0640 -0.0982 -0.2642
  875MPD2    C112886   1.694   1.370  14.742 -0.4033 -0.8823 -0.0360
  875MPD2    C212887   1.679   1.461  14.847  0.1486 -0.2220 -0.1249
  875MPD2    C312888   1.789   1.517  14.910 -0.1633  0.5475  0.3311
  875MPD2    C412889   1.916   1.488  14.859  0.1194  1.4368  0.0778
  875MPD2    C512890   1.931   1.386  14.770  1.2246  0.4200 -0.1232
  875MPD2     H12891   1.578   1.483  14.878  0.5334 -1.8960  2.2451
  875MPD2    H112892   2.004   1.518  14.915 -0.0078  1.3578  0.3235
  875MPD2    H212893   1.840   1.268  14.625  0.1241  0.2889 -0.5153
  875MPD2    H312894   2.027   1.362  14.728  1.3079 -0.4300  0.5509
  875MPD2     N12895   1.763   1.624  15.003 -0.4001  0.6011  0.6158
  875MPD2    H512896   1.666   1.629  15.033 -0.3732  4.0039  0.0998
  875MPD2    N112897   1.575   1.340  14.671  0.1365  0.4318 -0.3069
  875MPD2    H712898   1.490   1.388  14.698 -0.7534 -2.2798  1.6707
  876MPD2     C12899   1.000   3.012  16.478  0.0098  0.6670 -0.1747
  876MPD2    C112900   0.947   2.948  16.370  0.0536 -0.2497 -0.3219
  876MPD2    C212901   0.883   2.824  16.379  0.0820 -0.0762  1.1717
  876MPD2    C312902   0.890   2.747  16.499  0.0156 -0.1817  0.4328
  876MPD2    C412903   0.925   2.827  16.604 -0.7757 -0.0263 -0.2029
  876MPD2    C512904   0.973   2.957  16.597 -0.0335  0.0957 -0.4480
  876MPD2     H12905   0.856   2.774  16.286  0.1783 -0.8806  1.5817
  876MPD2    H112906   0.923   2.788  16.705 -3.3962 -0.1281 -0.2981
  876MPD2    H212907   1.039   3.114  16.476  0.5701  0.4459 -0.5824
  876MPD2    H312908   1.007   3.001  16.690 -0.8234 -0.2543  0.0111
  876MPD2     N12909   0.859   2.610  16.512  0.1508 -0.3204 -0.0971
  876MPD2    H512910   0.830   2.557  16.430 -1.2868  2.8029 -1.5673
  876MPD2    N112911   0.967   3.010  16.244 -0.0351  0.0855 -0.1706
  876MPD2    H712912   1.032   3.087  16.242 -1.2747  1.0473 -2.7639
  877MPD2     C12913   0.675   3.189  15.458  0.1553 -0.9412 -0.5700
  877MPD2    C112914   0.807   3.228  15.468  0.0629 -0.2576 -0.4207
  877MPD2    C212915   0.876   3.248  15.356 -0.3447 -0.4521 -0.6362
  877MPD2    C312916   0.814   3.241  15.230 -0.6962 -0.2464  0.7407
  877MPD2    C412917   0.687   3.199  15.221  0.5674 -0.5930 -0.0406
  877MPD2    C512918   0.618   3.168  15.336 -0.0004 -1.0617 -0.0311
  877MPD2     H12919   0.978   3.285  15.356 -0.1630 -0.9546 -1.0019
  877MPD2    H112920   0.632   3.169  15.133 -0.0870 -0.8870  0.4676
  877MPD2    H212921   0.611   3.186  15.545  0.0448  0.4056 -0.5982
  877MPD2    H312922   0.516   3.132  15.328  0.3322 -1.7892 -1.0441
  877MPD2     N12923   0.877   3.262  15.112  0.6262  0.5564  0.3269
  877MPD2    H512924   0.807   3.250  15.039  0.7204 -3.4245  0.9205
  877MPD2    N112925   0.868   3.254  15.598 -0.2501 -0.5551  0.2674
  877MPD2    H712926   0.949   3.311  15.617  0.0165 -0.5595 -0.8796
  878MPD2     C12927   0.312   1.721  13.328  0.0351  1.0280 -0.6199
  878MPD2    C112928   0.391   1.829  13.285 -0.3117  0.2288  0.5388
  878MPD2    C212929   0.385   1.947  13.354 -0.6746 -0.2042 -0.0546
  878MPD2    C312930   0.310   1.966  13.467  0.1839  0.2770 -0.8008
  878MPD2    C412931   0.238   1.859  13.515 -0.0126  0.3393  0.1412
  878MPD2    C512932   0.235   1.743  13.444 -0.1970 -1.1096  0.0789
  878MPD2     H12933   0.431   2.033  13.308 -0.3871  0.7784  2.0578
  878MPD2    H112934   0.206   1.860  13.618 -2.3219  0.1960 -0.5783
  878MPD2    H212935   0.306   1.625  13.277  0.4808  0.0424  1.1404
  878MPD2    H312936   0.170   1.661  13.471 -1.6362 -0.0058 -0.0008
  878MPD2     N12937   0.310   2.091  13.531 -0.0729 -0.2628 -0.3285
  878MPD2    H512938   0.375   2.165  13.505 -1.3153  1.3139  1.0495
  878MPD2    N112939   0.456   1.810  13.163  0.1240 -0.0784  0.3538
  878MPD2    H712940   0.431   1.724  13.115  0.4319  0.3849 -0.6594
  879MPD2     C12941   1.028   3.921  16.812  0.1009  0.6080  0.7629
  879MPD2    C112942   0.991   3.819  16.892  0.0325  0.4175 -0.7916
  879MPD2    C212943   0.884   3.733  16.854 -0.3221 -0.5948 -0.5181
  879MPD2    C312944   0.826   3.754  16.739  0.8819  0.5413 -0.2269
  879MPD2    C412945   0.855   3.864  16.657  0.2516 -0.2479 -0.1056
  879MPD2    C512946   0.953   3.948  16.695  0.0269 -0.5953 -0.0106
  879MPD2     H12947   0.850   3.651  16.916  0.6008  1.0140  2.0889
  879MPD2    H112948   0.810   3.871  16.559  1.5153 -0.7657 -0.7173
  879MPD2    H212949   1.107   3.988  16.845  0.3045  0.5183  0.4671
  879MPD2    H312950   0.988   4.028  16.631  0.7470 -0.3476  0.6909
  879MPD2     N12951   0.714   3.676  16.704 -0.7373 -0.3972  0.5087
  879MPD2    H512952   0.675   3.703  16.614  2.0527 -2.4534 -1.2897
  879MPD2    N112953   1.075   3.789  17.005 -0.6384 -0.5136  0.2689
  879MPD2    H712954   1.143   3.863  17.023  0.1646 -0.6129 -2.4340
  880MPD2     C12955   2.055   0.717   0.209  0.3553  0.4047  0.1701
  880MPD2    C112956   2.133   0.830   0.218  0.6421  0.0569  0.2011
  880MPD2    C212957   2.264   0.806   0.253  0.8559 -0.2966 -0.7234
  880MPD2    C312958   2.311   0.677   0.281 -0.2925  0.5501  0.4499
  880MPD2    C412959   2.229   0.572   0.261  0.0562  0.2602 -0.1289
  880MPD2    C512960   2.104   0.594   0.219 -0.1640 -0.1676 -1.2081
  880MPD2     H12961   2.329   0.880   0.298  0.0662 -0.0869  0.0859
  880MPD2    H112962   2.258   0.473   0.293 -1.0327  0.1051  0.3832
  880MPD2    H212963   1.948   0.724   0.194  0.4894 -0.3293 -1.0420
  880MPD2    H312964   2.045   0.503   0.217 -0.3610 -0.0746  1.3856
  880MPD2     N12965   2.436   0.667   0.345 -0.3406  0.4098 -0.3550
  880MPD2    H512966   2.488   0.754   0.350  0.1840  0.2891 -3.9788
  880MPD2    N112967   2.078   0.961   0.204 -0.1531 -0.1863  0.1375
  880MPD2    H712968   1.977   0.968   0.199 -0.1899  0.9694  2.4819
  881MPD2     C12969   2.553   1.875   0.331  0.1689  0.0111  0.1601
  881MPD2    C112970   2.536   1.843   0.200 -0.3999  0.4138 -0.6952
  881MPD2    C212971   2.429   1.758   0.173 -0.0278  0.1280 -0.7730
  881MPD2    C312972   2.337   1.724   0.276 -0.1709 -0.2538 -0.5496
  881MPD2    C412973   2.353   1.779   0.402  0.0513 -0.3380  0.2948
  881MPD2    C512974   2.466   1.847   0.429 -1.1871  0.3489  0.0411
  881MPD2     H12975   2.413   1.712   0.076 -2.7895 -1.9856  0.7234
  881MPD2    H112976   2.286   1.766   0.486 -0.8682  2.3896 -0.0135
  881MPD2    H212977   2.636   1.941   0.351  0.7649 -0.6852 -0.0363
  881MPD2    H312978   2.478   1.893   0.526  1.0770  0.7319 -0.4192
  881MPD2     N12979   2.235   1.632   0.261 -0.0842 -0.0585  0.0303
  881MPD2    H512980   2.174   1.622   0.341  1.0467  0.6621  0.9958
  881MPD2    N112981   2.633   1.872   0.101  0.0763  0.2394 -0.3285
  881MPD2    H712982   2.714   1.923   0.137  0.8462 -2.5621  1.8962
  882MPD2     C12983   0.834   3.086  14.325 -0.3195 -0.0983  0.4249
  882MPD2    C112984   0.796   3.160  14.438 -0.1992 -0.0473  0.5211
  882MPD2    C212985   0.658   3.176  14.457 -0.2114  0.8107  0.8839
  882MPD2    C312986   0.569   3.106  14.381  0.3235 -0.3110 -0.3259
  882MPD2    C412987   0.614   3.022  14.282 -0.1627 -0.0688 -0.4912
  882MPD2    C512988   0.748   3.009  14.252 -0.3148  0.0732  0.2170
  882MPD2     H12989   0.616   3.253  14.521  0.1610  1.4432  0.3655
  882MPD2    H112990   0.540   2.954  14.240 -0.2466  0.1211 -0.6457
  882MPD2    H212991   0.942   3.078  14.317 -0.4870 -0.0570 -1.8596
  882MPD2    H312992   0.775   2.934  14.178 -1.1659  0.0791 -0.0940
  882MPD2     N12993   0.434   3.106  14.399  0.3878  0.2686 -0.2317
  882MPD2    H512994   0.392   3.056  14.321  1.3640  0.3479 -0.8000
  882MPD2    N112995   0.900   3.220  14.514  0.1556 -0.5661  0.8348
  882MPD2    H712996   0.990   3.185  14.483  0.8261  1.2253  0.7537
  883MPD2     C12997   2.706   4.174  16.170  0.6183 -1.6010  0.1765
  883MPD2    C112998   2.806   4.139  16.083 -0.2062 -0.6579  0.9098
  883MPD2    C212999   2.936   4.166  16.106 -0.3417  0.4457 -0.0515
  883MPD2    C313000   2.972   4.235  16.224 -0.5428  0.0778  0.2154
  883MPD2    C413001   2.874   4.270  16.310  0.6311  0.0263  0.6703
  883MPD2    C513002   2.743   4.242  16.289 -0.1108 -0.1070 -0.3170
  883MPD2     H13003   3.009   4.124  16.038 -1.2219 -0.0325 -0.6884
  883MPD2    H113004   2.898   4.310  16.408 -1.0878  0.9898  0.6863
  883MPD2    H213005   2.599   4.163  16.154  0.0207 -0.6315  3.4724
  883MPD2    H313006   2.667   4.277  16.357 -1.1161  0.3803 -1.6801
  883MPD2     N13007   3.110   4.246  16.256  0.4200 -0.7595 -0.3025
  883MPD2    H513008   3.170   4.208  16.184 -0.3691  0.2385 -1.4774
  883MPD2    N113009   2.780   4.068  15.960 -0.0522  0.0755  0.2513
  883MPD2    H713010   2.863   4.046  15.907 -1.6927 -1.1488 -1.7814
  884MPD2     C13011   4.073   4.331  14.934 -0.0393  0.2246 -0.0190
  884MPD2    C113012   4.119   4.309  14.805  0.5856 -0.0480  0.2450
  884MPD2    C213013   4.040   4.344  14.697 -0.1768 -0.1133 -0.2523
  884MPD2    C313014   3.920   4.412  14.709  0.8220 -0.7947  0.0814
  884MPD2    C413015   3.881   4.446  14.837 -0.3629 -1.0817  0.0425
  884MPD2    C513016   3.959   4.405  14.948  0.1044 -0.5072 -0.0529
  884MPD2     H13017   4.085   4.304  14.607 -0.7580 -2.7121  0.5896
  884MPD2    H113018   3.795   4.508  14.859  1.0070  1.6467 -2.2239
  884MPD2    H213019   4.127   4.304  15.024 -0.5646  0.8143  0.4690
  884MPD2    H313020   3.915   4.425  15.045  1.9793  1.0803  0.4767
  884MPD2     N13021   3.834   4.432  14.593 -0.0806 -0.0037 -0.4984
  884MPD2    H513022   3.864   4.390  14.505 -0.3175 -0.5270 -0.3307
  884MPD2    N113023   4.247   4.264  14.768 -0.1746 -0.5083 -0.1146
  884MPD2    H713024   4.268   4.260  14.668 -0.1949 -1.7940 -0.0666
  885MPD2     C13025   2.840   0.146   0.139 -0.5752 -0.1550 -0.1656
  885MPD2    C113026   2.910   0.030   0.127  0.0107 -0.2878  0.7052
  885MPD2    C213027   2.934   4.714  17.746  0.0257  0.1300  0.3922
  885MPD2    C313028   2.908   0.060  17.634  0.3712 -0.1625 -0.0759
  885MPD2    C413029   2.848   0.186  17.650  0.4025  0.5553  0.2117
  885MPD2    C513030   2.817   0.225   0.033 -0.0250  0.4008  0.0762
  885MPD2     H13031   2.969   4.613  17.726  0.4892 -0.0563  2.1873
  885MPD2    H113032   2.832   0.266  17.580 -1.3065  1.0760  1.2086
  885MPD2    H213033   2.825   0.194   0.235 -1.1601  2.8952 -1.7570
  885MPD2    H313034   2.788   0.330   0.039 -0.7629  0.2644 -0.9642
  885MPD2     N13035   2.944   0.006  17.511 -0.1015 -0.5510  0.1729
  885MPD2    H513036   2.986   4.651  17.504  1.1582 -0.1627  2.7440
  885MPD2    N113037   2.942   4.700   0.244 -0.0040  0.2878 -0.0453
  885MPD2    H713038   2.909   0.003   0.331 -1.0490  0.2838 -0.4474
  886MPD2     C13039   4.525   2.096  14.859  0.1812  0.7559 -0.3148
  886MPD2    C113040   4.583   2.184  14.942  0.7362  0.5559  0.4843
  886MPD2    C213041   4.644   2.290  14.881  0.2580  0.4060  0.0924
  886MPD2    C313042   4.653   2.305  14.738  0.0587 -0.2212 -0.1742
  886MPD2    C413043   4.573   2.221  14.654  0.4956 -1.3463  0.6259
  886MPD2    C513044   4.513   2.116  14.725  0.7261 -0.3480 -0.0637
  886MPD2     H13045   4.697   2.361  14.942 -0.6010  0.0417  1.2630
  886MPD2    H113046   4.566   2.233  14.547  0.1396  1.0717  0.9205
  886MPD2    H213047   4.474   2.007  14.894  2.1436 -0.7607 -1.2706
  886MPD2    H313048   4.438   2.058  14.672  0.1413 -1.0522  1.5320
  886MPD2     N13049   4.724   2.408  14.671  0.3599  0.1891 -0.1108
  886MPD2    H513050   4.702   2.427  14.574  2.4835 -0.6010 -0.7400
  886MPD2    N113051   4.573   2.174  15.084 -0.3249 -0.3616  0.1406
  886MPD2    H713052   4.604   2.254  15.138  3.3137 -2.5231  1.2560
  887MPD2     C13053   0.064   2.547  15.681 -0.1361 -0.5242 -0.8147
  887MPD2    C113054   0.011   2.544  15.550 -0.0466 -0.3307 -0.5056
  887MPD2    C213055   4.735   2.663  15.479  1.2847 -0.3518 -0.6494
  887MPD2    C313056   0.057   2.778  15.529  0.2456  0.4153 -0.2103
  887MPD2    C413057   0.104   2.775  15.654  0.1090 -0.2947  0.2542
  887MPD2    C513058   0.098   2.666  15.735  0.7926  0.7397 -0.1732
  887MPD2     H13059   4.692   2.660  15.379  1.5216 -0.2144 -0.7530
  887MPD2    H113060   0.139   2.860  15.711 -1.0433 -0.3041  0.9794
  887MPD2    H213061   0.088   2.458  15.739  0.6827 -0.2187 -0.6862
  887MPD2    H313062   0.129   2.677  15.838  0.3790 -0.9821  0.1420
  887MPD2     N13063   0.064   2.900  15.454  0.5850 -0.1662 -0.6684
  887MPD2    H513064   0.023   2.894  15.361 -1.9245  1.6609  0.3167
  887MPD2    N113065   4.696   2.423  15.489  0.0832 -0.0384 -0.2587
  887MPD2    H713066   4.649   2.431  15.399 -0.6836  0.6474  0.2016
  888MPD2     C13067   2.073   2.820  15.048  0.1027  0.5983 -0.2838
  888MPD2    C113068   1.989   2.884  15.133  0.1819  0.6032 -0.0748
  888MPD2    C213069   1.994   3.023  15.150  0.0232 -0.4913  0.5708
  888MPD2    C313070   2.095   3.091  15.081 -0.2139 -0.8024  0.9914
  888MPD2    C413071   2.185   3.022  15.005  0.5722 -0.0470  0.3605
  888MPD2    C513072   2.169   2.887  14.982  0.5561  0.0946  0.3479
  888MPD2     H13073   1.940   3.080  15.225  0.9719 -0.5784  1.3278
  888MPD2    H113074   2.260   3.080  14.950  2.4650 -1.4560  1.4791
  888MPD2    H213075   2.088   2.713  15.038 -0.2294  0.4578  0.7813
  888MPD2    H313076   2.242   2.837  14.920 -1.7939 -0.4241 -1.9929
  888MPD2     N13077   2.099   3.232  15.096 -0.3074 -0.5590  0.3323
  888MPD2    H513078   2.021   3.268  15.150 -0.4199 -1.7898  0.9997
  888MPD2    N113079   1.892   2.806  15.205  0.3181 -0.8768 -0.0323
  888MPD2    H713080   1.854   2.845  15.290 -0.3671  0.2991 -0.8927
  889MPD2     C13081   1.246   1.727  12.707  0.0094 -0.1816  0.4998
  889MPD2    C113082   1.321   1.737  12.818  0.1850  0.3918 -0.8009
  889MPD2    C213083   1.344   1.865  12.878 -0.1022 -0.7529  0.0325
  889MPD2    C313084   1.284   1.981  12.817 -0.7971 -0.6522 -0.2749
  889MPD2    C413085   1.210   1.960  12.701  0.2429 -0.7383  0.0981
  889MPD2    C513086   1.200   1.835  12.650  0.0013 -0.3675 -0.0557
  889MPD2     H13087   1.380   1.884  12.978 -0.6067  1.3145 -0.1605
  889MPD2    H113088   1.162   2.033  12.638  0.7730 -0.7567 -0.3293
  889MPD2    H213089   1.237   1.629  12.663  0.3146  0.5393 -1.1574
  889MPD2    H313090   1.136   1.816  12.564  1.4232  0.3769 -1.2687
  889MPD2     N13091   1.293   2.114  12.874  0.1183 -0.1367  0.6557
  889MPD2    H513092   1.352   2.128  12.955  1.2928  1.7382 -0.5295
  889MPD2    N113093   1.354   1.618  12.880  0.0520  0.9193 -0.2212
  889MPD2    H713094   1.342   1.533  12.825 -1.4151  1.3495 -0.5658
  890MPD2     C13095   0.984   3.818  14.315  0.1870 -0.2501 -0.7154
  890MPD2    C113096   1.109   3.827  14.366  0.6885 -0.4022  0.5597
  890MPD2    C213097   1.134   3.761  14.486 -0.3675  0.4530 -0.2924
  890MPD2    C313098   1.041   3.696  14.553 -0.0871  0.3284 -0.3483
  890MPD2    C413099   0.918   3.686  14.494 -0.1737 -0.8089 -0.2645
  890MPD2    C513100   0.885   3.744  14.373  0.3827 -0.2123 -0.3206
  890MPD2     H13101   1.231   3.764  14.533 -0.7020 -2.8450  0.5910
  890MPD2    H113102   0.839   3.627  14.539  1.5615 -1.5514  1.7987
  890MPD2    H213103   0.961   3.868  14.222 -0.8837  0.8942  0.1706
  890MPD2    H313104   0.791   3.729  14.321  0.1524 -2.0704  0.6393
  890MPD2     N13105   1.071   3.645  14.684  0.1243 -0.2301 -0.3420
  890MPD2    H513106   1.167   3.656  14.714  0.2078  0.8761 -1.0543
  890MPD2    N113107   1.206   3.915  14.314  0.4497 -0.8059  0.1584
  890MPD2    H713108   1.177   3.973  14.235  2.0587 -2.0030 -1.3149
  891MPD2     C13109   3.843   2.861  16.460 -0.6982  0.4661 -0.0128
  891MPD2    C113110   3.741   2.838  16.550  0.2405 -1.2928  0.4364
  891MPD2    C213111   3.773   2.782  16.673  0.3172  0.3682 -0.1695
  891MPD2    C313112   3.897   2.747  16.715 -0.1431 -0.3133  0.2630
  891MPD2    C413113   3.996   2.778  16.626  0.0438 -0.0089 -0.4889
  891MPD2    C513114   3.968   2.831  16.500  0.5791  0.1564 -0.2861
  891MPD2     H13115   3.690   2.761  16.741  1.3518 -2.6428  0.1975
  891MPD2    H113116   4.101   2.769  16.652 -0.1240 -1.1223 -0.2016
  891MPD2    H213117   3.817   2.901  16.363 -1.4034  1.9108  0.7763
  891MPD2    H313118   4.054   2.854  16.439  0.6172  1.7214  0.3613
  891MPD2     N13119   3.920   2.687  16.836  0.1285 -0.4466 -0.4222
  891MPD2    H513120   3.848   2.680  16.907  0.4105  0.1487 -0.0737
  891MPD2    N113121   3.610   2.860  16.506 -0.1235  0.2587  0.1331
  891MPD2    H713122   3.603   2.915  16.421  0.5444 -2.8343 -1.9385
  892MPD2     C13123   4.572   3.656  15.017 -0.2949  0.3677 -0.1224
  892MPD2    C113124   4.508   3.642  14.896 -0.1754 -0.1132  0.0466
  892MPD2    C213125   4.561   3.554  14.797 -0.1633 -0.5794  0.0021
  892MPD2    C313126   4.666   3.468  14.830 -0.1869 -0.7037 -0.0243
  892MPD2    C413127   4.714   3.476  14.962 -0.3337  0.6642  0.3430
  892MPD2    C513128   4.675   3.569  15.051 -0.3863  0.3164  0.2461
  892MPD2     H13129   4.519   3.560  14.697 -1.7329 -2.0835  0.5715
  892MPD2    H113130   0.055   3.407  14.992 -0.3264  0.2502 -0.6489
  892MPD2    H213131   4.541   3.727  15.093  0.6832  1.7310 -1.0054
  892MPD2    H313132   4.721   3.587  15.147 -2.2330  2.0153  0.8226
  892MPD2     N13133   4.718   3.361  14.750  0.0879 -0.3825 -0.5744
  892MPD2    H513134   0.072   3.320  14.769  0.5593  1.0945  0.2673
  892MPD2    N113135   4.403   3.730  14.854 -0.0374 -0.2797 -0.2388
  892MPD2    H713136   4.354   3.718  14.766 -0.9035  0.5494  0.1358
  893MPD2     C13137   1.301   1.577   1.529 -0.3212 -0.1325  0.1353
  893MPD2    C113138   1.219   1.688   1.486  0.1434 -0.1575 -0.1360
  893MPD2    C213139   1.087   1.696   1.526 -0.4169 -0.1345  0.2079
  893MPD2    C313140   1.032   1.590   1.599  0.1267 -0.5328  0.5744
  893MPD2    C413141   1.110   1.485   1.637  0.1954  0.5636 -0.2029
  893MPD2    C513142   1.239   1.481   1.611 -0.9814 -1.2002 -0.4675
  893MPD2     H13143   1.025   1.772   1.480 -0.6083  0.4496  1.4202
  893MPD2    H113144   1.075   1.409   1.706  2.6669 -1.5979 -1.3037
  893MPD2    H213145   1.408   1.570   1.510 -0.9580  0.0441 -3.6377
  893MPD2    H313146   1.282   1.393   1.658  0.7548 -0.7622 -1.2196
  893MPD2     N13147   0.896   1.576   1.632  0.2717  1.0178  0.1680
  893MPD2    H513148   0.875   1.490   1.683 -2.4060  1.5507 -0.0106
  893MPD2    N113149   1.281   1.787   1.407 -0.6371  0.1499  0.2168
  893MPD2    H713150   1.380   1.778   1.386 -0.9556 -1.0161 -0.8006
  894MPD2     C13151   4.635   4.212   1.019 -0.0040  0.0266  0.1679
  894MPD2    C113152   4.602   4.299   1.129  0.4826  0.6530 -0.2504
  894MPD2    C213153   4.647   4.428   1.114  0.2322 -0.0066  0.0467
  894MPD2    C313154   0.001   4.467   1.016  0.1098 -0.4968 -0.4847
  894MPD2    C413155   0.041   4.371   0.926  0.1074  0.4097 -0.2725
  894MPD2    C513156   4.716   4.251   0.921 -1.0615 -1.0517 -0.6485
  894MPD2     H13157   4.607   4.505   1.179 -1.0305  0.4950 -1.3173
  894MPD2    H113158   0.116   4.389   0.850  0.8286  0.1758  0.3921
  894MPD2    H213159   4.594   4.111   1.020  1.4011 -0.5503 -0.4037
  894MPD2    H313160   0.006   4.173   0.850  0.6617  0.9773 -2.2358
  894MPD2     N13161   0.046   4.600   1.028  0.1478  0.0130 -0.3386
  894MPD2    H513162   0.003   4.665   1.093 -0.6594 -2.8722  2.0084
  894MPD2    N113163   4.517   4.257   1.235  0.7610 -0.4122  0.2819
  894MPD2    H713164   4.490   4.325   1.305 -3.5345 -2.2997  0.4990
  895MPD2     C13165   3.430   2.674  14.380  0.0661  0.1015  0.6654
  895MPD2    C113166   3.443   2.674  14.246  0.7181  0.2468  0.0060
  895MPD2    C213167   3.557   2.655  14.184  0.0363  0.9273  0.7430
  895MPD2    C313168   3.675   2.638  14.263 -0.1162 -0.1017 -0.4308
  895MPD2    C413169   3.670   2.634  14.396  0.3725  0.2097  0.3653
  895MPD2    C513170   3.547   2.653  14.453  0.1816  0.0123  0.3280
  895MPD2     H13171   3.565   2.668  14.077 -0.0136  0.2107  0.6586
  895MPD2    H113172   3.760   2.644  14.455  1.5793 -0.1068 -1.4143
  895MPD2    H213173   3.337   2.687  14.435 -1.0019  0.0790 -1.1447
  895MPD2    H313174   3.548   2.657  14.561 -0.3675  0.1897  0.3297
  895MPD2     N13175   3.790   2.625  14.182 -0.0257 -0.3458 -0.0339
  895MPD2    H513176   3.770   2.615  14.083 -0.0046 -0.1994 -0.0537
  895MPD2    N113177   3.330   2.688  14.159 -0.9811 -0.5133 -0.8672
  895MPD2    H713178   3.354   2.663  14.064  0.9810 -0.3036 -0.4225
  896MPD2     C13179   1.823   0.499   1.188 -0.5989  0.2200 -1.2362
  896MPD2    C113180   1.738   0.524   1.083 -0.1080 -0.5063 -0.2249
  896MPD2    C213181   1.608   0.499   1.102  0.3009  0.7121 -0.1077
  896MPD2    C313182   1.551   0.453   1.219  0.3257  0.3844  0.5862
  896MPD2    C413183   1.634   0.441   1.326  0.3208  0.5320  0.6817
  896MPD2    C513184   1.770   0.464   1.307  0.1402  0.1362 -0.4815
  896MPD2     H13185   1.545   0.500   1.014 -1.5242  1.5815  1.2265
  896MPD2    H113186   1.608   0.398   1.422  1.3875  0.6502  1.0242
  896MPD2    H213187   1.928   0.505   1.161 -0.1401 -0.1687  0.4935
  896MPD2    H313188   1.843   0.463   1.387 -0.8639 -2.4043  0.4090
  896MPD2     N13189   1.413   0.425   1.223  0.1490  0.3030 -0.1309
  896MPD2    H513190   1.359   0.426   1.136  1.8442 -1.0089 -1.1944
  896MPD2    N113191   1.795   0.563   0.954  0.0104  0.5855  0.2184
  896MPD2    H713192   1.891   0.593   0.962  0.6211 -1.3022 -0.0364
  897MPD2     C13193   2.488   2.292  10.829 -0.3083  0.5998 -0.2673
  897MPD2    C113194   2.394   2.228  10.752  0.0236  0.4441  0.2123
  897MPD2    C213195   2.320   2.133  10.822 -0.6267  0.6815 -0.3986
  897MPD2    C313196   2.337   2.107  10.957  0.3668  0.4427  0.2560
  897MPD2    C413197   2.423   2.183  11.038  0.1275  0.3911  0.2412
  897MPD2    C513198   2.502   2.268  10.963 -0.3991  0.6072  0.3385
  897MPD2     H13199   2.262   2.060  10.766 -0.1802 -1.1520  1.4972
  897MPD2    H113200   2.437   2.167  11.144  1.6557  0.3441  0.0221
  897MPD2    H213201   2.551   2.368  10.784  3.0396 -1.8636  0.2158
  897MPD2    H313202   2.577   2.327  11.015  3.1251 -2.6971 -0.9608
  897MPD2     N13203   2.250   2.019  11.017  1.4659  0.0470  0.2172
  897MPD2    H513204   2.173   1.982  10.962  1.8391 -1.5683  0.7738
  897MPD2    N113205   2.367   2.250  10.614  0.0481  0.0273  0.2418
  897MPD2    H713206   2.287   2.201  10.574 -1.0082  0.2123  2.1198
  898MPD2     C13207   4.150   2.706   0.067 -0.4297  0.1596 -0.2596
  898MPD2    C113208   4.257   2.739   0.151 -0.0597  0.4088 -0.3550
  898MPD2    C213209   4.313   2.862   0.154 -0.9101 -0.0656  0.6773
  898MPD2    C313210   4.253   2.957   0.078  0.0243  1.0284  0.4034
  898MPD2    C413211   4.147   2.932  17.735  0.0769  0.1469  0.2822
  898MPD2    C513212   4.097   2.803  17.733 -0.4730 -0.3423 -1.2009
  898MPD2     H13213   4.409   2.877   0.202 -0.5946 -0.3307  0.1276
  898MPD2    H113214   4.090   3.009  17.685 -0.3700 -0.9075 -0.8446
  898MPD2    H213215   4.101   2.610   0.072 -0.1488 -0.0047 -0.6800
  898MPD2    H313216   4.004   2.782  17.680 -1.4606 -0.6168  0.6614
  898MPD2     N13217   4.308   3.091   0.082 -0.0003  0.7346 -0.3046
  898MPD2    H513218   4.384   3.100   0.148 -0.4648 -0.4036  0.3837
  898MPD2    N113219   4.323   2.644   0.226  0.0172 -0.0032 -0.8734
  898MPD2    H713220   4.406   2.680   0.272 -1.0686 -0.0416  1.1102
  899MPD2     C13221   0.731   3.418  17.193 -0.7418 -0.6697 -0.7887
  899MPD2    C113222   0.715   3.545  17.253 -0.0245 -0.0031  0.2739
  899MPD2    C213223   0.700   3.562  17.386  0.3970  0.1556 -0.0922
  899MPD2    C313224   0.690   3.447  17.462  0.3679 -0.3926 -0.2060
  899MPD2    C413225   0.694   3.321  17.407  0.4696 -0.1056 -0.5500
  899MPD2    C513226   0.728   3.312  17.276 -0.5739  0.3170  0.0746
  899MPD2     H13227   0.667   3.657  17.426  0.4657 -0.3503  1.1742
  899MPD2    H113228   0.672   3.229  17.460 -4.2672  2.0890  1.2711
  899MPD2    H213229   0.730   3.407  17.085  0.1257 -2.6533 -0.5863
  899MPD2    H313230   0.720   3.218  17.224  2.2985  1.1265 -1.8323
  899MPD2     N13231   0.642   3.456  17.600 -0.3824  0.3256  0.3292
  899MPD2    H513232   0.642   3.366  17.649 -2.5575  2.0421  3.5124
  899MPD2    N113233   0.702   3.648  17.158  0.1342 -0.1025  0.6190
  899MPD2    H713234   0.690   3.616  17.062  4.3018 -2.7886  0.9855
  900MPD2     C13235   0.251   4.622  12.625  1.7660  0.0212 -0.4488
  900MPD2    C113236   0.165   4.540  12.559 -0.2490 -0.5660  0.3489
  900MPD2    C213237   0.058   4.599  12.487  0.0148 -0.0923  0.4819
  900MPD2    C313238   0.057   4.733  12.463  0.0143  1.0143 -0.4987
  900MPD2    C413239   0.153   0.076  12.526  0.0584 -0.1447 -0.7776
  900MPD2    C513240   0.243   0.021  12.607 -0.1198 -0.0984 -0.5338
  900MPD2     H13241   4.720   4.543  12.432  3.0641  0.6202 -4.4556
  900MPD2    H113242   0.149   0.183  12.510 -1.2819  0.2101  1.8582
  900MPD2    H213243   0.335   4.581  12.680  1.8169 -1.1662 -1.4104
  900MPD2    H313244   0.325   0.076  12.650 -1.3443  0.9928  0.4097
  900MPD2     N13245   4.696   0.047  12.377 -0.1256 -0.1357 -0.0029
  900MPD2    H513246   4.625   4.718  12.347  0.1110  0.7504 -2.5133
  900MPD2    N113247   0.188   4.400  12.580 -0.3539  0.0672  0.0838
  900MPD2    H713248   0.257   4.369  12.648  2.5619  5.0813 -0.6054
  901MPD2     C13249   0.112   3.375  12.883 -0.2210  0.6289 -0.3703
  901MPD2    C113250   0.206   3.380  12.775  0.0379  0.0799 -0.0210
  901MPD2    C213251   0.216   3.495  12.695  0.7397  0.5075  0.5353
  901MPD2    C313252   0.130   3.598  12.707 -0.9539  0.3692 -0.6379
  901MPD2    C413253   0.034   3.589  12.806  0.2039  0.3239  0.4094
  901MPD2    C513254   0.030   3.478  12.892  0.3866  0.8069  0.0569
  901MPD2     H13255   0.284   3.502  12.610  0.0990 -0.3965 -0.0606
  901MPD2    H113256   4.711   3.676  12.831  0.4073  0.8649 -0.9887
  901MPD2    H213257   0.118   3.300  12.961  0.8671  1.2856  0.1805
  901MPD2    H313258   4.697   3.474  12.975  2.0728  1.6948  1.5161
  901MPD2     N13259   0.158   3.709  12.628  0.0371  0.5532 -0.4800
  901MPD2    H513260   0.229   3.697  12.557  0.9486  3.1701  0.0040
  901MPD2    N113261   0.280   3.268  12.737 -0.8060  0.0778 -0.1791
  901MPD2    H713262   0.274   3.187  12.799  0.1448 -0.5734 -0.9391
  902MPD2     C13263   3.976   2.297  12.869 -1.0313  0.5789 -0.0939
  902MPD2    C113264   4.047   2.387  12.801 -0.2759  0.1590 -0.4159
  902MPD2    C213265   4.170   2.345  12.757 -0.0230 -0.0153 -0.0769
  902MPD2    C313266   4.219   2.215  12.768 -0.3596  0.1608 -0.7708
  902MPD2    C413267   4.132   2.125  12.831  0.1146  0.4592 -0.2154
  902MPD2    C513268   4.018   2.167  12.890  0.4311 -0.1336 -0.5637
  902MPD2     H13269   4.238   2.413  12.705  1.0826 -1.6859 -0.8049
  902MPD2    H113270   4.147   2.019  12.850  2.4566  0.6640 -0.8293
  902MPD2    H213271   3.895   2.330  12.932 -1.8808 -0.0639 -0.8452
  902MPD2    H313272   3.964   2.094  12.949  1.0253  0.6379  0.9323
  902MPD2     N13273   4.331   2.168  12.698 -0.0147 -0.3117 -0.1204
  902MPD2    H513274   4.322   2.072  12.665  2.1225  0.0680 -1.7908
  902MPD2    N113275   3.984   2.511  12.776  0.4767  0.7635 -0.0767
  902MPD2    H713276   3.894   2.527  12.820  1.1769  2.0033  0.9032
  903MPD2     C13277   4.095   2.649  12.267 -0.4808  0.4339  0.2332
  903MPD2    C113278   4.108   2.524  12.328 -0.1188 -0.5770  0.0740
  903MPD2    C213279   3.996   2.473  12.386  0.5345 -0.2481  0.2682
  903MPD2    C313280   3.872   2.525  12.370  0.3643  0.7748  0.2658
  903MPD2    C413281   3.860   2.645  12.309 -0.1806  0.6138  1.4314
  903MPD2    C513282   3.969   2.708  12.259 -0.5699  0.1002  0.4502
  903MPD2     H13283   4.002   2.389  12.454  1.9133  0.0234  0.4707
  903MPD2    H113284   3.765   2.695  12.292  0.2956  1.4750  1.3142
  903MPD2    H213285   4.177   2.702  12.220 -0.1927  1.0606  1.4283
  903MPD2    H313286   3.964   2.806  12.212  0.8690  0.6277  1.4034
  903MPD2     N13287   3.761   2.452  12.428 -0.0563 -0.2066 -0.1390
  903MPD2    H513288   3.784   2.364  12.472 -0.8355  0.3841  1.4282
  903MPD2    N113289   4.228   2.455  12.345  0.1169 -0.3872 -0.0907
  903MPD2    H713290   4.229   2.378  12.411  2.0033 -0.6156 -0.4033
  904MPD2     C13291   3.439   1.627  14.071 -0.1076 -0.5974 -0.1520
  904MPD2    C113292   3.529   1.716  14.117 -0.0370 -0.0662  0.1809
  904MPD2    C213293   3.648   1.678  14.172  0.2021 -0.1601 -0.0179
  904MPD2    C313294   3.686   1.546  14.186  0.0717  0.2651 -0.1926
  904MPD2    C413295   3.589   1.456  14.147  0.3807 -0.8038  0.3135
  904MPD2    C513296   3.467   1.500  14.097  0.1861 -0.3058 -0.0611
  904MPD2     H13297   3.713   1.754  14.216  0.0685  0.0692 -0.2164
  904MPD2    H113298   3.603   1.349  14.160  0.8441 -0.6885  0.7493
  904MPD2    H213299   3.345   1.649  14.022 -1.2574 -0.5791  2.0698
  904MPD2    H313300   3.407   1.416  14.063  1.7007 -1.7024  0.7583
  904MPD2     N13301   3.807   1.499  14.246 -0.4568  0.1642 -0.2086
  904MPD2    H513302   3.852   1.573  14.299  0.0397 -0.8733  0.8252
  904MPD2    N113303   3.486   1.847  14.129 -0.6620  0.4629  0.7123
  904MPD2    H713304   3.538   1.906  14.193  1.1308 -1.1061  0.6810
  905MPD2     C13305   3.457   2.256  13.629  0.0792 -0.9044 -0.8027
  905MPD2    C113306   3.471   2.310  13.751  0.2607 -0.2829 -0.2100
  905MPD2    C213307   3.576   2.397  13.782 -1.2579 -0.3268  0.0815
  905MPD2    C313308   3.678   2.410  13.693  0.3817 -0.2539 -1.0430
  905MPD2    C413309   3.665   2.358  13.566 -0.2776  0.4175  0.0848
  905MPD2    C513310   3.553   2.284  13.534  0.2262 -0.5461 -0.0051
  905MPD2     H13311   3.596   2.427  13.884 -0.0767  0.1302 -0.2892
  905MPD2    H113312   3.722   2.380  13.476 -1.0476  0.9422 -0.2794
  905MPD2    H213313   3.369   2.198  13.602 -0.4767 -1.2075  1.6951
  905MPD2    H313314   3.537   2.237  13.437 -1.2662  1.8764 -0.9051
  905MPD2     N13315   3.798   2.463  13.721  0.4745  0.1072  0.0904
  905MPD2    H513316   3.876   2.453  13.658  0.2170  1.1434 -0.3966
  905MPD2    N113317   3.369   2.278  13.849  0.0131 -0.3484  0.4982
  905MPD2    H713318   3.296   2.211  13.826 -0.4419  1.2831 -2.7546
  906MPD2     C13319   0.920   1.514  11.377  0.4894 -0.4489 -0.2338
  906MPD2    C113320   0.873   1.500  11.243 -0.7060  0.8206  0.3728
  906MPD2    C213321   0.784   1.403  11.209  0.5891 -0.7043  0.3070
  906MPD2    C313322   0.739   1.321  11.306  0.0250  0.3938 -0.2424
  906MPD2    C413323   0.780   1.334  11.439 -0.0539  0.4075  0.3079
  906MPD2    C513324   0.869   1.430  11.475 -0.6833  0.0920  0.1311
  906MPD2     H13325   0.745   1.392  11.109  2.6241 -0.0708 -0.5527
  906MPD2    H113326   0.742   1.276  11.522 -0.9262  1.7471  0.8568
  906MPD2    H213327   0.984   1.596  11.406 -0.0068  0.4839 -1.7991
  906MPD2    H313328   0.922   1.437  11.570  1.4541  0.0702 -1.0498
  906MPD2     N13329   0.661   1.206  11.270  0.2411  0.1734  0.6766
  906MPD2    H513330   0.626   1.198  11.175 -0.6260 -1.5196  1.1424
  906MPD2    N113331   0.903   1.593  11.141 -0.6778  0.1029 -0.1294
  906MPD2    H713332   0.853   1.589  11.053  0.7560  1.6133 -1.0264
  907MPD2     C13333   4.671   1.425  15.983  0.1019  0.6203 -0.3520
  907MPD2    C113334   4.611   1.302  15.966  0.2826 -0.3656 -0.1282
  907MPD2    C213335   4.642   1.206  16.062 -0.0179 -0.1511 -0.0976
  907MPD2    C313336   4.731   1.228  16.170 -0.9598 -0.1770  0.4627
  907MPD2    C413337   0.054   1.350  16.179 -0.4894  0.6986  0.3248
  907MPD2    C513338   0.026   1.444  16.081 -1.1402  0.5479 -0.3685
  907MPD2     H13339   4.583   1.115  16.053 -0.0264  0.0198 -1.8616
  907MPD2    H113340   0.128   1.387  16.248  0.5772  1.8076 -1.4049
  907MPD2    H213341   4.661   1.503  15.909  1.3275  0.7044 -0.4286
  907MPD2    H313342   0.074   1.537  16.109 -0.7076  1.0338 -2.6834
  907MPD2     N13343   0.001   1.125  16.269  0.3473  0.3723  0.0193
  907MPD2    H513344   4.687   1.040  16.248  0.0586  1.1975 -2.5682
  907MPD2    N113345   4.526   1.273  15.854  0.6574  0.1454 -0.8362
  907MPD2    H713346   4.483   1.182  15.840 -0.8045  0.4848  1.4473
  908MPD2     C13347   1.909   1.721  10.174 -0.1141  0.0915  1.1931
  908MPD2    C113348   2.028   1.715  10.248  0.2966 -0.3377 -0.1415
  908MPD2    C213349   2.083   1.836  10.301 -0.1379 -0.0913 -0.5550
  908MPD2    C313350   2.017   1.959  10.283  0.1457  0.7379  0.0964
  908MPD2    C413351   1.901   1.961  10.210 -0.1112 -0.5034  0.5699
  908MPD2    C513352   1.861   1.846  10.152  0.1567 -0.3254  0.4108
  908MPD2     H13353   2.175   1.835  10.359  1.3096 -0.4775 -2.8827
  908MPD2    H113354   1.844   2.042  10.167  0.9968  0.8786  1.7036
  908MPD2    H213355   1.862   1.634  10.129  0.9852 -0.5141  1.2255
  908MPD2    H313356   1.782   1.862  10.079  0.4262  0.1119  0.2135
  908MPD2     N13357   2.072   2.079  10.340 -0.3645 -0.0100  0.1006
  908MPD2    H513358   2.153   2.072  10.402 -1.9640 -0.9483  2.0835
  908MPD2    N113359   2.090   1.586  10.272  0.3798  0.1976 -0.3825
  908MPD2    H713360   2.042   1.504  10.236  2.7428 -1.0259 -0.7277
  909MPD2     C13361   2.827   4.169  11.331 -0.4897  0.0406 -0.1398
  909MPD2    C113362   2.868   4.294  11.368  0.2729 -0.4590 -0.2477
  909MPD2    C213363   2.793   4.359  11.460  0.3216  0.3273  0.4237
  909MPD2    C313364   2.678   4.306  11.521 -0.4205  0.2661 -0.2256
  909MPD2    C413365   2.640   4.176  11.479  0.2467 -0.3197 -0.3985
  909MPD2    C513366   2.715   4.112  11.389 -0.0576  0.1208  0.2916
  909MPD2     H13367   2.807   4.464  11.484 -1.5378  0.7682 -0.3848
  909MPD2    H113368   2.552   4.128  11.520  0.3284 -2.0627 -2.3036
  909MPD2    H213369   2.878   4.127  11.245 -0.3038  1.1295 -0.5572
  909MPD2    H313370   2.689   4.014  11.351  0.3750  0.8980 -2.0408
  909MPD2     N13371   2.599   4.380  11.610  0.0898 -0.4391 -0.1070
  909MPD2    H513372   2.643   4.465  11.646  0.2200 -0.0444 -1.1985
  909MPD2    N113373   2.992   4.361  11.338  0.0057  0.0646 -0.6197
  909MPD2    H713374   3.006   4.456  11.370  0.1749 -0.0458 -0.3746
  910MPD2     C13375   4.116   2.371  16.533  0.2356  0.6282 -0.2086
  910MPD2    C113376   4.092   2.263  16.457 -0.0895  0.9837 -0.2473
  910MPD2    C213377   4.059   2.283  16.323  0.9176  0.2295  0.0821
  910MPD2    C313378   4.074   2.408  16.267 -0.3348  0.0053 -0.3825
  910MPD2    C413379   4.108   2.511  16.348  0.4859  0.3207 -0.1610
  910MPD2    C513380   4.137   2.495  16.478  0.0130 -0.2284  0.6133
  910MPD2     H13381   4.028   2.198  16.263  0.0005  0.0886  0.7566
  910MPD2    H113382   4.113   2.607  16.299  1.6516  0.6878  0.6666
  910MPD2    H213383   4.114   2.367  16.642 -2.2279  1.4965 -0.2225
  910MPD2    H313384   4.171   2.578  16.538  2.1226  0.6219 -1.7494
  910MPD2     N13385   4.041   2.429  16.130 -0.7831  0.7223  0.0378
  910MPD2    H513386   4.035   2.522  16.088  0.3863  0.3399 -0.9647
  910MPD2    N113387   4.075   2.126  16.503  0.2240  0.2199  0.0202
  910MPD2    H713388   4.054   2.063  16.427 -0.6620  1.0578 -0.4280
  911MPD2     C13389   1.937   2.389  16.642 -0.2611 -1.1247 -0.5390
  911MPD2    C113390   2.010   2.505  16.655 -0.1099  0.1661  0.7846
  911MPD2    C213391   1.985   2.611  16.566 -0.2874 -0.2613  0.0331
  911MPD2    C313392   1.889   2.589  16.468  0.3447 -0.1036  0.5766
  911MPD2    C413393   1.816   2.475  16.462 -0.8168  0.0281 -0.0716
  911MPD2    C513394   1.841   2.372  16.545 -0.2827 -0.8610 -0.0747
  911MPD2     H13395   2.045   2.702  16.566 -2.2714  1.0556 -0.0767
  911MPD2    H113396   1.749   2.451  16.381  0.6496 -0.3977 -1.1720
  911MPD2    H213397   1.963   2.302  16.702 -1.0048 -0.1581  1.2003
  911MPD2    H313398   1.792   2.275  16.535 -0.6620 -0.5158 -1.5548
  911MPD2     N13399   1.842   2.688  16.392  0.0580  0.5167 -0.1210
  911MPD2    H513400   1.774   2.658  16.323  0.5575 -0.5719 -0.1442
  911MPD2    N113401   2.125   2.511  16.734 -0.1873 -0.2527 -0.0807
  911MPD2    H713402   2.166   2.430  16.777 -0.2968 -2.3592 -3.9400
  912MPD2     C13403   1.442   2.632  15.742  0.0674  0.0503 -0.1569
  912MPD2    C113404   1.479   2.608  15.871 -0.5459  0.2539  0.0626
  912MPD2    C213405   1.470   2.485  15.919 -0.1531 -0.0205  0.3832
  912MPD2    C313406   1.434   2.379  15.840 -0.7847 -0.1257 -1.1555
  912MPD2    C413407   1.398   2.404  15.709  0.2208 -0.5013  0.0775
  912MPD2    C513408   1.406   2.528  15.666 -0.3391  0.4796 -0.0847
  912MPD2     H13409   1.518   2.448  16.009 -1.0038 -1.6565  0.1713
  912MPD2    H113410   1.357   2.326  15.645 -1.7045 -0.8956  1.8201
  912MPD2    H213411   1.434   2.728  15.691 -1.1828 -0.1694 -0.3736
  912MPD2    H313412   1.386   2.544  15.560  0.6349 -0.1049 -0.3582
  912MPD2     N13413   1.414   2.256  15.902  0.4133  0.1736 -0.6042
  912MPD2    H513414   1.415   2.262  16.004 -2.3190  0.0585 -0.5751
  912MPD2    N113415   1.514   2.721  15.952 -0.0233  0.0408 -0.0485
  912MPD2    H713416   1.518   2.812  15.907  1.4881  0.0240  0.0315
  913MPD2     C13417   2.161   2.948  11.509  0.5291  0.6166  0.6637
  913MPD2    C113418   2.232   3.000  11.408  0.8579 -0.9165 -0.2288
  913MPD2    C213419   2.174   3.060  11.306  0.6929 -0.1440 -0.3655
  913MPD2    C313420   2.033   3.060  11.295 -0.2123 -0.0240  0.0931
  913MPD2    C413421   1.958   2.998  11.398 -0.3349  0.3155 -0.0605
  913MPD2    C513422   2.027   2.946  11.503 -0.3258 -0.0921  0.1414
  913MPD2     H13423   2.236   3.092  11.223  0.1668 -0.1705 -0.7680
  913MPD2    H113424   1.852   2.992  11.377 -0.0585 -1.0278 -1.0304
  913MPD2    H213425   2.208   2.904  11.596 -1.8831 -1.9152  0.6791
  913MPD2    H313426   1.974   2.899  11.585 -1.8225 -0.7893 -1.2362
  913MPD2     N13427   1.964   3.105  11.183  0.1851  0.2262  0.8837
  913MPD2    H513428   1.863   3.095  11.182  0.4957 -2.8961  0.3623
  913MPD2    N113429   2.377   2.993  11.431 -0.1395 -0.0438  0.2946
  913MPD2    H713430   2.410   2.940  11.512 -1.8405 -2.4115 -0.5773
  914MPD2     C13431   4.596   2.832  12.035  1.0808 -0.1935 -0.9725
  914MPD2    C113432   4.633   2.967  12.054 -0.0758 -0.6540  0.3601
  914MPD2    C213433   4.724   2.993  12.150  0.3314 -0.4844  0.1064
  914MPD2    C313434   0.036   2.888  12.239  1.1058 -0.4774  0.1086
  914MPD2    C413435   4.709   2.764  12.235 -0.2708  0.3191 -0.3997
  914MPD2    C513436   4.628   2.730  12.130  0.0979 -0.2218  0.6719
  914MPD2     H13437   0.033   3.092  12.150 -2.6428  0.8934  2.2739
  914MPD2    H113438   0.002   2.682  12.300  0.4362 -1.3950 -2.8987
  914MPD2    H213439   4.514   2.812  11.967  0.7370 -1.7546 -0.0964
  914MPD2    H313440   4.582   2.632  12.138 -0.4530 -0.2881 -3.2272
  914MPD2     N13441   0.133   2.923  12.336  0.7836  0.4001 -0.2252
  914MPD2    H513442   0.166   3.019  12.336 -0.0892  0.6898  1.1946
  914MPD2    N113443   4.576   3.068  11.971  0.2914 -0.1086 -0.4269
  914MPD2    H713444   4.523   3.043  11.889 -1.9401 -0.4094  1.0987
  915MPD2     C13445   2.713   4.233  15.563  0.6677 -0.1208  1.1839
  915MPD2    C113446   2.594   4.212  15.623 -0.3516  0.7224 -0.2288
  915MPD2    C213447   2.572   4.273  15.746 -0.4436 -0.1885 -0.0873
  915MPD2    C313448   2.672   4.347  15.807 -0.0073 -0.2262  0.2690
  915MPD2    C413449   2.803   4.349  15.751 -0.0954 -0.2920  0.1086
  915MPD2    C513450   2.819   4.290  15.627 -0.0613 -0.5638  0.4739
  915MPD2     H13451   2.480   4.263  15.802 -0.4104  0.4645  0.0831
  915MPD2    H113452   2.878   4.400  15.811  1.2853  0.1188 -1.9474
  915MPD2    H213453   2.736   4.181  15.471  0.2654 -1.2898  1.7478
  915MPD2    H313454   2.919   4.296  15.588  0.4554 -0.3077  1.8241
  915MPD2     N13455   2.647   4.400  15.937  0.2383  0.6691 -0.5820
  915MPD2    H513456   2.560   4.369  15.979  0.2518  0.3378 -0.7956
  915MPD2    N113457   2.487   4.142  15.561 -0.0905  0.0617  0.5278
  915MPD2    H713458   2.492   4.127  15.461 -1.5423 -2.5610  0.8635
  916MPD2     C13459   0.997   2.316  16.022 -0.0352 -0.7218  0.4970
  916MPD2    C113460   0.968   2.209  16.099  0.0212 -0.0695 -0.3876
  916MPD2    C213461   0.975   2.083  16.039  0.1886  0.0200  0.0222
  916MPD2    C313462   0.994   2.071  15.904  0.0315  0.0544 -0.1878
  916MPD2    C413463   1.036   2.181  15.830  0.5979  0.1714  0.8482
  916MPD2    C513464   1.035   2.296  15.893 -0.2405  0.4815  0.5348
  916MPD2     H13465   0.966   1.985  16.087  0.8593  0.3880  0.8983
  916MPD2    H113466   1.068   2.181  15.726 -0.7095  2.2506  0.4538
  916MPD2    H213467   0.997   2.415  16.067 -2.2692 -0.8713  0.7837
  916MPD2    H313468   1.072   2.381  15.837  0.8736  0.4089  1.1635
  916MPD2     N13469   0.979   1.938  15.849  0.0722 -0.1842 -0.0251
  916MPD2    H513470   0.962   1.861  15.913  0.6295  0.6984  1.1792
  916MPD2    N113471   0.952   2.230  16.237 -0.3972  0.4867 -0.7419
  916MPD2    H713472   0.949   2.325  16.273 -0.1573  1.4432 -3.2164
  917MPD2     C13473   0.811   3.780  10.943 -0.2434  0.1301  0.6387
  917MPD2    C113474   0.856   3.860  11.046 -0.9008 -0.8337  1.1335
  917MPD2    C213475   0.895   3.990  11.010 -0.0659  0.3225 -0.0453
  917MPD2    C313476   0.881   4.046  10.885  0.1095 -0.2392 -1.3243
  917MPD2    C413477   0.821   3.967  10.790  0.7333  0.0666  0.4275
  917MPD2    C513478   0.788   3.838  10.824 -0.1105  0.4838 -0.3762
  917MPD2     H13479   0.927   4.058  11.089 -0.7702  1.0552 -0.3894
  917MPD2    H113480   0.799   4.008  10.692 -1.8049 -4.0440 -0.6723
  917MPD2    H213481   0.778   3.679  10.960  2.6594 -1.3327 -2.2764
  917MPD2    H313482   0.727   3.787  10.750  1.1368 -0.5796 -0.6733
  917MPD2     N13483   0.927   4.177  10.851 -0.4697 -0.4817 -0.1568
  917MPD2    H513484   0.901   4.201  10.756 -2.3318  1.0876  0.7450
  917MPD2    N113485   0.849   3.803  11.180 -0.3431 -0.0659  0.2485
  917MPD2    H713486   0.819   3.706  11.184  1.2953 -0.6567 -1.5871
  918MPD2     C13487   1.156   4.252  12.084 -0.2234 -0.7260  0.5635
  918MPD2    C113488   1.239   4.225  11.974 -0.5973 -0.5800  0.7702
  918MPD2    C213489   1.178   4.139  11.875  0.9186 -0.3444  0.4071
  918MPD2    C313490   1.056   4.081  11.884  0.1926 -0.4691  0.3485
  918MPD2    C413491   0.982   4.101  11.996  0.6694  0.0170 -0.0802
  918MPD2    C513492   1.035   4.185  12.092 -0.1690 -0.0747 -0.3575
  918MPD2     H13493   1.238   4.093  11.797  2.0987  0.6996  0.7102
  918MPD2    H113494   0.887   4.052  12.016 -0.6844  1.5236 -2.8255
  918MPD2    H213495   1.189   4.300  12.175  2.8685 -1.0732 -0.3488
  918MPD2    H313496   0.981   4.186  12.186  0.7543  0.4521  0.1691
  918MPD2     N13497   1.002   4.007  11.773  0.1027 -0.2076  0.3061
  918MPD2    H513498   1.051   4.008  11.684 -1.8528  0.8571 -0.7693
  918MPD2    N113499   1.377   4.262  11.957  0.7677  0.2354  0.1220
  918MPD2    H713500   1.423   4.213  11.881 -0.8545 -0.3744 -0.4816
  919MPD2     C13501   1.807   3.122  11.748  0.4693 -0.7015 -0.2828
  919MPD2    C113502   1.718   3.018  11.754  0.6149  0.3243  0.5075
  919MPD2    C213503   1.604   3.017  11.673  0.4477 -0.4750  0.6058
  919MPD2    C313504   1.581   3.123  11.586  0.2849 -1.0501 -0.2985
  919MPD2    C413505   1.663   3.232  11.585  0.7416  0.8935 -0.1302
  919MPD2    C513506   1.756   3.232  11.679  0.1849 -0.6567 -0.7330
  919MPD2     H13507   1.534   2.935  11.687 -1.1059  0.8938  0.8564
  919MPD2    H113508   1.635   3.318  11.526  1.0499  0.3781 -1.0229
  919MPD2    H213509   1.893   3.131  11.814 -0.4731 -0.6459  0.9358
  919MPD2    H313510   1.821   3.319  11.681  0.7406 -1.1002  0.2906
  919MPD2     N13511   1.480   3.122  11.485  0.2323 -0.5022  0.0955
  919MPD2    H513512   1.493   3.195  11.415 -1.5853 -0.5245 -0.2558
  919MPD2    N113513   1.738   2.900  11.842  0.6149 -0.4148  0.0021
  919MPD2    H713514   1.659   2.838  11.855  3.2052 -3.6039  0.5345
  920MPD2     C13515   1.339   3.444  10.539  0.4522  0.0603  0.3995
  920MPD2    C113516   1.259   3.335  10.548  0.1310 -0.4640 -0.1047
  920MPD2    C213517   1.249   3.263  10.661 -0.4308 -0.4858 -0.3650
  920MPD2    C313518   1.331   3.287  10.776 -0.2343 -0.6449  0.4639
  920MPD2    C413519   1.399   3.410  10.772  0.4040  0.1732 -0.3911
  920MPD2    C513520   1.405   3.484  10.658  0.2096 -0.7259 -0.0469
  920MPD2     H13521   1.191   3.172  10.659 -1.0867 -0.0971  0.8314
  920MPD2    H113522   1.456   3.444  10.858  0.0340  1.1710 -0.5492
  920MPD2    H213523   1.349   3.509  10.453 -2.6555  0.5822  0.4479
  920MPD2    H313524   1.455   3.580  10.662  1.2710 -1.2833 -0.0328
  920MPD2     N13525   1.321   3.197  10.889 -0.4039  0.2896 -0.2161
  920MPD2    H513526   1.267   3.112  10.878  0.8967 -0.5670 -0.1164
  920MPD2    N113527   1.188   3.291  10.429  0.3537 -0.1726 -0.0561
  920MPD2    H713528   1.142   3.200  10.434 -0.4603  0.1492 -1.8575
  921MPD2     C13529   2.967   3.098  16.900  0.2077 -0.4555 -1.0604
  921MPD2    C113530   2.944   3.026  16.784  0.6421 -0.7650 -0.0301
  921MPD2    C213531   2.831   2.945  16.792  0.5327  0.1513  0.5454
  921MPD2    C313532   2.736   2.948  16.894  0.1617 -0.6787 -0.3185
  921MPD2    C413533   2.760   3.026  17.001  0.6194  0.4216 -0.0330
  921MPD2    C513534   2.881   3.098  17.007 -0.1924  0.0106 -0.3033
  921MPD2     H13535   2.794   2.874  16.719  1.4279 -0.3337  0.5722
  921MPD2    H113536   2.694   3.036  17.087 -0.0215 -2.2130 -0.2419
  921MPD2    H213537   3.045   3.173  16.906  1.3317 -1.7662  0.7304
  921MPD2    H313538   2.897   3.159  17.095 -0.2859 -1.2979  0.6175
  921MPD2     N13539   2.631   2.860  16.883 -1.0881 -0.1770 -0.8272
  921MPD2    H513540   2.630   2.794  16.807  2.2437 -0.2171 -0.8372
  921MPD2    N113541   3.035   3.027  16.677 -1.0688 -0.2500 -0.2113
  921MPD2    H713542   3.116   3.086  16.694 -1.9375  0.9222 -0.1717
  922MPD2     C13543   3.659   0.965  17.352 -1.0178  0.3134 -0.2478
  922MPD2    C113544   3.616   0.973  17.484  0.0273  0.2431 -0.7427
  922MPD2    C213545   3.568   0.856  17.546 -0.6066  0.0454 -0.4394
  922MPD2    C313546   3.558   0.732  17.483 -0.5038  0.7060 -0.1899
  922MPD2    C413547   3.619   0.722  17.357  0.5032  0.5965 -0.0491
  922MPD2    C513548   3.660   0.841  17.292  0.6662  0.3918 -0.3527
  922MPD2     H13549   3.536   0.869  17.649 -0.7672  1.4055 -0.6566
  922MPD2    H113550   3.632   0.628  17.303  1.4647  0.4329  0.4534
  922MPD2    H213551   3.674   1.058  17.299  0.6117 -0.7543 -1.6622
  922MPD2    H313552   3.712   0.833  17.197  1.3052 -3.5494  0.3305
  922MPD2     N13553   3.495   0.630  17.547  0.2935  0.4637 -0.1835
  922MPD2    H513554   3.464   0.645  17.643  0.6774 -4.8985  0.8066
  922MPD2    N113555   3.597   1.095  17.551 -0.5049 -0.6910 -0.1377
  922MPD2    H713556   3.564   1.081  17.646 -3.9608  0.9645 -1.0941
  923MPD2     C13557   4.047   2.316   8.793 -0.1089  0.0631 -0.8329
  923MPD2    C113558   4.099   2.448   8.793 -0.1731  0.0478 -0.1311
  923MPD2    C213559   4.230   2.462   8.808 -0.3368  0.0342 -0.1644
  923MPD2    C313560   4.321   2.362   8.831  0.4965  0.0451  0.5188
  923MPD2    C413561   4.271   2.241   8.830  0.1163 -0.0853 -0.1538
  923MPD2    C513562   4.142   2.214   8.796  0.0668  0.1679 -0.5950
  923MPD2     H13563   4.264   2.565   8.810 -0.1775 -0.0080 -0.6471
  923MPD2    H113564   4.341   2.160   8.844 -0.2145 -0.1661  0.9674
  923MPD2    H213565   3.944   2.291   8.768 -0.6101  1.2325  0.0804
  923MPD2    H313566   4.098   2.115   8.801  0.3910 -0.0016 -1.0505
  923MPD2     N13567   4.455   2.382   8.884 -0.0241 -0.0896 -0.1466
  923MPD2    H513568   4.494   2.307   8.941  0.0468 -0.6755 -0.9676
  923MPD2    N113569   4.005   2.558   8.792 -0.6466  0.0651 -0.3266
  923MPD2    H713570   3.910   2.529   8.769 -1.3410  0.7885  1.6269
  924MPD2     C13571   4.477   0.354  16.573  0.4297 -0.2439  0.6165
  924MPD2    C113572   4.461   0.438  16.468  1.0855 -0.2479  0.5554
  924MPD2    C213573   4.575   0.502  16.414 -0.4695 -0.6291 -0.3115
  924MPD2    C313574   4.695   0.487  16.482 -0.1361  0.7246  0.0081
  924MPD2    C413575   4.708   0.394  16.583  0.0249  0.4437 -0.0667
  924MPD2    C513576   4.601   0.323  16.623 -0.7776  0.2160  0.0977
  924MPD2     H13577   4.569   0.569  16.329 -1.0503  0.5680  0.6763
  924MPD2    H113578   0.064   0.386  16.638 -0.4450  0.6517  0.7664
  924MPD2    H213579   4.397   0.300  16.622  0.3408 -0.9865 -0.3438
  924MPD2    H313580   4.613   0.249  16.701  1.8171 -0.6034 -1.0817
  924MPD2     N13581   0.073   0.561  16.449  0.0786  0.4359 -0.0224
  924MPD2    H513582   0.153   0.547  16.510  0.0436  2.1065  0.4176
  924MPD2    N113583   4.329   0.457  16.423  0.0810 -1.0955 -0.0543
  924MPD2    H713584   4.255   0.415  16.478 -1.0739 -0.7861 -1.3702
  925MPD2     C13585   3.830   2.925  14.642 -0.3490  0.0862  0.2482
  925MPD2    C113586   3.716   2.993  14.601  0.9223 -0.1463  0.1725
  925MPD2    C213587   3.633   3.061  14.685  0.2302 -0.3928  0.1098
  925MPD2    C313588   3.665   3.048  14.822  0.0817  0.7398  0.1360
  925MPD2    C413589   3.763   2.963  14.861 -0.5528 -0.0537 -0.6799
  925MPD2    C513590   3.843   2.905  14.773 -0.0750  0.2419  0.6842
  925MPD2     H13591   3.547   3.119  14.651  0.3239  0.3855  1.2039
  925MPD2    H113592   3.784   2.959  14.967  3.1436 -0.9221 -1.4615
  925MPD2    H213593   3.895   2.870  14.575  0.1078 -1.5935  2.0762
  925MPD2    H313594   3.929   2.844  14.799  1.1980  1.5823 -0.3903
  925MPD2     N13595   3.609   3.130  14.923  0.3095  0.3577 -0.0254
  925MPD2    H513596   3.638   3.101  15.016 -0.3481 -1.2770 -0.3180
  925MPD2    N113597   3.693   3.001  14.465 -0.2454  0.0116 -0.0643
  925MPD2    H713598   3.606   3.047  14.441 -0.1662  1.5117  2.4471
  926MPD2     C13599   2.625   1.183  13.839  0.1637  0.6746 -0.5241
  926MPD2    C113600   2.537   1.275  13.781 -0.1284  0.3652 -0.0016
  926MPD2    C213601   2.574   1.360  13.677  0.6609 -0.6673  0.0014
  926MPD2    C313602   2.702   1.352  13.635 -0.5374 -0.1352  0.0496
  926MPD2    C413603   2.794   1.270  13.707  0.0191 -0.6590 -0.1390
  926MPD2    C513604   2.751   1.176  13.802 -0.2367 -0.8747  0.5334
  926MPD2     H13605   2.496   1.422  13.634 -0.1937 -1.4868  0.3747
  926MPD2    H113606   2.901   1.275  13.694  0.0596  0.7548  0.7929
  926MPD2    H213607   2.595   1.115  13.918 -0.3066  2.4657  0.8275
  926MPD2    H313608   2.815   1.102  13.849  2.7213  0.5344 -1.2360
  926MPD2     N13609   2.752   1.437  13.535 -0.1235  0.2388 -0.3728
  926MPD2    H513610   2.850   1.431  13.510  0.3503  1.9378  1.0617
  926MPD2    N113611   2.406   1.284  13.827  0.0980 -0.3137  0.1681
  926MPD2    H713612   2.340   1.323  13.761 -0.2370  0.5414  1.0096
  927MPD2     C13613   2.641   3.923   0.402  0.9921  0.4736  0.2711
  927MPD2    C113614   2.511   3.895   0.367 -0.0893 -0.1688  0.0663
  927MPD2    C213615   2.476   3.904   0.234 -0.1084 -0.4743 -0.2579
  927MPD2    C313616   2.563   3.939   0.132 -0.6926  0.4046 -0.1049
  927MPD2    C413617   2.692   3.975   0.171  1.3849 -0.2838 -0.5057
  927MPD2    C513618   2.723   3.967   0.304  0.0109  0.4821  0.3572
  927MPD2     H13619   2.373   3.881   0.209 -0.1712 -3.1167  2.4941
  927MPD2    H113620   2.763   4.009   0.097  1.0310  0.1810 -0.6386
  927MPD2    H213621   2.666   3.921   0.507 -1.5662 -2.9504  0.7873
  927MPD2    H313622   2.824   3.989   0.335  0.2826  0.6594 -0.6480
  927MPD2     N13623   2.514   3.942  17.746  0.1561  0.2320 -0.9531
  927MPD2    H513624   2.415   3.934  17.726 -0.0223 -0.7575  0.3289
  927MPD2    N113625   2.428   3.867   0.476  0.2812 -0.0681 -0.7241
  927MPD2    H713626   2.479   3.871   0.564 -1.6502 -0.7101  0.4349
  928MPD2     C13627   4.488   1.693   0.811 -0.0562  0.4910 -0.2152
  928MPD2    C113628   4.474   1.827   0.845 -0.0483 -0.5793  0.1358
  928MPD2    C213629   4.555   1.920   0.787  0.4414 -0.2632  0.2222
  928MPD2    C313630   4.644   1.880   0.687  0.5081  0.0282  0.0431
  928MPD2    C413631   4.642   1.751   0.641 -0.9120 -0.5340 -0.1889
  928MPD2    C513632   4.560   1.663   0.707  1.0767 -0.2111  0.3918
  928MPD2     H13633   4.541   2.024   0.815 -0.6101 -0.7512  1.5550
  928MPD2    H113634   4.717   1.722   0.569 -1.3345  1.6040 -1.4762
  928MPD2    H213635   4.430   1.614   0.857  0.6934  0.0091 -0.0914
  928MPD2    H313636   4.567   1.559   0.678  1.3958 -0.1339  0.1890
  928MPD2     N13637   4.731   1.970   0.615  0.2314  0.4004 -0.4608
  928MPD2    H513638   0.043   1.928   0.537  0.3360  1.3155 -0.8850
  928MPD2    N113639   4.382   1.861   0.946  0.3594 -0.2156  0.2130
  928MPD2    H713640   4.312   1.792   0.972  0.6264 -0.0500  1.3753
  929MPD2     C13641   0.455   2.139   9.748  0.1544  0.7800 -0.4142
  929MPD2    C113642   0.320   2.108   9.757  0.5842  0.3141 -0.6052
  929MPD2    C213643   0.224   2.206   9.741  0.4474 -0.4149  0.0677
  929MPD2    C313644   0.256   2.323   9.686  0.0534 -0.4044  0.7507
  929MPD2    C413645   0.392   2.344   9.670 -0.7530 -0.5813  0.5620
  929MPD2    C513646   0.492   2.260   9.706 -0.6171 -0.6388 -0.6126
  929MPD2     H13647   0.118   2.184   9.741  0.6930 -1.5652  2.0148
  929MPD2    H113648   0.434   2.430   9.620 -0.5817 -2.5370 -2.6383
  929MPD2    H213649   0.535   2.066   9.752 -2.0546 -1.5033  2.5702
  929MPD2    H313650   0.598   2.279   9.693 -0.7256 -0.8624 -1.8695
  929MPD2     N13651   0.160   2.426   9.654  0.0628 -0.2726 -0.0251
  929MPD2    H513652   0.194   2.512   9.612  0.5713 -0.9919 -1.0915
  929MPD2    N113653   0.293   1.970   9.787 -0.5045  0.5674 -0.2939
  929MPD2    H713654   0.374   1.915   9.815  1.0794  2.7604 -0.6449
  930MPD2     C13655   2.304   4.245  13.918  0.0565  0.3316  0.2728
  930MPD2    C113656   2.426   4.273  13.856 -0.1012  0.7421  0.8713
  930MPD2    C213657   2.458   4.202  13.745 -0.3323  0.0166 -0.3387
  930MPD2    C313658   2.368   4.117  13.687 -0.3639 -0.1268 -0.3632
  930MPD2    C413659   2.246   4.091  13.742 -0.0167 -0.6043 -0.3975
  930MPD2    C513660   2.215   4.150  13.858  0.2769 -0.1197 -0.5435
  930MPD2     H13661   2.549   4.228  13.693  0.7690 -0.1810  1.4897
  930MPD2    H113662   2.174   4.020  13.703 -1.2472 -0.5848  1.8171
  930MPD2    H213663   2.268   4.286  14.012  2.3242  0.1273  1.2418
  930MPD2    H313664   2.117   4.128  13.897  0.9763 -1.9885  0.1716
  930MPD2     N13665   2.399   4.058  13.557 -0.6428 -0.1010  0.1686
  930MPD2    H513666   2.319   4.038  13.497 -1.3028  3.1642 -0.0432
  930MPD2    N113667   2.513   4.374  13.897  0.0182 -0.0902 -0.1740
  930MPD2    H713668   2.596   4.382  13.839  0.2685 -1.5289 -0.0296
  931MPD2     C13669   2.635   3.777   1.089 -0.1268 -0.1870 -0.1482
  931MPD2    C113670   2.523   3.709   1.056 -0.3733  1.4029  0.0350
  931MPD2    C213671   2.502   3.586   1.117  0.1130  0.2981  0.7786
  931MPD2    C313672   2.585   3.546   1.213 -0.3509 -0.1021 -0.1388
  931MPD2    C413673   2.701   3.617   1.229  0.2558 -0.7230  0.3642
  931MPD2    C513674   2.730   3.732   1.173  1.0650  0.4397 -0.1382
  931MPD2     H13675   2.402   3.543   1.113  0.8974 -1.4554  0.3154
  931MPD2    H113676   2.784   3.575   1.286  0.8216  0.5002  0.4305
  931MPD2    H213677   2.656   3.875   1.048 -0.8177  0.2182  0.4761
  931MPD2    H313678   2.828   3.777   1.185  1.3890 -1.0693  2.8291
  931MPD2     N13679   2.570   3.428   1.287  0.3325  0.3634 -0.7746
  931MPD2    H513680   2.637   3.408   1.361  0.9850 -0.2122 -1.5299
  931MPD2    N113681   2.432   3.763   0.956  0.2050  0.1500  0.0299
  931MPD2    H713682   2.447   3.854   0.916  1.9339  0.8503  2.2636
  932MPD2     C13683   3.407   2.093  11.566 -0.4943  0.8619 -0.5020
  932MPD2    C113684   3.491   2.163  11.476 -0.3669 -0.6266  0.4850
  932MPD2    C213685   3.616   2.113  11.444  0.4627 -0.0214 -0.0606
  932MPD2    C313686   3.665   2.003  11.510  0.4367  0.5032  0.6648
  932MPD2    C413687   3.575   1.931  11.591 -0.0769  0.4640  0.3379
  932MPD2    C513688   3.452   1.977  11.619  0.7990 -0.4381  0.0764
  932MPD2     H13689   3.681   2.169  11.378  1.7294 -1.7901 -0.3186
  932MPD2    H113690   3.601   1.833  11.631 -3.3156  0.0513  1.3978
  932MPD2    H213691   3.306   2.117  11.597 -0.4151 -0.1702  0.5342
  932MPD2    H313692   3.390   1.919  11.687  0.3074 -2.0904 -1.7988
  932MPD2     N13693   3.791   1.956  11.493  0.1292 -0.1373  0.1542
  932MPD2    H513694   3.830   1.894  11.563  0.3004 -1.1126 -0.8082
  932MPD2    N113695   3.465   2.297  11.438 -0.5170  0.1224 -0.7586
  932MPD2    H713696   3.539   2.341  11.384  0.2868  1.9029  1.7600
  933MPD2     C13697   3.888   2.173   1.602 -0.3625  0.8358 -0.1457
  933MPD2    C113698   3.963   2.242   1.512 -0.5608 -0.5478  0.5314
  933MPD2    C213699   3.920   2.370   1.479 -0.7067 -0.2333 -0.5920
  933MPD2    C313700   3.797   2.415   1.521  0.5180  0.4091  0.3356
  933MPD2    C413701   3.721   2.338   1.609 -0.2590 -0.4679  0.1221
  933MPD2    C513702   3.772   2.224   1.650 -0.2702 -0.0088  0.3365
  933MPD2     H13703   3.969   2.437   1.409  2.0749 -1.1311  0.4963
  933MPD2    H113704   3.621   2.366   1.639  0.7820  2.9865  0.4539
  933MPD2    H213705   3.917   2.072   1.627 -2.8106  0.1106 -0.1635
  933MPD2    H313706   3.720   2.159   1.720  1.2144 -0.9687  0.5451
  933MPD2     N13707   3.758   2.537   1.465  0.3452 -0.2326 -0.1421
  933MPD2    H513708   3.815   2.578   1.392 -0.8242  0.4686 -0.6506
  933MPD2    N113709   4.082   2.187   1.461 -0.0785  0.5402  0.0844
  933MPD2    H713710   4.122   2.104   1.504 -0.1827  0.5214  0.1449
  934MPD2     C13711   1.839   4.575   1.499  0.2278  0.9153 -0.2802
  934MPD2    C113712   1.794   4.629   1.379  0.2032  0.3333  0.5466
  934MPD2    C213713   1.673   4.589   1.326 -0.6627  0.0913  0.7101
  934MPD2    C313714   1.595   4.491   1.388  0.3624  0.1692 -0.7097
  934MPD2    C413715   1.643   4.435   1.505  0.2042 -0.0344  0.2220
  934MPD2    C513716   1.755   4.480   1.562 -0.4192 -0.3721  1.3495
  934MPD2     H13717   1.635   4.649   1.244 -1.6364 -0.8001  0.5157
  934MPD2    H113718   1.579   4.362   1.553 -1.3277  0.6199 -0.8111
  934MPD2    H213719   1.932   4.609   1.542  0.6409 -1.4136  0.6107
  934MPD2    H313720   1.788   4.421   1.647 -0.2791 -2.5652 -0.2351
  934MPD2     N13721   1.468   4.452   1.342 -0.2982 -0.2184 -0.0774
  934MPD2    H513722   1.424   4.371   1.384  0.5441 -0.0442  1.1166
  934MPD2    N113723   1.867   4.717   1.295 -0.2677 -0.3716 -0.1034
  934MPD2    H713724   1.818   0.021   1.215 -0.3756 -0.1904  0.0546
  935MPD2     C13725   1.169   3.650   1.346 -0.2769 -0.8142  0.2633
  935MPD2    C113726   1.091   3.708   1.243  0.4619  0.0209 -0.1529
  935MPD2    C213727   1.080   3.847   1.231 -0.5445 -1.1090  0.1599
  935MPD2    C313728   1.149   3.923   1.329 -0.3380 -0.0888  0.0393
  935MPD2    C413729   1.229   3.868   1.420 -0.2277 -0.7082  0.2872
  935MPD2    C513730   1.236   3.732   1.430  0.5173  0.5432  0.0479
  935MPD2     H13731   1.026   3.888   1.146  0.6881 -0.8233 -0.4777
  935MPD2    H113732   1.292   3.929   1.484 -0.4365  0.1578 -0.3327
  935MPD2    H213733   1.182   3.543   1.359  0.5261 -0.5987  1.2420
  935MPD2    H313734   1.305   3.694   1.505  1.8757  1.2265 -0.8510
  935MPD2     N13735   1.156   4.062   1.310 -0.0821  0.5269  0.3030
  935MPD2    H513736   1.218   4.112   1.373  0.1547  0.1312  0.3868
  935MPD2    N113737   1.019   3.624   1.155  0.1622 -0.1791  1.0598
  935MPD2    H713738   0.952   3.668   1.093  0.8933 -0.7094 -0.1117
  936MPD2     C13739   4.647   0.389  13.898  0.3983  0.1763  0.7263
  936MPD2    C113740   4.587   0.465  13.803 -0.2220  0.3613  0.1597
  936MPD2    C213741   4.653   0.480  13.679 -0.2599 -0.3846  0.4979
  936MPD2    C313742   0.044   0.443  13.660 -0.4456 -0.6346  0.6174
  936MPD2    C413743   0.107   0.369  13.761 -1.1863  0.7047  0.0753
  936MPD2    C513744   0.038   0.356  13.882  0.1143  0.3743 -0.3958
  936MPD2     H13745   4.600   0.538  13.604 -0.7549  0.7116  1.6982
  936MPD2    H113746   0.205   0.326  13.747 -1.5759  0.0668 -0.7208
  936MPD2    H213747   4.617   0.381  14.002  1.7816  0.5726  1.1606
  936MPD2    H313748   0.085   0.295  13.958 -2.2031 -1.0144 -0.0977
  936MPD2     N13749   0.124   0.492  13.552 -0.6502  0.2859 -0.8499
  936MPD2    H513750   0.224   0.483  13.567 -0.6577  1.8880  0.1208
  936MPD2    N113751   4.465   0.532  13.830  0.0827  0.5915 -0.2845
  936MPD2    H713752   4.437   0.598  13.757 -1.8166 -0.0963 -0.1661
  937MPD2     C13753   2.379   2.378  12.043  0.1448 -0.3451  0.0889
  937MPD2    C113754   2.317   2.473  11.964  0.6620  0.7890 -0.1484
  937MPD2    C213755   2.369   2.483  11.841 -0.2803  0.0994  0.6493
  937MPD2    C313756   2.489   2.421  11.800  0.2612  0.2155  0.3618
  937MPD2    C413757   2.552   2.337  11.890  0.0222 -0.0771 -0.0744
  937MPD2    C513758   2.487   2.313  12.013  0.1445  0.4008  0.1069
  937MPD2     H13759   2.326   2.556  11.774 -1.6101 -1.6840 -0.4321
  937MPD2    H113760   2.649   2.293  11.867  0.8962  2.5742 -1.4081
  937MPD2    H213761   2.334   2.350  12.138  1.3084 -0.6657  0.5397
  937MPD2    H313762   2.537   2.257  12.091 -1.7957  1.6034  2.2070
  937MPD2     N13763   2.541   2.460  11.677  0.3870  0.2213 -0.4606
  937MPD2    H513764   2.477   2.505  11.613 -0.1240  0.7834  0.4372
  937MPD2    N113765   2.185   2.516  11.980  0.2790  0.5396 -0.8851
  937MPD2    H713766   2.148   2.567  11.900  0.5264  0.8866 -0.7788
  938MPD2     C13767   0.181   4.229   0.427  0.0030 -0.1179  0.2593
  938MPD2    C113768   0.232   4.286   0.537 -0.0667  0.1421  0.5609
  938MPD2    C213769   0.240   4.199   0.653 -0.3208 -0.7703 -0.0328
  938MPD2    C313770   0.201   4.066   0.648 -0.2527 -0.6437 -0.5738
  938MPD2    C413771   0.159   4.016   0.528 -0.1487 -0.4541  0.1549
  938MPD2    C513772   0.153   4.096   0.416  0.1101 -0.0425  0.5903
  938MPD2     H13773   0.279   4.232   0.748  2.3931  0.9854 -1.7737
  938MPD2    H113774   0.138   3.910   0.513  2.2935 -0.6941 -1.6007
  938MPD2    H213775   0.170   4.292   0.339 -2.0523 -2.4998 -1.1827
  938MPD2    H313776   0.122   4.053   0.321 -0.0593  1.6071 -0.0951
  938MPD2     N13777   0.202   3.976   0.758 -0.1075  0.0797 -0.5207
  938MPD2    H513778   0.180   3.880   0.735  1.3221 -0.4661  0.3758
  938MPD2    N113779   0.251   4.421   0.558 -0.1557  0.2300 -0.3433
  938MPD2    H713780   0.296   4.452   0.644 -0.8986  0.2098  0.0487
  939MPD2     C13781   1.206   0.628   0.562  0.6772  0.2421 -0.3033
  939MPD2    C113782   1.069   0.630   0.541  0.2073 -0.5415  0.5889
  939MPD2    C213783   1.023   0.585   0.422 -0.0861 -0.0587  0.0588
  939MPD2    C313784   1.099   0.533   0.326  0.3114  0.2705  0.8382
  939MPD2    C413785   1.238   0.539   0.347 -0.1480  0.1982 -0.4062
  939MPD2    C513786   1.290   0.581   0.467  0.1994  0.1225 -0.6698
  939MPD2     H13787   0.918   0.569   0.399  0.0343  0.3980 -0.7726
  939MPD2    H113788   1.307   0.507   0.270 -0.9596 -1.5846 -0.4020
  939MPD2    H213789   1.255   0.663   0.653 -0.1417 -0.5572  0.4472
  939MPD2    H313790   1.397   0.579   0.483 -0.1180 -0.6540  1.3628
  939MPD2     N13791   1.031   0.488   0.208 -0.6386  0.5580  0.1985
  939MPD2    H513792   0.930   0.490   0.214 -0.6891 -3.2790  0.6084
  939MPD2    N113793   0.975   0.657   0.634  0.1667 -0.2861 -0.3535
  939MPD2    H713794   0.883   0.660   0.592 -0.8111 -0.6100  1.7534
  940MPD2     C13795   0.561   1.077  13.272  0.1749  0.0135 -0.7576
  940MPD2    C113796   0.555   0.940  13.289 -0.0628 -0.1424  0.4346
  940MPD2    C213797   0.568   0.858  13.178 -0.2592 -0.8840  0.1689
  940MPD2    C313798   0.591   0.908  13.054  0.0990  0.2393 -0.4220
  940MPD2    C413799   0.594   1.042  13.037 -0.0099  0.5782 -0.3393
  940MPD2    C513800   0.588   1.123  13.145 -0.3397  0.2757  0.3022
  940MPD2     H13801   0.564   0.751  13.193  0.9221 -1.0645 -0.8600
  940MPD2    H113802   0.596   1.087  12.938 -0.9473 -0.3152 -0.7671
  940MPD2    H213803   0.550   1.148  13.353  1.7750  0.5547 -1.0236
  940MPD2    H313804   0.575   1.229  13.128  0.0882  0.2181 -0.3770
  940MPD2     N13805   0.625   0.836  12.939  0.6025 -0.8298  0.1445
  940MPD2    H513806   0.641   0.891  12.856  2.6600  0.6985  1.5547
  940MPD2    N113807   0.543   0.888  13.418 -0.1106  0.2918  0.6099
  940MPD2    H713808   0.564   0.789  13.424  0.7283  0.3979 -0.6692
  941MPD2     C13809   3.536   0.310   9.983 -0.7161  0.1118 -0.0353
  941MPD2    C113810   3.649   0.255   9.926 -0.7901  0.6262  0.4699
  941MPD2    C213811   3.655   0.120   9.941  0.0212 -0.2983 -0.3233
  941MPD2    C313812   3.567   0.040  10.015  0.4130 -0.1873  0.3073
  941MPD2    C413813   3.459   0.100  10.087  0.3331 -0.6018  0.8943
  941MPD2    C513814   3.448   0.235  10.062  0.6778 -0.0338 -0.2641
  941MPD2     H13815   3.734   0.060   9.898  0.2902 -0.9207  1.0517
  941MPD2    H113816   3.401   0.049  10.163 -0.4200  0.0034  0.7248
  941MPD2    H213817   3.504   0.413   9.970  0.6265  0.3694 -1.2574
  941MPD2    H313818   3.367   0.286  10.113  0.8776  1.2412 -1.2257
  941MPD2     N13819   3.577   4.639  10.034  0.0009 -0.0528  0.3007
  941MPD2    H513820   3.513   4.603  10.104  0.3629 -0.7973  0.2466
  941MPD2    N113821   3.759   0.322   9.869 -0.3513  0.2988  0.1091
  941MPD2    H713822   3.843   0.269   9.849 -1.1721 -0.9925  0.1004
  942MPD2     C13823   3.633   2.202   9.700  0.4961 -0.2480 -0.2509
  942MPD2    C113824   3.511   2.165   9.649 -0.4164  0.3727 -0.6673
  942MPD2    C213825   3.486   2.188   9.516  0.3708  0.0125 -0.3827
  942MPD2    C313826   3.576   2.254   9.436  0.2414  0.0412  0.4165
  942MPD2    C413827   3.698   2.289   9.489 -0.5435 -0.1860  0.9070
  942MPD2    C513828   3.727   2.261   9.621  0.4994  0.5839 -0.2459
  942MPD2     H13829   3.391   2.150   9.479  0.7911 -0.1274 -1.3070
  942MPD2    H113830   3.774   2.333   9.425 -0.4951 -0.9284  0.4521
  942MPD2    H213831   3.665   2.205   9.804  2.3500 -1.0139 -0.7911
  942MPD2    H313832   3.820   2.294   9.665  0.6629 -2.1331  1.4717
  942MPD2     N13833   3.534   2.285   9.301  0.1520 -0.5964  0.5078
  942MPD2    H513834   3.608   2.330   9.248  0.2934 -0.5573  0.7368
  942MPD2    N113835   3.402   2.111   9.733 -0.5552 -0.2601  0.0679
  942MPD2    H713836   3.310   2.124   9.692 -0.9622 -0.1021  1.0359
  943MPD2     C13837   2.549   4.503   9.979 -0.3559 -0.1219 -0.7709
  943MPD2    C113838   2.522   4.475  10.107 -0.3604  0.3929 -1.1372
  943MPD2    C213839   2.593   4.529  10.211 -0.2057 -0.2782  0.5014
  943MPD2    C313840   2.699   4.614  10.184 -0.4833  0.1544 -0.0917
  943MPD2    C413841   2.724   4.643  10.054  0.3522  0.5116  0.6746
  943MPD2    C513842   2.654   4.585   9.953 -0.0619  0.2570  0.1877
  943MPD2     H13843   2.565   4.512  10.314  0.0967  0.3602  0.6866
  943MPD2    H113844   2.789   4.728  10.033 -0.6617  1.1211  0.0413
  943MPD2    H213845   2.503   4.451   9.895 -1.1828  0.0105 -0.4083
  943MPD2    H313846   2.686   4.611   9.853  0.6412 -0.9126  0.1097
  943MPD2     N13847   2.777   4.683  10.272 -0.5042 -0.4814  0.1155
  943MPD2    H513848   2.841   0.006  10.222  0.6145 -2.0985 -0.4054
  943MPD2    N113849   2.428   4.370  10.124  0.4759  0.4701 -0.3794
  943MPD2    H713850   2.383   4.334  10.041  0.9025 -0.6555 -0.1185
  944MPD2     C13851   2.673   4.030  10.873  1.2450 -0.2085  1.0120
  944MPD2    C113852   2.586   3.995  10.967  0.4952  0.1253 -0.3238
  944MPD2    C213853   2.536   4.092  11.054 -0.2666 -1.3586  0.5746
  944MPD2    C313854   2.584   4.220  11.045 -0.6742 -0.1279 -0.2211
  944MPD2    C413855   2.677   4.257  10.947  0.2516  0.5052  0.0149
  944MPD2    C513856   2.722   4.158  10.858  0.4106 -0.0708 -0.8185
  944MPD2     H13857   2.470   4.069  11.137  0.7285 -1.8029  1.2475
  944MPD2    H113858   2.708   4.361  10.942  0.0748  0.5145 -0.8410
  944MPD2    H213859   2.714   3.961  10.800  0.5726  0.9287 -0.4342
  944MPD2    H313860   2.799   4.168  10.783  1.4686  2.6778  0.6100
  944MPD2     N13861   2.533   4.319  11.136  1.3966  0.3470  0.5344
  944MPD2    H513862   2.464   4.289  11.204  2.1118  0.5663  1.3594
  944MPD2    N113863   2.538   3.863  10.962 -0.6381  0.3219 -0.0204
  944MPD2    H713864   2.567   3.800  10.888  1.8559 -1.6085  2.5782
    1TMC1    C113865   1.011   4.466  14.487  0.0903  0.1755 -0.5483
    1TMC1    C213866   0.946   4.494  14.370  0.0688 -1.4065 -0.0642
    1TMC1    C313867   0.893   4.393  14.296 -0.7671  0.1063  0.2162
    1TMC1    C413868   1.018   4.339  14.533  0.1450  0.2655  0.1040
    1TMC1    C513869   0.971   4.239  14.451  0.1293  0.1941  0.6897
    1TMC1    C613870   0.909   4.257  14.332 -0.2073  0.2030 -0.1249
    1TMC1     C13871   1.057   4.578  14.572 -0.1877  0.6421  0.3903
    1TMC1     O13872   1.124   4.543  14.670  0.4254 -0.1588  0.1969
    1TMC1     H13873   0.919   4.592  14.334  1.7435  0.1701  3.0052
    1TMC1    H113874   1.064   4.323  14.630  0.0410 -0.6930 -0.0108
    1TMC1    H213875   0.877   4.173  14.271  0.4295  1.5006 -2.2410
    1TMC1    C713876   0.976   4.107  14.512  0.3309 -0.0459  0.0890
    1TMC1    C813877   0.850   4.426  14.161  0.0300  0.4802  0.0091
    1TMC1    O113878   1.067   4.057  14.581  0.5744 -0.8287 -0.4157
    1TMC1    O213879   0.818   4.541  14.125  0.3743  0.2169  0.1104
    1TMC1    O313880   0.845   4.071  14.525 -0.1331 -0.3447  0.1209
    1TMC1    H313881   0.775   4.118  14.475 -0.0909  0.7986  1.1355
    1TMC1    O513882   0.898   4.328  14.082 -0.1791  0.0794 -0.4193
    1TMC1    H513883   0.968   4.272  14.121 -0.2447 -1.0010 -1.8588
    2MPD2     C13884   1.122   0.334  14.649  1.3206  0.2085 -0.1318
    2MPD2    C113885   1.030   0.326  14.546  0.2935  0.3915 -0.5983
    2MPD2    C213886   1.002   0.196  14.504  0.1845 -0.0617 -1.0485
    2MPD2    C313887   1.055   0.086  14.571  0.1346  0.2789  0.0542
    2MPD2    C413888   1.140   0.106  14.685 -0.8403  0.5820 -0.2710
    2MPD2    C513889   1.173   0.230  14.716  0.7287  0.8510 -0.0718
    2MPD2     H13890   0.942   0.177  14.415  0.7603 -2.0371 -1.0169
    2MPD2    H113891   1.171   0.021  14.745  1.1602  0.0124 -2.1211
    2MPD2    H213892   1.160   0.431  14.680  2.7374 -0.5405  0.4390
    2MPD2    H313893   1.246   0.251  14.793 -1.2453 -0.4370  2.1604
    2MPD2     N13894   1.020   4.699  14.523 -0.0673  0.1158  1.2106
    2MPD2    H513895   0.964   4.701  14.439  1.2684 -0.8392  0.3075
    2MPD2    N113896   0.974   0.448  14.491 -0.1394  0.2536 -0.1531
    2MPD2    H713897   1.006   0.537  14.527  2.5872 -0.6553 -0.3691
    3TMC2    C113898   0.886   0.586  14.321 -0.3106  0.1196 -0.8939
    3TMC2    C213899   0.877   0.702  14.401  0.3223  0.1933  0.0867
    3TMC2    C313900   0.845   0.816  14.336  0.4476 -0.1315 -0.6347
    3TMC2    C413901   0.882   0.589  14.187  0.4077 -0.3351 -0.3489
    3TMC2    C513902   0.841   0.707  14.124  0.3630  0.6083  0.1534
    3TMC2    C613903   0.818   0.824  14.198  0.8342  0.6249 -0.5207
    3TMC2     C13904   0.901   0.452  14.375 -0.1976  0.3252 -0.2863
    3TMC2     O13905   0.856   0.360  14.309  0.1220  0.0833  0.2251
    3TMC2     H13906   0.892   0.704  14.508 -0.2105  0.1695  0.1591
    3TMC2    H113907   0.910   0.505  14.125  2.4740 -0.0608  0.2265
    3TMC2    H213908   0.775   0.914  14.156 -0.8580  1.1122  2.2311
    3TMC2    C713909   0.818   0.724  13.980  0.7700  0.1647 -0.1151
    3TMC2    C813910   0.824   0.938  14.414  0.1157 -0.5411 -1.4712
    3TMC2    O113911   0.762   0.631  13.926  0.1563  0.3912 -0.3745
    3TMC2    O213912   0.800   0.938  14.534  0.0013  0.2915 -0.5875
    3TMC2    O513913   0.861   1.050  14.355  0.4625  0.2357 -0.0902
    3TMC2    H513914   0.880   1.038  14.260  0.1006  0.6234 -0.2125
    4TMC2    C113915   0.713   1.510  13.447  0.3509  0.3847 -0.5911
    4TMC2    C213916   0.775   1.627  13.475  0.4671 -0.1464 -0.1790
    4TMC2    C313917   0.893   1.619  13.548  0.1921 -0.5166 -1.4897
    4TMC2    C413918   0.765   1.396  13.486 -0.2255  0.2996  0.0050
    4TMC2    C513919   0.881   1.397  13.555 -0.2592  0.0528  0.4974
    4TMC2    C613920   0.952   1.509  13.592 -0.3803 -0.5397  0.5782
    4TMC2     C13921   0.576   1.509  13.483 -0.4204  0.0731  0.0362
    4TMC2     O13922   0.566   1.511  13.602  0.0950 -0.2315 -0.1491
    4TMC2     H13923   0.715   1.716  13.458  2.2816  1.1115  0.0789
    4TMC2    H113924   0.715   1.300  13.488 -0.8181  0.5932 -0.7627
    4TMC2    H213925   1.033   1.511  13.663  0.0974  1.5576 -0.0324
    4TMC2    C713926   0.923   1.277  13.632 -0.1854 -0.0305 -0.1145
    4TMC2    C813927   0.960   1.747  13.582  0.1414 -0.6833 -0.4841
    4TMC2    O113928   0.950   1.291  13.751  0.5479 -0.3130 -0.7786
    4TMC2    O213929   1.058   1.761  13.656  0.8974 -0.5085  0.0109
    4TMC2    O513930   0.929   1.842  13.492  0.0599  0.3378  0.0540
    4TMC2    H513931   0.861   1.811  13.429 -1.1675  0.1773  1.4656
    5MPD2     C13932   0.101   1.318  13.445  0.0642 -0.4092 -1.0179
    5MPD2    C113933   0.168   1.291  13.331  0.4397  0.1845  0.4931
    5MPD2    C213934   0.303   1.320  13.321  0.0451 -0.1526 -0.7191
    5MPD2    C313935   0.372   1.396  13.421  0.1504 -0.2197  0.3736
    5MPD2    C413936   0.297   1.419  13.537 -0.2877 -1.0017  0.6625
    5MPD2    C513937   0.164   1.378  13.549 -0.4697 -0.5764 -0.1309
    5MPD2     H13938   0.354   1.289  13.231  0.3683  2.4833 -1.4441
    5MPD2    H113939   0.317   1.478  13.626 -0.8726  0.2863 -0.0672
    5MPD2    H213940   4.731   1.316  13.463  0.6272 -1.3462  2.3053
    5MPD2    H313941   0.113   1.392  13.644 -0.5345 -0.3808 -0.1937
    5MPD2     N13942   0.498   1.448  13.386 -0.0695  0.3453  0.3190
    5MPD2    H513943   0.530   1.428  13.292 -3.3616 -1.3476 -0.4068
    5MPD2    N113944   0.088   1.229  13.228 -0.1417 -0.0584  0.2657
    5MPD2    H713945   4.728   1.213  13.253  1.7519 -3.9747  5.2286
    6MPD1     C13946   4.427   2.816  13.054 -0.3760 -0.0959 -0.7006
    6MPD1    C113947   4.437   2.738  13.166 -0.3206 -0.9681 -0.2841
    6MPD1    C213948   4.400   2.603  13.156  0.2121  0.3878 -0.6480
    6MPD1    C313949   4.377   2.548  13.027 -0.3619  0.1678 -0.3107
    6MPD1    C413950   4.399   2.625  12.913 -0.7721  0.0018  0.0293
    6MPD1    C513951   4.435   2.756  12.930  0.3845  0.2811 -0.6150
    6MPD1     H13952   4.399   2.541  13.245  1.0088  0.3310 -0.6769
    6MPD1    H113953   4.393   2.587  12.812 -1.2712  0.7333 -0.2153
    6MPD1    H213954   4.452   2.921  13.065 -1.5276  0.3260 -2.1762
    6MPD1    H313955   4.445   2.820  12.843  0.0252  0.8164 -0.2643
    6MPD1     N13956   4.372   2.409  13.012  0.1227 -0.1427 -0.0359
    6MPD1    H513957   4.373   2.366  12.920  2.3311 -1.4586  0.6083
    6MPD1    N113958   4.455   2.792  13.294 -0.5306 -0.8235 -0.2428
    6MPD1    H613959   4.533   2.858  13.288 -1.3018 -0.0616 -2.0549
    6MPD1    H713960   4.485   2.718  13.357  2.0742  1.3403  1.0328
    7MPD2     C13961   4.285   1.606  13.372 -0.3106 -0.4296 -0.4073
    7MPD2    C113962   4.309   1.623  13.239  0.0342  0.2774 -0.8780
    7MPD2    C213963   4.345   1.515  13.161 -0.5330 -0.6400  0.0514
    7MPD2    C313964   4.358   1.389  13.208  0.5591 -0.4003 -0.5206
    7MPD2    C413965   4.335   1.369  13.340 -0.7286 -0.3594 -0.3489
    7MPD2    C513966   4.288   1.474  13.420 -0.9708  0.1096 -0.4177
    7MPD2     H13967   4.360   1.528  13.054  0.7284  0.2943  0.3398
    7MPD2    H113968   4.351   1.273  13.390  1.2515  0.3231  0.3431
    7MPD2    H213969   4.252   1.686  13.437  0.6809  0.4348 -0.9643
    7MPD2    H313970   4.272   1.456  13.525  0.0511 -0.5204 -0.3665
    7MPD2     N13971   4.415   1.293  13.121 -0.2044 -0.6760  0.1252
    7MPD2    H513972   4.427   1.327  13.026  0.1562  0.1544  0.4663
    7MPD2    N113973   4.322   1.753  13.177  0.5331 -0.0498  0.0482
    7MPD2    H713974   4.349   1.761  13.080 -1.4657  1.2534 -0.4002
    8TMC3    C113975   4.535   1.114  13.046 -0.3246 -1.3595 -0.0213
    8TMC3    C213976   4.657   1.089  13.079 -0.0519 -0.3588 -0.2907
    8TMC3    C313977   0.023   1.152  13.018  0.2770  0.7091  0.0928
    8TMC3    C413978   4.508   1.178  12.930 -0.2914 -0.5457  0.6348
    8TMC3    C513979   4.614   1.228  12.857  0.2108  0.0650  0.0195
    8TMC3    C613980   0.004   1.215  12.899 -0.2385 -0.3393 -0.4572
    8TMC3     C13981   4.463   1.174  13.159  0.4411 -0.3834  0.6369
    8TMC3     O13982   4.477   1.128  13.272 -0.7244 -0.5070  0.1155
    8TMC3     H13983   4.676   1.040  13.174 -0.1908 -0.0929 -0.1256
    8TMC3    H113984   4.406   1.198  12.899  0.0065 -2.0692 -1.3766
    8TMC3    H213985   0.090   1.238  12.837 -0.0559 -0.8976 -0.4183
    8TMC3    C713986   4.587   1.359  12.811 -0.1718 -0.2591 -0.1126
    8TMC3    C813987   0.129   1.205  13.100  0.3755 -0.1568 -1.0426
    8TMC3    O113988   4.495   1.407  12.877 -0.2089  0.1652 -0.1641
    8TMC3    O213989   0.233   1.243  13.048  0.5309 -0.8217  0.8199
    9TMC3    C113990   4.391   2.186  13.099  0.1118  0.1690 -0.8812
    9TMC3    C213991   4.492   2.160  13.009  0.0439  0.8183  0.3686
    9TMC3    C313992   4.534   2.033  12.984 -0.3940 -0.5084  0.0722
    9TMC3    C413993   4.345   2.093  13.183 -0.1131  0.3074  0.4345
    9TMC3    C513994   4.395   1.966  13.169  0.2131  0.5297  0.6563
    9TMC3    C613995   4.482   1.928  13.061 -0.2876  0.0630  0.3589
    9TMC3     C13996   4.343   2.317  13.114  0.0769 -0.4489 -1.0961
    9TMC3     O13997   4.279   2.339  13.217  0.0397  0.4274 -0.1582
    9TMC3     H13998   4.529   2.234  12.938  1.4448  0.1355  0.3864
    9TMC3    H113999   4.278   2.118  13.264 -1.6766  0.1315 -0.8020
    9TMC3    H214000   4.534   1.833  13.055 -0.0188  0.3683 -2.2943
    9TMC3    C714001   4.318   1.868  13.240  0.4063 -0.0675  0.2608
    9TMC3    C814002   4.602   2.013  12.854 -0.4257 -0.5591  1.6268
    9TMC3    O114003   4.254   1.900  13.340  0.2752  0.1278 -0.5368
    9TMC3    O214004   4.671   2.095  12.797 -0.0868 -0.4376  0.1033
   10MPD2     C14005   0.043   1.586  12.608  0.0065  0.1815  0.1322
   10MPD2    C114006   4.696   1.553  12.706  0.3386  0.8312  0.8504
   10MPD2    C214007   4.628   1.654  12.768 -0.7627  0.5976  0.0187
   10MPD2    C314008   4.647   1.793  12.743 -0.3508 -0.0049 -0.2759
   10MPD2    C414009   4.736   1.820  12.645 -0.5279  0.2538  0.3739
   10MPD2    C514010   0.066   1.717  12.578 -0.0736 -0.2729 -0.0831
   10MPD2     H14011   4.562   1.635  12.852 -1.2356  1.2089 -0.2109
   10MPD2    H114012   0.012   1.920  12.605  2.9114  0.4022  1.8506
   10MPD2    H214013   0.082   1.507  12.545  1.6692  2.8273 -2.1320
   10MPD2    H314014   0.148   1.732  12.508  0.5151  1.7215  1.0436
   10MPD2     N14015   4.583   1.879  12.827  0.1152 -0.2734  0.8020
   10MPD2    H514016   4.507   1.851  12.888 -0.1510  0.5309  0.8494
   10MPD2    N114017   4.684   1.419  12.736 -0.2238  0.7840 -0.1418
   10MPD2    H714018   0.012   1.355  12.691  1.4412  4.8078 -3.4481
   11MPD2     C14019   0.879   0.765  13.699 -0.0462 -0.1089  0.8342
   11MPD2    C114020   0.882   0.870  13.793  0.6706 -1.5375  0.1554
   11MPD2    C214021   0.915   0.995  13.751 -0.2821  0.2776 -0.4392
   11MPD2    C314022   0.902   1.026  13.615 -0.6475  0.2772 -0.2339
   11MPD2    C414023   0.885   0.928  13.528  0.0685  0.1132  0.5047
   11MPD2    C514024   0.869   0.798  13.570  0.0798 -0.2770 -1.3599
   11MPD2     H14025   0.928   1.072  13.826 -0.1995 -0.9970  0.8594
   11MPD2    H114026   0.883   0.938  13.420 -2.1889  0.2451  0.5715
   11MPD2    H214027   0.864   0.663  13.735 -0.8203 -0.1353  0.4520
   11MPD2    H314028   0.865   0.719  13.496  1.1120 -0.2800 -1.4110
   11MPD2     N14029   0.913   1.162  13.560  0.3682  0.2100  0.1448
   11MPD2    H514030   0.899   1.168  13.460  0.1024 -0.0808  0.1653
   11MPD2    N114031   0.870   0.841  13.932  0.2742 -0.6657  0.5852
   11MPD2    H714032   0.918   0.900  14.000  1.5331 -0.0370 -0.8476
    1MPD1     C14033   4.630   2.221  17.076  0.2254 -0.2429 -0.0535
    1MPD1    C114034   4.553   2.300  16.991 -0.1205  0.3496 -0.4503
    1MPD1    C214035   4.474   2.395  17.048  0.4418 -0.4659 -0.0581
    1MPD1    C314036   4.495   2.422  17.183  0.6880 -0.2938 -0.3481
    1MPD1    C414037   4.558   2.335  17.270 -0.7785 -0.2575  0.2086
    1MPD1    C514038   4.624   2.233  17.213  0.0386  0.6312  0.4967
    1MPD1     H14039   4.412   2.452  16.981  1.2157 -1.3019 -1.4982
    1MPD1    H114040   4.568   2.352  17.376  2.1094 -3.0363  0.3979
    1MPD1    H214041   4.690   2.138  17.041  1.7250  0.2501  1.3179
    1MPD1    H314042   4.678   2.155  17.265  0.1149 -0.6340 -1.4652
    1MPD1     N14043   4.444   2.541  17.242  0.4586  0.6332 -0.4853
    1MPD1    H514044   4.461   2.555  17.341 -2.5901  3.6203 -0.4039
    1MPD1    N114045   4.567   2.291  16.856  0.1028 -0.1847  0.0041
    1MPD1    H614046   4.600   2.196  16.835 -0.8098 -0.8172  1.4952
    1MPD1    H714047   4.481   2.304  16.803 -0.7098  0.1980  1.4289
    2MPD1     C14048   3.637   3.112  16.989  0.3826 -0.1170 -0.6753
    2MPD1    C114049   3.734   3.062  16.897 -0.4386 -0.2252 -0.3440
    2MPD1    C214050   3.855   3.013  16.942 -0.1128  0.4341  0.3233
    2MPD1    C314051   3.878   3.007  17.081  0.1419  0.5173  0.3766
    2MPD1    C414052   3.780   3.052  17.165  0.0981 -0.7935  0.7279
    2MPD1    C514053   3.663   3.103  17.118  0.0293 -0.1784  0.1823
    2MPD1     H14054   3.932   2.985  16.871 -1.9399 -1.3611 -0.9740
    2MPD1    H114055   3.793   3.057  17.273 -0.1584 -0.5814  0.7505
    2MPD1    H214056   3.538   3.148  16.962  0.4236  0.9444  0.5427
    2MPD1    H314057   3.588   3.148  17.182  0.5636  1.2217 -0.1743
    2MPD1     N14058   4.004   2.967  17.134 -0.3496 -0.8516 -0.0696
    2MPD1    H514059   4.069   2.934  17.063  0.2829  0.2836 -0.0165
    2MPD1    N114060   3.723   3.096  16.767  0.3756 -0.3165  0.3581
    2MPD1    H614061   3.782   3.039  16.707 -2.0977 -0.0035 -2.3369
    2MPD1    H714062   3.628   3.096  16.732  1.3050  0.0998 -2.1861
    3TMC3    C114063   4.182   2.933  17.273 -0.2569  0.2388 -0.1628
    3TMC3    C214064   4.268   2.982  17.367  0.6056  0.3424  0.0750
    3TMC3    C314065   4.379   2.908  17.405 -0.1390 -0.1986 -0.3031
    3TMC3    C414066   4.207   2.818  17.213 -0.0705  0.1868 -0.0505
    3TMC3    C514067   4.315   2.746  17.259 -0.7116 -0.1382  0.3923
    3TMC3    C614068   4.409   2.791  17.349 -0.0960 -0.2954  0.0964
    3TMC3     C14069   4.055   2.999  17.253 -0.1754 -0.4741  0.5976
    3TMC3     O14070   4.021   3.079  17.339 -0.7026 -0.1674 -0.1462
    3TMC3     H14071   4.236   3.065  17.429  1.2592 -0.0969  0.9949
    3TMC3    H114072   4.154   2.783  17.125 -2.6327  2.1021  0.7405
    3TMC3    H214073   4.498   2.733  17.371 -0.5318 -0.4255  1.5515
    3TMC3    C714074   4.375   2.644  17.170 -0.4886 -0.1765  0.3612
    3TMC3    C814075   4.458   2.963  17.518 -0.2041  0.0936 -1.0424
    3TMC3    O114076   4.343   2.655  17.053 -0.6133  0.6037 -0.1028
    3TMC3    O214077   4.485   3.082  17.524 -0.1167  0.4403  0.2265
    4MPD1     C14078   0.031   2.882   0.167  0.5006 -0.1494 -0.6973
    4MPD1    C114079   4.693   2.769   0.145  0.2660  0.2097  0.3418
    4MPD1    C214080   4.600   2.767   0.046 -0.8621 -0.9734  0.1174
    4MPD1    C314081   4.580   2.870  17.700 -0.1020  0.0028 -0.4737
    4MPD1    C414082   4.662   2.979  17.724 -0.8630 -0.5945  0.1144
    4MPD1    C514083   0.011   2.983   0.080 -0.4381  0.2482  0.1146
    4MPD1     H14084   4.535   2.681   0.039 -0.8915 -1.1814  2.8470
    4MPD1    H114085   4.665   3.066  17.659 -1.0434  2.0867  3.7546
    4MPD1    H214086   0.110   2.893   0.241  0.6694 -0.1713 -0.8750
    4MPD1    H314087   0.068   3.075   0.087 -0.7651  0.5768 -1.5798
    4MPD1     N14088   4.498   2.856  17.587 -0.1675 -0.1678  0.9258
    4MPD1    H514089   4.447   2.772  17.559  1.6926 -1.3880  1.2074
    4MPD1    N114090   4.691   2.665   0.244 -0.2431  0.1832  1.0348
    4MPD1    H614091   4.672   2.576   0.199  0.1321  1.6869 -2.1380
    4MPD1    H714092   0.050   2.662   0.279 -0.2308  0.8801  1.0699
    1TCq1    O114093   4.632   1.270  12.095  0.3805  0.7941 -0.0650
    1TCq1    C114094   4.728   1.254  12.183 -0.1991  0.3985  0.5767
    1TCq1    O214095   4.714   1.180  12.279  0.5007 -0.3762  0.4388
    1TCq1    C214096   0.089   1.364  12.164 -0.0944 -0.4080 -0.1159
    1TCq1    C314097   0.169   1.403  12.268 -0.8066  0.3126 -0.3281
    1TCq1    C414098   0.266   1.492  12.240  0.1690 -0.1093  0.1966
    1TCq1    C514099   0.267   1.567  12.127  0.5148 -0.1811 -0.3071
    1TCq1    C614100   0.188   1.523  12.026 -0.4810  0.1265  0.5512
    1TCq1    C714101   0.094   1.424  12.046  0.1500 -0.4567  0.1472
    1TCq1    C814102   0.203   1.587  11.898  0.0525 -0.0478 -0.0819
    1TCq1    O414103   0.300   1.663  11.880  0.0263  0.3843  0.3043
    1TCq1    C914104   0.355   1.522  12.348  0.2111  0.1462 -0.1102
    1TCq1    O514105   0.353   1.454  12.456  0.3696 -0.0133  0.0936
    1TCq1    O614106   0.445   1.608  12.322 -0.3236 -0.1473 -0.0217
    1TCq1    H114107   4.633   1.347  12.034 -1.1541  1.5078  0.8095
    1TCq1    H214108   0.182   1.346  12.359  1.9110  0.2244 -0.7535
    1TCq1    H314109   0.342   1.644  12.110 -0.3472  1.0830  1.7166
    1TCq1    H414110   0.059   1.367  11.961 -1.7965  1.6361 -0.4377
    2MPD1     C14111   0.051   1.651  11.406 -0.1935  0.2903  0.0470
    2MPD1    C114112   4.722   1.545  11.455 -1.8538 -0.0519 -0.5922
    2MPD1    C214113   0.003   1.509  11.590  0.5842 -0.2794  0.1204
    2MPD1    C314114   0.098   1.580  11.668  0.4970  0.2376  0.5612
    2MPD1    C414115   0.170   1.678  11.608 -0.0497  0.6062  0.1794
    2MPD1    C514116   0.148   1.714  11.478 -0.0624 -0.0140  0.4351
    2MPD1     H14117   4.683   1.433  11.643 -0.2237 -0.5954 -1.1944
    2MPD1    H114118   0.233   1.736  11.674  0.7782  2.8030 -2.5180
    2MPD1    H214119   0.055   1.670  11.299 -1.9042  0.8071  0.0775
    2MPD1    H314120   0.212   1.788  11.430 -0.1441  0.4119  0.9866
    2MPD1     N14121   0.110   1.545  11.807 -0.1374 -1.2998  0.8397
    2MPD1    H514122   0.034   1.484  11.835 -1.6268 -0.7069 -1.9541
    2MPD1    N114123   4.631   1.484  11.366 -0.3851 -0.3340  0.5589
    2MPD1    H614124   4.602   1.389  11.387 -2.0669 -0.2200 -1.2447
    2MPD1    H714125   4.640   1.504  11.266  0.6047 -3.3292  0.0415
    1TMC1    C114126   2.540   3.428   0.716 -0.0998 -0.0150 -0.2723
    1TMC1    C214127   2.593   3.348   0.812  0.6586 -0.2874  0.2055
    1TMC1    C314128   2.514   3.295   0.916  0.0165  0.6294  0.4395
    1TMC1    C414129   2.407   3.458   0.717  0.0235 -1.0825 -0.6434
    1TMC1    C514130   2.331   3.396   0.809 -0.5025  0.0243  0.0452
    1TMC1    C614131   2.380   3.314   0.909  0.0958  0.7742  1.1015
    1TMC1     C14132   2.632   3.520   0.649  0.4333  0.3626  0.6476
    1TMC1     O14133   2.594   3.635   0.637  0.2944 -0.1012 -0.6670
    1TMC1     H14134   2.699   3.326   0.810  0.6682 -0.2181 -0.0205
    1TMC1    H114135   2.361   3.523   0.643  1.2712  0.9340  0.3431
    1TMC1    H214136   2.315   3.247   0.965 -0.5182  2.1070  1.9771
    1TMC1    C714137   2.186   3.397   0.777  0.6028 -0.2719  0.2858
    1TMC1    C814138   2.569   3.184   0.993  0.5249 -0.3453 -0.0745
    1TMC1    O114139   2.163   3.389   0.656 -0.2006  0.0647  0.4918
    1TMC1    O214140   2.489   3.096   1.025  0.2589 -0.0963 -0.2954
    1TMC1    O314141   2.123   3.311   0.860  0.6364  0.2247  0.3445
    1TMC1    H314142   2.150   3.317   0.954  1.4569 -1.3750  0.2136
    1TMC1    O514143   2.664   3.229   1.075  0.0747 -0.3265 -0.1760
    1TMC1    H514144   2.686   3.323   1.057  1.4575 -0.5185  0.4710
    2MPD1     C14145   3.102   3.651   0.460 -0.5021  0.6307 -0.1578
    2MPD1    C114146   3.094   3.517   0.476 -0.8043 -0.4605  0.9768
    2MPD1    C214147   2.976   3.460   0.512  0.6733  0.1500  0.1609
    2MPD1    C314148   2.858   3.529   0.544  0.3029 -0.5321  0.5467
    2MPD1    C414149   2.865   3.662   0.537 -0.2756 -0.3161 -0.3360
    2MPD1    C514150   2.986   3.719   0.490 -0.9464  0.4627 -0.3540
    2MPD1     H14151   2.970   3.352   0.511  2.1001  0.0704  0.2117
    2MPD1    H114152   2.785   3.734   0.552 -0.0667 -0.0001 -0.7231
    2MPD1    H214153   3.187   3.706   0.421 -2.2566  1.2946 -3.0021
    2MPD1    H314154   2.987   3.827   0.484 -0.3254  0.5537  1.4204
    2MPD1     N14155   2.747   3.458   0.594 -0.3738 -0.5585  0.2823
    2MPD1    H514156   2.755   3.357   0.600 -0.1583 -0.4718  1.4991
    2MPD1    N114157   3.210   3.437   0.477  0.2234 -0.1789  0.6234
    2MPD1    H614158   3.276   3.481   0.413  0.0448 -0.4327  0.2614
    2MPD1    H714159   3.192   3.343   0.443  2.2447 -0.2081 -0.3455
    1MPD1     C14160   1.547   2.149  11.363 -0.5914  0.5813  0.0612
    1MPD1    C114161   1.669   2.209  11.356  0.5705 -0.1544  0.1963
    1MPD1    C214162   1.777   2.171  11.438 -0.0319 -0.0961 -0.5562
    1MPD1    C314163   1.772   2.052  11.517 -0.0619 -1.0479  0.0022
    1MPD1    C414164   1.651   1.989  11.521  0.6400  0.3640 -0.1887
    1MPD1    C514165   1.539   2.040  11.452  0.4695 -0.0698 -0.2567
    1MPD1     H14166   1.867   2.231  11.448 -0.3708 -0.3296  3.8239
    1MPD1    H114167   1.644   1.905  11.588 -0.6147  1.0263  0.5064
    1MPD1    H214168   1.455   2.180  11.315 -0.3033  0.7996 -0.3461
    1MPD1    H314169   1.440   1.998  11.468  0.4811 -1.0265 -2.5503
    1MPD1     N14170   1.876   2.017  11.606 -0.2723 -0.0196 -0.2450
    1MPD1    H514171   1.960   2.073  11.596 -0.5629  0.6879  1.3002
    1MPD1    N114172   1.681   2.335  11.278 -0.3336 -0.2394 -0.1467
    1MPD1    H614173   1.777   2.352  11.248 -0.6353 -2.2779 -2.3191
    1MPD1    H714174   1.623   2.333  11.194  2.2037 -0.5075 -1.8848
    2MPD1     C14175   0.310   2.504  11.516  0.0111  0.2583 -0.7154
    2MPD1    C114176   0.281   2.495  11.386  0.5444 -0.4274  0.4100
    2MPD1    C214177   0.360   2.418  11.304 -0.3141  1.4305  0.1649
    2MPD1    C314178   0.476   2.355  11.344 -0.4198  0.1998 -0.0274
    2MPD1    C414179   0.514   2.382  11.474  0.3646 -0.3973 -0.6417
    2MPD1    C514180   0.437   2.462  11.553  0.1110 -0.5270  0.5450
    2MPD1     H14181   0.324   2.396  11.204  3.0958 -1.1285 -0.4891
    2MPD1    H114182   0.612   2.349  11.506  0.0218 -1.2928 -0.4958
    2MPD1    H214183   0.249   2.561  11.584  1.9141 -0.2721  1.4319
    2MPD1    H314184   0.460   2.474  11.658  1.1667  0.8355  0.1726
    2MPD1     N14185   0.545   2.257  11.267 -0.2584  0.2423 -0.2566
    2MPD1    H514186   0.643   2.245  11.292 -0.3472  1.6845  0.7777
    2MPD1    N114187   0.161   2.559  11.348 -0.3619  0.1911 -0.0822
    2MPD1    H614188   0.179   2.596  11.255 -1.4034  1.3193  0.1717
    2MPD1    H714189   0.139   2.625  11.421 -1.5303 -0.5785  0.2615
    3MPD1     C14190   0.358   1.739  10.435  0.7952 -0.4794  0.7122
    3MPD1    C114191   0.277   1.821  10.515  0.0004  0.2378  0.4567
    3MPD1    C214192   0.338   1.904  10.607  0.4335 -0.2662 -0.5607
    3MPD1    C314193   0.478   1.905  10.620  0.0689 -0.5047 -0.1945
    3MPD1    C414194   0.553   1.848  10.523  0.2027  0.2209 -0.2446
    3MPD1    C514195   0.495   1.759  10.446 -0.6828  0.1537 -0.2630
    3MPD1     H14196   0.278   1.970  10.669 -0.9235 -1.4887 -0.5625
    3MPD1    H114197   0.660   1.867  10.517  0.2212  0.3439  0.4729
    3MPD1    H214198   0.312   1.682  10.356  0.0108 -0.0654  0.8754
    3MPD1    H314199   0.554   1.727  10.360  1.5873 -0.3453  1.4625
    3MPD1     N14200   0.539   1.992  10.720  0.3972 -0.0842  0.3216
    3MPD1    H514201   0.469   2.040  10.775  0.3036 -2.1728  2.0474
    3MPD1    N114202   0.138   1.818  10.496 -0.4007  0.6006 -0.2417
    3MPD1    H614203   0.091   1.852  10.580 -1.5546 -0.4614 -0.4494
    3MPD1    H714204   0.106   1.721  10.489  0.1603  0.0848  4.2029
    4MPD2     C14205   1.536   2.274  11.987  0.5025 -0.7169 -0.2837
    4MPD2    C114206   1.654   2.305  11.916  0.4405  0.4593  0.2498
    4MPD2    C214207   1.646   2.392  11.807  0.5081 -0.1825 -0.3175
    4MPD2    C314208   1.532   2.458  11.765 -0.7127  0.5304  0.4796
    4MPD2    C414209   1.420   2.434  11.843  0.3508 -0.0134  0.6166
    4MPD2    C514210   1.425   2.349  11.952 -0.7073 -0.0854  0.5662
    4MPD2     H14211   1.735   2.407  11.747  2.0286 -1.6343  1.5915
    4MPD2    H114212   1.326   2.481  11.816  0.3789 -1.0544 -1.2298
    4MPD2    H214213   1.536   2.214  12.077  2.2953  0.9740  0.8357
    4MPD2    H314214   1.331   2.338  12.004 -2.9300 -0.9957 -3.6654
    4MPD2     N14215   1.530   2.557  11.661 -0.1759  0.4666  0.0766
    4MPD2    H514216   1.436   2.589  11.639  0.6955  1.1593 -2.6782
    4MPD2    N114217   1.778   2.240  11.937  0.2529 -0.1049  0.8587
    4MPD2    H714218   1.854   2.275  11.879  1.0339 -2.2687  0.5704
    5TMC3    C114219   1.932   2.070  11.988 -0.0687  0.4062  0.4862
    5TMC3    C214220   1.910   1.959  11.917 -0.1103 -0.6617 -0.0955
    5TMC3    C314221   1.972   1.949  11.795 -0.4722  0.2524 -1.2587
    5TMC3    C414222   2.017   2.163  11.941 -0.3397 -0.1311  0.2918
    5TMC3    C514223   2.099   2.146  11.830  0.4028  0.0340 -0.0449
    5TMC3    C614224   2.066   2.036  11.745  0.6354  0.0905 -0.3078
    5TMC3     C14225   1.803   2.139  12.022 -0.0740 -0.1089  0.2920
    5TMC3     O14226   1.722   2.070  12.082  0.3526 -0.0931  0.2244
    5TMC3     H14227   1.838   1.886  11.952 -0.3214  1.3030  3.4657
    5TMC3    H114228   2.018   2.259  11.993  1.7495  2.5189 -4.6682
    5TMC3    H214229   2.117   2.014  11.652  2.3836  1.9077  0.1974
    5TMC3    C714230   2.093   2.263  11.740 -0.3139  1.1280 -0.7773
    5TMC3    C814231   1.872   1.918  11.698 -0.4013  0.0427 -0.3841
    5TMC3    O114232   2.000   2.341  11.773 -0.0923  0.2791  0.0412
    5TMC3    O214233   1.784   1.847  11.740  0.2239 -0.2638  0.0098
    6TMC3    C114234   0.625   2.190  11.063  0.2006 -0.3933  0.5708
    6TMC3    C214235   0.596   2.130  10.942 -0.3705  0.2087  0.4198
    6TMC3    C314236   0.687   2.130  10.842  0.1063 -1.0594 -0.0680
    6TMC3    C414237   0.752   2.233  11.094  0.0022 -0.1609  0.3558
    6TMC3    C514238   0.841   2.222  10.987  0.5471  0.3287 -0.1909
    6TMC3    C614239   0.812   2.173  10.864 -0.0247 -0.3964 -0.5209
    6TMC3     C14240   0.507   2.230  11.138  0.1688  0.1659  0.3745
    6TMC3     O14241   0.392   2.205  11.092 -0.1234  0.3883 -0.0650
    6TMC3     H14242   0.496   2.089  10.928  0.1218 -0.6010 -0.7443
    6TMC3    H114243   0.777   2.282  11.187  2.4585 -1.2004  0.2573
    6TMC3    H214244   0.883   2.167  10.782 -0.1302 -0.7912 -0.5795
    6TMC3    C714245   0.966   2.294  11.011 -0.0853  0.4040 -0.7989
    6TMC3    C814246   0.669   2.042  10.724 -0.2530  0.0574  0.7960
    6TMC3    O114247   1.014   2.295  11.123  0.3154 -0.2604  0.2967
    6TMC3    O214248   0.773   2.002  10.665 -0.2447 -0.2282 -0.0754
    7MPD2     C14249   2.143   2.466  11.271 -0.7642  0.1477  0.0287
    7MPD2    C114250   2.043   2.484  11.365 -0.2113 -0.5403 -0.4790
    7MPD2    C214251   2.054   2.425  11.486 -0.7590  0.2238 -0.4384
    7MPD2    C314252   2.144   2.323  11.503 -0.4422  0.0086 -0.2311
    7MPD2    C414253   2.235   2.295  11.404  0.1707 -0.5153 -0.7144
    7MPD2    C514254   2.231   2.362  11.286 -0.2189 -0.3521 -0.5116
    7MPD2     H14255   1.974   2.445  11.556  1.8416  0.5593  2.4151
    7MPD2    H114256   2.287   2.200  11.408  0.6578 -0.2663 -1.1006
    7MPD2    H214257   2.124   2.519  11.178  1.6068  2.1610  0.6767
    7MPD2    H314258   2.297   2.326  11.208 -0.0980  0.3922 -0.7486
    7MPD2     N14259   2.160   2.249  11.618  0.5143 -0.4732 -0.1198
    7MPD2    H514260   2.234   2.179  11.618  1.8362  0.9139  0.7701
    7MPD2    N114261   1.921   2.552  11.351  0.1749  0.1575 -1.1580
    7MPD2    H714262   1.863   2.548  11.434  1.0431  1.4201 -0.4811
    8TMC3    C114263   1.745   2.680  11.266 -0.0298 -0.3656  0.2749
    8TMC3    C214264   1.642   2.666  11.181  0.7182  0.0904  0.2904
    8TMC3    C314265   1.526   2.636  11.249 -1.0805  1.3350  0.9256
    8TMC3    C414266   1.729   2.701  11.402  0.0485 -0.2460 -0.2222
    8TMC3    C514267   1.613   2.675  11.465 -0.4427  0.2515 -0.6085
    8TMC3    C614268   1.514   2.627  11.385  0.1847  0.1837 -0.5146
    8TMC3     C14269   1.870   2.609  11.237 -0.1318 -0.0959  1.3541
    8TMC3     O14270   1.908   2.610  11.121  0.4971  0.1444  0.0918
    8TMC3     H14271   1.648   2.668  11.073 -2.0450 -2.7964  0.1083
    8TMC3    H114272   1.818   2.742  11.448  0.5311  1.2819 -2.4917
    8TMC3    H214273   1.421   2.593  11.431  0.9931 -2.2426 -0.6706
    8TMC3    C714274   1.640   2.601  11.589 -0.8371  0.6234 -1.0236
    8TMC3    C814275   1.416   2.577  11.179 -0.0253 -0.4599  0.5433
    8TMC3    O114276   1.760   2.574  11.588  0.4258 -0.1567  0.4255
    8TMC3    O214277   1.357   2.489  11.244  0.1052 -0.3846 -0.3012
    9MPD2     C14278   1.263   2.682  10.862  1.4566 -0.1653 -0.8947
    9MPD2    C114279   1.279   2.601  10.973 -0.3580  0.9252  0.1111
    9MPD2    C214280   1.195   2.491  10.981 -0.2450 -0.5828  0.3157
    9MPD2    C314281   1.095   2.467  10.887 -0.0554  0.7653 -0.5365
    9MPD2    C414282   1.091   2.535  10.770  0.2597  0.8545  0.2894
    9MPD2    C514283   1.175   2.642  10.760  0.1086  0.2561  0.1225
    9MPD2     H14284   1.203   2.426  11.068  0.0430 -0.4031  0.4236
    9MPD2    H114285   1.003   2.528  10.706 -0.0836 -0.7554  0.9303
    9MPD2    H214286   1.324   2.771  10.848 -0.2731  1.1908  0.1733
    9MPD2    H314287   1.152   2.718  10.686  2.0151 -0.2938 -1.0443
    9MPD2     N14288   0.992   2.369  10.896 -0.2511 -0.5273 -0.0503
    9MPD2    H514289   0.939   2.354  10.811 -0.7879 -0.3185  0.2549
    9MPD2    N114290   1.391   2.632  11.054 -0.3636  0.4369  0.3126
    9MPD2    H714291   1.443   2.713  11.022 -0.6640  0.6514  0.3652
    1MPD1     C14292   0.447   1.551  16.641  0.5832 -0.0423 -0.5182
    1MPD1    C114293   0.360   1.476  16.562  0.0944  0.1256  0.2244
    1MPD1    C214294   0.374   1.474  16.428  0.2687  0.3631 -0.5202
    1MPD1    C314295   0.474   1.551  16.375 -0.2196  0.0998 -0.3821
    1MPD1    C414296   0.565   1.619  16.459 -0.0540  0.8378  0.0916
    1MPD1    C514297   0.548   1.620  16.593  0.0156 -0.3664  0.5755
    1MPD1     H14298   0.313   1.410  16.365  0.6158 -1.4237  0.9531
    1MPD1    H114299   0.648   1.679  16.422  0.8439  0.0643  0.8664
    1MPD1    H214300   0.435   1.550  16.748 -0.5925 -1.2488 -0.6588
    1MPD1    H314301   0.619   1.681  16.648  0.9292  0.9631 -2.0503
    1MPD1     N14302   0.492   1.569  16.234 -0.1864  0.1140  0.4811
    1MPD1    H514303   0.562   1.638  16.209 -0.5285  0.6042  0.8669
    1MPD1    N114304   0.272   1.377  16.622 -0.7209  0.2601  0.2649
    1MPD1    H614305   0.246   1.397  16.719  0.9987 -1.1641  1.0100
    1MPD1    H714306   0.200   1.339  16.561 -1.1744 -0.4006  1.2195
    2TMC2    C114307   0.548   1.723  15.860  0.3864 -0.2299 -0.2989
    2TMC2    C214308   0.572   1.647  15.753 -0.2329 -0.7485  0.0829
    2TMC2    C314309   0.523   1.519  15.772 -0.6125  0.5850  0.3380
    2TMC2    C414310   0.503   1.683  15.988 -0.0033 -0.1941  0.5823
    2TMC2    C514311   0.461   1.555  15.998 -0.4769  0.2722 -0.4573
    2TMC2    C614312   0.466   1.473  15.887 -0.0590  0.0107 -0.0999
    2TMC2     C14313   0.585   1.863  15.851  0.6566  0.1024 -1.0960
    2TMC2     O14314   0.648   1.911  15.758  0.7980 -0.2433 -0.3263
    2TMC2     H14315   0.601   1.683  15.655  1.0323 -2.4693 -0.1740
    2TMC2    H114316   0.479   1.753  16.067 -3.0432  0.7554 -1.1866
    2TMC2    H214317   0.446   1.368  15.901  2.6256 -0.1689  2.2552
    2TMC2    C714318   0.437   1.494  16.135 -0.1513 -0.5596  0.1967
    2TMC2    C814319   0.568   1.419  15.674  0.0691  0.3701  0.7951
    2TMC2    O114320   0.371   1.395  16.150 -0.0447 -0.0716  0.2965
    2TMC2    O214321   0.681   1.415  15.632  0.0726  0.6210 -0.3864
    2TMC2    O514322   0.495   1.308  15.683  0.3755 -0.8960  0.2662
    2TMC2    H514323   0.409   1.345  15.713  1.1227  0.2025  1.0878
    3MPD1     C14324   0.568   2.351  16.043  0.4960  0.5076  0.2118
    3MPD1    C114325   0.481   2.272  16.115 -0.6086 -0.3260  0.4317
    3MPD1    C214326   0.471   2.141  16.073 -0.7727 -0.4715 -0.4883
    3MPD1    C314327   0.544   2.080  15.975  0.7212 -0.1991 -0.0859
    3MPD1    C414328   0.638   2.156  15.911 -0.5686  0.1121  0.1426
    3MPD1    C514329   0.647   2.288  15.945 -0.0584  0.5036 -0.2283
    3MPD1     H14330   0.389   2.081  16.111 -0.8634  0.3380  0.5942
    3MPD1    H114331   0.707   2.110  15.841  0.5100 -0.9324  1.8949
    3MPD1    H214332   0.588   2.458  16.051 -0.4041  0.7494 -0.8000
    3MPD1    H314333   0.719   2.333  15.878  0.1633 -0.9179 -0.9606
    3MPD1     N14334   0.517   1.945  15.937  0.1978  0.1319 -0.7282
    3MPD1    H514335   0.454   1.901  16.003  0.5393  0.4649 -0.1817
    3MPD1    N114336   0.395   2.329  16.209 -0.5763  0.2756 -0.5335
    3MPD1    H614337   0.368   2.255  16.273 -1.2238  0.1161 -0.9965
    3MPD1    H714338   0.443   2.406  16.254 -1.1939  1.5644 -2.0839
    1TMC1    C114339   4.328   0.252  12.992  0.7492  0.4205  0.4851
    1TMC1    C214340   4.267   0.135  12.957  0.3834  0.3682  0.7192
    1TMC1    C314341   4.161   0.149  12.877 -0.0353 -0.3054 -0.1559
    1TMC1    C414342   4.292   0.379  12.944  0.0776  0.2596  0.2719
    1TMC1    C514343   4.196   0.372  12.849 -0.2519  0.7376  0.6812
    1TMC1    C614344   4.127   0.266  12.817  0.1713 -0.2576 -0.5053
    1TMC1     C14345   4.449   0.255  13.073  0.2829 -0.8015 -0.8420
    1TMC1     O14346   4.473   0.369  13.114 -0.1625 -0.1525 -0.3263
    1TMC1     H14347   4.292   0.032  12.980  0.3239  0.4116  0.9818
    1TMC1    H114348   4.361   0.463  12.940  0.7384 -0.2612  0.9667
    1TMC1    H214349   4.041   0.280  12.751 -0.8635  0.8299  1.0826
    1TMC1    C714350   4.143   0.499  12.799  1.0030 -0.1117 -0.5386
    1TMC1    C814351   4.106   0.035  12.818 -0.5017  0.2016  0.2982
    1TMC1    O114352   4.076   0.507  12.697 -0.0306  0.1532  0.0603
    1TMC1    O214353   4.164   4.673  12.787 -0.2963  1.0004 -0.8009
    1TMC1    O314354   4.155   0.602  12.894  0.0205 -0.1523  0.1701
    1TMC1    H314355   4.189   0.592  12.986  1.5635  1.4635 -0.2121
    1TMC1    O514356   3.967   0.033  12.841  0.0527  0.4714  0.2878
    1TMC1    H514357   3.941   0.119  12.881  0.9012  1.3488 -1.0336
    2MPD2     C14358   4.660   0.209  13.262 -0.2405 -0.4140  0.9911
    2MPD2    C114359   4.596   0.108  13.190  0.1730  0.1743 -0.3619
    2MPD2    C214360   4.628   4.712  13.196 -0.8132 -0.1563  0.0039
    2MPD2    C314361   0.007   4.674  13.267 -0.2689 -0.3428 -0.0426
    2MPD2    C414362   0.075   0.036  13.338 -0.0118  0.6243 -0.2716
    2MPD2    C514363   0.027   0.170  13.341 -0.1439  0.2405  0.0480
    2MPD2     H14364   4.582   4.624  13.153 -0.9295  0.3752 -0.9616
    2MPD2    H114365   0.152   0.011  13.410 -2.1034 -0.2904  1.6700
    2MPD2    H214366   4.628   0.312  13.260 -0.6741 -0.5903 -1.0414
    2MPD2    H314367   0.082   0.243  13.399  2.5480 -0.8127 -1.1492
    2MPD2     N14368   0.042   4.533  13.278 -0.0142 -0.0040  0.6053
    2MPD2    H514369   4.707   4.468  13.247 -0.9610  0.7168  1.3074
    2MPD2    N114370   4.490   0.133  13.110 -0.0046  0.0460 -0.1429
    2MPD2    H714371   4.447   0.052  13.066  0.6987 -0.6682  0.4879
    3TCq1    O114372   0.392   3.962  13.198  0.2011  0.3564  0.4627
    3TCq1    C114373   0.413   4.083  13.233 -0.6025 -0.4528 -0.2500
    3TCq1    O214374   0.517   4.149  13.256  0.1782  0.2276 -0.4178
    3TCq1    C214375   0.284   4.144  13.251  0.2512  0.3012  0.1718
    3TCq1    C314376   0.182   4.065  13.307 -0.6708  0.8885  0.4194
    3TCq1    C414377   0.075   4.137  13.361 -0.0349  0.0882  0.0903
    3TCq1    C514378   0.065   4.274  13.352  0.2859 -0.0614  0.1933
    3TCq1    C614379   0.167   4.342  13.300  0.2781  0.0255 -0.4091
    3TCq1    C714380   0.284   4.284  13.262 -0.3962 -0.2257 -0.7339
    3TCq1    C814381   0.165   4.481  13.309 -0.1906 -0.3286  0.0238
    3TCq1    O414382   0.272   4.539  13.309  0.5982  0.1984 -0.2860
    3TCq1    C914383   4.707   4.070  13.436 -0.4796  0.4499 -0.5952
    3TCq1    O514384   4.703   3.945  13.445 -0.4042  0.3862 -0.5681
    3TCq1    O614385   4.629   4.151  13.503  0.9291 -0.2345  0.5020
    3TCq1    H114386   0.299   3.932  13.188  0.2646  0.8409 -1.7240
    3TCq1    H214387   0.181   3.957  13.312  2.3778  0.8294  0.2559
    3TCq1    H314388   4.717   4.322  13.399  1.4676  2.2496 -0.0507
    3TCq1    H414389   0.367   4.334  13.213 -0.0431 -1.3804 -1.3097
    1MPD2     C14390   2.696   1.925  15.140 -0.1942 -0.3166 -0.4371
    1MPD2    C114391   2.828   1.946  15.163 -0.3971 -0.2372 -0.2844
    1MPD2    C214392   2.868   1.957  15.298  0.3502 -0.2183  0.4114
    1MPD2    C314393   2.779   1.978  15.395  0.0692  0.1436 -0.4775
    1MPD2    C414394   2.643   1.984  15.367 -0.2731 -0.1326 -0.3963
    1MPD2    C514395   2.602   1.943  15.240 -0.5706  0.5401 -0.1298
    1MPD2     H14396   2.970   1.943  15.334  0.0292  0.3448  1.5313
    1MPD2    H114397   2.570   2.017  15.440  2.9081  2.4882  1.5583
    1MPD2    H214398   2.662   1.904  15.039  0.6138 -0.5942 -0.6530
    1MPD2    H314399   2.497   1.945  15.214 -1.2139  0.3343  2.4486
    1MPD2     N14400   2.836   1.997  15.526  0.0163 -0.0330 -0.2482
    1MPD2    H514401   2.936   1.986  15.538 -0.1239  0.9918  1.9118
    1MPD2    N114402   2.913   1.915  15.051 -0.0714  0.3417  0.2901
    1MPD2    H714403   2.872   1.894  14.960 -1.5106 -0.3321  1.0950
    2TMC3    C114404   3.131   1.889  14.952 -0.4521 -0.3786  0.9437
    2TMC3    C214405   3.263   1.879  14.989  0.0891  0.1281 -0.1167
    2TMC3    C314406   3.325   1.765  14.967 -0.2532 -0.1350 -0.0778
    2TMC3    C414407   3.071   1.799  14.871 -0.0084 -0.1251  0.3391
    2TMC3    C514408   3.150   1.693  14.831 -0.0290 -0.4875  0.3062
    2TMC3    C614409   3.271   1.672  14.886  0.3742 -1.2991 -0.2268
    2TMC3     C14410   3.053   1.927  15.063 -0.0872  0.7327  0.4550
    2TMC3     O14411   3.116   1.941  15.166 -0.4253 -0.1887 -0.2497
    2TMC3     H14412   3.312   1.968  15.028  0.7259 -1.5580  2.8904
    2TMC3    H114413   2.974   1.815  14.826 -1.1460 -2.6182  1.8959
    2TMC3    H214414   3.331   1.584  14.865  0.9749 -1.4876  2.2432
    2TMC3    C714415   3.145   1.658  14.690 -0.5213  1.2137 -0.1171
    2TMC3    C814416   3.398   1.716  15.079 -0.4197 -0.3272  0.5588
    2TMC3    O114417   3.240   1.589  14.649  0.5602  0.1496  0.4087
    2TMC3    O214418   3.479   1.629  15.059  0.0340  0.2222 -0.4370
    3TCq1    O114419   2.647   2.313  13.807 -0.1009  0.3317  0.4716
    3TCq1    C114420   2.751   2.395  13.834  0.2107 -0.6746 -0.1716
    3TCq1    O214421   2.792   2.493  13.780 -0.1871 -0.0040 -0.3989
    3TCq1    C214422   2.796   2.347  13.961  0.0451 -0.1647 -0.4398
    3TCq1    C314423   2.791   2.433  14.063  0.7011  0.3134 -0.0964
    3TCq1    C414424   2.840   2.396  14.183  0.4117 -0.4030  0.1609
    3TCq1    C514425   2.899   2.269  14.192 -0.1294 -0.5103  0.6507
    3TCq1    C614426   2.891   2.183  14.090  0.1488  0.5716 -1.0030
    3TCq1    C714427   2.847   2.223  13.963 -0.3631  0.0111 -0.1068
    3TCq1    C814428   2.947   2.047  14.103  0.2143 -0.2167 -0.4519
    3TCq1    O414429   3.013   2.004  14.004  0.1220  0.0444  0.0086
    3TCq1    C914430   2.842   2.491  14.292  0.4911  0.0313  0.0713
    3TCq1    O514431   2.918   2.460  14.389 -0.2675  0.0365  0.4234
    3TCq1    O614432   2.821   2.611  14.266  0.2914  1.2082 -0.3582
    3TCq1    H114433   2.622   2.247  13.875  0.9854 -1.4850 -0.9000
    3TCq1    H214434   2.747   2.532  14.056  0.2071  0.0958 -0.1067
    3TCq1    H314435   2.960   2.255  14.280 -1.8590 -0.4290  1.8572
    3TCq1    H414436   2.841   2.153  13.881 -0.0891 -0.6524  0.4394
    4MPD2     C14437   3.094   1.820  14.205  0.5669 -0.0860 -0.2840
    4MPD2    C114438   3.017   1.896  14.287  0.6105  0.2265 -0.0976
    4MPD2    C214439   3.006   1.870  14.424  0.7619 -0.0879  0.0296
    4MPD2    C314440   3.077   1.762  14.477  0.2951  0.7653 -0.8000
    4MPD2    C414441   3.136   1.669  14.395 -0.2314 -0.8640  0.0199
    4MPD2    C514442   3.153   1.709  14.266 -0.7452  0.5512  0.1764
    4MPD2     H14443   2.949   1.933  14.492  2.6957  0.4923  1.1037
    4MPD2    H114444   3.171   1.571  14.425 -0.9403 -0.1094  3.3379
    4MPD2    H214445   3.095   1.833  14.097 -2.0039  2.6384  0.0031
    4MPD2    H314446   3.210   1.645  14.200 -0.3425 -1.4066  2.4589
    4MPD2     N14447   3.066   1.743  14.617 -0.0495  0.6908  0.2121
    4MPD2    H514448   2.991   1.790  14.667 -0.9280  1.0508 -1.4190
    4MPD2    N114449   2.949   2.009  14.235  0.5009  0.4411 -0.0006
    4MPD2    H714450   2.892   2.062  14.300  0.5015  1.8453 -1.1516
    5TMC2    C114451   3.096   2.006  15.749 -0.5751 -0.1496  0.2423
    5TMC2    C214452   3.077   1.911  15.849 -0.2443 -0.2324  0.7650
    5TMC2    C314453   2.955   1.902  15.913 -0.1628  0.6052 -0.1517
    5TMC2    C414454   2.986   2.084  15.709 -0.3160  0.3619 -0.3516
    5TMC2    C514455   2.870   2.044  15.752 -0.2452  0.6219  0.2259
    5TMC2    C614456   2.848   1.956  15.853  1.1472 -0.3057 -0.2882
    5TMC2     C14457   3.186   1.969  15.640 -0.0311 -0.2821  0.4610
    5TMC2     O14458   3.143   2.019  15.539 -0.4326  0.5225  0.2095
    5TMC2     H14459   3.166   1.872  15.899  1.8373  0.5234 -2.3738
    5TMC2    H114460   3.004   2.159  15.633  3.0111 -1.0568 -0.9979
    5TMC2    H214461   2.747   1.946  15.892  2.2848  0.3492  2.7824
    5TMC2    C714462   2.771   2.016  15.645 -0.0399  0.4408 -0.1348
    5TMC2    C814463   2.950   1.812  16.028  0.9585  0.6877 -0.1648
    5TMC2    O114464   2.651   2.021  15.669 -0.3355  0.4042 -0.2323
    5TMC2    O214465   2.999   1.701  16.034 -0.2973 -0.4953 -0.2822
    5TMC2    O514466   2.856   1.856  16.117  0.7307 -0.0416 -0.1726
    5TMC2    H514467   2.845   1.952  16.102  0.8213 -0.1276 -0.7935
    6MPD2     C14468   3.460   1.635  15.352  0.3490 -0.0769  0.1706
    6MPD2    C114469   3.383   1.745  15.324 -0.3137  0.3416 -0.5814
    6MPD2    C214470   3.309   1.818  15.419 -0.1756  0.0001 -0.7162
    6MPD2    C314471   3.320   1.784  15.549 -0.2701  0.3465 -0.0647
    6MPD2    C414472   3.395   1.670  15.579 -0.5801  0.5885  0.5776
    6MPD2    C514473   3.474   1.606  15.484 -0.4941 -0.3069  0.0731
    6MPD2     H14474   3.264   1.909  15.381  0.4306  0.6603  0.1552
    6MPD2    H114475   3.416   1.639  15.680  0.7557 -0.7780 -0.1150
    6MPD2    H214476   3.512   1.571  15.281 -0.2119  0.4879 -0.7469
    6MPD2    H314477   3.530   1.519  15.514 -0.2030  0.4285  1.6512
    6MPD2     N14478   3.265   1.860  15.655  0.2044 -0.1675  0.2822
    6MPD2    H514479   3.259   1.816  15.746  2.3647 -0.7151  0.1796
    6MPD2    N114480   3.351   1.780  15.190 -0.3068 -0.0275 -0.6948
    6MPD2    H714481   3.289   1.858  15.171  1.8692  1.3931 -1.8963
  945NH4     N114482   0.246   2.505  12.293 -0.4567  0.0510  0.1461
  945NH4     H214483   0.153   2.490  12.337 -0.3287 -0.0951  0.3650
  945NH4     H314484   0.297   2.589  12.328 -2.8110  1.1538  0.9305
  945NH4     H414485   0.238   2.521  12.190 -0.3677  3.9771  0.7378
  945NH4     H514486   0.315   2.428  12.305  0.3696  0.3901 -2.3249
  946SOD     NA14487   2.766   4.315  12.821  0.0053  0.4375 -0.6154
  947SOD     NA14488   0.641   2.403  15.336 -0.6842  0.2733 -0.3949
  948SOD     NA14489   4.601   3.917  13.637  0.5882 -0.0260 -0.2702
  949SOD     NA14490   1.316   1.598  17.416 -0.1945 -0.2576  0.0092
  950SOD     NA14491   3.902   2.921  11.664 -0.1532  0.4263 -0.2289
  951SOD     NA14492   3.277   1.325   4.195  0.1430 -0.0989 -0.0465
  952SOD     NA14493   2.973   2.678  14.419  0.2662  0.1432 -0.8653
  953SOL     OW14494   3.570   3.968   6.175  0.2199 -0.2457  0.5103
  953SOL    HW114495   3.527   3.932   6.252 -0.5321 -2.3174 -0.8879
  953SOL    HW214496   3.492   3.979   6.121 -0.4445  0.3160  1.5910
  954SOL     OW14497   2.014   0.865   8.330 -0.2917  0.6263 -0.4713
  954SOL    HW114498   1.951   0.799   8.358  1.6284 -0.0531  2.3279
  954SOL    HW214499   2.043   0.821   8.250  0.2240 -1.7748  1.0418
  955SOL     OW14500   2.711   3.446   1.805 -0.3253 -0.3824 -0.1923
  955SOL    HW114501   2.619   3.436   1.779 -0.2890 -1.1677 -0.0148
  955SOL    HW214502   2.754   3.363   1.782 -2.1037 -0.5909 -2.8380
  956SOL     OW14503   0.474   1.674  12.584  0.3059  0.0869 -0.1260
  956SOL    HW114504   0.516   1.599  12.626 -2.0577 -1.0879  0.1875
  956SOL    HW214505   0.451   1.634  12.500  0.2968  0.7744 -0.4511
  957SOL     OW14506   3.364   0.845   9.255  0.0742 -0.1432 -0.0010
  957SOL    HW114507   3.327   0.829   9.341 -1.9175 -0.0100 -0.8426
  957SOL    HW214508   3.295   0.804   9.203  0.4974 -1.7966  0.7652
  958SOL     OW14509   2.642   3.873   6.631 -0.6744  0.1135 -0.3076
  958SOL    HW114510   2.727   3.874   6.587 -0.9771 -0.5048 -0.8872
  958SOL    HW214511   2.638   3.811   6.704 -2.0979  0.0818 -0.4077
  959SOL     OW14512   0.288   1.125   6.906 -0.5512 -0.4870 -0.0776
  959SOL    HW114513   0.329   1.047   6.943  0.0810 -0.8669 -1.5736
  959SOL    HW214514   0.363   1.174   6.870 -2.0745  0.2751 -2.2416
  960SOL     OW14515   0.285   0.244   4.973  0.0647 -0.2607  0.2089
  960SOL    HW114516   0.232   0.205   5.042  0.2971  1.4948  1.3477
  960SOL    HW214517   0.377   0.243   4.999  0.6970 -1.8336 -2.0873
  961SOL     OW14518   3.003   4.245  13.240  0.0526 -0.0474 -0.2690
  961SOL    HW114519   2.981   4.211  13.327 -1.0617 -1.2927 -1.0366
  961SOL    HW214520   2.956   4.328  13.245  1.8006  0.9184 -0.0652
  962SOL     OW14521   3.510   1.567   0.627  0.6936  0.3027 -0.3580
  962SOL    HW114522   3.462   1.501   0.676  1.2067  0.8283  0.8350
  962SOL    HW214523   3.444   1.620   0.581  0.6771 -0.5324 -1.3027
  963SOL     OW14524   0.392   0.567  10.792  0.0235  0.3443 -0.1752
  963SOL    HW114525   0.362   0.647  10.834  1.5141  1.5285 -1.3951
  963SOL    HW214526   0.431   0.513  10.861  2.0667 -0.5535 -2.0020
  964SOL     OW14527   1.302   2.715   4.767 -0.4002 -0.3567  0.5720
  964SOL    HW114528   1.326   2.632   4.807  1.5456 -0.4666 -0.8002
  964SOL    HW214529   1.300   2.688   4.675 -3.2353 -0.3275  0.6238
  965SOL     OW14530   3.772   0.752   0.568  0.2531  0.3155  0.2980
  965SOL    HW114531   3.676   0.759   0.573  0.1947 -0.5866  0.5554
  965SOL    HW214532   3.805   0.833   0.605  1.1715  0.8230 -1.6052
  966SOL     OW14533   2.982   1.314   0.252  0.0004  0.0044  0.4109
  966SOL    HW114534   3.039   1.308   0.328 -0.0713  3.1907  0.7127
  966SOL    HW214535   2.908   1.267   0.291 -1.4128  1.4275 -0.5465
  967SOL     OW14536   4.587   3.356   8.662 -0.4534  0.3836  0.0043
  967SOL    HW114537   4.601   3.308   8.743  0.5500 -1.1795 -1.1258
  967SOL    HW214538   4.672   3.397   8.646  0.0403  0.1952  2.1811
  968SOL     OW14539   4.509   3.629   9.626  0.1483  0.4111  0.5827
  968SOL    HW114540   4.577   3.687   9.593 -0.4748 -0.2570 -1.8889
  968SOL    HW214541   4.550   3.543   9.627 -0.1327  0.2385 -3.2070
  969SOL     OW14542   0.154   4.234   2.197  0.5019  0.0537  0.0952
  969SOL    HW114543   0.061   4.242   2.215  0.8077  3.5177  0.0997
  969SOL    HW214544   0.162   4.140   2.215 -1.4103 -0.2581 -0.7214
  970SOL     OW14545   1.006   4.730   5.490 -0.2459 -0.1087  0.2962
  970SOL    HW114546   1.048   0.016   5.574 -1.7587  2.8171  0.2733
  970SOL    HW214547   1.085   4.709   5.441 -0.6515  1.7554 -1.1424
  971SOL     OW14548   2.143   2.197   6.659 -0.2223 -0.0945 -0.5213
  971SOL    HW114549   2.169   2.255   6.730  0.2135 -0.4138 -0.4199
  971SOL    HW214550   2.225   2.196   6.610  1.5647  1.4468  2.4368
  972SOL     OW14551   3.374   3.708  16.946 -0.3998 -0.0391 -0.8761
  972SOL    HW114552   3.319   3.768  16.997 -0.0330  0.6387 -1.2748
  972SOL    HW214553   3.406   3.769  16.879  0.7282  1.5306  1.0974
  973SOL     OW14554   1.747   3.910  12.090  0.1632  0.6458  0.1749
  973SOL    HW114555   1.791   3.838  12.134 -0.7946  1.4751  2.4921
  973SOL    HW214556   1.819   3.969  12.067 -0.2423  0.4504 -1.5878
  974SOL     OW14557   3.433   0.736   5.665 -0.1734 -0.2517  0.2232
  974SOL    HW114558   3.384   0.801   5.615  0.3204  0.9963  1.3752
  974SOL    HW214559   3.364   0.696   5.718 -0.7252  1.0012  0.4424
  975SOL     OW14560   4.387   0.498  11.017 -0.0644  0.3355 -0.1493
  975SOL    HW114561   4.398   0.417  11.067 -0.9237 -1.1232 -2.3267
  975SOL    HW214562   4.391   0.558  11.093  0.5045  1.0399 -0.7374
  976SOL     OW14563   0.579   2.740   9.185  0.0268  0.4115  0.1362
  976SOL    HW114564   0.621   2.820   9.154  0.5526  0.5524  1.2192
  976SOL    HW214565   0.505   2.774   9.234 -1.2618  0.0238 -1.5521
  977SOL     OW14566   1.833   2.077   8.878  0.0134 -0.0874 -0.3396
  977SOL    HW114567   1.755   2.023   8.864  1.4145 -1.9856 -0.7148
  977SOL    HW214568   1.894   2.050   8.810  0.3510  1.9561 -0.8644
  978SOL     OW14569   4.004   0.258  12.219 -0.3090  0.2177  0.0842
  978SOL    HW114570   4.014   0.327  12.153 -1.8644  0.9993  0.6584
  978SOL    HW214571   4.064   0.288  12.287  0.0423  1.4333 -0.7572
  979SOL     OW14572   2.377   3.451   7.651  0.1485  0.3724 -0.0604
  979SOL    HW114573   2.440   3.514   7.685 -0.4819  0.5221  0.8021
  979SOL    HW214574   2.360   3.489   7.565 -2.5053 -0.6443  0.0231
  980SOL     OW14575   3.863   0.241   4.181 -0.3934  0.1778 -0.1754
  980SOL    HW114576   3.768   0.237   4.184 -0.3923  0.0530 -0.3390
  980SOL    HW214577   3.876   0.277   4.269 -2.2735 -0.7028  0.4654
  981SOL     OW14578   1.956   0.070  16.362 -0.0313 -0.3388  0.4640
  981SOL    HW114579   1.929   0.141  16.304  1.6105 -0.2558 -0.2192
  981SOL    HW214580   2.006   0.025  16.293 -1.1399 -1.1860  0.2258
  982SOL     OW14581   2.071   3.672   4.621  0.0352 -0.2511  0.3443
  982SOL    HW114582   2.006   3.733   4.587  2.2466  0.6354 -2.2804
  982SOL    HW214583   2.091   3.714   4.705 -1.9519  1.5675 -0.1094
  983SOL     OW14584   0.306   0.663   9.621  0.0859 -0.2043 -0.2153
  983SOL    HW114585   0.281   0.603   9.691  2.0577 -0.7794 -0.0105
  983SOL    HW214586   0.402   0.663   9.625  0.1017 -0.7316 -0.5717
  984SOL     OW14587   1.588   2.997  13.297 -0.5227  0.5115 -0.5298
  984SOL    HW114588   1.676   2.971  13.273 -0.1310  0.7485  0.6535
  984SOL    HW214589   1.564   2.908  13.325  1.3298  1.0109  2.5668
  985SOL     OW14590   2.436   4.393  13.473 -0.1094  0.4046  0.1148
  985SOL    HW114591   2.513   4.431  13.514  0.8038 -1.3119 -0.0066
  985SOL    HW214592   2.379   4.389  13.549  1.2019 -1.9734  0.9715
  986SOL     OW14593   3.351   1.690   2.537  0.4741  0.6892 -0.6385
  986SOL    HW114594   3.445   1.671   2.528  0.0884 -1.9108  0.8846
  986SOL    HW214595   3.322   1.620   2.595  2.3924  0.7979  0.4480
  987SOL     OW14596   0.455   3.844   3.917 -0.0978 -0.3978 -0.4826
  987SOL    HW114597   0.365   3.838   3.884  0.3605 -1.2767 -1.6004
  987SOL    HW214598   0.455   3.936   3.942  0.9218 -0.5945  0.2320
  988SOL     OW14599   2.316   1.291   4.375  0.1339 -0.2096 -0.8960
  988SOL    HW114600   2.234   1.338   4.388  0.2913  0.5127 -2.6107
  988SOL    HW214601   2.300   1.229   4.305 -1.1724 -1.3238  0.3800
  989SOL     OW14602   0.267   2.808  16.256 -0.2099  0.3306 -0.7977
  989SOL    HW114603   0.260   2.902  16.274  0.3074  0.3470 -0.6874
  989SOL    HW214604   0.362   2.806  16.245 -0.0214  2.8726  0.2959
  990SOL     OW14605   2.246   4.006   5.614  0.5738  0.2040 -0.1576
  990SOL    HW114606   2.295   4.083   5.644  0.0997  0.3034  0.3891
  990SOL    HW214607   2.168   4.050   5.580  0.4552  0.0097 -0.1407
  991SOL     OW14608   2.415   0.221   7.225 -0.2942 -0.0998 -0.0929
  991SOL    HW114609   2.347   0.207   7.159 -0.6861 -1.9017  0.7082
  991SOL    HW214610   2.448   0.308   7.203 -0.2192 -0.5739 -1.8340
  992SOL     OW14611   4.498   4.218   5.854 -0.0344  0.7622  0.5035
  992SOL    HW114612   4.537   4.215   5.941 -1.7518 -1.3754  1.2084
  992SOL    HW214613   4.447   4.297   5.876 -1.1197  0.4823 -0.9714
  993SOL     OW14614   0.622   0.874   4.776 -0.5083  0.3746  0.1751
  993SOL    HW114615   0.610   0.962   4.813  0.4405  1.5223 -2.2379
  993SOL    HW214616   0.534   0.836   4.774  0.1964 -1.4305  3.3225
  994SOL     OW14617   1.376   4.477   4.468  0.4117  0.0982  0.4142
  994SOL    HW114618   1.319   4.546   4.504  0.1677 -0.6634  1.4822
  994SOL    HW214619   1.315   4.433   4.409 -2.0489  0.9894  2.2629
  995SOL     OW14620   2.468   4.107   3.457 -0.5593 -0.6426 -0.2235
  995SOL    HW114621   2.409   4.068   3.393 -1.5268  1.8639 -0.8483
  995SOL    HW214622   2.527   4.150   3.395  1.4592 -1.2320  1.2780
  996SOL     OW14623   3.191   3.952  11.251 -0.5103 -0.3588 -0.2816
  996SOL    HW114624   3.162   4.042  11.238 -2.6614 -1.0482 -0.3269
  996SOL    HW214625   3.205   3.912  11.165 -0.6876 -0.3633 -0.3091
  997SOL     OW14626   2.858   3.948   3.855 -0.3867 -0.6536  0.0771
  997SOL    HW114627   2.798   4.018   3.878 -0.7015 -0.0298 -2.6933
  997SOL    HW214628   2.817   3.919   3.774  0.5960  1.9175 -1.3257
  998SOL     OW14629   1.866   1.532   3.320 -0.5392  0.1083 -0.9700
  998SOL    HW114630   1.780   1.534   3.361  0.3073 -1.8075  0.9390
  998SOL    HW214631   1.933   1.508   3.384 -2.3121  0.9889  1.2211
  999SOL     OW14632   0.620   1.877   8.610  0.1896 -0.3609 -0.4212
  999SOL    HW114633   0.690   1.941   8.621 -0.6930  0.2816  1.5221
  999SOL    HW214634   0.588   1.875   8.700  0.9073 -1.1896 -0.1931
 1000SOL     OW14635   1.965   3.965   4.706 -0.5116  0.2119  0.2918
 1000SOL    HW114636   1.878   4.003   4.721  0.1343  1.5125  0.7776
 1000SOL    HW214637   1.979   3.993   4.616  0.8499  1.9268  1.0184
 1001SOL     OW14638   3.598   4.313  11.930  0.4104 -0.3549 -0.1158
 1001SOL    HW114639   3.624   4.235  11.880  0.9790 -0.5344  0.4642
 1001SOL    HW214640   3.635   4.300  12.017  1.0218 -2.7183 -0.7181
 1002SOL     OW14641   4.106   4.022   8.744  0.2595 -0.2066  0.3072
 1002SOL    HW114642   4.061   4.063   8.818 -2.8115 -3.0085 -0.0237
 1002SOL    HW214643   4.184   4.003   8.795  0.7922 -1.2274 -0.8894
 1003SOL     OW14644   4.171   4.705  13.693 -0.2129  0.4843  0.3466
 1003SOL    HW114645   4.192   4.616  13.662 -1.0185  0.4563 -0.1089
 1003SOL    HW214646   4.076   4.706  13.684 -0.1164  3.6014 -0.3343
 1004SOL     OW14647   1.696   4.539   2.593  0.2312  0.0132 -0.4359
 1004SOL    HW114648   1.634   4.494   2.536 -1.1418  2.0461 -0.5341
 1004SOL    HW214649   1.760   4.563   2.526  1.3376  0.0085  0.6196
 1005SOL     OW14650   0.454   3.820   8.497  0.1945 -0.2085  0.4121
 1005SOL    HW114651   0.411   3.736   8.480  0.4262  0.2369 -2.3586
 1005SOL    HW214652   0.446   3.823   8.592 -0.6015 -0.1385  0.3369
 1006SOL     OW14653   2.947   3.362   4.221  0.0662 -0.0572  0.3898
 1006SOL    HW114654   3.042   3.356   4.231  0.0501  0.1673  0.6570
 1006SOL    HW214655   2.941   3.338   4.128 -0.5675 -3.3258  1.2944
 1007SOL     OW14656   1.044   1.379  14.872 -0.2985  0.2549 -0.0618
 1007SOL    HW114657   1.022   1.465  14.907 -1.0093 -0.4955  1.3502
 1007SOL    HW214658   0.972   1.316  14.882  0.4811 -0.8474 -1.4358
 1008SOL     OW14659   0.888   3.905   3.233  0.4659 -0.4046  0.4234
 1008SOL    HW114660   0.922   3.876   3.317 -1.9216 -0.2730  1.4234
 1008SOL    HW214661   0.961   3.906   3.170  0.9504  1.9817  1.0067
 1009SOL     OW14662   3.983   4.315  14.368 -0.0300  0.0716 -0.2499
 1009SOL    HW114663   4.012   4.224  14.364  2.2441  0.7259  1.0697
 1009SOL    HW214664   4.069   4.357  14.368  0.1931 -0.4135 -3.6266
 1010SOL     OW14665   3.770   0.863   2.551 -0.4428 -0.6167 -0.6758
 1010SOL    HW114666   3.822   0.920   2.495  2.1615 -3.5220 -1.1922
 1010SOL    HW214667   3.726   0.819   2.478  0.7879 -4.1294  0.7115
 1011SOL     OW14668   2.364   4.129   1.199  0.3204  0.2428  0.2063
 1011SOL    HW114669   2.458   4.124   1.215  0.0576  0.1427  1.6920
 1011SOL    HW214670   2.363   4.223   1.181  0.8295 -0.4422 -3.4221
 1012SOL     OW14671   0.577   4.267  11.674  0.6140 -0.1211  0.3122
 1012SOL    HW114672   0.569   4.262  11.769 -0.3931  2.3578  0.3647
 1012SOL    HW214673   0.671   4.272  11.658  0.3091  2.4504 -0.7428
 1013SOL     OW14674   2.423   2.801  11.699 -0.2639  0.3258  0.1851
 1013SOL    HW114675   2.518   2.793  11.712 -0.0044  0.6860 -1.5068
 1013SOL    HW214676   2.398   2.803  11.791 -1.0635  0.0634 -0.0343
 1014SOL     OW14677   0.750   1.491   9.792  0.3185 -0.5993  0.1552
 1014SOL    HW114678   0.799   1.447   9.723  0.5090  2.2228 -1.5483
 1014SOL    HW214679   0.794   1.576   9.790 -0.9260  0.0343 -0.6975
 1015SOL     OW14680   3.224   2.900   7.898  0.0664  0.2556  0.7101
 1015SOL    HW114681   3.255   2.929   7.983 -1.9735 -0.9092  1.8495
 1015SOL    HW214682   3.132   2.887   7.920 -0.4851 -0.8726 -2.2778
 1016SOL     OW14683   4.688   1.341   8.514 -0.4699  0.2164 -0.0259
 1016SOL    HW114684   4.709   1.257   8.475  1.5826 -0.0545  1.6646
 1016SOL    HW214685   4.602   1.350   8.473 -0.9311 -0.6265  0.7376
 1017SOL     OW14686   0.780   3.667  13.242 -0.3303  0.3495 -0.0981
 1017SOL    HW114687   0.826   3.586  13.221 -0.4874  0.0452  0.7315
 1017SOL    HW214688   0.728   3.638  13.317  0.7220 -2.0690 -0.3319
 1018SOL     OW14689   2.309   2.075   4.935 -0.5697  0.3053 -0.1046
 1018SOL    HW114690   2.219   2.079   4.968 -0.0856 -0.0326  1.2488
 1018SOL    HW214691   2.324   2.169   4.924 -1.0653  0.3001 -0.7998
 1019SOL     OW14692   1.901   4.403   2.697 -0.5319  0.6383  0.3304
 1019SOL    HW114693   1.982   4.453   2.709 -1.1358  2.1023 -1.6063
 1019SOL    HW214694   1.841   4.469   2.662 -0.7280  2.3822  3.9113
 1020SOL     OW14695   4.403   0.945   2.952 -0.5362  0.1738  0.0675
 1020SOL    HW114696   4.325   0.996   2.931 -1.1029 -0.8202 -0.2344
 1020SOL    HW214697   4.360   0.872   2.996  1.2824 -0.9277  0.0156
 1021SOL     OW14698   2.857   0.491   3.876 -0.2309 -0.2319 -0.2206
 1021SOL    HW114699   2.803   0.438   3.935  0.4074 -1.2939 -0.5890
 1021SOL    HW214700   2.788   0.544   3.836 -0.8933 -1.3488 -0.5416
 1022SOL     OW14701   3.167   3.421   7.442 -0.3231  0.2792 -0.6941
 1022SOL    HW114702   3.134   3.455   7.525  0.0797 -1.8081  0.3073
 1022SOL    HW214703   3.209   3.340   7.470 -1.0128 -0.3376 -1.4070
 1023SOL     OW14704   4.502   2.872   7.997 -0.7385  0.5161  0.3557
 1023SOL    HW114705   4.427   2.882   8.056 -0.4674  0.6187  0.6793
 1023SOL    HW214706   4.485   2.956   7.955  1.9825 -0.4558 -2.6286
 1024SOL     OW14707   4.246   1.574  12.293  0.1450  0.3957 -0.1284
 1024SOL    HW114708   4.189   1.514  12.342  0.3542  1.6325  1.6133
 1024SOL    HW214709   4.186   1.644  12.266  1.0288  1.2604  0.1780
 1025SOL     OW14710   4.399   3.011   6.021 -0.0194 -0.3084 -0.3294
 1025SOL    HW114711   4.473   3.064   5.992  1.0806 -0.3630  2.3841
 1025SOL    HW214712   4.401   2.948   5.949 -0.5159 -1.8596  1.0078
 1026SOL     OW14713   1.608   4.041   2.118 -0.9441 -0.9396  0.1913
 1026SOL    HW114714   1.558   4.114   2.155  1.3058  0.0248  1.3145
 1026SOL    HW214715   1.651   4.007   2.196 -0.2867  0.4518  0.4432
 1027SOL     OW14716   1.268   2.883   8.237  0.1731 -0.1023 -0.0846
 1027SOL    HW114717   1.222   2.967   8.243  1.9267  1.0739 -2.7337
 1027SOL    HW214718   1.251   2.856   8.146  0.6997 -0.5942 -0.0332
 1028SOL     OW14719   3.542   0.897  14.409  0.6362 -0.3595  0.2391
 1028SOL    HW114720   3.579   0.944  14.483 -2.4617  5.1494 -1.7430
 1028SOL    HW214721   3.579   0.946  14.335  0.5218  0.9081  1.0373
 1029SOL     OW14722   1.671   0.158   1.149 -0.7710  0.2225  0.0667
 1029SOL    HW114723   1.589   0.156   1.102 -2.6851 -0.7158  3.4338
 1029SOL    HW214724   1.657   0.212   1.227 -1.3852 -1.8047  1.3759
 1030SOL     OW14725   1.084   0.254   7.932  0.0986  1.2362  0.6680
 1030SOL    HW114726   1.148   0.248   7.861 -0.1252  2.0332  0.4071
 1030SOL    HW214727   1.058   0.344   7.917  0.4600  1.1789 -0.3082
 1031SOL     OW14728   3.352   3.235   7.526  0.0824 -0.1482 -0.1939
 1031SOL    HW114729   3.395   3.164   7.477 -0.7726  0.0182 -1.1984
 1031SOL    HW214730   3.316   3.181   7.596  1.6165 -2.1484 -0.9326
 1032SOL     OW14731   2.230   0.214   7.023 -0.0122 -0.4345  0.0972
 1032SOL    HW114732   2.280   0.185   6.946 -0.9568 -1.2112 -0.2242
 1032SOL    HW214733   2.166   0.268   6.977 -0.3623 -1.0168 -0.0973
 1033SOL     OW14734   3.266   1.626   8.563  0.1110 -0.2625 -0.1188
 1033SOL    HW114735   3.297   1.577   8.487  0.4246 -2.5789  1.5085
 1033SOL    HW214736   3.346   1.678   8.576  0.0754 -0.1436 -0.3657
 1034SOL     OW14737   1.061   0.762   7.697  0.4579 -0.1566  0.3168
 1034SOL    HW114738   0.979   0.713   7.685  0.3373 -0.1582  1.1302
 1034SOL    HW214739   1.036   0.854   7.703  1.7636  0.2550 -0.5189
 1035SOL     OW14740   2.015   3.539  12.804 -0.5534 -0.4003 -0.2046
 1035SOL    HW114741   2.090   3.593  12.830 -0.9301 -0.5661  1.2644
 1035SOL    HW214742   2.059   3.475  12.749  2.6632  1.6219  0.0618
 1036SOL     OW14743   0.855   4.458   9.546  0.3071 -0.7383 -0.8385
 1036SOL    HW114744   0.911   4.529   9.514  1.4107  0.5305  3.9088
 1036SOL    HW214745   0.861   4.471   9.640 -0.4549  0.9249 -0.9980
 1037SOL     OW14746   0.333   3.108   1.063 -0.0886  0.1341 -0.3649
 1037SOL    HW114747   0.402   3.120   1.129  0.3613  0.7885 -0.9567
 1037SOL    HW214748   0.282   3.049   1.118 -2.1583 -0.9687 -3.5217
 1038SOL     OW14749   3.068   4.457   3.853 -0.2564  0.4294  0.2594
 1038SOL    HW114750   3.135   4.526   3.845  1.0130 -0.6898  1.2260
 1038SOL    HW214751   3.087   4.415   3.769  2.0367  0.5380  0.7090
 1039SOL     OW14752   3.772   2.593   6.629  0.4347 -0.2664 -0.2832
 1039SOL    HW114753   3.747   2.501   6.619  0.2253 -0.3686  1.1258
 1039SOL    HW214754   3.692   2.633   6.662  0.9454  0.8886 -0.4135
 1040SOL     OW14755   2.082   1.492  12.260 -0.3887  0.1939  0.3942
 1040SOL    HW114756   2.002   1.477  12.310 -1.1167  2.2740 -0.1839
 1040SOL    HW214757   2.073   1.417  12.201  0.7489  0.3466  0.0244
 1041SOL     OW14758   3.071   4.421   3.570 -0.2653 -0.3496 -0.1801
 1041SOL    HW114759   3.001   4.368   3.533  0.1809 -1.1584  0.1384
 1041SOL    HW214760   3.141   4.397   3.510 -0.9811  0.7434 -1.4462
 1042SOL     OW14761   3.938   4.654   9.520 -0.0110  0.3360  0.6273
 1042SOL    HW114762   3.981   4.618   9.598 -1.1252 -3.8772 -0.6890
 1042SOL    HW214763   3.890   4.580   9.482 -0.0099  0.3653  0.5694
 1043SOL     OW14764   2.816   1.510   8.681  0.0759  0.1315 -0.4708
 1043SOL    HW114765   2.859   1.553   8.606 -1.1143  0.0533 -1.1927
 1043SOL    HW214766   2.872   1.432   8.683 -0.3529 -0.1562  0.1616
 1044SOL     OW14767   2.623   0.677  11.493 -0.5530  0.0774  0.1118
 1044SOL    HW114768   2.694   0.641  11.547 -0.8838 -2.3323 -1.0301
 1044SOL    HW214769   2.641   0.622  11.416  2.1026  2.4746 -0.9913
 1045SOL     OW14770   3.546   0.118   8.321 -0.5599 -0.0087  0.5890
 1045SOL    HW114771   3.531   0.205   8.283 -2.8216 -0.9019 -0.5967
 1045SOL    HW214772   3.456   0.095   8.294 -0.0683 -0.3415 -0.7668
 1046SOL     OW14773   3.609   2.550   4.287  0.7858 -0.5954  0.5493
 1046SOL    HW114774   3.552   2.510   4.221 -2.2999  1.6096  1.8612
 1046SOL    HW214775   3.581   2.492   4.358 -0.0293  3.0542  3.2063
 1047SOL     OW14776   1.306   2.726   1.973 -0.1092 -0.3825 -0.1459
 1047SOL    HW114777   1.330   2.812   1.940  0.4969 -0.5852 -0.2457
 1047SOL    HW214778   1.372   2.667   1.936  0.0560  1.0589 -2.1045
 1048SOL     OW14779   1.198   3.273   0.634 -0.7015 -0.5649  0.3675
 1048SOL    HW114780   1.119   3.227   0.662  0.0988 -3.6121 -2.4037
 1048SOL    HW214781   1.165   3.363   0.644  0.9403 -0.0161  0.8779
 1049SOL     OW14782   4.735   1.937   3.716  0.4846 -0.3575  0.0822
 1049SOL    HW114783   0.033   2.021   3.745 -1.1888  0.5286 -0.4693
 1049SOL    HW214784   4.643   1.948   3.691  0.4499  1.2563  0.8907
 1050SOL     OW14785   3.643   2.661   4.720  0.5648 -0.4091  0.1316
 1050SOL    HW114786   3.737   2.661   4.703  0.6822 -0.0015  0.7911
 1050SOL    HW214787   3.630   2.578   4.766  0.2808 -0.9435 -0.9134
 1051SOL     OW14788   1.283   0.078   4.966  0.0552 -0.2464  0.0537
 1051SOL    HW114789   1.344   0.097   4.895 -0.9083 -1.4633 -1.0788
 1051SOL    HW214790   1.338   0.023   5.023 -1.8709 -3.0737 -0.8388
 1052SOL     OW14791   0.079   1.444   5.079  0.4939  0.1042 -0.0582
 1052SOL    HW114792   0.153   1.479   5.128  0.4382  1.9067 -1.2569
 1052SOL    HW214793   0.035   1.518   5.036  0.0585 -0.2819 -0.2739
 1053SOL     OW14794   1.562   2.291   0.412  0.3270  0.6885  0.0173
 1053SOL    HW114795   1.563   2.287   0.508  2.0863 -0.1908 -0.0408
 1053SOL    HW214796   1.559   2.199   0.388  0.4286  1.0440 -1.3573
 1054SOL     OW14797   0.117   0.767  11.064 -0.3976 -0.2837 -0.3590
 1054SOL    HW114798   0.079   0.736  11.146 -0.9511  3.9899  0.9910
 1054SOL    HW214799   0.059   0.713  11.010 -0.9114 -1.1108  1.0196
 1055SOL     OW14800   4.371   3.799  14.421  0.1803 -0.3457 -0.0787
 1055SOL    HW114801   4.300   3.764  14.367  0.5948 -2.3953  0.6767
 1055SOL    HW214802   4.415   3.715  14.432 -0.4768 -0.6410  0.3547
 1056SOL     OW14803   0.796   3.087   3.799 -0.0661  0.0495 -0.2237
 1056SOL    HW114804   0.816   3.097   3.706 -1.1538 -0.1562 -0.4825
 1056SOL    HW214805   0.790   2.993   3.813 -0.3129  0.1229  0.1456
 1057SOL     OW14806   4.258   0.967   0.942  0.2875  0.3793 -0.3632
 1057SOL    HW114807   4.293   0.917   1.015  1.1609  0.5003 -0.6920
 1057SOL    HW214808   4.338   1.012   0.913  1.7386 -2.3279 -0.6008
 1058SOL     OW14809   2.141   0.846  12.340 -0.0694  0.5040  0.1354
 1058SOL    HW114810   2.221   0.851  12.393  0.5770  3.1630 -1.0759
 1058SOL    HW214811   2.157   0.924  12.287 -1.6701  0.8476  0.1741
 1059SOL     OW14812   1.847   0.715   1.739  0.3381  0.1994 -0.1506
 1059SOL    HW114813   1.910   0.649   1.709 -2.1857 -2.0091 -0.5585
 1059SOL    HW214814   1.902   0.782   1.778  0.6704 -0.8002  1.0981
 1060SOL     OW14815   2.113   1.790   6.987  0.0823 -0.2926  0.0709
 1060SOL    HW114816   2.194   1.830   7.019  0.0022 -0.8981  1.0219
 1060SOL    HW214817   2.115   1.821   6.897 -0.6316 -1.2977 -0.2949
 1061SOL     OW14818   1.963   3.428   4.568 -0.0247 -0.2689 -0.1992
 1061SOL    HW114819   1.933   3.443   4.478  2.3348 -1.0294 -1.0856
 1061SOL    HW214820   2.024   3.502   4.574  0.3367 -0.4280 -1.7881
 1062SOL     OW14821   0.050   2.962  11.175  0.1533  0.0742  0.0824
 1062SOL    HW114822   0.124   2.903  11.192  1.7398  2.0294 -0.0820
 1062SOL    HW214823   0.043   2.961  11.080  0.3194  1.7271  0.0549
 1063SOL     OW14824   3.051   0.267   6.855 -0.1666  0.2991  0.0603
 1063SOL    HW114825   2.976   0.325   6.869 -0.0042  0.0802  1.7651
 1063SOL    HW214826   3.106   0.320   6.797  0.7314 -3.0309 -2.0802
 1064SOL     OW14827   2.683   4.162   9.481 -0.1052  0.1116  0.4511
 1064SOL    HW114828   2.760   4.217   9.467 -0.7534  1.1669  1.0089
 1064SOL    HW214829   2.618   4.231   9.466 -0.5312  0.0062  1.8098
 1065SOL     OW14830   0.943   3.543   3.399  0.2382 -0.2566  0.0240
 1065SOL    HW114831   0.897   3.623   3.422 -1.3496 -0.7991 -1.2274
 1065SOL    HW214832   1.021   3.579   3.356  0.7159 -0.2463  0.8971
 1066SOL     OW14833   4.730   2.342  11.259 -0.0407  0.2322 -0.4528
 1066SOL    HW114834   0.049   2.408  11.300 -0.4843  0.6222 -0.4717
 1066SOL    HW214835   4.663   2.336  11.327  2.1184 -1.7225  1.5015
 1067SOL     OW14836   3.290   1.500   2.729  0.2157  0.4787 -0.3211
 1067SOL    HW114837   3.377   1.485   2.765 -0.0009  0.6762  0.2846
 1067SOL    HW214838   3.244   1.558   2.790  1.5376 -0.1454  1.2680
 1068SOL     OW14839   1.188   0.443   5.794 -0.1763 -0.6146  0.7017
 1068SOL    HW114840   1.115   0.491   5.755 -0.5744 -2.0775 -0.3335
 1068SOL    HW214841   1.153   0.432   5.883  3.6072 -0.5926  2.2102
 1069SOL     OW14842   1.236   4.695   4.570 -0.3626 -0.4246  0.1698
 1069SOL    HW114843   1.228   0.009   4.489  0.7686  0.5303  0.6613
 1069SOL    HW214844   1.148   4.686   4.608 -0.7060  0.5082 -0.3962
 1070SOL     OW14845   2.373   2.432   8.838 -0.2521  0.1566 -0.2601
 1070SOL    HW114846   2.326   2.416   8.757  0.1791 -1.5497 -0.1721
 1070SOL    HW214847   2.455   2.477   8.818  0.7847 -1.7746 -0.2531
 1071SOL     OW14848   1.394   1.126   4.352  0.3596 -0.6244  0.2674
 1071SOL    HW114849   1.473   1.180   4.347  0.1911 -0.2396  1.9123
 1071SOL    HW214850   1.418   1.039   4.386  2.8796 -0.0470 -0.0268
 1072SOL     OW14851   1.140   2.449  15.086 -0.1426 -0.2429 -0.1550
 1072SOL    HW114852   1.130   2.354  15.100  0.2783 -0.3155 -0.3287
 1072SOL    HW214853   1.072   2.446  15.018  0.9842 -0.6595 -1.2730
 1073SOL     OW14854   0.423   0.433  15.085  0.3184  0.4160  0.1798
 1073SOL    HW114855   0.410   0.339  15.096 -0.8389  0.4822 -0.5463
 1073SOL    HW214856   0.381   0.461  15.166  1.9864  2.2795  0.4158
 1074SOL     OW14857   2.554   2.295   4.957  0.4649 -0.9030  0.3433
 1074SOL    HW114858   2.579   2.379   4.996  1.3731 -0.6076 -0.8869
 1074SOL    HW214859   2.490   2.335   4.898  1.2061 -0.7346 -0.3432
 1075SOL     OW14860   1.419   2.653   3.167 -0.0382 -0.9305 -0.1624
 1075SOL    HW114861   1.504   2.629   3.131  0.2677 -1.6661  1.0506
 1075SOL    HW214862   1.384   2.570   3.199 -0.4736 -0.2251  1.2430
 1076SOL     OW14863   3.363   1.201   2.824  0.0371  0.0045  0.8787
 1076SOL    HW114864   3.326   1.287   2.846 -0.0755 -0.1757  1.3706
 1076SOL    HW214865   3.413   1.182   2.903 -1.1380 -1.2712  1.3167
 1077SOL     OW14866   3.866   2.326   7.853  0.0712 -0.4059  0.5433
 1077SOL    HW114867   3.819   2.245   7.834 -2.0017  0.4274  2.1109
 1077SOL    HW214868   3.795   2.385   7.879 -1.2144 -1.4396 -0.6368
 1078SOL     OW14869   1.965   0.406  16.344 -0.0493  0.8033  0.4622
 1078SOL    HW114870   2.061   0.401  16.339 -0.1015  0.7296 -0.4901
 1078SOL    HW214871   1.953   0.500  16.360  3.6512  1.5231 -0.9951
 1079SOL     OW14872   0.126   4.434   5.450  0.0270  0.1744  0.2018
 1079SOL    HW114873   0.210   4.465   5.484  0.9843 -1.3475 -0.7803
 1079SOL    HW214874   0.109   4.503   5.386  2.0091 -0.6861 -1.2596
 1080SOL     OW14875   3.249   4.388   2.906 -0.4350  0.4870 -0.1015
 1080SOL    HW114876   3.193   4.449   2.858 -1.5531 -0.0004  0.5805
 1080SOL    HW214877   3.324   4.388   2.846 -0.0347 -0.1602  0.4057
 1081SOL     OW14878   1.770   2.884  10.359  0.2431  0.3158  0.2870
 1081SOL    HW114879   1.683   2.903  10.325  1.2190  1.8354 -1.3798
 1081SOL    HW214880   1.806   2.973  10.355  0.4670  0.2390  0.5630
 1082SOL     OW14881   1.203   3.639   8.355 -0.4187  0.3367  0.0497
 1082SOL    HW114882   1.275   3.577   8.340 -1.4640 -0.9236  0.2374
 1082SOL    HW214883   1.144   3.589   8.411  0.8547 -0.6369  0.5109
 1083SOL     OW14884   3.227   4.446  10.736  0.6160  0.6729  0.1602
 1083SOL    HW114885   3.202   4.537  10.716 -1.6385  0.1688  0.7474
 1083SOL    HW214886   3.143   4.403  10.750  1.2730 -0.7716 -0.3631
 1084SOL     OW14887   3.231   1.365  12.099 -0.0046 -0.2089  0.0857
 1084SOL    HW114888   3.195   1.398  12.017  2.9003 -0.2723 -1.2386
 1084SOL    HW214889   3.259   1.277  12.072 -0.8026 -0.0557 -1.2274
 1085SOL     OW14890   3.958   3.699   6.567  0.0168  0.4032  0.2286
 1085SOL    HW114891   3.999   3.775   6.609  1.7694  0.2787 -1.2540
 1085SOL    HW214892   3.877   3.743   6.542 -0.7339 -1.6895 -1.0372
 1086SOL     OW14893   2.945   1.301   7.834 -0.2139 -0.0753  0.1223
 1086SOL    HW114894   2.965   1.224   7.888 -2.3775 -1.1160 -0.5435
 1086SOL    HW214895   2.887   1.334   7.903  0.7286 -1.4813  1.6080
 1087SOL     OW14896   4.053   0.706   5.461  0.0282 -0.2132  0.5060
 1087SOL    HW114897   4.070   0.613   5.444  0.0936  0.0433 -0.8220
 1087SOL    HW214898   4.137   0.731   5.499  0.2939  0.2185 -0.3678
 1088SOL     OW14899   1.330   0.859  12.644 -0.2708  0.0831  0.0288
 1088SOL    HW114900   1.335   0.789  12.709  0.4156  0.9463  0.9057
 1088SOL    HW214901   1.235   0.866  12.649 -0.1962  0.8676  0.3488
 1089SOL     OW14902   2.091   0.700   8.127 -0.2221 -0.2250 -0.2563
 1089SOL    HW114903   2.146   0.639   8.077  0.8490  1.8020 -1.5556
 1089SOL    HW214904   2.046   0.742   8.054  0.8331 -0.5074 -1.0675
 1090SOL     OW14905   4.451   1.983   3.753  0.1731  0.7048  0.0028
 1090SOL    HW114906   4.399   1.906   3.777  0.0695  0.7505 -0.0731
 1090SOL    HW214907   4.437   2.033   3.834  0.4803  3.6156 -1.7322
 1091SOL     OW14908   1.445   0.760   1.887  0.1428 -0.2378 -0.0105
 1091SOL    HW114909   1.382   0.690   1.907 -0.3098  0.9160  2.5089
 1091SOL    HW214910   1.385   0.825   1.849 -0.2849 -0.6104  0.0209
 1092SOL     OW14911   2.291   4.264   1.716  0.3032  0.7609 -0.4206
 1092SOL    HW114912   2.268   4.183   1.672  3.1960 -1.6109  2.4706
 1092SOL    HW214913   2.290   4.234   1.807  0.9536  0.6733 -0.4437
 1093SOL     OW14914   2.808   3.270   5.462 -0.3327  0.4045 -0.0928
 1093SOL    HW114915   2.737   3.254   5.400 -0.1776 -0.4377 -0.0499
 1093SOL    HW214916   2.753   3.274   5.541  0.0238  2.2692  0.0519
 1094SOL     OW14917   0.845   2.603   7.756 -0.9093  0.5819 -0.2894
 1094SOL    HW114918   0.805   2.523   7.791  0.1368  0.7110  1.2011
 1094SOL    HW214919   0.766   2.626   7.707 -1.1119 -1.1247 -0.7517
 1095SOL     OW14920   1.645   2.347   8.975 -0.5045  0.9209  0.4051
 1095SOL    HW114921   1.626   2.404   9.050  0.3475  0.9340  0.6078
 1095SOL    HW214922   1.582   2.275   8.983  0.2009  0.2738  0.0912
 1096SOL     OW14923   0.414   4.394   2.794  0.0354  0.0941 -0.5524
 1096SOL    HW114924   0.510   4.397   2.797  0.1703 -1.1283 -3.5058
 1096SOL    HW214925   0.404   4.428   2.705  3.2133 -1.7319 -1.6169
 1097SOL     OW14926   0.039   3.510   5.671  0.1368 -0.3712 -0.5240
 1097SOL    HW114927   4.720   3.434   5.657  0.5640 -0.6570 -0.6754
 1097SOL    HW214928   4.732   3.588   5.639 -0.6097 -1.0374 -1.1228
 1098SOL     OW14929   2.444   1.970   5.141 -0.3468 -0.0792  0.2244
 1098SOL    HW114930   2.400   2.014   5.068 -0.2602 -0.9471 -0.3425
 1098SOL    HW214931   2.445   1.877   5.118  1.5702  0.2428 -0.9678
 1099SOL     OW14932   4.294   0.217  14.067 -0.3546  0.0119  0.2865
 1099SOL    HW114933   4.355   0.291  14.068  0.0557 -0.3201 -1.9082
 1099SOL    HW214934   4.281   0.207  13.973  1.0914  0.2440  0.0514
 1100SOL     OW14935   4.180   1.056   3.965 -0.4845  0.4560  0.3521
 1100SOL    HW114936   4.112   1.000   4.001 -0.0400 -0.8543 -0.8460
 1100SOL    HW214937   4.222   0.988   3.912 -1.6234  0.1901 -0.2099
 1101SOL     OW14938   0.062   4.380   8.367 -0.0849 -0.1389 -0.1854
 1101SOL    HW114939   0.013   4.357   8.287 -1.7044 -2.3719  1.4552
 1101SOL    HW214940   0.004   4.338   8.430 -0.4208 -0.3862 -0.6559
 1102SOL     OW14941   0.378   0.476   8.864  0.7378 -0.4146  0.5082
 1102SOL    HW114942   0.389   0.519   8.779 -1.7206 -0.5903  0.1290
 1102SOL    HW214943   0.411   0.391   8.835 -2.0528 -1.5280  0.6613
 1103SOL     OW14944   3.611   2.216   0.634 -0.5400 -0.4007  0.5080
 1103SOL    HW114945   3.589   2.218   0.541  0.4013  1.3431  0.3125
 1103SOL    HW214946   3.685   2.155   0.634  0.5992  0.9883 -0.1051
 1104SOL     OW14947   0.876   3.665   8.954  0.0572  0.4599 -0.1079
 1104SOL    HW114948   0.931   3.603   9.002  0.5843  0.7743 -0.3090
 1104SOL    HW214949   0.938   3.719   8.905  0.3513 -1.8573 -2.3053
 1105SOL     OW14950   3.549   0.919   7.819 -0.2240 -0.5483  0.4251
 1105SOL    HW114951   3.552   0.888   7.909 -0.6339 -1.2049  0.2163
 1105SOL    HW214952   3.462   0.886   7.795 -0.6811  1.3998 -0.6378
 1106SOL     OW14953   3.899   4.076   5.836 -0.1595  0.2373 -0.3231
 1106SOL    HW114954   3.859   4.066   5.922  1.7165 -1.1038  0.3971
 1106SOL    HW214955   3.944   4.157   5.863 -1.2669  0.8617 -0.3597
 1107SOL     OW14956   0.772   4.259   9.921  0.3369 -0.3167  0.0773
 1107SOL    HW114957   0.752   4.209  10.000  0.8436  1.1315  1.1208
 1107SOL    HW214958   0.854   4.216   9.899  1.2854  1.3381  0.3761
 1108SOL     OW14959   4.123   3.131   6.034  0.4479 -0.5331  0.6131
 1108SOL    HW114960   4.217   3.141   6.047  0.3595 -1.0212  1.6207
 1108SOL    HW214961   4.106   3.041   6.005 -0.9275  0.3964 -1.4314
 1109SOL     OW14962   3.060   0.787   5.175  0.2107 -0.4231 -0.9173
 1109SOL    HW114963   3.027   0.843   5.245 -2.6300  0.3559 -2.8669
 1109SOL    HW214964   3.021   0.706   5.207 -2.0700  1.2835  0.5846
 1110SOL     OW14965   2.431   3.275   2.768  0.2242 -0.0959 -0.2259
 1110SOL    HW114966   2.433   3.236   2.680 -2.1715 -1.4837  0.3269
 1110SOL    HW214967   2.359   3.221   2.801  0.7893  0.1355  1.3887
 1111SOL     OW14968   3.540   0.014  10.566  0.3397 -0.0177 -0.6748
 1111SOL    HW114969   3.555   4.700  10.645 -1.4191 -0.9573 -0.9558
 1111SOL    HW214970   3.526   0.106  10.590 -1.9566  0.4370 -3.6577
 1112SOL     OW14971   2.481   2.723   1.644  0.0733 -0.2312  0.7897
 1112SOL    HW114972   2.392   2.711   1.612  0.5698 -0.0917 -0.6521
 1112SOL    HW214973   2.499   2.638   1.684 -5.0791 -0.9144  1.6084
 1113SOL     OW14974   1.366   2.347  17.155  0.3407 -0.1781  0.1264
 1113SOL    HW114975   1.280   2.385  17.136  0.1319  0.8619  3.1117
 1113SOL    HW214976   1.367   2.274  17.093  0.4269  1.3358 -1.6459
 1114SOL     OW14977   0.427   3.249   8.838  0.6286 -0.4364 -0.0225
 1114SOL    HW114978   0.451   3.158   8.820  1.2682  0.0216 -1.5137
 1114SOL    HW214979   0.449   3.248   8.931 -0.5424 -0.9076  0.2486
 1115SOL     OW14980   2.187   2.078  17.068 -0.3312  0.3332  0.8890
 1115SOL    HW114981   2.253   2.014  17.095  0.8642  1.2215  0.0613
 1115SOL    HW214982   2.160   2.109  17.155  0.3816 -0.1325  1.2773
 1116SOL     OW14983   3.240   0.837   9.537  0.0773  0.3969  0.6053
 1116SOL    HW114984   3.149   0.866   9.535  0.2979  1.0871  0.7967
 1116SOL    HW214985   3.269   0.886   9.614  0.3373  0.5554  0.4070
 1117SOL     OW14986   2.296   4.588   2.058 -0.1065 -0.5337  0.2970
 1117SOL    HW114987   2.201   4.595   2.048 -0.1251 -1.5196 -0.2155
 1117SOL    HW214988   2.318   4.517   1.997  1.5282  0.6550 -0.5160
 1118SOL     OW14989   0.547   1.699  13.798 -0.1311  0.3799  0.2666
 1118SOL    HW114990   0.561   1.642  13.722  1.8211  0.3197  0.6678
 1118SOL    HW214991   0.472   1.657  13.841  0.0417  0.6249  0.8060
 1119SOL     OW14992   2.337   3.556   5.887  0.2746 -0.2359 -0.0320
 1119SOL    HW114993   2.252   3.550   5.844 -0.3761  2.1962  0.9026
 1119SOL    HW214994   2.349   3.461   5.885 -2.3670 -0.4827 -3.7928
 1120SOL     OW14995   2.978   4.252  16.752 -0.4071 -0.2458  0.1444
 1120SOL    HW114996   3.062   4.283  16.787 -1.5052  3.7125 -0.7497
 1120SOL    HW214997   2.925   4.332  16.757  2.1991  1.3504  2.7036
 1121SOL     OW14998   2.406   4.048   4.461 -0.2736  0.0574 -0.1574
 1121SOL    HW114999   2.373   3.959   4.470  1.2552 -0.2697  2.5342
 1121SOL    HW215000   2.467   4.023   4.392 -1.6862 -0.4089 -1.2381
 1122SOL     OW15001   4.391   1.992   8.361  0.2294  0.0565 -0.5033
 1122SOL    HW115002   4.406   1.956   8.448 -0.8739  0.9140  0.0341
 1122SOL    HW215003   4.375   2.086   8.374 -0.4933 -0.0817 -0.4267
 1123SOL     OW15004   1.114   3.202   8.431  0.1122 -0.1204  0.0969
 1123SOL    HW115005   1.060   3.272   8.396  1.4314  0.3117 -1.0602
 1123SOL    HW215006   1.065   3.124   8.403  1.2871 -0.5077 -0.8592
 1124SOL     OW15007   0.663   1.587  14.353  0.4418  0.7524 -0.0734
 1124SOL    HW115008   0.589   1.563  14.297  1.5980  0.1567 -1.3352
 1124SOL    HW215009   0.736   1.558  14.299  1.7689  1.1237  1.5241
 1125SOL     OW15010   3.551   4.519   6.869 -0.1613 -0.8105  0.9141
 1125SOL    HW115011   3.561   4.480   6.782  0.8097 -1.1816  1.1931
 1125SOL    HW215012   3.483   4.585   6.849  1.2845  0.7582  1.1752
 1126SOL     OW15013   1.491   0.173  11.787  0.6981 -0.2071  0.3772
 1126SOL    HW115014   1.468   0.266  11.788 -3.9778 -1.2873 -3.0831
 1126SOL    HW215015   1.586   0.183  11.794  0.8700 -1.9658  0.5261
 1127SOL     OW15016   0.505   0.018   7.719  0.2794  0.0068  0.0331
 1127SOL    HW115017   0.508   4.662   7.742  1.9248  1.2691  4.9608
 1127SOL    HW215018   0.423   0.053   7.753  0.6619  1.5195 -0.6223
 1128SOL     OW15019   4.580   0.570   6.981  0.1961 -0.5477 -0.1182
 1128SOL    HW115020   4.607   0.599   7.067 -1.4121 -0.8627  0.4953
 1128SOL    HW215021   4.522   0.495   6.995  0.2178 -0.1543  2.0428
 1129SOL     OW15022   1.541   3.189  16.021  0.3153  0.1525  0.3192
 1129SOL    HW115023   1.608   3.200  16.089  0.3321 -1.7836  0.6309
 1129SOL    HW215024   1.485   3.261  16.050 -1.6614 -1.1032 -0.3590
 1130SOL     OW15025   2.632   3.962   4.260  0.3600  0.2558 -0.8185
 1130SOL    HW115026   2.573   3.933   4.191  0.5614 -3.3248  0.4889
 1130SOL    HW215027   2.713   3.913   4.249  1.6602  2.7165 -2.2555
 1131SOL     OW15028   2.540   4.261   9.066 -0.3999  0.3647  0.4521
 1131SOL    HW115029   2.451   4.227   9.070 -0.1168 -0.5304 -0.8427
 1131SOL    HW215030   2.548   4.284   9.159 -1.2094 -1.9977  1.0907
 1132SOL     OW15031   0.442   0.393   4.559  0.0977 -0.4821 -0.0776
 1132SOL    HW115032   0.423   0.453   4.487  0.8120 -2.0895 -1.6016
 1132SOL    HW215033   0.507   0.445   4.606 -0.7332 -0.8341  1.4866
 1133SOL     OW15034   1.057   1.509   2.150 -0.7957 -0.5484  0.6816
 1133SOL    HW115035   1.031   1.551   2.068  1.6316 -1.5869 -0.6054
 1133SOL    HW215036   1.149   1.529   2.162 -0.5784 -0.7699 -0.6449
 1134SOL     OW15037   4.166   1.859   8.308  0.0218  0.0568  0.4434
 1134SOL    HW115038   4.183   1.839   8.216  4.1695 -3.1107  1.9278
 1134SOL    HW215039   4.249   1.902   8.327 -0.7483  1.2996  0.9385
 1135SOL     OW15040   4.128   1.546  14.800  0.0401  0.7699 -0.0117
 1135SOL    HW115041   4.049   1.562  14.853  0.1829 -2.6396  1.2587
 1135SOL    HW215042   4.191   1.557  14.871 -0.8245 -0.8007  1.0241
 1136SOL     OW15043   1.824   3.282   7.081  0.1596 -0.1084 -0.6297
 1136SOL    HW115044   1.918   3.293   7.069  0.4944 -2.7882 -0.5826
 1136SOL    HW215045   1.802   3.363   7.034  1.0957  1.6859  2.0510
 1137SOL     OW15046   3.627   0.636   6.203 -0.4881 -1.0832  0.0815
 1137SOL    HW115047   3.672   0.699   6.146 -0.3531 -0.2341  1.1171
 1137SOL    HW215048   3.541   0.631   6.163 -0.6901  1.0078  0.2192
 1138SOL     OW15049   1.090   3.855  13.544  0.3182 -0.5169 -0.2471
 1138SOL    HW115050   1.034   3.880  13.618  2.5573  0.5469  1.0706
 1138SOL    HW215051   1.059   3.770  13.513  1.1545 -1.2955  1.0625
 1139SOL     OW15052   3.238   4.254   8.388  0.0566  0.5460  0.2076
 1139SOL    HW115053   3.311   4.280   8.332  1.2648  0.2507  1.6449
 1139SOL    HW215054   3.282   4.251   8.472  2.7374 -0.1890 -1.2334
 1140SOL     OW15055   2.443   4.695   7.201  0.3754  0.7890  0.2755
 1140SOL    HW115056   2.474   0.046   7.223 -0.7192  1.0385  0.7805
 1140SOL    HW215057   2.370   4.686   7.261  0.7083  0.0574  0.5707
 1141SOL     OW15058   1.414   4.525   6.639  0.1677 -0.8254 -0.3721
 1141SOL    HW115059   1.421   4.436   6.672  0.5871 -0.9571 -0.8101
 1141SOL    HW215060   1.504   4.555   6.653 -0.3363  0.1677  0.7364
 1142SOL     OW15061   4.327   2.856   6.690  0.2286 -0.1537 -0.1929
 1142SOL    HW115062   4.371   2.932   6.728 -0.5975  0.2855 -0.1156
 1142SOL    HW215063   4.292   2.903   6.614  0.6399 -0.9244 -0.8614
 1143SOL     OW15064   3.874   0.703   2.736  0.0154 -0.4365  0.3349
 1143SOL    HW115065   3.839   0.747   2.658 -0.5884  1.7095  1.8203
 1143SOL    HW215066   3.958   0.749   2.741  0.0649 -0.5410  0.4438
 1144SOL     OW15067   3.494   1.962   3.351 -0.0281  0.1572 -0.4418
 1144SOL    HW115068   3.431   1.891   3.336 -0.1897  0.5914 -1.8126
 1144SOL    HW215069   3.488   1.979   3.445  0.5714 -2.1494  0.0162
 1145SOL     OW15070   1.551   4.682   2.235  0.1349 -0.7701 -0.0131
 1145SOL    HW115071   1.582   0.006   2.302 -0.4718 -1.5020  0.9281
 1145SOL    HW215072   1.627   4.631   2.207  1.5302  1.2083  0.1511
 1146SOL     OW15073   3.344   2.011   5.825  0.2339  0.0135  0.1716
 1146SOL    HW115074   3.369   2.010   5.733  0.9614 -1.4486  0.3798
 1146SOL    HW215075   3.251   2.035   5.825  0.6429  1.5862 -0.9449
 1147SOL     OW15076   2.550   3.735   3.276  0.1185 -0.4007 -0.1755
 1147SOL    HW115077   2.551   3.825   3.244 -2.6487 -0.2536  0.1538
 1147SOL    HW215078   2.612   3.691   3.219  2.2330  2.3635  0.0162
 1148SOL     OW15079   3.793   4.606   7.611  0.1055  0.2829 -0.3885
 1148SOL    HW115080   3.884   4.633   7.598 -1.0581  3.7222 -1.1888
 1148SOL    HW215081   3.756   4.609   7.523  2.0593 -0.9976 -1.2578
 1149SOL     OW15082   3.792   2.995   9.542 -0.2830  0.0097  0.4344
 1149SOL    HW115083   3.723   2.938   9.510 -2.0415  1.7700  1.1178
 1149SOL    HW215084   3.805   2.969   9.633 -0.8491  3.2952  1.4698
 1150SOL     OW15085   3.848   3.485  16.552  0.2137 -0.1612  0.2143
 1150SOL    HW115086   3.895   3.479  16.635  0.2215 -1.9228  0.0757
 1150SOL    HW215087   3.889   3.564  16.517 -0.2896  0.8603  1.9740
 1151SOL     OW15088   0.654   4.437   2.727  0.7120  0.0746  0.7867
 1151SOL    HW115089   0.729   4.379   2.744 -0.0763 -0.8700  1.0063
 1151SOL    HW215090   0.700   4.493   2.664  2.0250 -1.6696  0.1922
 1152SOL     OW15091   3.314   0.301   3.395  0.2808 -0.2915  0.5949
 1152SOL    HW115092   3.338   0.217   3.356  0.2382  0.9504 -2.1007
 1152SOL    HW215093   3.280   0.272   3.480  1.7965  0.4505  1.4636
 1153SOL     OW15094   1.685   1.794  16.392  0.7322 -0.2335 -0.4625
 1153SOL    HW115095   1.737   1.718  16.364  0.3180 -0.1823 -1.3627
 1153SOL    HW215096   1.746   1.863  16.368  1.5643 -0.9643 -0.4596
 1154SOL     OW15097   2.067   3.973   7.591 -0.3838 -0.1282 -0.5636
 1154SOL    HW115098   2.053   4.065   7.568  0.8697 -0.5049 -2.9401
 1154SOL    HW215099   2.121   3.971   7.670 -2.9741 -1.8778  1.1790
 1155SOL     OW15100   0.912   1.788   9.105 -0.4853 -0.1328  0.5244
 1155SOL    HW115101   0.866   1.744   9.034  0.3892 -0.9716  0.4839
 1155SOL    HW215102   1.003   1.787   9.075 -0.7004  1.9062 -0.2252
 1156SOL     OW15103   1.702   3.944   3.587 -0.3462  0.4178 -0.3298
 1156SOL    HW115104   1.672   3.964   3.676  0.7451  1.7236 -0.2599
 1156SOL    HW215105   1.721   4.029   3.547  1.7788 -0.1331 -0.4736
 1157SOL     OW15106   3.982   3.641  14.558 -0.3248 -0.0243  0.2967
 1157SOL    HW115107   4.034   3.660  14.480 -2.7541  1.2635 -0.9738
 1157SOL    HW215108   3.896   3.660  14.521  0.2250  1.0690 -0.4128
 1158SOL     OW15109   1.791   2.849  14.873  0.0318 -0.0376 -0.0160
 1158SOL    HW115110   1.859   2.849  14.941 -0.1442 -1.5573  0.1522
 1158SOL    HW215111   1.752   2.762  14.882  2.2622 -1.1807 -1.6422
 1159SOL     OW15112   0.767   1.816   1.918  0.3897  0.4611 -0.2296
 1159SOL    HW115113   0.798   1.854   2.000  3.1437 -0.2141 -0.9403
 1159SOL    HW215114   0.782   1.895   1.866  0.9304  1.2605  1.1467
 1160SOL     OW15115   4.196   0.384  13.679  0.4536  0.1014  0.6729
 1160SOL    HW115116   4.211   0.326  13.604  0.1459  0.0728  0.6297
 1160SOL    HW215117   4.201   0.321  13.750 -1.8410 -0.4155  0.4011
 1161SOL     OW15118   2.937   2.176   8.576 -0.3278 -0.8562 -0.8764
 1161SOL    HW115119   3.016   2.215   8.538  0.1006 -1.0044 -0.1379
 1161SOL    HW215120   2.872   2.193   8.508  0.5484  1.3381 -1.1663
 1162SOL     OW15121   4.379   2.536  16.724 -0.5428 -0.0177  0.1267
 1162SOL    HW115122   4.370   2.452  16.678  1.9573  0.6526 -1.6570
 1162SOL    HW215123   4.287   2.551  16.743 -0.9123 -1.1205 -0.8093
 1163SOL     OW15124   4.719   4.366  16.753  0.3720 -0.1408 -0.4107
 1163SOL    HW115125   4.705   4.409  16.669  3.2014 -2.1001 -1.8911
 1163SOL    HW215126   0.026   4.293  16.709  1.2267 -1.1147  2.1000
 1164SOL     OW15127   4.640   1.163   5.424  0.2652  0.2157 -0.0993
 1164SOL    HW115128   4.621   1.171   5.517 -1.1870  2.9564 -0.6418
 1164SOL    HW215129   4.662   1.255   5.409 -0.2635  0.4210  0.3884
 1165SOL     OW15130   1.870   2.244   2.654 -0.3378 -0.1520 -0.1275
 1165SOL    HW115131   1.774   2.241   2.652 -0.4231  2.5083 -0.6473
 1165SOL    HW215132   1.879   2.290   2.571  0.5473 -1.5348 -0.8008
 1166SOL     OW15133   3.075   3.304   5.200 -0.0284  0.7119  0.4120
 1166SOL    HW115134   3.018   3.299   5.123  1.8700  2.6116 -1.0989
 1166SOL    HW215135   3.036   3.376   5.250 -0.2218  1.4074 -0.7412
 1167SOL     OW15136   3.696   3.171   5.915 -0.6344  0.0677  0.4186
 1167SOL    HW115137   3.772   3.219   5.949  0.0574 -2.0586  1.9494
 1167SOL    HW215138   3.617   3.218   5.940  0.4318  1.8432  0.3876
 1168SOL     OW15139   4.117   2.653   1.708  0.6553  0.0943  0.6477
 1168SOL    HW115140   4.194   2.639   1.653  2.3451  3.0251  2.2569
 1168SOL    HW215141   4.124   2.581   1.771  2.1406 -1.0952 -0.8490
 1169SOL     OW15142   2.218   1.258  11.910  0.4381 -0.2820  0.0118
 1169SOL    HW115143   2.146   1.311  11.944  1.1845  0.4532  0.4688
 1169SOL    HW215144   2.296   1.299  11.947 -0.6991 -0.4373  2.5258
 1170SOL     OW15145   0.809   2.384   1.011 -0.5961 -0.1676 -0.7087
 1170SOL    HW115146   0.751   2.349   1.078 -0.2144  1.4584  0.4870
 1170SOL    HW215147   0.874   2.317   0.991 -1.1088 -0.1269 -2.5183
 1171SOL     OW15148   0.139   4.060   8.531 -0.4577  0.2084  0.0286
 1171SOL    HW115149   0.066   4.120   8.524 -0.3125  0.1886 -1.6125
 1171SOL    HW215150   0.174   4.067   8.442 -1.4401 -2.8032 -0.5904
 1172SOL     OW15151   0.042   2.474   2.160 -0.0848 -0.0963  0.5386
 1172SOL    HW115152   0.126   2.478   2.206  0.9233 -2.9179 -1.0424
 1172SOL    HW215153   4.732   2.417   2.221 -0.8289  3.1673  2.9855
 1173SOL     OW15154   0.626   3.344   3.707  0.4790 -0.0330 -0.3417
 1173SOL    HW115155   0.685   3.269   3.717 -0.7123 -0.7857  1.0346
 1173SOL    HW215156   0.554   3.314   3.763  0.6251  1.4967  0.6633
 1174SOL     OW15157   2.413   2.421   7.265 -0.1465 -0.1490 -0.2604
 1174SOL    HW115158   2.499   2.406   7.305 -0.2894 -1.5251 -0.4595
 1174SOL    HW215159   2.354   2.409   7.339 -0.6129 -0.3772 -0.6716
 1175SOL     OW15160   3.957   2.602   4.748 -0.6071  0.0118  0.5852
 1175SOL    HW115161   3.948   2.513   4.782 -0.4900 -0.2373 -0.0404
 1175SOL    HW215162   4.052   2.606   4.763 -0.1191 -3.6136 -1.7473
 1176SOL     OW15163   1.905   3.756   7.507 -0.3311 -0.0505  0.5985
 1176SOL    HW115164   1.931   3.848   7.512 -1.3294  0.4439 -2.8234
 1176SOL    HW215165   1.989   3.712   7.516  0.0322  1.0241  2.4306
 1177SOL     OW15166   4.224   1.072   9.262 -0.6508  0.3516 -0.5020
 1177SOL    HW115167   4.286   1.057   9.332 -0.8999 -3.2758 -1.0502
 1177SOL    HW215168   4.196   0.981   9.252 -1.5967  0.5585  0.2221
 1178SOL     OW15169   4.633   2.152   7.243  0.2634 -0.1701 -0.4765
 1178SOL    HW115170   4.645   2.074   7.190  0.2374 -0.9872  0.7049
 1178SOL    HW215171   4.697   2.153   7.314  1.1546  2.9650 -1.3152
 1179SOL     OW15172   2.399   4.359   4.916 -0.1347 -0.4432 -0.2080
 1179SOL    HW115173   2.495   4.366   4.921 -0.1169 -0.2378 -0.9701
 1179SOL    HW215174   2.391   4.298   4.844 -1.8739 -2.5999  1.8168
 1180SOL     OW15175   2.385   4.159   6.606  0.0731  0.1248 -0.0397
 1180SOL    HW115176   2.407   4.227   6.670  2.3687  1.2271 -2.0192
 1180SOL    HW215177   2.332   4.103   6.663  0.8397 -1.1843 -0.6144
 1181SOL     OW15178   4.073   3.670  13.685 -0.4271 -0.3648  0.6615
 1181SOL    HW115179   4.057   3.745  13.742 -2.1196  0.2174 -0.5969
 1181SOL    HW215180   3.988   3.654  13.645  0.2175 -0.7475 -0.5685
 1182SOL     OW15181   1.130   1.419   3.320 -0.4781  0.1240 -0.0351
 1182SOL    HW115182   1.205   1.365   3.296  1.0545  2.1718  0.1145
 1182SOL    HW215183   1.157   1.490   3.262  0.0889  0.2585  0.3996
 1183SOL     OW15184   0.763   1.489   7.387  0.2119  0.3737  0.2478
 1183SOL    HW115185   0.687   1.435   7.366  0.1009  0.7475 -0.3089
 1183SOL    HW215186   0.836   1.457   7.335 -0.6573 -0.5159 -0.4286
 1184SOL     OW15187   1.108   1.941  12.332 -0.0156 -0.7540 -0.0134
 1184SOL    HW115188   1.096   1.996  12.254  1.4464  1.7370  1.5333
 1184SOL    HW215189   1.027   1.890  12.333  0.9446 -2.2132  1.1602
 1185SOL     OW15190   2.363   1.706  17.470 -0.4356 -0.1028  0.5948
 1185SOL    HW115191   2.392   1.616  17.482  3.0977  1.4189  3.4949
 1185SOL    HW215192   2.401   1.750  17.546 -2.1472  1.5859  0.4805
 1186SOL     OW15193   0.264   3.741  10.530  0.0888 -0.0438 -0.4776
 1186SOL    HW115194   0.177   3.700  10.539 -0.0578  0.9412  2.5038
 1186SOL    HW215195   0.245   3.833  10.548  0.8629  0.5700 -2.8437
 1187SOL     OW15196   2.976   4.206   7.442  0.1217  0.5051  0.2598
 1187SOL    HW115197   2.914   4.152   7.392  1.3362 -1.8891  1.3616
 1187SOL    HW215198   2.927   4.288   7.445  0.7443  0.8754  0.3196
 1188SOL     OW15199   2.387   3.583   8.641  0.0763 -0.7854 -0.4523
 1188SOL    HW115200   2.436   3.654   8.683  0.5562 -0.0739 -2.2424
 1188SOL    HW215201   2.397   3.508   8.700  0.3019  0.7918  1.5367
 1189SOL     OW15202   1.336   0.090   8.534  0.4004  0.1686  0.1779
 1189SOL    HW115203   1.276   0.062   8.604  1.0252 -0.7265  0.3498
 1189SOL    HW215204   1.411   0.031   8.547 -0.2781 -0.6548  0.3430
 1190SOL     OW15205   3.240   4.527  11.471 -0.2535  0.2288  0.2885
 1190SOL    HW115206   3.330   4.494  11.484 -0.3575 -0.4445 -0.6353
 1190SOL    HW215207   3.188   4.449  11.491  1.6551 -0.8414  1.1138
 1191SOL     OW15208   3.282   4.031   5.666 -0.0372 -0.5101 -0.1847
 1191SOL    HW115209   3.286   3.936   5.659 -1.2805 -0.6910  1.7670
 1191SOL    HW215210   3.210   4.050   5.606 -2.1862  0.0256  2.6068
 1192SOL     OW15211   3.081   3.238  10.709  0.4308 -0.3462 -0.1875
 1192SOL    HW115212   3.128   3.208  10.631  1.6593  0.0881  0.3817
 1192SOL    HW215213   3.153   3.286  10.750 -2.0418  1.9023  1.5316
 1193SOL     OW15214   1.162   0.602  17.134 -1.1560 -0.0394 -0.0319
 1193SOL    HW115215   1.211   0.676  17.100 -1.3755  0.8983  1.6786
 1193SOL    HW215216   1.104   0.586  17.060 -0.5515 -2.0555 -0.0702
 1194SOL     OW15217   0.624   3.475   9.168  0.3790 -0.1687 -0.6459
 1194SOL    HW115218   0.601   3.539   9.101  0.7747  1.5252  0.8294
 1194SOL    HW215219   0.701   3.436   9.127 -0.2221 -0.5714 -1.3891
 1195SOL     OW15220   4.453   1.665   3.195  0.5897  0.0640 -0.0231
 1195SOL    HW115221   4.430   1.590   3.251  0.7458  0.7769  0.9931
 1195SOL    HW215222   4.392   1.729   3.232  1.4040 -0.5891  2.4799
 1196SOL     OW15223   1.681   0.105  13.653 -0.2267  0.0065 -0.3161
 1196SOL    HW115224   1.699   0.074  13.564 -2.7969 -0.6657 -0.6228
 1196SOL    HW215225   1.683   0.021  13.699  2.2503 -0.1679 -0.7642
 1197SOL     OW15226   4.163   4.466   3.118 -0.5434 -0.4189  0.0517
 1197SOL    HW115227   4.215   4.452   3.197 -1.6218  0.8050  0.9700
 1197SOL    HW215228   4.145   4.374   3.097 -0.0172 -0.7781  1.1972
 1198SOL     OW15229   3.332   1.418  12.360 -0.6265 -0.4942  0.0200
 1198SOL    HW115230   3.357   1.510  12.351 -1.9642  0.0889  2.1068
 1198SOL    HW215231   3.302   1.408  12.270 -0.6886  2.9159 -0.3606
 1199SOL     OW15232   2.998   3.087   2.204 -0.6439  0.1132 -0.0486
 1199SOL    HW115233   3.014   3.178   2.180 -0.0522  0.9021  3.2451
 1199SOL    HW215234   2.931   3.065   2.140 -0.5545 -0.5161  0.0782
 1200SOL     OW15235   2.861   2.705   3.642  0.1638  0.1704 -0.2192
 1200SOL    HW115236   2.880   2.689   3.550 -0.2982 -0.0936 -0.2689
 1200SOL    HW215237   2.803   2.635   3.672  0.6632 -1.3862 -2.8904
 1201SOL     OW15238   1.455   4.345  11.625  0.4911  0.1517 -0.4830
 1201SOL    HW115239   1.452   4.249  11.630 -1.7467  0.1966 -0.8469
 1201SOL    HW215240   1.374   4.362  11.673  0.9959  1.6911 -0.1721
 1202SOL     OW15241   4.555   4.214   9.933 -0.3097  0.0230  0.1798
 1202SOL    HW115242   4.600   4.131   9.951  2.7701  1.5997 -0.4535
 1202SOL    HW215243   4.509   4.183   9.855 -1.3565  0.0355  0.7862
 1203SOL     OW15244   4.620   2.051   9.518  0.2756 -0.0527 -0.4276
 1203SOL    HW115245   4.704   2.016   9.546  0.1375 -1.4099 -1.7402
 1203SOL    HW215246   4.646   2.141   9.540 -1.4847 -0.0662  1.7666
 1204SOL     OW15247   0.996   2.922   9.637  0.0717  0.4862  0.5148
 1204SOL    HW115248   1.001   2.969   9.721 -0.5465  0.8770  0.3327
 1204SOL    HW215249   1.083   2.883   9.629  0.1032  1.4184 -3.3360
 1205SOL     OW15250   3.271   0.126   7.200 -0.3829 -0.2752 -0.0686
 1205SOL    HW115251   3.345   0.155   7.253  0.5502 -2.2003 -0.2902
 1205SOL    HW215252   3.217   0.064   7.249 -0.3397 -0.1528  0.1338
 1206SOL     OW15253   4.253   1.125   7.729 -0.2129 -0.2909 -0.1653
 1206SOL    HW115254   4.326   1.132   7.667  0.4724 -1.2561  0.5369
 1206SOL    HW215255   4.204   1.201   7.698  0.2165  0.4030  0.8871
 1207SOL     OW15256   0.208   2.609   2.964 -0.3506 -0.7281  0.0933
 1207SOL    HW115257   0.225   2.559   3.044 -3.3292 -1.9550 -0.0245
 1207SOL    HW215258   0.278   2.574   2.909  0.3197 -1.9061  1.6881
 1208SOL     OW15259   1.724   0.810   2.185  0.1694  0.3318  0.5327
 1208SOL    HW115260   1.806   0.768   2.212 -0.6970  0.0781  2.7035
 1208SOL    HW215261   1.742   0.788   2.093 -0.6194  1.0689  0.2101
 1209SOL     OW15262   3.735   1.297   0.629  0.0704  0.2867  0.2150
 1209SOL    HW115263   3.742   1.371   0.570  1.6704 -0.5928 -0.6920
 1209SOL    HW215264   3.792   1.315   0.704  0.5908  2.1178 -0.6365
 1210SOL     OW15265   4.045   4.656   9.258 -0.3885 -0.0109 -0.1131
 1210SOL    HW115266   4.027   4.695   9.343  0.5377  1.7109 -0.7077
 1210SOL    HW215267   4.092   4.727   9.214 -1.5771  0.5712 -0.4431
 1211SOL     OW15268   3.365   3.219   6.289  0.2060 -0.0768  0.0381
 1211SOL    HW115269   3.314   3.294   6.257  0.1903 -0.3653 -0.6012
 1211SOL    HW215270   3.378   3.165   6.211 -0.0096 -2.3472  1.5943
 1212SOL     OW15271   1.662   4.669   5.599  0.5506  0.6779 -0.2131
 1212SOL    HW115272   1.639   4.715   5.680  0.6882 -2.7462  1.7406
 1212SOL    HW215273   1.660   4.581   5.635  0.2944  0.4773 -0.7246
 1213SOL     OW15274   1.914   3.610   2.694  0.8466 -0.0714  0.5017
 1213SOL    HW115275   1.984   3.547   2.710 -0.8611 -1.6278  1.8845
 1213SOL    HW215276   1.906   3.650   2.781 -0.6755 -1.3552  0.9560
 1214SOL     OW15277   4.549   2.283   1.072 -0.3673  0.1741 -0.0934
 1214SOL    HW115278   4.634   2.248   1.047 -0.1224  0.8467 -0.2041
 1214SOL    HW215279   4.480   2.233   1.028  1.7898 -3.2653  0.4252
 1215SOL     OW15280   2.146   1.161   4.850  0.4033 -0.3934 -0.1412
 1215SOL    HW115281   2.237   1.174   4.874  0.5226 -2.7224  0.6544
 1215SOL    HW215282   2.156   1.181   4.756  1.4068  0.2356  0.1034
 1216SOL     OW15283   4.569   3.969   7.327  0.4649 -0.2069 -0.3986
 1216SOL    HW115284   4.633   3.956   7.257 -0.0813 -1.7751 -0.6261
 1216SOL    HW215285   4.604   4.043   7.375 -0.2794 -0.0950 -0.0284
 1217SOL     OW15286   4.500   0.555   3.461 -0.2266  0.2912 -0.4125
 1217SOL    HW115287   4.474   0.512   3.542 -0.2905  0.4689 -0.3384
 1217SOL    HW215288   4.434   0.522   3.401 -1.6372  1.6164  0.3976
 1218SOL     OW15289   1.415   0.123   4.182  0.1838 -0.1753 -0.2648
 1218SOL    HW115290   1.377   0.187   4.122 -0.7628 -0.5248 -0.0457
 1218SOL    HW215291   1.357   0.048   4.166 -0.0505  0.4145 -2.1641
 1219SOL     OW15292   4.329   3.629  10.513 -0.1397  0.3610 -0.5157
 1219SOL    HW115293   4.278   3.616  10.593  0.1959  0.7670 -0.2357
 1219SOL    HW215294   4.305   3.721  10.508 -0.0693  0.2292 -3.0692
 1220SOL     OW15295   0.952   2.441  12.709  0.0171  0.4895 -0.4169
 1220SOL    HW115296   0.895   2.370  12.737  0.9709 -0.2686 -0.4103
 1220SOL    HW215297   1.022   2.392  12.667  0.2435  0.7076 -0.2934
 1221SOL     OW15298   4.583   3.191   8.861  0.2108 -0.0332  0.0552
 1221SOL    HW115299   4.562   3.266   8.917 -1.3490  0.8306 -1.6869
 1221SOL    HW215300   4.659   3.153   8.905  0.0004  2.2932  2.3876
 1222SOL     OW15301   0.480   0.579   6.220 -0.0497 -0.2885  0.1757
 1222SOL    HW115302   0.492   0.548   6.310  1.2918  1.5479  0.6402
 1222SOL    HW215303   0.393   0.619   6.214  0.1172  0.0713  0.1271
 1223SOL     OW15304   0.722   3.049   6.760  0.0280  0.2962 -0.1422
 1223SOL    HW115305   0.763   3.095   6.687  1.2279 -2.0474 -0.9457
 1223SOL    HW215306   0.666   2.986   6.714 -0.6662  1.5999 -1.0772
 1224SOL     OW15307   3.344   1.914   8.432 -0.2089 -0.6903  0.1733
 1224SOL    HW115308   3.263   1.865   8.443 -2.0376  1.6332 -2.9923
 1224SOL    HW215309   3.403   1.862   8.487 -1.3604 -1.7223  0.4282
 1225SOL     OW15310   0.493   3.464   7.671  0.1879 -0.0322  0.8626
 1225SOL    HW115311   0.435   3.449   7.746 -2.0723 -0.4219 -0.9596
 1225SOL    HW215312   0.487   3.380   7.625 -2.7493  0.3730  0.4863
 1226SOL     OW15313   1.534   3.945   4.884 -0.3908  0.3115  0.6235
 1226SOL    HW115314   1.605   3.888   4.912 -0.9829 -0.6144  0.2249
 1226SOL    HW215315   1.584   4.014   4.841  0.7885 -0.9866 -0.0358
 1227SOL     OW15316   2.196   0.898   4.077  0.7011 -0.0748  0.1060
 1227SOL    HW115317   2.194   0.947   3.994  1.8375  0.6228  0.4825
 1227SOL    HW215318   2.190   0.804   4.063  0.9705 -0.0581 -0.1087
 1228SOL     OW15319   2.252   3.586   5.584  0.3066 -0.1161  0.1513
 1228SOL    HW115320   2.163   3.550   5.580  0.3064  0.1517 -2.3442
 1228SOL    HW215321   2.256   3.667   5.533  0.6810  0.2317  0.7332
 1229SOL     OW15322   4.346   3.071   3.912  0.0912 -0.5126  0.0273
 1229SOL    HW115323   4.424   3.018   3.931  2.1235  2.2477 -0.5748
 1229SOL    HW215324   4.293   3.010   3.860  0.5587  0.1274 -1.2067
 1230SOL     OW15325   3.412   0.276   3.081  0.1789 -0.7514  0.0983
 1230SOL    HW115326   3.439   0.216   3.151 -2.4260 -0.8847  0.9951
 1230SOL    HW215327   3.489   0.332   3.085 -0.4806  0.1412  0.3633
 1231SOL     OW15328   1.383   1.665   4.613  0.7026  0.3181 -0.2984
 1231SOL    HW115329   1.389   1.725   4.688  0.5287  2.1707 -1.7667
 1231SOL    HW215330   1.380   1.577   4.649 -2.0978 -0.1731 -1.7785
 1232SOL     OW15331   1.491   0.905   9.189 -0.5159 -0.0146 -0.4222
 1232SOL    HW115332   1.470   0.833   9.130 -0.2401 -1.7777  1.6497
 1232SOL    HW215333   1.503   0.855   9.269  0.4612  1.5401  0.4172
 1233SOL     OW15334   3.258   2.523   6.101  0.3553  0.0845 -0.0153
 1233SOL    HW115335   3.304   2.446   6.067 -0.5285 -0.5754  0.2700
 1233SOL    HW215336   3.300   2.522   6.187 -0.1102  5.4795  0.2453
 1234SOL     OW15337   2.491   1.269   6.805  0.2636  0.2260  0.2578
 1234SOL    HW115338   2.586   1.275   6.807  0.2846 -0.5264  1.5437
 1234SOL    HW215339   2.470   1.349   6.853 -1.1895  0.2115 -0.3544
 1235SOL     OW15340   2.711   0.976   8.414  0.4819  0.0852 -0.2667
 1235SOL    HW115341   2.617   0.971   8.429  0.3820 -0.0347 -0.9525
 1235SOL    HW215342   2.751   0.950   8.497  2.3002 -0.1932 -1.2315
 1236SOL     OW15343   2.001   1.779   5.262 -0.1155 -0.0333  0.0237
 1236SOL    HW115344   1.971   1.867   5.285  0.4935  0.6060 -1.6331
 1236SOL    HW215345   2.094   1.785   5.282  0.0051 -2.1957  0.1812
 1237SOL     OW15346   4.238   0.718   6.406  0.5730 -0.1986  0.7009
 1237SOL    HW115347   4.244   0.789   6.470 -0.6840  1.5139 -1.0794
 1237SOL    HW215348   4.280   0.648   6.456  0.0964 -0.4294  0.7738
 1238SOL     OW15349   4.024   3.298   3.846  0.3437  0.7111 -0.5796
 1238SOL    HW115350   3.949   3.298   3.906  1.4782 -2.7705  0.8642
 1238SOL    HW215351   4.078   3.353   3.903  0.0424  2.0736 -1.6028
 1239SOL     OW15352   0.993   2.800   8.220  0.6762 -0.4631 -0.1347
 1239SOL    HW115353   1.071   2.753   8.250  0.1545 -3.1132 -2.8971
 1239SOL    HW215354   0.996   2.773   8.129  1.1813 -0.3893 -0.1397
 1240SOL     OW15355   1.955   2.892   8.495 -0.1532 -0.1016  0.6352
 1240SOL    HW115356   1.896   2.888   8.571 -0.6609 -0.5710  0.2120
 1240SOL    HW215357   1.899   2.867   8.422 -0.7726  0.1334  1.0279
 1241SOL     OW15358   3.808   4.315  12.457  0.4036 -0.2048 -0.7258
 1241SOL    HW115359   3.773   4.401  12.479 -0.4052 -0.6085 -0.4070
 1241SOL    HW215360   3.754   4.259  12.513  0.1686  0.1655 -0.5864
 1242SOL     OW15361   2.222   2.295   2.936 -0.5243 -0.2552  0.4052
 1242SOL    HW115362   2.261   2.377   2.907  0.3294 -0.3508  1.2574
 1242SOL    HW215363   2.248   2.242   2.861 -1.6270 -1.3209  0.7614
 1243SOL     OW15364   0.275   4.507   7.431  0.1145 -0.0690 -0.0982
 1243SOL    HW115365   0.370   4.500   7.442 -0.0198 -2.6675 -0.6180
 1243SOL    HW215366   0.259   4.601   7.418  0.9016  0.5527  3.4644
 1244SOL     OW15367   2.117   4.351   9.322  0.1765  0.1202  0.0467
 1244SOL    HW115368   2.142   4.373   9.411  1.5251 -0.6894 -0.1324
 1244SOL    HW215369   2.119   4.256   9.334  0.7182 -0.1015 -1.7533
 1245SOL     OW15370   1.577   0.446  11.680  0.3246 -0.3831  0.2622
 1245SOL    HW115371   1.646   0.412  11.738 -0.2763  0.1675  1.2996
 1245SOL    HW215372   1.558   0.537  11.703 -0.7696 -0.5432 -0.0334
 1246SOL     OW15373   1.155   4.596   8.160 -0.1562 -0.5157  0.5645
 1246SOL    HW115374   1.180   4.619   8.249 -1.2103  0.1549  0.6847
 1246SOL    HW215375   1.061   4.577   8.159 -0.4024  0.6479  2.9105
 1247SOL     OW15376   4.678   1.958   0.051  0.1116  0.1699  0.3533
 1247SOL    HW115377   4.668   1.920  17.710 -0.0851  0.0126  0.4452
 1247SOL    HW215378   0.033   1.985   0.049  0.6867 -1.7796  0.1291
 1248SOL     OW15379   1.789   0.416  16.906  0.4917  0.4636  0.3372
 1248SOL    HW115380   1.813   0.330  16.940 -0.9568 -1.1913 -2.7708
 1248SOL    HW215381   1.722   0.444  16.968 -0.2812  0.4254 -0.4645
 1249SOL     OW15382   1.495   4.226   4.589 -0.4212 -1.0484  0.2282
 1249SOL    HW115383   1.482   4.319   4.570  1.6056 -0.3883  2.0928
 1249SOL    HW215384   1.429   4.217   4.659 -0.5936  0.9473  0.3221
 1250SOL     OW15385   0.809   1.210   5.785 -0.3726  0.1482 -0.1502
 1250SOL    HW115386   0.746   1.152   5.742 -1.0801  1.6640 -1.1826
 1250SOL    HW215387   0.819   1.281   5.721 -0.1272  1.0365  0.8672
 1251SOL     OW15388   3.931   4.623   5.959  0.0837  0.5844  0.1800
 1251SOL    HW115389   4.003   4.607   6.020 -0.5773 -0.6391  0.6435
 1251SOL    HW215390   3.882   4.691   6.005 -1.4160 -1.3784  1.4764
 1252SOL     OW15391   1.826   3.688  13.355  0.2483 -0.3963 -0.9913
 1252SOL    HW115392   1.916   3.694  13.388  0.6146  0.3901 -2.1233
 1252SOL    HW215393   1.823   3.773  13.312 -2.8840 -0.3663 -0.7016
 1253SOL     OW15394   0.939   3.663   6.878  0.4999  0.7859 -0.0038
 1253SOL    HW115395   1.025   3.700   6.895  2.2012 -3.1421 -0.1337
 1253SOL    HW215396   0.920   3.617   6.960 -1.3920  1.1110 -0.2539
 1254SOL     OW15397   4.551   2.415   2.005  0.0647  0.4201 -0.0814
 1254SOL    HW115398   4.508   2.500   2.002 -1.8963 -0.5953 -0.2985
 1254SOL    HW215399   4.634   2.444   2.043  0.0077  0.1936  0.2131
 1255SOL     OW15400   4.162   4.041  13.769 -0.1531  0.4459  0.5496
 1255SOL    HW115401   4.092   3.978  13.783  0.7627 -0.8600 -0.8254
 1255SOL    HW215402   4.141   4.078  13.683 -0.2793  1.1495  0.8772
 1256SOL     OW15403   2.050   3.131   5.677  0.4956  0.0704  0.6378
 1256SOL    HW115404   2.011   3.047   5.655 -0.7687  0.9724 -0.5702
 1256SOL    HW215405   1.986   3.182   5.727  0.9362 -1.7125  3.0275
 1257SOL     OW15406   3.902   4.269   4.552  0.3447 -0.2325  0.0780
 1257SOL    HW115407   3.873   4.331   4.618  2.0005 -0.9512  1.4672
 1257SOL    HW215408   3.988   4.238   4.581 -0.6618 -4.5084 -1.4760
 1258SOL     OW15409   0.153   0.251   5.461 -0.0396  0.3115  0.1068
 1258SOL    HW115410   0.137   0.286   5.374 -0.5945 -2.3029 -0.8314
 1258SOL    HW215411   0.249   0.253   5.467  0.0025 -1.8957  0.3923
 1259SOL     OW15412   1.918   0.512   4.510  0.3734  0.1354 -0.2014
 1259SOL    HW115413   1.950   0.426   4.482 -0.8221 -0.2404 -0.4205
 1259SOL    HW215414   1.993   0.569   4.493 -1.1357  1.8519 -1.1370
 1260SOL     OW15415   4.701   2.191   3.023  0.0994  0.2389  0.2551
 1260SOL    HW115416   4.639   2.118   3.025 -1.0642  1.2364  0.3227
 1260SOL    HW215417   4.663   2.255   3.082 -3.0146 -0.2644 -1.2109
 1261SOL     OW15418   0.366   0.999  14.570 -0.3560 -0.0797  0.4611
 1261SOL    HW115419   0.405   0.925  14.615 -0.9974 -1.1558 -0.7625
 1261SOL    HW215420   0.443   1.053  14.551 -1.9838  1.4832 -1.7887
 1262SOL     OW15421   3.277   4.593  13.501  0.0408 -0.1754 -0.2808
 1262SOL    HW115422   3.302   4.557  13.586  1.1319 -2.7380 -1.6889
 1262SOL    HW215423   3.222   4.665  13.534  1.2666  0.2351  0.8723
 1263SOL     OW15424   1.579   3.094  17.307 -0.0540  0.1870 -0.1782
 1263SOL    HW115425   1.540   3.164  17.254  3.3786  2.8314  0.7828
 1263SOL    HW215426   1.557   3.015  17.259  0.5545 -0.5436  0.7488
 1264SOL     OW15427   2.071   0.084  11.469 -0.2348  0.0365 -0.0099
 1264SOL    HW115428   1.978   0.059  11.463  0.6951 -2.8651 -2.6252
 1264SOL    HW215429   2.123   0.014  11.509  1.6161  0.7873 -1.1158
 1265SOL     OW15430   0.400   1.203   2.851  0.0234 -0.8680 -0.3884
 1265SOL    HW115431   0.470   1.153   2.811 -0.1383  0.1883 -1.9944
 1265SOL    HW215432   0.416   1.206   2.945 -0.5601  0.4867 -0.3312
 1266SOL     OW15433   3.660   3.080  16.285  0.6021  0.0773  0.1183
 1266SOL    HW115434   3.725   3.128  16.336  1.8080 -0.4958 -0.8902
 1266SOL    HW215435   3.579   3.123  16.311 -0.1565 -1.3575  0.1243
 1267SOL     OW15436   1.814   1.973  14.721  0.2337 -0.2716 -0.0379
 1267SOL    HW115437   1.813   2.055  14.770  0.2034 -1.1077  1.3710
 1267SOL    HW215438   1.903   1.946  14.743  0.4320 -0.4894 -1.0854
 1268SOL     OW15439   2.392   1.923  17.142 -0.3458  0.2912  0.2881
 1268SOL    HW115440   2.471   1.970  17.169  0.4159  1.4651 -3.9537
 1268SOL    HW215441   2.428   1.873  17.069 -2.1336 -1.9238  0.9298
 1269SOL     OW15442   4.654   3.334  16.549 -0.3894 -0.2690 -0.4889
 1269SOL    HW115443   4.575   3.387  16.542  1.2317  2.2087 -0.2643
 1269SOL    HW215444   4.662   3.318  16.643  2.4279 -0.1223 -0.6907
 1270SOL     OW15445   0.962   0.569   4.166  0.1150 -0.1213 -0.0334
 1270SOL    HW115446   0.943   0.506   4.096  0.7181  3.5074 -3.4629
 1270SOL    HW215447   0.961   0.643   4.105  2.1883  0.5139  0.7342
 1271SOL     OW15448   1.354   1.774  12.266 -0.3657  0.0411 -0.2236
 1271SOL    HW115449   1.437   1.807  12.230 -0.5607  1.4526  0.6170
 1271SOL    HW215450   1.318   1.853  12.306 -1.9363 -1.3274  1.0348
 1272SOL     OW15451   0.981   1.920  11.434  0.5308 -0.6833 -0.5848
 1272SOL    HW115452   0.989   1.835  11.391 -0.3675 -1.4191  0.6899
 1272SOL    HW215453   0.997   1.894  11.525  0.2685  1.6354  0.1187
 1273SOL     OW15454   4.021   0.019   6.346  0.0703 -0.5587  0.3220
 1273SOL    HW115455   3.930   0.012   6.317 -0.9447  1.5832  2.9289
 1273SOL    HW215456   4.064   4.699   6.284 -1.8230  1.3961 -2.7885
 1274SOL     OW15457   0.027   2.367   8.650 -0.5600 -0.0952 -0.0948
 1274SOL    HW115458   0.062   2.448   8.687  3.4122 -1.1980 -1.4500
 1274SOL    HW215459   0.003   2.397   8.563 -0.0114 -0.3979 -0.3440
 1275SOL     OW15460   1.684   0.262   8.029  0.2898  0.6969 -0.4253
 1275SOL    HW115461   1.717   0.186   7.981 -1.9065 -0.6490  0.2326
 1275SOL    HW215462   1.607   0.223   8.069  0.9716  0.4298  0.6266
 1276SOL     OW15463   2.092   0.174   6.509  0.7714  0.0398 -0.5609
 1276SOL    HW115464   2.127   0.108   6.569 -0.1093  0.8628  0.8648
 1276SOL    HW215465   2.044   0.119   6.447  1.0836 -1.3721  0.4364
 1277SOL     OW15466   1.781   3.787  16.740 -0.1682  0.0967  0.4024
 1277SOL    HW115467   1.699   3.812  16.781  1.0149  2.1653  1.5008
 1277SOL    HW215468   1.811   3.875  16.716  0.6342 -0.6769 -1.4816
 1278SOL     OW15469   1.496   4.032  17.682 -0.1403  0.3790 -0.1396
 1278SOL    HW115470   1.481   3.975  17.607 -1.4223 -0.2074  0.5588
 1278SOL    HW215471   1.591   4.026  17.680 -0.0790  1.1247  0.7309
 1279SOL     OW15472   2.125   2.368  14.674  0.1903  0.3546 -0.6893
 1279SOL    HW115473   2.056   2.434  14.675 -0.2668 -0.0954 -1.9170
 1279SOL    HW215474   2.154   2.378  14.583 -0.9960 -0.8300 -1.2076
 1280SOL     OW15475   0.434   3.374   1.617 -0.1390 -0.1193 -0.0326
 1280SOL    HW115476   0.527   3.356   1.603 -0.5412  0.1631 -3.0740
 1280SOL    HW215477   0.395   3.312   1.555  1.2900 -1.6431  0.5975
 1281SOL     OW15478   4.193   3.275   1.757  1.0542  0.6706 -0.0513
 1281SOL    HW115479   4.257   3.209   1.782  0.0723  0.2311  1.3005
 1281SOL    HW215480   4.123   3.268   1.822  1.5027 -2.0281  0.1114
 1282SOL     OW15481   0.120   0.955   6.565  0.4598 -0.0830  0.6930
 1282SOL    HW115482   0.089   0.926   6.651 -2.1679  1.1372  0.1545
 1282SOL    HW215483   0.213   0.937   6.576  1.0464  1.0083 -2.5874
 1283SOL     OW15484   0.557   2.015  13.828 -0.0592  0.8888 -0.2400
 1283SOL    HW115485   0.587   2.081  13.766  2.9995 -0.2724  0.0368
 1283SOL    HW215486   0.557   1.939  13.770 -1.3351  1.8664 -1.5183
 1284SOL     OW15487   3.293   1.337   2.096  0.9335  0.3390  0.2038
 1284SOL    HW115488   3.377   1.303   2.065  0.7069  1.1743 -1.3397
 1284SOL    HW215489   3.259   1.283   2.166 -1.0604  1.3283 -0.0094
 1285SOL     OW15490   2.823   3.103  16.177 -0.4488  0.7038 -0.1151
 1285SOL    HW115491   2.896   3.154  16.143  1.0640 -0.0061  2.0414
 1285SOL    HW215492   2.817   3.039  16.107  0.7993 -0.3308  0.7297
 1286SOL     OW15493   3.409   4.459  10.349 -0.2005  0.0276  0.0553
 1286SOL    HW115494   3.431   4.417  10.432 -1.8830 -2.5146 -0.7879
 1286SOL    HW215495   3.479   4.523  10.339  0.7173 -1.0617 -0.5687
 1287SOL     OW15496   3.938   0.155   7.802  0.6099  0.0700 -0.6247
 1287SOL    HW115497   4.007   0.221   7.809  0.2997  0.1297  1.9240
 1287SOL    HW215498   3.979   0.092   7.743 -1.0624  0.2461 -1.9850
 1288SOL     OW15499   3.166   4.499   7.872  0.2451  0.2595  0.0424
 1288SOL    HW115500   3.236   4.516   7.809  0.4747  0.5738  0.3810
 1288SOL    HW215501   3.168   4.404   7.863 -0.5087  0.3131 -0.7129
 1289SOL     OW15502   4.127   0.468   6.943 -0.1109  0.4583 -0.0690
 1289SOL    HW115503   4.079   0.451   7.023  0.7026  0.9155  0.5159
 1289SOL    HW215504   4.213   0.440   6.975 -0.0881  0.6736  0.0539
 1290SOL     OW15505   0.597   0.088   7.460 -0.1634  0.4798  0.3580
 1290SOL    HW115506   0.617   0.094   7.554 -3.3856 -1.0989  1.1502
 1290SOL    HW215507   0.650   0.013   7.435  0.6575  0.9733  0.6049
 1291SOL     OW15508   2.445   2.278   7.628 -0.2481 -0.6964  0.1397
 1291SOL    HW115509   2.378   2.298   7.694  0.4308 -0.9525  0.9077
 1291SOL    HW215510   2.448   2.182   7.628  2.8505 -0.5864 -0.8413
 1292SOL     OW15511   1.233   4.133   9.580  0.4328  0.0967 -0.1710
 1292SOL    HW115512   1.291   4.066   9.544 -0.3763  0.5550 -2.2993
 1292SOL    HW215513   1.256   4.131   9.673  0.6115 -0.8857 -0.2356
 1293SOL     OW15514   0.389   3.567   6.090 -0.4720  0.0653  0.5625
 1293SOL    HW115515   0.318   3.556   6.154  0.6964  1.9604  2.1734
 1293SOL    HW215516   0.451   3.611   6.147 -0.6837  0.3819  0.5489
 1294SOL     OW15517   4.302   4.568   6.431 -0.3868 -0.2938 -0.5943
 1294SOL    HW115518   4.284   4.582   6.523 -1.8831  2.4415 -1.3285
 1294SOL    HW215519   4.291   4.658   6.402 -0.8760 -0.2152 -0.1490
 1295SOL     OW15520   1.656   3.455  13.946 -0.2431 -0.0648  0.0728
 1295SOL    HW115521   1.704   3.457  14.028  1.6188  1.4889 -1.0775
 1295SOL    HW215522   1.566   3.434  13.972  0.3237 -2.6916 -0.0265
 1296SOL     OW15523   1.551   0.061   3.831  0.5039 -0.4854 -0.2380
 1296SOL    HW115524   1.528   0.128   3.767  1.1521  0.1878  0.2381
 1296SOL    HW215525   1.511   4.721   3.790 -1.2778 -0.6757  1.8432
 1297SOL     OW15526   3.252   4.647   3.329  0.0042 -0.9325 -0.7640
 1297SOL    HW115527   3.267   4.557   3.302  1.8697 -0.1810 -2.2057
 1297SOL    HW215528   3.184   4.673   3.267 -0.7423 -0.1194  0.3887
 1298SOL     OW15529   0.932   2.181   3.161 -0.5182 -0.3475 -0.1481
 1298SOL    HW115530   0.894   2.148   3.242 -2.8628  0.9771 -0.6791
 1298SOL    HW215531   0.930   2.095   3.119 -0.9396  1.2084 -3.3847
 1299SOL     OW15532   3.534   1.325   9.771 -0.2082 -0.1604  0.4126
 1299SOL    HW115533   3.548   1.418   9.751 -2.6150  0.3590  1.1290
 1299SOL    HW215534   3.611   1.304   9.824 -1.0855 -1.4476  1.1671
 1300SOL     OW15535   1.042   1.565   4.254 -0.5261 -0.1008  0.0278
 1300SOL    HW115536   1.000   1.648   4.231  1.4830  1.5036  2.1464
 1300SOL    HW215537   0.983   1.530   4.321  0.6119  0.8781  1.5336
 1301SOL     OW15538   1.461   4.120   8.308  0.3095  0.0471 -0.3131
 1301SOL    HW115539   1.525   4.115   8.379 -0.1987 -2.8274 -0.0767
 1301SOL    HW215540   1.422   4.033   8.309 -0.3346  0.3280 -1.0729
 1302SOL     OW15541   3.917   2.368   4.045 -0.0271  0.0503 -0.1589
 1302SOL    HW115542   3.958   2.288   4.077  1.1025  1.3877  1.6910
 1302SOL    HW215543   3.990   2.399   3.992 -1.0371  1.7624 -0.5599
 1303SOL     OW15544   3.824   0.538   5.596  0.0865 -0.3710  0.0120
 1303SOL    HW115545   3.886   0.494   5.655  0.0337 -1.8712 -1.0643
 1303SOL    HW215546   3.883   0.606   5.564  0.4722 -0.2490  0.9538
 1304SOL     OW15547   0.202   2.318   4.955  0.6491  0.3538  0.0602
 1304SOL    HW115548   0.209   2.223   4.941 -0.2767  0.4254 -0.8671
 1304SOL    HW215549   0.227   2.350   4.869 -0.7056 -1.2662 -0.9240
 1305SOL     OW15550   2.502   1.736   8.092 -0.1139  0.1600 -0.0381
 1305SOL    HW115551   2.561   1.802   8.056 -0.2657  0.1628 -0.2773
 1305SOL    HW215552   2.566   1.672   8.124 -0.0194 -0.4029 -1.3721
 1306SOL     OW15553   3.457   3.279   8.040 -0.3150 -0.2424  0.0445
 1306SOL    HW115554   3.432   3.353   8.096  1.1881  1.8614 -2.0192
 1306SOL    HW215555   3.553   3.289   8.042 -0.5060  1.3790  1.1640
 1307SOL     OW15556   3.540   4.641   2.736 -0.1549 -0.3662 -0.8368
 1307SOL    HW115557   3.507   4.724   2.703 -1.8737 -0.2620  1.1288
 1307SOL    HW215558   3.494   4.643   2.820 -0.9440  1.2484 -1.3005
 1308SOL     OW15559   4.676   1.568  17.149  0.3112  0.1971  0.2380
 1308SOL    HW115560   4.671   1.473  17.146 -1.3196  0.3713 -2.7170
 1308SOL    HW215561   4.675   1.588  17.055  1.0448 -0.6937  0.0354
 1309SOL     OW15562   3.873   2.569  11.882  0.0908 -0.6426  0.1658
 1309SOL    HW115563   3.840   2.509  11.816 -1.7763  0.9452 -0.3437
 1309SOL    HW215564   3.915   2.513  11.947 -1.3434  0.2055  1.8379
 1310SOL     OW15565   1.771   2.927   3.986 -0.0845  0.6838 -0.0295
 1310SOL    HW115566   1.676   2.922   4.001  0.0956  0.9002  1.1593
 1310SOL    HW215567   1.809   2.894   4.067 -1.1261  0.9847  0.5820
 1311SOL     OW15568   2.192   2.855  16.125 -0.1201 -0.6292 -0.0104
 1311SOL    HW115569   2.227   2.825  16.041 -1.5938 -2.8532  0.1620
 1311SOL    HW215570   2.147   2.935  16.096  0.5219 -0.4143 -0.4080
 1312SOL     OW15571   2.509   0.074   6.501  0.3339  0.1794  0.2764
 1312SOL    HW115572   2.434   0.031   6.460  3.3425 -4.0218 -0.8625
 1312SOL    HW215573   2.581   0.053   6.442 -0.2249  1.1657 -0.7414
 1313SOL     OW15574   3.667   0.702  16.615 -0.3610 -0.9113 -0.5629
 1313SOL    HW115575   3.632   0.613  16.629 -1.5748 -0.3218  0.1839
 1313SOL    HW215576   3.661   0.719  16.522  1.6866  0.3737 -0.4430
 1314SOL     OW15577   1.019   2.027   5.238  0.9857 -0.3190  0.4792
 1314SOL    HW115578   1.039   1.973   5.314 -0.4395 -1.4927  0.0370
 1314SOL    HW215579   0.943   1.980   5.202  0.6401  1.0037 -0.5260
 1315SOL     OW15580   2.982   0.015  11.721  0.2610 -0.0080  0.5047
 1315SOL    HW115581   2.941   0.090  11.765  2.4851  0.3835  1.8936
 1315SOL    HW215582   2.949   4.677  11.770  0.9699 -1.1135 -0.7127
 1316SOL     OW15583   4.131   0.813   9.176  0.1800  0.9360  0.0103
 1316SOL    HW115584   4.106   0.788   9.265 -0.8172 -3.7391 -1.6127
 1316SOL    HW215585   4.048   0.795   9.133  1.7468 -0.0013 -2.6183
 1317SOL     OW15586   0.697   2.716   8.662 -0.1830  0.0936  0.6369
 1317SOL    HW115587   0.692   2.801   8.619 -0.7136  0.2242  0.9503
 1317SOL    HW215588   0.745   2.664   8.598 -1.3662  0.1350 -0.2808
 1318SOL     OW15589   2.867   4.248  11.844 -0.3150  0.0321 -0.1086
 1318SOL    HW115590   2.803   4.226  11.912 -0.6102  0.7371 -0.1564
 1318SOL    HW215591   2.895   4.167  11.802  1.0325 -0.5415  1.8817
 1319SOL     OW15592   1.071   3.433   8.763 -0.5573  0.4451  0.8486
 1319SOL    HW115593   1.147   3.391   8.723 -1.5758 -0.0579 -0.5644
 1319SOL    HW215594   1.109   3.496   8.823  0.8745 -0.4567  0.8807
 1320SOL     OW15595   1.086   4.103   7.332 -0.4021  0.0595 -0.1773
 1320SOL    HW115596   1.102   4.063   7.417 -1.6057 -0.3160 -0.1250
 1320SOL    HW215597   1.118   4.044   7.263 -0.0057  1.2386 -1.0062
 1321SOL     OW15598   1.538   4.712  15.106  0.4783  0.2496 -0.1634
 1321SOL    HW115599   1.574   4.624  15.117  1.7890  1.4093  5.0211
 1321SOL    HW215600   1.452   4.686  15.075 -0.4073  1.7995  0.9929
 1322SOL     OW15601   2.104   0.748  16.577  0.3312  0.4489 -0.6489
 1322SOL    HW115602   2.060   0.744  16.492 -1.0824  0.3396  0.0929
 1322SOL    HW215603   2.068   0.668  16.616  0.2682  0.4938 -0.6142
 1323SOL     OW15604   0.344   1.065   4.268 -0.4140  0.2096  0.3799
 1323SOL    HW115605   0.408   1.132   4.292  0.2122 -1.3330  3.0133
 1323SOL    HW215606   0.291   1.055   4.347  0.0106 -1.0469  0.5007
 1324SOL     OW15607   0.277   1.192   8.246  0.6803  0.0432  0.0007
 1324SOL    HW115608   0.334   1.118   8.225 -0.0187 -1.2807  2.8260
 1324SOL    HW215609   0.235   1.212   8.163  0.4566  0.5772  0.2438
 1325SOL     OW15610   3.717   2.628   5.997 -0.5026  0.1715 -0.5587
 1325SOL    HW115611   3.738   2.712   5.957  0.9469  0.7271  1.4122
 1325SOL    HW215612   3.714   2.577   5.916 -0.9711  1.6282 -1.4551
 1326SOL     OW15613   1.918   4.658   2.375  0.1383  0.1796 -0.5915
 1326SOL    HW115614   1.979   4.602   2.423  2.2392  2.4446 -0.6151
 1326SOL    HW215615   1.957   0.009   2.385  1.0197 -0.3246  0.4756
 1327SOL     OW15616   2.584   1.031   8.829 -0.5753  0.1873 -0.5121
 1327SOL    HW115617   2.503   1.041   8.878 -0.5422  1.1132 -0.6461
 1327SOL    HW215618   2.588   1.100   8.763 -0.2721 -1.5829 -2.3680
 1328SOL     OW15619   2.377   2.635   2.370 -0.2077  0.1834  0.0197
 1328SOL    HW115620   2.316   2.684   2.315 -0.1594  1.0752  0.7525
 1328SOL    HW215621   2.322   2.556   2.373  1.0089 -0.6123  1.4245
 1329SOL     OW15622   2.760   0.862   6.607 -0.2994 -0.5377 -0.4265
 1329SOL    HW115623   2.708   0.933   6.645 -0.1336 -1.2057  1.0314
 1329SOL    HW215624   2.823   0.902   6.547 -0.0144 -0.0961  0.1670
 1330SOL     OW15625   3.863   0.727   6.542  0.1152 -0.2338  0.0833
 1330SOL    HW115626   3.932   0.793   6.538  0.3540 -0.3876  1.6267
 1330SOL    HW215627   3.884   0.671   6.617  0.5660  0.3988  0.4226
 1331SOL     OW15628   2.626   3.993   6.203  0.0326  0.0195  0.2815
 1331SOL    HW115629   2.603   3.931   6.272  1.1772 -1.5099 -0.6940
 1331SOL    HW215630   2.579   4.069   6.237 -0.6401  0.6397 -2.0311
 1332SOL     OW15631   4.280   1.764   2.075 -0.1515  0.1278 -0.2670
 1332SOL    HW115632   4.290   1.857   2.095 -1.3337  0.2493 -0.2313
 1332SOL    HW215633   4.327   1.720   2.146 -1.4901 -2.1564 -0.7895
 1333SOL     OW15634   0.425   2.876   4.436 -0.0908 -0.2814 -0.8152
 1333SOL    HW115635   0.517   2.857   4.417 -0.2558  0.9197 -2.7511
 1333SOL    HW215636   0.435   2.970   4.456 -0.5858 -0.3773 -0.1080
 1334SOL     OW15637   0.848   0.798   3.393  0.2974 -0.5318  0.3206
 1334SOL    HW115638   0.898   0.816   3.314 -0.8759  1.5507  0.0416
 1334SOL    HW215639   0.762   0.815   3.355  0.0177  0.1460  1.2442
 1335SOL     OW15640   2.594   1.031  12.352  0.0449 -0.1156 -0.3945
 1335SOL    HW115641   2.546   1.109  12.380 -3.3841 -2.0257 -0.8829
 1335SOL    HW215642   2.668   1.076  12.313  0.2124 -2.0231 -2.2822
 1336SOL     OW15643   2.703   1.016   2.228  0.1705 -0.4948  0.3124
 1336SOL    HW115644   2.781   0.966   2.251  0.1973  0.1457  1.6557
 1336SOL    HW215645   2.748   1.096   2.257 -0.2137 -0.6626  1.3733
 1337SOL     OW15646   4.632   4.318   3.100 -0.3572 -0.3772 -0.2592
 1337SOL    HW115647   4.644   4.246   3.039 -0.7668  0.2015 -1.0200
 1337SOL    HW215648   4.606   4.278   3.183  1.0624 -0.1986  0.2841
 1338SOL     OW15649   0.375   2.382   7.170  0.1627 -0.3825 -0.8053
 1338SOL    HW115650   0.315   2.342   7.108  0.8732 -2.8466  0.1070
 1338SOL    HW215651   0.387   2.309   7.231 -1.8059  0.3894  0.5005
 1339SOL     OW15652   4.154   2.778   8.056  0.1689  0.0256  0.6715
 1339SOL    HW115653   4.202   2.760   8.137  1.2072  0.2697  0.1123
 1339SOL    HW215654   4.084   2.713   8.063 -3.1585  3.8101  1.9320
 1340SOL     OW15655   1.848   0.375   2.511  0.2448  0.1380 -0.6320
 1340SOL    HW115656   1.753   0.372   2.510  0.2810 -1.3281 -0.4451
 1340SOL    HW215657   1.863   0.401   2.420 -1.4241 -0.1848 -0.9947
 1341SOL     OW15658   3.563   0.239   6.115  0.0460  0.0182  0.1294
 1341SOL    HW115659   3.500   0.175   6.147 -0.2958  1.4187  2.2295
 1341SOL    HW215660   3.524   0.294   6.046 -0.2325 -1.3588 -0.8160
 1342SOL     OW15661   3.112   3.261   3.203 -0.3503  0.2913  0.0713
 1342SOL    HW115662   3.080   3.173   3.223  3.2127 -0.3734  2.9850
 1342SOL    HW215663   3.162   3.278   3.283 -0.2023 -2.1793  0.5218
 1343SOL     OW15664   0.460   3.295   6.940  0.6073 -0.2199 -0.2610
 1343SOL    HW115665   0.437   3.241   6.864 -0.4617 -0.1730  0.0334
 1343SOL    HW215666   0.400   3.262   7.008 -0.6989  1.4813 -0.5989
 1344SOL     OW15667   4.347   0.034   7.322  0.0288 -0.0038  0.0120
 1344SOL    HW115668   4.324   0.067   7.235  1.9603  1.1827 -0.0333
 1344SOL    HW215669   4.329   0.112   7.374 -1.4201 -0.6906  0.5547
 1345SOL     OW15670   2.466   0.997   2.375 -0.2261 -0.5437 -0.3635
 1345SOL    HW115671   2.550   1.001   2.330 -0.0283 -1.9027 -0.0977
 1345SOL    HW215672   2.434   0.908   2.361 -0.8352 -0.2748 -0.6790
 1346SOL     OW15673   4.091   1.714   5.809 -0.2935 -0.6338 -0.1587
 1346SOL    HW115674   4.174   1.719   5.857 -0.2283 -0.3381 -0.3012
 1346SOL    HW215675   4.032   1.733   5.882  0.2297  2.1129 -0.4524
 1347SOL     OW15676   4.616   1.219  10.373  0.2268  0.7431 -0.2342
 1347SOL    HW115677   4.668   1.261  10.442 -0.0400  0.7547 -0.0418
 1347SOL    HW215678   4.533   1.266  10.372  0.1042  0.5079 -0.8690
 1348SOL     OW15679   1.527   3.339   2.340  0.3658  0.2103 -0.0798
 1348SOL    HW115680   1.618   3.309   2.336  0.2889 -0.1943  1.0757
 1348SOL    HW215681   1.479   3.264   2.305  2.0155 -0.5028 -0.7891
 1349SOL     OW15682   4.357   4.146  12.214  0.1065  0.2699 -0.5768
 1349SOL    HW115683   4.436   4.130  12.267 -0.6998 -0.5527  0.3848
 1349SOL    HW215684   4.317   4.220  12.260 -2.6438 -1.1388 -0.6990
 1350SOL     OW15685   3.362   0.295   7.985  0.1631  0.0856  0.5172
 1350SOL    HW115686   3.351   0.200   7.984 -3.6831  0.5281 -0.6706
 1350SOL    HW215687   3.286   0.319   7.932  0.3203  1.6949  1.0247
 1351SOL     OW15688   2.561   1.583   8.606  0.6140 -0.2145  0.3503
 1351SOL    HW115689   2.646   1.573   8.649  0.6678  2.1916  0.7902
 1351SOL    HW215690   2.545   1.677   8.611  0.3733 -0.3023  1.2373
 1352SOL     OW15691   2.396   4.585   7.553  0.2215  0.0308 -0.0434
 1352SOL    HW115692   2.353   4.628   7.479 -2.5428 -0.1819  1.4337
 1352SOL    HW215693   2.364   4.645   7.620  2.5775  0.0020  1.1347
 1353SOL     OW15694   4.516   0.947   6.258 -0.0904  0.1075 -0.1338
 1353SOL    HW115695   4.504   0.858   6.291 -0.2263  0.7138  1.4214
 1353SOL    HW215696   4.569   0.988   6.326  1.5780 -0.4833 -1.0620
 1354SOL     OW15697   3.543   0.680   9.498 -0.0771  0.0763  0.5810
 1354SOL    HW115698   3.524   0.592   9.468  2.3261  0.2271 -1.3453
 1354SOL    HW215699   3.604   0.700   9.427 -2.6209  1.4088 -1.1944
 1355SOL     OW15700   2.193   0.985   8.516 -0.3389 -0.5877 -0.6615
 1355SOL    HW115701   2.141   0.932   8.577 -0.5662  1.9389  1.3276
 1355SOL    HW215702   2.151   0.961   8.434  0.5606 -0.5343 -1.1377
 1356SOL     OW15703   1.823   1.643   6.876 -0.1790  1.2376 -0.2882
 1356SOL    HW115704   1.883   1.583   6.921 -2.4235 -1.4753 -0.9154
 1356SOL    HW215705   1.874   1.655   6.796  0.7773 -3.4682 -0.4204
 1357SOL     OW15706   1.050   4.444   3.118  0.5275  1.0463 -0.3977
 1357SOL    HW115707   1.143   4.459   3.108  0.1692  3.2491 -0.2821
 1357SOL    HW215708   1.044   4.366   3.062 -0.1328 -0.1113  1.2523
 1358SOL     OW15709   1.947   2.230   7.451  0.0969  0.0928  0.0476
 1358SOL    HW115710   1.896   2.266   7.523 -0.9354  1.4381 -1.3587
 1358SOL    HW215711   2.035   2.260   7.475  0.4386 -0.4649 -0.5045
 1359SOL     OW15712   4.634   4.249   6.910  0.3554  0.0951  0.1886
 1359SOL    HW115713   4.556   4.264   6.856  1.0000 -0.9135 -1.0314
 1359SOL    HW215714   4.630   4.328   6.964 -0.8327  0.4421 -0.3938
 1360SOL     OW15715   1.226   0.248   1.979  0.2211 -0.0843 -0.2243
 1360SOL    HW115716   1.259   0.250   2.069  2.2419 -1.0507 -0.9409
 1360SOL    HW215717   1.231   0.153   1.964  1.5059 -0.1468  0.5633
 1361SOL     OW15718   4.203   0.434   0.647 -0.1301 -0.4881  0.3311
 1361SOL    HW115719   4.138   0.495   0.613  0.3632  0.2095  0.6604
 1361SOL    HW215720   4.288   0.463   0.614 -1.3248 -0.3771 -2.5750
 1362SOL     OW15721   0.693   2.799   2.206  0.0541 -0.6622  0.5660
 1362SOL    HW115722   0.757   2.827   2.271  2.0118 -0.2627 -1.5336
 1362SOL    HW215723   0.614   2.829   2.250 -0.3031  1.9201 -1.7741
 1363SOL     OW15724   4.166   4.445   9.056 -0.0013  0.4591  0.5212
 1363SOL    HW115725   4.110   4.426   8.981  1.2038  0.1432 -0.3065
 1363SOL    HW215726   4.146   4.383   9.126  0.1187  0.1662  0.2950
 1364SOL     OW15727   0.406   1.205  16.935  0.0472 -0.2352  0.1715
 1364SOL    HW115728   0.440   1.200  17.025  1.1780  1.8906 -0.1390
 1364SOL    HW215729   0.484   1.209  16.879 -0.0810 -1.2741 -0.0761
 1365SOL     OW15730   0.771   1.150   2.159  0.4664 -0.7031  0.2141
 1365SOL    HW115731   0.732   1.219   2.105  0.1497 -0.9908  0.0746
 1365SOL    HW215732   0.854   1.155   2.112 -0.5172  0.8638 -1.3898
 1366SOL     OW15733   0.100   0.236   1.990 -0.0883  0.0601 -0.6125
 1366SOL    HW115734   0.100   0.143   2.014 -1.2972  0.4476  0.9051
 1366SOL    HW215735   0.147   0.225   1.908  4.5832  2.8597  1.6822
 1367SOL     OW15736   2.800   2.381   6.674 -0.6182 -0.4609  0.3593
 1367SOL    HW115737   2.771   2.469   6.652 -2.3227 -1.5469 -1.7479
 1367SOL    HW215738   2.895   2.389   6.664 -0.2857 -2.7052  1.6816
 1368SOL     OW15739   2.685   0.193   3.353  0.2560 -0.2873 -0.1205
 1368SOL    HW115740   2.760   0.221   3.301 -0.6257  3.2147  0.5226
 1368SOL    HW215741   2.670   0.100   3.335  1.1308 -0.2017 -1.2938
 1369SOL     OW15742   1.956   1.478  11.211 -0.1509 -0.0757  0.1353
 1369SOL    HW115743   1.889   1.493  11.277 -1.3187 -1.0480 -0.8355
 1369SOL    HW215744   1.977   1.388  11.236 -2.0000 -0.5853 -0.1787
 1370SOL     OW15745   1.541   3.506   5.681  0.4542  0.2720  0.6240
 1370SOL    HW115746   1.588   3.549   5.752  0.7021  1.1680 -0.0894
 1370SOL    HW215747   1.610   3.461   5.633 -0.0272 -0.0370  0.2125
 1371SOL     OW15748   0.467   3.686  12.754 -0.2451  0.5959 -0.1636
 1371SOL    HW115749   0.430   3.613  12.802 -1.4076  0.5492 -1.1463
 1371SOL    HW215750   0.468   3.756  12.820 -0.2343  0.4477 -0.0064
 1372SOL     OW15751   3.188   1.905   3.745  0.4443  0.1547  0.2210
 1372SOL    HW115752   3.127   1.841   3.782 -2.2414  3.8789  2.3077
 1372SOL    HW215753   3.230   1.955   3.815 -0.5255  0.8555  0.3046
 1373SOL     OW15754   0.042   0.620  17.219 -0.0695  0.3961 -0.7793
 1373SOL    HW115755   0.021   0.530  17.195  0.9208 -0.2468  0.7658
 1373SOL    HW215756   0.111   0.596  17.281 -0.4568  0.1049 -0.4599
 1374SOL     OW15757   2.219   3.748  11.914 -0.3172  0.1823 -0.3346
 1374SOL    HW115758   2.208   3.841  11.893 -0.5172  0.1325 -0.4590
 1374SOL    HW215759   2.241   3.762  12.006 -1.3525 -2.3938  0.3045
 1375SOL     OW15760   4.719   1.659   3.440 -0.7057 -0.4235 -0.0109
 1375SOL    HW115761   4.679   1.581   3.404 -0.5322 -0.4602 -0.1254
 1375SOL    HW215762   4.649   1.716   3.471  0.3944  2.5653 -2.9440
 1376SOL     OW15763   3.098   4.557   1.261  0.3507  0.2193 -0.0447
 1376SOL    HW115764   3.061   4.495   1.198  0.8871  0.2820 -0.4133
 1376SOL    HW215765   3.163   4.600   1.206 -0.4692  0.5814 -0.7325
 1377SOL     OW15766   2.170   4.379   2.404  0.2743 -0.0183 -0.5436
 1377SOL    HW115767   2.179   4.310   2.470  2.1348  3.8762  3.2411
 1377SOL    HW215768   2.223   4.440   2.454 -0.1646 -0.3655  0.3487
 1378SOL     OW15769   1.396   0.090  10.500 -0.2427 -0.1664 -0.3203
 1378SOL    HW115770   1.351   0.024  10.553 -0.4776  1.0875  1.0520
 1378SOL    HW215771   1.464   0.113  10.564  0.1963  0.8410 -1.1554
 1379SOL     OW15772   1.457   3.865  10.896 -0.4549  0.3171 -0.2514
 1379SOL    HW115773   1.413   3.938  10.940  2.7035  1.0571  1.7448
 1379SOL    HW215774   1.416   3.877  10.811  0.2058 -1.5821 -0.8374
 1380SOL     OW15775   2.076   3.867   6.575  0.1234 -0.5785  0.0897
 1380SOL    HW115776   2.000   3.871   6.518  0.2137  1.8774  0.1650
 1380SOL    HW215777   2.073   3.771   6.578  1.1234 -0.5936  0.6067
 1381SOL     OW15778   1.254   4.346   5.820  0.3252 -0.5367 -0.1839
 1381SOL    HW115779   1.251   4.314   5.730  1.7120 -4.5500  1.2014
 1381SOL    HW215780   1.161   4.345   5.843  0.5693  0.4969  0.8206
 1382SOL     OW15781   1.052   2.725   2.559  0.5399  0.8160 -0.1142
 1382SOL    HW115782   1.059   2.634   2.530  1.7990  0.1932  2.1629
 1382SOL    HW215783   1.136   2.744   2.600  0.6705 -1.8803  0.8799
 1383SOL     OW15784   2.837   3.051   7.617 -0.0535  0.2658 -0.3082
 1383SOL    HW115785   2.850   3.108   7.693 -1.6948 -0.9194  0.8521
 1383SOL    HW215786   2.882   3.100   7.548  0.1300  2.7979  1.5901
 1384SOL     OW15787   2.633   1.517   1.786 -0.1367  0.0356  0.0938
 1384SOL    HW115788   2.689   1.554   1.854 -0.3019  1.1874 -0.3968
 1384SOL    HW215789   2.697   1.449   1.764  0.4808  0.3270  0.9975
 1385SOL     OW15790   0.397   0.838   9.843  0.9117  0.6069 -0.5676
 1385SOL    HW115791   0.414   0.750   9.877 -3.2514  0.8160  1.9654
 1385SOL    HW215792   0.454   0.832   9.765  1.8874 -0.0902  0.1975
 1386SOL     OW15793   3.080   0.695   3.912  0.5625 -0.1139 -0.3415
 1386SOL    HW115794   3.004   0.638   3.900  0.3089 -0.0214  0.8723
 1386SOL    HW215795   3.107   0.708   3.821 -2.7357  1.7310 -1.0532
 1387SOL     OW15796   2.025   0.016  16.647 -0.1712  0.0140  0.2495
 1387SOL    HW115797   1.998   4.731  16.558 -1.2631  1.1594  0.2904
 1387SOL    HW215798   1.955   0.080  16.666  1.3633  1.3146  1.5115
 1388SOL     OW15799   0.045   0.179   7.691  0.2759  0.0799 -0.1006
 1388SOL    HW115800   4.735   0.170   7.608  0.2034  0.9568 -0.1525
 1388SOL    HW215801   4.707   0.167   7.749 -0.2386  1.4415 -0.4894
 1389SOL     OW15802   3.191   4.327   3.325 -0.0617 -0.1827 -0.3487
 1389SOL    HW115803   3.117   4.332   3.264  1.3921  1.2812 -1.9645
 1389SOL    HW215804   3.264   4.328   3.263  0.1893  0.5293 -0.0361
 1390SOL     OW15805   1.216   1.298   1.917  0.2558 -0.2886  0.7717
 1390SOL    HW115806   1.278   1.241   1.962  1.8407  0.3186 -0.6759
 1390SOL    HW215807   1.259   1.382   1.926  1.2485 -0.8491  1.2198
 1391SOL     OW15808   0.579   0.794   5.767 -0.1628  0.2335  0.3017
 1391SOL    HW115809   0.673   0.776   5.765 -0.3557 -0.8900  1.9414
 1391SOL    HW215810   0.568   0.845   5.846  0.7784  0.7133  0.1227
 1392SOL     OW15811   1.531   3.767   4.194  0.4766  0.1592  0.1214
 1392SOL    HW115812   1.597   3.832   4.217  1.7189 -0.9146 -0.4797
 1392SOL    HW215813   1.456   3.805   4.241  1.4733  2.2976 -0.0182
 1393SOL     OW15814   3.544   0.030  14.444 -0.0424  0.0580  0.1478
 1393SOL    HW115815   3.478   0.005  14.509 -0.2007  0.4155  0.1243
 1393SOL    HW215816   3.476   0.075  14.394  1.9668  0.3519 -2.2822
 1394SOL     OW15817   1.341   3.224   1.316  0.2873  0.4753 -0.2426
 1394SOL    HW115818   1.278   3.190   1.378  0.9949 -2.4128 -1.1033
 1394SOL    HW215819   1.292   3.275   1.252 -3.6198  0.2624  2.6254
 1395SOL     OW15820   3.978   1.476   2.642 -0.3033  0.2330 -0.9579
 1395SOL    HW115821   3.902   1.441   2.689 -1.9027 -0.5356 -4.1033
 1395SOL    HW215822   3.937   1.510   2.563 -2.6816  0.5430  0.3932
 1396SOL     OW15823   2.855   4.349   7.071 -0.7862  0.7459  0.4124
 1396SOL    HW115824   2.812   4.296   7.138  0.6515 -0.8449  0.0695
 1396SOL    HW215825   2.783   4.379   7.016  1.4807 -0.7675 -3.3666
 1397SOL     OW15826   0.611   3.465  13.755 -0.1673  0.0732 -0.4231
 1397SOL    HW115827   0.632   3.377  13.724 -0.1506 -0.3642  0.8242
 1397SOL    HW215828   0.522   3.477  13.721 -1.7972 -1.6053  3.3114
 1398SOL     OW15829   3.937   3.227   4.679  0.2723 -0.3286 -0.0631
 1398SOL    HW115830   4.006   3.276   4.633 -0.0010  0.9906  0.9254
 1398SOL    HW215831   3.920   3.289   4.750  0.5606  1.0577 -1.2040
 1399SOL     OW15832   2.782   3.681   8.939 -0.0064 -0.4476 -0.0311
 1399SOL    HW115833   2.771   3.670   9.034  0.5768  2.5652  0.4035
 1399SOL    HW215834   2.733   3.607   8.903 -0.4006  0.3594 -1.1453
 1400SOL     OW15835   1.252   1.139   4.777  0.9070 -0.6129  0.1058
 1400SOL    HW115836   1.188   1.084   4.823  2.6945 -1.4595  1.5796
 1400SOL    HW215837   1.313   1.153   4.850  0.9504 -2.1547  0.3794
 1401SOL     OW15838   1.726   4.611   4.585 -0.6372  0.0553 -0.1661
 1401SOL    HW115839   1.650   4.627   4.640 -0.7990  0.9355 -0.6606
 1401SOL    HW215840   1.737   4.696   4.544  1.8524  0.2119  0.8001
 1402SOL     OW15841   2.310   1.069   1.649 -0.6588 -0.3911 -0.3092
 1402SOL    HW115842   2.373   1.113   1.706 -0.4176  0.5898 -1.3408
 1402SOL    HW215843   2.333   0.977   1.662 -0.8713 -0.7059 -2.0944
 1403SOL     OW15844   1.896   3.334   2.633 -0.2507  0.2988 -0.7335
 1403SOL    HW115845   1.820   3.282   2.661  0.4728 -0.1410  0.4024
 1403SOL    HW215846   1.867   3.425   2.631 -0.4260  0.2297 -1.4119
 1404SOL     OW15847   1.751   4.297   9.113 -0.4806 -0.3833  0.0589
 1404SOL    HW115848   1.657   4.282   9.107 -0.5899  0.0124  0.8474
 1404SOL    HW215849   1.761   4.358   9.186 -1.4531  2.2374 -1.9897
 1405SOL     OW15850   3.907   2.201   5.606  0.5882  0.1700 -0.1099
 1405SOL    HW115851   3.908   2.195   5.510 -1.8139 -1.2984 -0.0551
 1405SOL    HW215852   3.821   2.230   5.637  0.5976 -0.6304  0.6481
 1406SOL     OW15853   2.092   1.517   7.285 -0.1142  1.2845  0.1213
 1406SOL    HW115854   2.020   1.457   7.265 -0.2138  1.2188  0.6771
 1406SOL    HW215855   2.050   1.593   7.245 -0.2860  0.6000 -1.0122
 1407SOL     OW15856   2.419   2.207   6.980  0.6802 -0.1297 -0.1730
 1407SOL    HW115857   2.367   2.286   6.998  1.6423  0.3026  0.7589
 1407SOL    HW215858   2.444   2.181   7.069 -2.0742 -1.2535  0.2698
 1408SOL     OW15859   1.808   0.962   2.417  0.6467  0.3026 -0.2230
 1408SOL    HW115860   1.720   0.997   2.434  0.3387 -0.6659  0.1848
 1408SOL    HW215861   1.787   0.901   2.346  0.8447 -0.0895  0.0610
 1409SOL     OW15862   1.343   4.388   8.437  0.2678 -0.1587  0.1229
 1409SOL    HW115863   1.382   4.472   8.462 -1.4365  1.0136 -1.1014
 1409SOL    HW215864   1.421   4.350   8.396  0.0923  0.2189 -0.5699
 1410SOL     OW15865   0.556   0.515   6.706 -0.2768 -0.3483  0.1709
 1410SOL    HW115866   0.616   0.586   6.682 -2.6016  1.4485 -0.3004
 1410SOL    HW215867   0.553   0.461   6.627  2.0382 -0.7808  0.3807
 1411SOL     OW15868   1.940   2.002  17.023  0.2421  0.1060  0.2288
 1411SOL    HW115869   2.034   2.001  17.040  0.5271  1.9574 -1.3557
 1411SOL    HW215870   1.916   2.094  17.019  1.1391  0.4252  1.9735
 1412SOL     OW15871   1.038   2.169   4.831 -0.3456 -0.2163  0.6138
 1412SOL    HW115872   1.053   2.254   4.871  0.6617 -0.6143  1.0808
 1412SOL    HW215873   0.970   2.134   4.889 -0.7968 -0.8136 -0.2666
 1413SOL     OW15874   1.887   2.238  12.400 -0.7810 -0.1265 -0.1195
 1413SOL    HW115875   1.915   2.321  12.439 -2.3175  0.8589 -1.1113
 1413SOL    HW215876   1.973   2.207  12.370 -0.7030 -0.6904  0.6859
 1414SOL     OW15877   1.531   3.373   6.227  0.2539 -0.1765  0.4409
 1414SOL    HW115878   1.438   3.358   6.240  0.4696 -0.4940  1.5793
 1414SOL    HW215879   1.574   3.319   6.294  2.0535  1.4701  0.6154
 1415SOL     OW15880   2.659   0.806   5.300  0.3876  0.0686  0.3812
 1415SOL    HW115881   2.637   0.716   5.275 -1.9967  0.1406  2.2190
 1415SOL    HW215882   2.576   0.825   5.343  0.8350  1.2916  0.7077
 1416SOL     OW15883   0.528   2.963  13.477 -0.0050 -0.1020  0.2601
 1416SOL    HW115884   0.529   2.946  13.383 -1.4233  1.4671 -0.0209
 1416SOL    HW215885   0.581   3.043  13.481  2.3782 -1.5885 -1.4207
 1417SOL     OW15886   4.480   1.230   7.119  0.1306 -0.1245  0.4719
 1417SOL    HW115887   4.450   1.213   7.208  0.6842  0.5011  0.7805
 1417SOL    HW215888   4.404   1.205   7.067 -0.3964 -1.1051  1.7259
 1418SOL     OW15889   0.263   2.127  16.359 -0.0309  0.3571 -0.3836
 1418SOL    HW115890   0.202   2.140  16.286 -1.3792 -0.1729  0.6509
 1418SOL    HW215891   0.199   2.122  16.431  0.1409 -1.0641 -0.3409
 1419SOL     OW15892   2.658   2.451   3.271  0.1447 -0.5584  0.0594
 1419SOL    HW115893   2.736   2.443   3.326  0.1870  1.8119  0.3406
 1419SOL    HW215894   2.679   2.409   3.187 -0.6788 -2.4930  0.8202
 1420SOL     OW15895   0.363   0.669   2.219  0.2046 -0.2351 -0.0927
 1420SOL    HW115896   0.451   0.640   2.245  0.6186  1.8280  0.7752
 1420SOL    HW215897   0.328   0.581   2.201 -1.5051 -0.1391  2.8236
 1421SOL     OW15898   1.955   0.482   6.119  0.1924 -0.3078  0.0873
 1421SOL    HW115899   2.041   0.444   6.138 -0.4456 -0.8096  1.9967
 1421SOL    HW215900   1.909   0.427   6.183 -0.0458 -0.1747  0.0301
 1422SOL     OW15901   0.271   3.936   5.459 -0.2763 -0.0262 -0.0573
 1422SOL    HW115902   0.244   3.943   5.550  1.9471 -0.8636  0.6718
 1422SOL    HW215903   0.196   3.981   5.421  1.1188  0.6788 -2.0195
 1423SOL     OW15904   3.914   4.049  16.349  0.0426 -0.1171 -0.4249
 1423SOL    HW115905   3.963   4.024  16.428  1.1810 -1.9244 -1.6984
 1423SOL    HW215906   3.956   4.006  16.275  0.5677  0.5099 -0.4927
 1424SOL     OW15907   2.905   2.747   6.625  0.2717  0.1725 -0.2622
 1424SOL    HW115908   2.812   2.736   6.610  0.0864  3.0050 -1.1407
 1424SOL    HW215909   2.921   2.722   6.716 -1.2470  1.5340  0.3726
 1425SOL     OW15910   2.024   4.132  14.945  0.0235  0.2132  0.6569
 1425SOL    HW115911   2.099   4.125  15.003 -0.3964  0.2892  1.2077
 1425SOL    HW215912   1.981   4.213  14.971 -0.6913 -0.4811  1.6499
 1426SOL     OW15913   4.398   1.575  17.712  0.1181 -0.3689 -0.8573
 1426SOL    HW115914   4.313   1.586  17.670 -1.2496 -1.1041  1.7295
 1426SOL    HW215915   4.415   1.663  17.746  0.7994 -1.9410  2.8679
 1427SOL     OW15916   3.310   3.107   1.928  0.5508  0.1459 -0.6747
 1427SOL    HW115917   3.373   3.101   1.856 -0.0873 -1.7831 -1.0755
 1427SOL    HW215918   3.226   3.098   1.884 -0.5251  0.8347  1.2659
 1428SOL     OW15919   3.349   2.549  10.869  0.4069  0.1531 -0.2897
 1428SOL    HW115920   3.266   2.504  10.883  1.8756 -2.2970  0.5362
 1428SOL    HW215921   3.394   2.534  10.953  2.9217  1.0034 -1.4744
 1429SOL     OW15922   0.641   3.436   6.029  0.3269  0.0757 -0.1588
 1429SOL    HW115923   0.553   3.471   6.018  0.5357 -0.0261 -2.1429
 1429SOL    HW215924   0.635   3.388   6.112  1.2728  0.7960  0.3426
 1430SOL     OW15925   3.755   3.546   7.194  0.1418  0.2302 -0.0348
 1430SOL    HW115926   3.800   3.579   7.116 -2.1464 -0.3562 -1.6308
 1430SOL    HW215927   3.822   3.509   7.251  0.1272 -0.4435 -0.4535
 1431SOL     OW15928   2.023   2.472   8.568 -0.6874 -0.9333  0.2694
 1431SOL    HW115929   2.025   2.566   8.586 -0.4451 -0.8808 -0.0355
 1431SOL    HW215930   1.972   2.440   8.642  1.0977 -2.6989  0.7147
 1432SOL     OW15931   2.991   1.607  10.482  0.2401  0.4204  0.0762
 1432SOL    HW115932   2.961   1.561  10.561  1.5316 -2.1464 -0.9104
 1432SOL    HW215933   3.033   1.533  10.438  0.8421  0.3165  0.8118
 1433SOL     OW15934   1.102   0.240   3.238  0.4583 -0.4458  0.1303
 1433SOL    HW115935   1.056   0.189   3.304 -0.3424  0.7756  0.5287
 1433SOL    HW215936   1.078   0.325   3.276 -1.2510 -0.2249 -1.4091
 1434SOL     OW15937   0.255   1.419  15.699  0.0125 -0.0147 -0.5087
 1434SOL    HW115938   0.205   1.343  15.730 -2.3737  2.3992  1.5624
 1434SOL    HW215939   0.188   1.488  15.703  0.5382  0.6061 -2.8358
 1435SOL     OW15940   2.100   0.507  13.969 -0.2623 -0.2038  0.5103
 1435SOL    HW115941   2.062   0.595  13.970  0.9095  0.3185 -1.3442
 1435SOL    HW215942   2.191   0.529  13.951 -0.4129  0.5622  0.6896
 1436SOL     OW15943   2.618   0.153   6.995  0.3834 -0.6390  0.3253
 1436SOL    HW115944   2.630   0.190   7.083  2.5695 -0.4729 -0.0537
 1436SOL    HW215945   2.611   0.236   6.949 -0.3129  1.4086  4.1451
 1437SOL     OW15946   0.844   1.747  16.049 -0.1544 -0.3288 -0.4818
 1437SOL    HW115947   0.761   1.771  16.089 -0.1408  0.4362 -0.9130
 1437SOL    HW215948   0.891   1.723  16.129  2.1275 -0.4108 -1.8477
 1438SOL     OW15949   1.975   0.815   3.464  0.4680 -0.3624  0.1914
 1438SOL    HW115950   1.880   0.812   3.450  0.2450  2.7095  1.0931
 1438SOL    HW215951   2.009   0.791   3.378 -0.1076  0.9708 -0.4060
 1439SOL     OW15952   1.903   3.800  17.196  0.0243 -0.4910  0.0606
 1439SOL    HW115953   1.931   3.768  17.282 -0.5045 -1.2580 -0.0581
 1439SOL    HW215954   1.979   3.854  17.174 -0.8001  0.9640  0.7932
 1440SOL     OW15955   3.483   0.649   2.630  1.1784  0.1244 -0.3263
 1440SOL    HW115956   3.432   0.707   2.688 -0.2927 -1.4492 -0.0290
 1440SOL    HW215957   3.489   0.560   2.666  2.1982 -0.6759 -2.5151
 1441SOL     OW15958   2.331   3.400   5.369  0.4148 -0.3172  0.8355
 1441SOL    HW115959   2.324   3.455   5.447  2.1810 -0.5734  1.1743
 1441SOL    HW215960   2.259   3.337   5.368  0.1794 -0.0293 -2.0874
 1442SOL     OW15961   0.330   3.205  13.731  0.7367  0.6052 -0.9505
 1442SOL    HW115962   0.260   3.181  13.669 -0.0109 -2.1108  0.9488
 1442SOL    HW215963   0.341   3.130  13.789  1.7703  2.8466  1.7109
 1443SOL     OW15964   2.632   4.143   1.215 -0.7245 -0.4735  0.2284
 1443SOL    HW115965   2.719   4.180   1.219 -1.4422  1.5390 -3.1877
 1443SOL    HW215966   2.619   4.114   1.306 -1.0049 -1.6598 -0.1783
 1444SOL     OW15967   2.330   4.723   1.233  0.3894 -0.2279  0.0092
 1444SOL    HW115968   2.292   4.644   1.272 -1.0587  0.6451  0.3550
 1444SOL    HW215969   2.311   4.708   1.141  0.6223 -0.3384 -0.0218
 1445SOL     OW15970   0.365   0.602  15.281  0.4453 -0.4688 -0.0720
 1445SOL    HW115971   0.367   0.648  15.364  0.5713 -0.6722  0.0383
 1445SOL    HW215972   0.334   0.678  15.232 -0.0129 -0.8776 -0.4182
 1446SOL     OW15973   1.807   2.505   6.835 -0.1207 -0.1165  0.1732
 1446SOL    HW115974   1.885   2.487   6.886  0.3368  0.2311 -0.4061
 1446SOL    HW215975   1.813   2.599   6.817 -1.7542 -0.0880 -0.2614
 1447SOL     OW15976   3.052   1.421   5.749 -0.1934 -0.5830 -0.0439
 1447SOL    HW115977   3.100   1.367   5.686  2.4524  2.6049 -0.7658
 1447SOL    HW215978   2.984   1.456   5.692 -0.3840 -0.0366  0.5127
 1448SOL     OW15979   1.264   1.589   3.145  1.0567  0.1509 -0.4050
 1448SOL    HW115980   1.293   1.667   3.193  1.4633  0.2944 -0.8781
 1448SOL    HW215981   1.348   1.566   3.105  2.3693  1.2697  1.6881
 1449SOL     OW15982   0.864   2.858   3.036  0.0885  0.0706 -0.1406
 1449SOL    HW115983   0.889   2.784   2.982 -3.2804 -2.0750  1.2371
 1449SOL    HW215984   0.831   2.910   2.963 -0.2045  0.8380  0.5365
 1450SOL     OW15985   0.365   1.464   2.731  0.6853  0.3164  0.4630
 1450SOL    HW115986   0.371   1.374   2.765 -1.4667  0.3245  0.8644
 1450SOL    HW215987   0.452   1.496   2.706  0.1631  0.8498 -0.6309
 1451SOL     OW15988   1.586   3.219  15.387 -0.4940 -0.3237  0.0902
 1451SOL    HW115989   1.565   3.173  15.468  2.5104 -1.1543  0.3980
 1451SOL    HW215990   1.503   3.204  15.344 -0.2838 -0.8288 -0.1326
 1452SOL     OW15991   0.633   3.624   8.858  0.4636  0.2440 -0.7887
 1452SOL    HW115992   0.727   3.637   8.872  0.2343  1.0887 -0.0273
 1452SOL    HW215993   0.605   3.689   8.922  0.0286 -2.1311  1.4765
 1453SOL     OW15994   2.328   1.840   4.654  0.4437  0.0991 -0.3506
 1453SOL    HW115995   2.352   1.933   4.658  2.8094 -0.5153 -0.5607
 1453SOL    HW215996   2.233   1.845   4.669  0.6119 -1.3509  1.1377
 1454SOL     OW15997   2.424   3.129   7.274  0.1442 -0.0604 -0.3175
 1454SOL    HW115998   2.499   3.169   7.231 -0.6161 -0.2968 -1.8565
 1454SOL    HW215999   2.395   3.066   7.209 -0.0818  0.1838 -0.4544
 1455SOL     OW16000   1.978   1.517   4.030  0.2685 -0.3888  0.3784
 1455SOL    HW116001   2.059   1.567   4.034  0.7521 -0.9445 -2.4046
 1455SOL    HW216002   1.976   1.494   4.123 -0.1327 -0.2377  0.4102
 1456SOL     OW16003   4.511   0.954  16.317 -0.2765 -0.3563 -0.6603
 1456SOL    HW116004   4.459   1.019  16.364  2.3344  2.5602 -1.8199
 1456SOL    HW216005   4.444   0.900  16.276 -1.4572 -0.3997  1.3433
 1457SOL     OW16006   0.079   3.725   3.302 -0.4553  0.0640  0.4568
 1457SOL    HW116007   0.156   3.769   3.267 -2.0996  1.4258 -1.4520
 1457SOL    HW216008   0.094   3.632   3.289 -0.1516 -0.2349  2.8181
 1458SOL     OW16009   1.675   0.315  15.107  0.1076  0.1201  0.3967
 1458SOL    HW116010   1.748   0.254  15.114 -0.1231 -0.2918 -0.7999
 1458SOL    HW216011   1.728   0.382  15.151  1.5027 -0.4350 -0.4269
 1459SOL     OW16012   2.814   0.124   2.447 -0.0120 -0.2815  0.3296
 1459SOL    HW116013   2.902   0.154   2.424  0.2427  1.3086  3.4604
 1459SOL    HW216014   2.806   0.035   2.412 -0.3441  0.8779 -2.5995
 1460SOL     OW16015   4.717   4.607   4.018 -0.3131 -0.2145  0.1060
 1460SOL    HW116016   4.723   4.539   4.085  0.3632  0.3897  0.6556
 1460SOL    HW216017   0.048   4.580   3.957 -0.5546  0.5352 -0.4995
 1461SOL     OW16018   2.790   0.549  16.663 -0.1117 -0.1648 -0.3580
 1461SOL    HW116019   2.771   0.500  16.583 -0.2928 -1.2085  0.3234
 1461SOL    HW216020   2.705   0.590  16.678  0.5093  0.9554  0.0680
 1462SOL     OW16021   2.073   4.448   5.056  0.4438 -0.2913 -0.1248
 1462SOL    HW116022   2.070   4.534   5.013 -2.7493  0.1105  0.9051
 1462SOL    HW216023   1.991   4.440   5.105 -0.1931 -0.9397 -1.3293
 1463SOL     OW16024   2.553   3.179   6.423  0.3455 -0.1105 -0.2306
 1463SOL    HW116025   2.490   3.127   6.374  0.0878  0.4763 -0.5296
 1463SOL    HW216026   2.540   3.260   6.374 -1.2556 -1.6913 -2.3937
 1464SOL     OW16027   2.089   3.341   7.669 -0.2944 -0.3056 -0.3640
 1464SOL    HW116028   2.087   3.356   7.574 -0.9049  1.1203 -0.1285
 1464SOL    HW216029   2.151   3.409   7.696  0.1593 -0.7872 -0.1879
 1465SOL     OW16030   1.802   2.955   8.756  0.2557 -0.3898 -0.1586
 1465SOL    HW116031   1.711   2.929   8.768  0.6440 -0.9766  1.5216
 1465SOL    HW216032   1.802   3.046   8.724 -1.8152 -0.5476 -0.6170
 1466SOL     OW16033   0.049   0.445   5.013  0.4616  0.1196 -0.6099
 1466SOL    HW116034   0.132   0.398   5.016  0.5391  0.3706  1.4405
 1466SOL    HW216035   0.017   0.430   5.103  0.9296  0.3227 -0.4115
 1467SOL     OW16036   0.983   2.644   7.991 -0.1055  0.4863  0.1342
 1467SOL    HW116037   0.934   2.640   7.909  2.2953  1.7792 -1.3650
 1467SOL    HW216038   0.987   2.549   8.002 -3.6863  0.3892  0.3459
 1468SOL     OW16039   1.481   2.496  16.416 -0.0869 -0.0575 -0.5637
 1468SOL    HW116040   1.529   2.549  16.479 -1.8551 -1.6646  2.1456
 1468SOL    HW216041   1.513   2.541  16.338 -0.2892  1.6047  0.3200
 1469SOL     OW16042   0.702   3.198  13.633  0.1205 -1.2312  0.2037
 1469SOL    HW116043   0.797   3.191  13.639  0.2276  0.1222  0.0311
 1469SOL    HW216044   0.697   3.211  13.539 -0.5811 -2.2191  0.1075
 1470SOL     OW16045   3.617   4.728   3.490  0.1104 -0.4813  0.4898
 1470SOL    HW116046   3.645   0.041   3.567 -0.6716 -3.3738  2.6688
 1470SOL    HW216047   3.571   4.652   3.526 -1.1326 -0.3293 -0.8361
 1471SOL     OW16048   3.386   2.526   5.454  0.1908  0.3172  0.5899
 1471SOL    HW116049   3.325   2.466   5.495  1.3048  0.0816  1.9058
 1471SOL    HW216050   3.339   2.605   5.425  0.2792  0.5765  1.1592
 1472SOL     OW16051   1.905   0.220   3.022  0.2485 -0.1228 -0.9194
 1472SOL    HW116052   1.900   0.157   3.093 -0.9114 -1.4870 -2.2135
 1472SOL    HW216053   1.814   0.218   2.992  0.5836 -1.2393 -1.8460
 1473SOL     OW16054   1.702   4.049  10.376  0.7219  0.1682 -0.2871
 1473SOL    HW116055   1.659   4.040  10.461 -1.8418  2.7766 -1.2901
 1473SOL    HW216056   1.759   4.125  10.390 -2.0910  2.0172  1.2957
 1474SOL     OW16057   0.722   0.055   9.074 -0.1571 -0.2953 -0.1940
 1474SOL    HW116058   0.716   4.736   9.151  2.6245 -0.8377 -0.3811
 1474SOL    HW216059   0.645   0.026   9.026 -0.6647  1.3218 -0.3437
 1475SOL     OW16060   2.408   2.435   7.939  0.3548  0.4344  0.0456
 1475SOL    HW116061   2.418   2.340   7.932  2.3877  0.8114 -2.4460
 1475SOL    HW216062   2.319   2.437   7.974  1.0593 -0.7090  1.8647
 1476SOL     OW16063   0.340   1.672   3.409  0.3550 -0.2000 -0.0954
 1476SOL    HW116064   0.282   1.741   3.378 -1.8051 -1.9624 -0.0103
 1476SOL    HW216065   0.292   1.639   3.485  0.6606  0.9731  0.5961
 1477SOL     OW16066   3.001   0.579   8.417  0.5451 -0.8206 -0.2063
 1477SOL    HW116067   2.961   0.500   8.454 -0.8899 -0.8084 -1.7351
 1477SOL    HW216068   2.935   0.622   8.364  0.2713 -2.4988 -1.2474
 1478SOL     OW16069   1.483   3.696  16.169  0.4911 -0.0591  0.2668
 1478SOL    HW116070   1.529   3.632  16.223 -0.7385  0.1940  1.6152
 1478SOL    HW216071   1.507   3.774  16.219  0.5710  0.8756 -1.2560
 1479SOL     OW16072   0.500   1.803   6.408 -0.2167  0.2657 -0.5949
 1479SOL    HW116073   0.587   1.768   6.427  0.0018  1.1328  0.0697
 1479SOL    HW216074   0.482   1.869   6.476 -2.9448 -2.4577  1.3017
 1480SOL     OW16075   2.226   4.219  17.581 -0.4268 -0.0259 -0.3198
 1480SOL    HW116076   2.153   4.248  17.636 -0.9656 -1.3489 -0.3256
 1480SOL    HW216077   2.291   4.288  17.589 -0.3594 -0.1277 -0.0141
 1481SOL     OW16078   3.877   0.259  11.762 -0.3229 -0.1845 -0.0819
 1481SOL    HW116079   3.829   0.180  11.788 -0.0713 -0.4592 -0.4504
 1481SOL    HW216080   3.947   0.272  11.827  0.4715  0.7513 -1.1315
 1482SOL     OW16081   1.623   4.104   7.988 -0.3390 -0.3492  0.1371
 1482SOL    HW116082   1.627   4.009   7.980  1.7210 -0.2920  0.3422
 1482SOL    HW216083   1.715   4.126   8.003 -1.6752  3.2875  3.1239
 1483SOL     OW16084   3.318   3.095   2.542 -0.1846  0.2279 -0.0655
 1483SOL    HW116085   3.355   3.066   2.458 -0.9544 -0.0281 -0.3137
 1483SOL    HW216086   3.398   3.132   2.579 -0.3673 -0.3227  0.8693
 1484SOL     OW16087   4.515   4.198  17.219 -0.0734  0.2649  0.3897
 1484SOL    HW116088   4.604   4.178  17.188  0.0070  2.1820 -0.6065
 1484SOL    HW216089   4.488   4.252  17.145  3.2412 -1.2802 -1.9337
 1485SOL     OW16090   2.382   0.124   6.812 -0.1816 -0.4063 -0.7657
 1485SOL    HW116091   2.448   0.101   6.878 -0.6095 -0.2489 -0.2806
 1485SOL    HW216092   2.430   0.150   6.734 -0.2563 -3.3279 -1.7533
 1486SOL     OW16093   1.162   1.859   5.920 -0.2769 -0.2389  0.3069
 1486SOL    HW116094   1.089   1.799   5.911  0.5465 -1.2873  0.6106
 1486SOL    HW216095   1.187   1.831   6.008 -1.0445 -0.6499  0.3905
 1487SOL     OW16096   3.090   1.616  16.283 -0.1737 -0.2579 -0.2064
 1487SOL    HW116097   3.166   1.567  16.252 -0.0454  0.0169 -0.3204
 1487SOL    HW216098   3.048   1.636  16.200 -2.2951 -2.8493  0.2523
 1488SOL     OW16099   3.462   3.553   3.553  0.5308  0.5641 -0.7441
 1488SOL    HW116100   3.434   3.612   3.623 -2.4675 -2.0572  0.2564
 1488SOL    HW216101   3.517   3.605   3.494  1.7566 -1.2129 -1.1765
 1489SOL     OW16102   3.061   4.005   9.923 -0.0186 -0.1240  0.1041
 1489SOL    HW116103   3.154   3.985   9.936 -0.0918 -0.5387 -0.0184
 1489SOL    HW216104   3.050   4.064   9.998 -1.9393  0.7072 -0.8457
 1490SOL     OW16105   1.748   2.243   5.749 -0.4500  0.2500 -0.2810
 1490SOL    HW116106   1.841   2.266   5.754 -0.1732 -0.5941 -1.5167
 1490SOL    HW216107   1.757   2.149   5.733 -0.4307  0.3838 -1.0557
 1491SOL     OW16108   0.709   2.447   8.238  0.6248 -0.2141  1.1387
 1491SOL    HW116109   0.661   2.521   8.274 -1.8787  0.3921 -3.4237
 1491SOL    HW216110   0.639   2.394   8.202  0.2333  1.6065 -0.7866
 1492SOL     OW16111   0.350   3.580   2.558  0.3119  0.4289  0.2597
 1492SOL    HW116112   0.353   3.592   2.463 -0.0860  0.4406  0.2457
 1492SOL    HW216113   0.261   3.601   2.587  0.8310  1.8179  0.8238
 1493SOL     OW16114   3.589   3.966   5.174 -0.4404 -0.5793  0.0270
 1493SOL    HW116115   3.639   4.006   5.245 -0.4403  0.6679 -0.6617
 1493SOL    HW216116   3.529   3.916   5.228 -0.3035 -0.3097  0.4270
 1494SOL     OW16117   3.695   2.044   3.161  0.5114  0.3178  0.0304
 1494SOL    HW116118   3.709   2.137   3.177  0.1910  0.4986 -0.7821
 1494SOL    HW216119   3.624   2.027   3.223 -1.0598 -0.9420 -2.1312
 1495SOL     OW16120   3.170   3.232  14.768 -0.6268  0.7418  0.2332
 1495SOL    HW116121   3.174   3.292  14.694  0.8993  0.0857 -0.2168
 1495SOL    HW216122   3.262   3.209  14.780 -0.8357  1.2751  2.9180
 1496SOL     OW16123   3.039   3.737   1.877  0.5137 -0.3913  0.9843
 1496SOL    HW116124   2.946   3.740   1.858  0.3386 -1.6476  1.7033
 1496SOL    HW216125   3.053   3.824   1.914  0.2061 -0.2167  0.6888
 1497SOL     OW16126   4.590   3.821   1.029  0.0941 -0.2570  0.1310
 1497SOL    HW116127   4.602   3.896   1.087  1.6611 -0.6196  0.2832
 1497SOL    HW216128   4.502   3.832   0.993  0.5311  0.6433 -0.6311
 1498SOL     OW16129   3.149   4.224  13.010  0.0204 -0.8059 -0.7937
 1498SOL    HW116130   3.234   4.246  13.049 -1.5567  1.3714  1.4040
 1498SOL    HW216131   3.094   4.238  13.087  0.2044 -0.6023 -0.6973
 1499SOL     OW16132   2.640   0.502  12.261 -0.6223 -0.0849  0.6204
 1499SOL    HW116133   2.680   0.589  12.261  1.4750 -1.0468  1.0893
 1499SOL    HW216134   2.569   0.525  12.321  0.2926 -0.0661  1.6960
 1500SOL     OW16135   1.402   0.130   4.709 -0.1136  0.0278  0.1283
 1500SOL    HW116136   1.345   0.062   4.673 -2.2390  1.1221  1.3858
 1500SOL    HW216137   1.451   0.151   4.630 -0.9491 -0.6055 -0.5515
 1501SOL     OW16138   3.861   0.928   2.290 -0.0662 -0.4184  0.3521
 1501SOL    HW116139   3.861   0.882   2.207  0.6734  1.4731 -0.7063
 1501SOL    HW216140   3.859   1.017   2.254 -0.6126 -0.1339  1.0669
 1502SOL     OW16141   3.365   0.305   2.329  0.5762  0.2964 -0.0150
 1502SOL    HW116142   3.439   0.288   2.271  0.2317 -2.2406  0.3186
 1502SOL    HW216143   3.410   0.295   2.413 -0.9035 -0.6414  0.6619
 1503SOL     OW16144   1.612   0.449  16.294  0.5766 -0.0079 -0.2713
 1503SOL    HW116145   1.615   0.511  16.366 -0.6671  1.3977 -1.4363
 1503SOL    HW216146   1.550   0.382  16.323 -0.9058  2.0300  1.2950
 1504SOL     OW16147   3.383   4.422   3.137  0.5318 -0.1221  0.2580
 1504SOL    HW116148   3.476   4.428   3.117  0.7060  2.0767  1.7256
 1504SOL    HW216149   3.348   4.410   3.049  0.1747 -0.5739  0.4612
 1505SOL     OW16150   4.348   3.400   1.576  0.5507 -0.1395  1.1477
 1505SOL    HW116151   4.287   3.346   1.627  0.2606 -0.9897 -0.0892
 1505SOL    HW216152   4.293   3.472   1.547  1.4263  0.1831  0.3008
 1506SOL     OW16153   0.129   0.468   7.310  0.3356  0.1413  0.3199
 1506SOL    HW116154   0.153   0.496   7.221 -0.7304  0.7342  0.2294
 1506SOL    HW216155   0.070   0.392   7.310  1.9511 -1.1281 -0.4833
 1507SOL     OW16156   0.463   2.928   7.414  0.0579 -0.1689 -0.3380
 1507SOL    HW116157   0.384   2.964   7.454 -0.5253 -0.8252 -0.9022
 1507SOL    HW216158   0.431   2.917   7.325 -0.8671 -1.0116  0.0974
 1508SOL     OW16159   3.364   2.709  15.345 -0.5250  0.4488  0.1165
 1508SOL    HW116160   3.399   2.675  15.263  0.4903 -2.5339  1.7956
 1508SOL    HW216161   3.380   2.634  15.402  1.6018  0.9851  0.2160
 1509SOL     OW16162   0.225   4.471   5.068 -0.3981  0.1622  0.1396
 1509SOL    HW116163   0.257   4.390   5.107  1.4954 -0.1844 -2.1337
 1509SOL    HW216164   0.304   4.523   5.081  0.2183 -0.2821 -1.8106
 1510SOL     OW16165   0.534   0.477   4.875  0.2589  0.4259  0.2539
 1510SOL    HW116166   0.490   0.489   4.959 -0.5622  2.4359 -0.4703
 1510SOL    HW216167   0.494   0.544   4.820  1.1576 -0.8143 -1.9618
 1511SOL     OW16168   0.872   0.007   6.281  0.0509 -0.3279  0.2930
 1511SOL    HW116169   0.831   0.086   6.246 -0.5144 -1.2904 -1.2328
 1511SOL    HW216170   0.926   0.033   6.356 -0.7240 -1.3462  1.2043
 1512SOL     OW16171   4.139   1.487   1.172  0.3311  0.2463  0.3306
 1512SOL    HW116172   4.073   1.547   1.207 -0.0702 -0.0502  0.0742
 1512SOL    HW216173   4.151   1.532   1.088 -1.4568 -0.5472 -0.3291
 1513SOL     OW16174   1.856   4.266   2.974 -0.1796  0.2189  0.1019
 1513SOL    HW116175   1.833   4.300   2.888 -0.1856 -0.5883 -0.2163
 1513SOL    HW216176   1.845   4.171   2.965  1.5347  0.3258 -2.9681
 1514SOL     OW16177   4.577   1.615   6.561  0.2831 -0.4338 -0.2253
 1514SOL    HW116178   4.504   1.554   6.567  1.4690 -2.0165 -1.9902
 1514SOL    HW216179   4.523   1.694   6.563 -0.1848 -0.7539 -0.2393
 1515SOL     OW16180   2.550   1.979  10.551 -0.5060  0.2012  0.5590
 1515SOL    HW116181   2.561   1.889  10.580 -2.9348  0.3213  1.9003
 1515SOL    HW216182   2.627   2.025  10.585  1.5838 -3.4617  0.7630
 1516SOL     OW16183   2.392   3.154   9.174  0.3029  0.4826  0.8785
 1516SOL    HW116184   2.373   3.177   9.265 -1.6315 -0.3536  0.7012
 1516SOL    HW216185   2.487   3.161   9.170  0.3753 -0.2787  1.3450
 1517SOL     OW16186   2.796   2.263  13.025 -0.2679  0.5148  0.1092
 1517SOL    HW116187   2.726   2.205  12.995 -0.5594 -0.3124  2.4353
 1517SOL    HW216188   2.860   2.206  12.981 -0.8241 -0.6352  0.7827
 1518SOL     OW16189   1.583   2.601   4.221 -0.2279  0.2853 -0.6880
 1518SOL    HW116190   1.622   2.593   4.134 -0.7670 -1.3988 -0.7659
 1518SOL    HW216191   1.536   2.520   4.237 -2.6346  1.7678 -0.1672
 1519SOL     OW16192   3.746   1.201   6.410 -0.0806 -0.3631  0.5163
 1519SOL    HW116193   3.837   1.232   6.411 -0.7726  1.7944 -1.8531
 1519SOL    HW216194   3.726   1.220   6.318 -0.0205 -2.8406  0.0057
 1520SOL     OW16195   2.970   3.906   9.540  0.2572 -0.0916 -0.0634
 1520SOL    HW116196   3.045   3.862   9.500  0.4975 -0.6003  0.9422
 1520SOL    HW216197   2.900   3.853   9.503 -1.7830  1.7764  1.1402
 1521SOL     OW16198   1.309   1.371  11.682  0.5685  0.1362  0.1244
 1521SOL    HW116199   1.249   1.306  11.646  0.1831  0.6921 -0.2473
 1521SOL    HW216200   1.259   1.453  11.676 -1.5789 -1.1958 -0.4722
 1522SOL     OW16201   3.548   2.818   5.212  0.2646 -0.3061 -0.1507
 1522SOL    HW116202   3.572   2.858   5.129 -0.2007  1.0859  0.3955
 1522SOL    HW216203   3.456   2.791   5.204  0.1620 -0.2221  0.6631
 1523SOL     OW16204   2.441   1.420   7.894  0.1328  0.1603 -0.7136
 1523SOL    HW116205   2.433   1.345   7.953  0.5884  0.3245 -0.4423
 1523SOL    HW216206   2.351   1.449   7.905  0.5813  1.4999 -0.6476
 1524SOL     OW16207   3.222   0.051   7.987  0.0973  0.1519  0.2077
 1524SOL    HW116208   3.253   4.727   7.920 -0.1080  0.5252 -0.2261
 1524SOL    HW216209   3.244   0.001   8.066  0.2339 -0.1573 -0.0254
 1525SOL     OW16210   3.161   3.513  12.950  0.8385  0.1289 -0.7000
 1525SOL    HW116211   3.078   3.561  12.948  0.7554 -0.0664 -1.6116
 1525SOL    HW216212   3.209   3.581  12.997  2.1970 -1.7530  0.6599
 1526SOL     OW16213   0.010   3.459   7.439  0.2493  0.4653 -0.1600
 1526SOL    HW116214   4.680   3.519   7.473 -1.3167 -1.2662 -0.1966
 1526SOL    HW216215   0.051   3.520   7.378 -0.8387  0.8779 -0.4808
 1527SOL     OW16216   0.411   3.922   1.651  0.0547  0.0504  0.4589
 1527SOL    HW116217   0.358   3.998   1.673  0.3230  0.8199 -1.5128
 1527SOL    HW216218   0.423   3.936   1.557 -1.4741 -0.6350  0.1612
 1528SOL     OW16219   0.852   2.184   7.965 -0.1002  0.1528  0.3243
 1528SOL    HW116220   0.757   2.188   7.957 -0.0884  1.3605  0.6739
 1528SOL    HW216221   0.872   2.118   7.898 -1.7740 -1.2823  1.2415
 1529SOL     OW16222   1.163   4.007  17.668 -0.2947  0.2258  0.3545
 1529SOL    HW116223   1.075   4.031  17.696 -0.2361  1.4290 -0.5357
 1529SOL    HW216224   1.202   4.086  17.632  3.2889 -0.9819  1.5385
 1530SOL     OW16225   3.080   3.865   3.238  0.1597 -0.4135 -0.4210
 1530SOL    HW116226   3.131   3.795   3.280  1.1601  0.5753  0.0120
 1530SOL    HW216227   3.152   3.922   3.211 -0.1320 -0.0407 -0.3965
 1531SOL     OW16228   2.081   0.429   8.783 -0.0085  0.0464  0.0427
 1531SOL    HW116229   2.135   0.499   8.821  0.5139 -0.4462  0.2005
 1531SOL    HW216230   2.129   0.352   8.812 -0.3831  0.1639  0.9607
 1532SOL     OW16231   1.406   2.555   4.502  0.4849  0.0971  0.6211
 1532SOL    HW116232   1.494   2.537   4.535  0.3736  0.9147  1.3673
 1532SOL    HW216233   1.356   2.480   4.534  0.1723 -0.9093 -2.2340
 1533SOL     OW16234   1.062   3.323   4.479 -0.0771 -0.2967  0.3014
 1533SOL    HW116235   1.031   3.306   4.390 -0.7687  2.3932  0.0319
 1533SOL    HW216236   1.155   3.332   4.459 -0.0252 -1.1951  0.1206
 1534SOL     OW16237   0.609   0.999  15.326  0.5186  0.6783  0.1204
 1534SOL    HW116238   0.698   0.971  15.344  1.0766  1.9356 -0.6297
 1534SOL    HW216239   0.590   0.943  15.250  1.6979 -0.0718  0.3918
 1535SOL     OW16240   3.226   4.584  10.050 -0.2775 -0.1766 -0.4684
 1535SOL    HW116241   3.196   4.551   9.965  0.0291  0.3380 -0.7723
 1535SOL    HW216242   3.146   4.629  10.077 -0.4775 -1.0219  0.3438
 1536SOL     OW16243   3.487   2.192  17.445 -0.2155  0.2527  0.3202
 1536SOL    HW116244   3.534   2.257  17.394  0.3558 -0.9718 -0.7225
 1536SOL    HW216245   3.508   2.205  17.538 -0.2409 -0.4678  0.4328
 1537SOL     OW16246   0.062   4.680   2.432  0.2932  0.0249  0.0035
 1537SOL    HW116247   0.125   4.624   2.386  1.5371 -0.3105  2.1399
 1537SOL    HW216248   0.058   4.625   2.510 -0.0466 -1.1427 -0.8392
 1538SOL     OW16249   3.962   1.372   9.602  0.3178  0.5550  0.2286
 1538SOL    HW116250   4.050   1.394   9.571  0.1663 -0.6678 -1.0696
 1538SOL    HW216251   3.928   1.333   9.521 -2.7600  0.7575  1.4106
 1539SOL     OW16252   4.550   3.664   2.284 -0.4404 -0.6748  0.8579
 1539SOL    HW116253   4.628   3.712   2.312 -0.1059 -0.5107 -0.3266
 1539SOL    HW216254   4.503   3.746   2.271 -0.9709 -1.3557 -1.6371
 1540SOL     OW16255   1.384   4.691   5.180  0.0939  0.2145  0.5414
 1540SOL    HW116256   1.360   4.700   5.272 -0.8724  0.1208  0.2987
 1540SOL    HW216257   1.473   4.664   5.201 -0.2250 -3.2093 -2.6444
 1541SOL     OW16258   0.651   0.278  12.993  0.0890 -0.2554 -0.3545
 1541SOL    HW116259   0.727   0.268  12.937  1.5383 -1.6770  1.8477
 1541SOL    HW216260   0.690   0.340  13.054  0.9173  0.3919 -1.5440
 1542SOL     OW16261   2.918   3.554  16.742 -0.0406 -0.1528  0.0061
 1542SOL    HW116262   2.917   3.571  16.648  1.2631 -0.8474 -0.1296
 1542SOL    HW216263   2.896   3.644  16.766  0.7540  0.5978 -2.0314
 1543SOL     OW16264   1.943   4.069  13.604  0.0476 -0.5403 -0.4541
 1543SOL    HW116265   2.036   4.056  13.587  0.2085  1.2030 -1.0237
 1543SOL    HW216266   1.915   4.147  13.555  0.5694  0.9830  1.6782
 1544SOL     OW16267   1.646   1.949  17.144  0.0449 -0.7856 -0.8474
 1544SOL    HW116268   1.659   2.017  17.210 -1.9459  2.1458 -3.5292
 1544SOL    HW216269   1.730   1.908  17.123  1.1006  1.3157 -0.7421
 1545SOL     OW16270   2.428   3.362   9.619 -0.0699  0.2621 -0.1956
 1545SOL    HW116271   2.493   3.433   9.623  1.6109 -1.2915  0.0800
 1545SOL    HW216272   2.344   3.407   9.608  1.5739  3.8872  1.8295
 1546SOL     OW16273   2.425   0.533   4.872 -0.1825 -0.2348  0.0544
 1546SOL    HW116274   2.344   0.582   4.862 -0.2050 -0.8147 -2.5207
 1546SOL    HW216275   2.487   0.605   4.877 -0.1546 -0.3955  2.1885
 1547SOL     OW16276   3.782   2.202   2.813  0.5175 -0.2375  0.0828
 1547SOL    HW116277   3.796   2.118   2.857 -1.5901 -0.9511 -0.5877
 1547SOL    HW216278   3.853   2.257   2.844  0.3330 -0.9968  1.8535
 1548SOL     OW16279   2.965   2.988   3.283  0.6726 -0.3789  0.3727
 1548SOL    HW116280   3.015   2.915   3.246 -0.0612 -0.2128 -0.9484
 1548SOL    HW216281   2.877   2.981   3.247  1.2009 -1.4967 -0.6885
 1549SOL     OW16282   2.037   4.219   7.058  0.1020  0.0626  0.0049
 1549SOL    HW116283   2.009   4.186   6.972  0.9279 -1.8934  0.4813
 1549SOL    HW216284   2.031   4.313   7.041 -3.3768 -0.2093 -0.3524
 1550SOL     OW16285   4.477   2.926  11.730  0.4097 -0.6467  0.4339
 1550SOL    HW116286   4.437   2.950  11.646  0.4447  1.7208  1.0892
 1550SOL    HW216287   4.512   2.842  11.701 -0.4164 -0.4007 -1.2750
 1551SOL     OW16288   3.643   1.135   7.668 -0.9081 -0.1455 -0.1780
 1551SOL    HW116289   3.712   1.086   7.622  1.1635  3.6894 -1.1815
 1551SOL    HW216290   3.608   1.057   7.711 -0.6009 -0.6124 -0.7667
 1552SOL     OW16291   0.892   2.466  11.489 -0.0414  0.0954  0.5223
 1552SOL    HW116292   0.942   2.395  11.530  1.0726 -0.1908 -1.3229
 1552SOL    HW216293   0.961   2.518  11.447 -0.4757 -0.3190 -0.7230
 1553SOL     OW16294   2.009   4.093   5.473  0.9045 -0.4523 -0.3500
 1553SOL    HW116295   1.992   4.021   5.412  3.7283  0.3413 -2.0730
 1553SOL    HW216296   1.959   4.057   5.547 -0.4920  2.6256  0.1905
 1554SOL     OW16297   1.608   4.428   7.491  0.2273  0.2439 -0.1658
 1554SOL    HW116298   1.610   4.350   7.546 -2.6571  0.5964  0.4624
 1554SOL    HW216299   1.520   4.421   7.454 -0.0498 -1.7930  0.8789
 1555SOL     OW16300   1.833   0.986  13.609 -0.1379 -0.2292  0.8029
 1555SOL    HW116301   1.923   0.967  13.636  0.4743  0.1734 -0.9951
 1555SOL    HW216302   1.846   1.081  13.603 -1.6847  0.0155  1.4427
 1556SOL     OW16303   2.238   3.495   6.563 -0.3767  0.3579 -0.1561
 1556SOL    HW116304   2.328   3.522   6.543 -0.1293  1.3390  2.3695
 1556SOL    HW216305   2.202   3.486   6.474 -1.0994  1.0408  0.0604
 1557SOL     OW16306   1.457   4.047   8.727  0.0579  0.6095  0.3528
 1557SOL    HW116307   1.482   4.102   8.652 -2.9959  1.4378 -0.0726
 1557SOL    HW216308   1.541   4.047   8.771  0.4488  3.0095 -0.4102
 1558SOL     OW16309   2.468   4.113   2.170  0.2684  0.0641 -0.6205
 1558SOL    HW116310   2.446   4.020   2.176  1.6197 -0.1070  1.8528
 1558SOL    HW216311   2.551   4.113   2.216 -0.7283  0.8665  1.1988
 1559SOL     OW16312   2.221   4.199   7.288 -0.5781  0.1598 -0.1947
 1559SOL    HW116313   2.274   4.250   7.227  0.8905 -1.0719  0.0435
 1559SOL    HW216314   2.140   4.177   7.243  0.3638 -2.6838 -0.5086
 1560SOL     OW16315   2.905   3.488   7.002  0.6875  0.0607  0.3322
 1560SOL    HW116316   2.811   3.501   6.986  0.6823  0.9609  1.1174
 1560SOL    HW216317   2.905   3.396   6.974 -0.4501  0.4515 -0.9490
 1561SOL     OW16318   4.315   0.741   8.053  0.0055  0.3976 -0.1205
 1561SOL    HW116319   4.377   0.725   7.982  1.9379  2.1408  1.1788
 1561SOL    HW216320   4.270   0.656   8.050 -0.8260  0.9300 -2.3211
 1562SOL     OW16321   4.073   0.992  10.275 -0.6722  0.6914 -0.7794
 1562SOL    HW116322   4.084   0.899  10.292  0.4849  0.9088 -0.3710
 1562SOL    HW216323   3.979   1.013  10.281 -1.0344 -0.9104 -0.7568
 1563SOL     OW16324   0.634   1.501   4.549 -0.3926  0.2575  0.1125
 1563SOL    HW116325   0.586   1.550   4.482  1.0264  0.6940 -0.5817
 1563SOL    HW216326   0.557   1.465   4.594  0.0675 -1.3966 -0.4444
 1564SOL     OW16327   3.903   1.981   3.981  0.6048  0.0769 -0.1756
 1564SOL    HW116328   3.874   2.028   3.902  2.8479  1.8694  0.0356
 1564SOL    HW216329   3.956   2.049   4.023 -1.1314 -0.3383  2.6416
 1565SOL     OW16330   3.778   3.927  10.917 -0.5761 -0.0791  0.5095
 1565SOL    HW116331   3.805   3.990  10.849 -0.8407  0.1569  0.6229
 1565SOL    HW216332   3.781   3.847  10.865  1.4627  1.9172 -2.5243
 1566SOL     OW16333   0.999   4.154   9.781 -0.0479 -0.4808  0.1492
 1566SOL    HW116334   1.003   4.059   9.787 -1.5183 -0.6366 -1.3891
 1566SOL    HW216335   1.083   4.183   9.743 -1.2344 -1.0696 -2.9535
 1567SOL     OW16336   2.571   3.078  17.425 -0.2614  0.1377  0.0123
 1567SOL    HW116337   2.503   3.073  17.358 -0.2270  0.2655 -0.0331
 1567SOL    HW216338   2.625   3.005  17.395  0.5947  0.6429  0.3207
 1568SOL     OW16339   1.803   2.457  10.164  0.3108  0.5849  0.1926
 1568SOL    HW116340   1.842   2.388  10.217 -0.9821  1.3241  2.1027
 1568SOL    HW216341   1.847   2.533  10.202  1.4160  0.0211  0.0386
 1569SOL     OW16342   3.922   0.162   9.091 -0.3954 -0.2810  0.5485
 1569SOL    HW116343   3.855   0.148   9.158 -0.5777 -2.0622 -0.0001
 1569SOL    HW216344   3.888   0.245   9.057 -0.8316  0.2861  2.3581
 1570SOL     OW16345   2.730   0.231   8.389 -0.4838 -0.0338  0.4359
 1570SOL    HW116346   2.658   0.173   8.414 -1.1656 -0.3957 -2.3640
 1570SOL    HW216347   2.701   0.312   8.432 -0.4835 -0.6687  1.6224
 1571SOL     OW16348   3.201   2.865   6.477 -0.0457  0.5158  0.7075
 1571SOL    HW116349   3.197   2.960   6.489  0.0978  0.7429 -1.0642
 1571SOL    HW216350   3.108   2.864   6.452  0.5327 -0.5542 -1.4563
 1572SOL     OW16351   1.613   1.222   0.172  0.1811 -0.5485 -0.7578
 1572SOL    HW116352   1.638   1.131   0.154  0.4012 -0.3267 -1.5747
 1572SOL    HW216353   1.551   1.240   0.101 -0.1232 -2.2919 -0.9469
 1573SOL     OW16354   2.102   3.193  16.730 -0.1741  0.1311  0.0823
 1573SOL    HW116355   2.065   3.123  16.783 -2.8871  0.8365 -0.9046
 1573SOL    HW216356   2.188   3.157  16.708 -0.1734  0.9692 -1.2690
 1574SOL     OW16357   2.741   1.820   2.366  0.0019 -0.4211 -0.0495
 1574SOL    HW116358   2.773   1.821   2.276  0.4902 -2.6496  0.0881
 1574SOL    HW216359   2.822   1.846   2.411  0.7927 -2.6281 -0.2045
 1575SOL     OW16360   4.327   3.932   8.904 -0.2607 -0.4116  0.3419
 1575SOL    HW116361   4.345   3.949   8.996 -0.9525 -0.9221  0.5757
 1575SOL    HW216362   4.363   3.843   8.896  0.8304  0.0162  0.4233
 1576SOL     OW16363   2.380   3.231  10.147  0.3059 -0.3148  0.2689
 1576SOL    HW116364   2.398   3.304  10.208 -1.2155 -0.6538  1.1064
 1576SOL    HW216365   2.332   3.278  10.079  0.3900 -0.2219  0.2729
 1577SOL     OW16366   0.459   3.540  11.003 -0.5138 -0.1817  0.7158
 1577SOL    HW116367   0.452   3.447  11.023 -1.3826 -0.7355 -2.3019
 1577SOL    HW216368   0.470   3.539  10.908 -0.6585  0.8751  0.6890
 1578SOL     OW16369   4.473   2.196   6.659  0.7265  0.1259  0.5610
 1578SOL    HW116370   4.464   2.253   6.582  0.0227 -0.1080  0.4720
 1578SOL    HW216371   4.439   2.236   6.738  0.7093  0.3313  0.4510
 1579SOL     OW16372   2.959   1.954   0.727  0.0549  0.7521  0.5016
 1579SOL    HW116373   2.980   1.878   0.782 -0.3243 -0.5960 -1.2243
 1579SOL    HW216374   2.975   2.019   0.795 -1.0476  1.2807  0.2450
 1580SOL     OW16375   3.430   1.297   8.374 -0.2424  0.6973  0.7806
 1580SOL    HW116376   3.411   1.267   8.285 -1.0858  0.5618  1.0037
 1580SOL    HW216377   3.420   1.390   8.353 -0.2396  0.3840 -0.5796
 1581SOL     OW16378   4.498   3.050   0.324 -0.4253  0.3564 -0.3058
 1581SOL    HW116379   4.542   2.982   0.375  0.2413  2.1496  1.4921
 1581SOL    HW216380   4.565   3.117   0.314  0.2377  0.0324  1.9762
 1582SOL     OW16381   2.052   2.845   3.017 -0.0547  0.1774  0.1077
 1582SOL    HW116382   2.023   2.895   3.093 -0.7715 -0.1280  0.0375
 1582SOL    HW216383   1.996   2.767   3.018  0.8762 -0.5262 -1.9334
 1583SOL     OW16384   2.612   2.561   8.762 -0.2933 -0.0504 -0.0390
 1583SOL    HW116385   2.653   2.480   8.794 -0.0959  1.4338  3.4431
 1583SOL    HW216386   2.674   2.593   8.697  0.8468 -1.8080  0.1536
 1584SOL     OW16387   0.913   3.718   0.626 -0.7191  0.7039 -0.4228
 1584SOL    HW116388   0.884   3.627   0.638  1.3538  0.3641  2.0917
 1584SOL    HW216389   0.932   3.742   0.717 -0.3758 -1.3206  0.0489
 1585SOL     OW16390   2.383   4.256  16.032  0.0219 -0.3023  0.6352
 1585SOL    HW116391   2.403   4.168  16.000 -2.2896 -0.1756 -1.2089
 1585SOL    HW216392   2.319   4.223  16.095 -2.4966  1.9975 -0.6845
 1586SOL     OW16393   4.208   4.353   4.870  0.2504  0.1539  0.6580
 1586SOL    HW116394   4.195   4.441   4.834  0.1115 -0.9273 -1.8973
 1586SOL    HW216395   4.181   4.357   4.962 -1.4150  1.1500  0.1126
 1587SOL     OW16396   1.465   0.735   6.030 -0.6146  0.7172  0.3578
 1587SOL    HW116397   1.484   0.821   6.068 -1.3704  1.4844 -0.9875
 1587SOL    HW216398   1.529   0.731   5.959  0.6781 -1.7654  1.6537
 1588SOL     OW16399   2.599   1.382   3.856  0.5683 -0.6248 -0.6335
 1588SOL    HW116400   2.578   1.289   3.861 -2.2711  0.0053 -0.7926
 1588SOL    HW216401   2.674   1.383   3.796  0.9801  1.4924 -0.1081
 1589SOL     OW16402   0.699   2.331   4.301 -0.3804  0.1777 -0.2490
 1589SOL    HW116403   0.774   2.378   4.265  0.7611 -1.7965 -0.5001
 1589SOL    HW216404   0.726   2.240   4.288  2.2820  0.7667  1.3101
 1590SOL     OW16405   3.037   0.584  15.483 -0.4718  0.5328 -0.3478
 1590SOL    HW116406   3.094   0.520  15.526 -0.7968  0.3379 -0.2035
 1590SOL    HW216407   3.041   0.567  15.389 -0.2409 -0.1390 -0.2120
 1591SOL     OW16408   4.184   4.352   5.567 -0.8157 -0.3305 -0.3189
 1591SOL    HW116409   4.146   4.283   5.623  1.6579 -0.3267  1.3635
 1591SOL    HW216410   4.116   4.415   5.544  1.3102  2.0027 -0.1621
 1592SOL     OW16411   0.853   1.613  16.918  0.1412 -0.2182  0.1082
 1592SOL    HW116412   0.876   1.694  16.964  2.0100  0.1275 -1.4030
 1592SOL    HW216413   0.885   1.547  16.980 -0.3221  1.4427  2.1277
 1593SOL     OW16414   2.482   4.347   6.780 -0.1054  0.1195 -0.3405
 1593SOL    HW116415   2.407   4.406   6.770 -0.7417 -0.7433 -0.6061
 1593SOL    HW216416   2.551   4.400   6.821 -0.2721  0.1572 -0.1053
 1594SOL     OW16417   1.474   1.632  14.348 -0.3206  0.1688 -0.0757
 1594SOL    HW116418   1.555   1.582  14.347 -0.3880  0.0003  3.9947
 1594SOL    HW216419   1.481   1.684  14.267  3.3649  0.8476  0.6835
 1595SOL     OW16420   2.302   2.858   2.954 -0.0236  0.4217 -0.1952
 1595SOL    HW116421   2.315   2.815   3.038  0.8435 -2.8545 -2.0088
 1595SOL    HW216422   2.209   2.875   2.966  0.0520  0.7157 -0.0261
 1596SOL     OW16423   0.104   2.603   8.774 -0.5548  0.0196 -0.0443
 1596SOL    HW116424   0.087   2.693   8.745 -0.5556  0.1013  0.2060
 1596SOL    HW216425   0.154   2.621   8.854  3.2365  0.0336 -2.4032
 1597SOL     OW16426   1.249   2.834   9.618  0.0031  0.0188  0.0465
 1597SOL    HW116427   1.304   2.778   9.564  2.1130 -0.2493  2.4797
 1597SOL    HW216428   1.247   2.773   9.692 -2.3577 -1.3850 -1.1796
 1598SOL     OW16429   1.098   2.549   7.139  0.7346  0.6818 -0.3007
 1598SOL    HW116430   1.177   2.593   7.170  2.4985 -2.2583 -0.5938
 1598SOL    HW216431   1.041   2.542   7.216 -0.9642  0.1057 -1.6109
 1599SOL     OW16432   3.294   2.486  16.911  0.2591  0.2511 -0.8966
 1599SOL    HW116433   3.324   2.575  16.932 -1.6149  0.5889  0.2760
 1599SOL    HW216434   3.200   2.494  16.923  0.3477 -2.0816  1.2049
 1600SOL     OW16435   3.734   4.077   2.162  0.6057  0.6782  0.1134
 1600SOL    HW116436   3.697   4.143   2.222  0.5552 -0.6761  1.5547
 1600SOL    HW216437   3.796   4.028   2.215 -0.3583 -1.1707 -0.4780
 1601SOL     OW16438   3.808   4.451   4.747 -0.0261 -0.3682  0.1459
 1601SOL    HW116439   3.786   4.479   4.836  0.2406 -1.2643  0.4961
 1601SOL    HW216440   3.734   4.390   4.736  0.9034 -1.4575 -0.0141
 1602SOL     OW16441   2.498   3.635   9.147  0.1688 -0.0320 -0.0523
 1602SOL    HW116442   2.444   3.556   9.137  0.9821 -0.4968 -0.7656
 1602SOL    HW216443   2.589   3.609   9.161 -0.0014 -1.1848 -1.0400
 1603SOL     OW16444   1.382   1.022  11.464  0.2972  0.0979 -0.5058
 1603SOL    HW116445   1.305   1.076  11.449 -1.4081 -2.2697 -0.2513
 1603SOL    HW216446   1.451   1.067  11.415  2.1857 -0.7840  1.3426
 1604SOL     OW16447   1.707   0.766  12.776  0.1780 -0.3764 -0.5898
 1604SOL    HW116448   1.749   0.794  12.694  1.2035  0.3094  0.1830
 1604SOL    HW216449   1.727   0.839  12.834  1.2353 -1.4497  0.3754
 1605SOL     OW16450   2.953   0.496   0.934  0.4565  0.3836 -0.4389
 1605SOL    HW116451   2.966   0.439   1.010 -2.3426 -3.6201 -2.9582
 1605SOL    HW216452   2.876   0.548   0.955  0.5817  0.7823 -0.9973
 1606SOL     OW16453   3.365   1.199   2.552  0.4560 -0.2851  0.3627
 1606SOL    HW116454   3.358   1.205   2.647  0.7056 -0.6893  0.4026
 1606SOL    HW216455   3.322   1.281   2.527 -1.7082 -0.9092  2.0137
 1607SOL     OW16456   0.959   3.845   5.281 -0.0778  0.6318  0.2974
 1607SOL    HW116457   1.019   3.806   5.217  1.2745  0.5095  1.6357
 1607SOL    HW216458   0.973   3.793   5.360 -2.0208  1.4001  1.1462
 1608SOL     OW16459   3.757   2.812  12.989 -0.1868  0.2788  0.4491
 1608SOL    HW116460   3.769   2.907  12.987 -0.5058  0.3114 -0.1407
 1608SOL    HW216461   3.662   2.818  13.000 -0.2274  0.1010  0.1879
 1609SOL     OW16462   3.699   2.055  14.212 -0.1287  0.4748 -0.1930
 1609SOL    HW116463   3.785   2.028  14.242 -0.7504 -2.2432 -0.8675
 1609SOL    HW216464   3.708   2.147  14.186  0.4202  1.5420  3.7653
 1610SOL     OW16465   0.236   1.880   2.259  0.8384  0.1339  0.1823
 1610SOL    HW116466   0.170   1.844   2.318 -1.0679 -0.2391 -2.2048
 1610SOL    HW216467   0.193   1.965   2.247  0.0089 -0.2954  0.0917
 1611SOL     OW16468   2.128   3.331   7.383  0.0036 -0.5680  0.6133
 1611SOL    HW116469   2.116   3.239   7.359 -1.4927 -0.1227 -0.3612
 1611SOL    HW216470   2.040   3.368   7.380 -0.1971 -1.1464 -0.9206
 1612SOL     OW16471   1.008   2.234   7.087 -0.0856  0.1951 -0.1460
 1612SOL    HW116472   1.075   2.302   7.099  1.5738 -1.2687 -1.1942
 1612SOL    HW216473   0.962   2.232   7.171 -0.5973 -0.1566 -0.4364
 1613SOL     OW16474   3.482   2.865   6.450 -0.5516  0.3559 -0.1944
 1613SOL    HW116475   3.508   2.826   6.367 -1.9822 -1.4997  0.2041
 1613SOL    HW216476   3.387   2.873   6.444 -0.8891 -2.5664  1.2485
 1614SOL     OW16477   2.353   3.531   6.179 -0.3578  0.0896  0.1827
 1614SOL    HW116478   2.275   3.552   6.230  0.2147 -0.4431  1.2786
 1614SOL    HW216479   2.334   3.562   6.090  1.9965 -0.5234 -0.5562
 1615SOL     OW16480   3.715   4.055   3.553  0.3265  0.3845 -0.1610
 1615SOL    HW116481   3.733   4.145   3.581  1.3634  0.0601  0.2200
 1615SOL    HW216482   3.678   4.064   3.465 -2.4080  1.0762  1.0757
 1616SOL     OW16483   1.605   1.469   2.783  0.1376  0.2605  0.4197
 1616SOL    HW116484   1.664   1.430   2.848  0.3384  0.7285  0.5185
 1616SOL    HW216485   1.518   1.438   2.810 -0.2335 -1.8254 -3.1305
 1617SOL     OW16486   0.968   4.229   8.984 -0.1169  0.4572  0.2331
 1617SOL    HW116487   1.047   4.180   9.004  1.1608  2.1157 -0.7421
 1617SOL    HW216488   0.927   4.224   9.070  1.3794 -1.0273  0.8426
 1618SOL     OW16489   0.085   3.362   6.990 -0.1225  0.1882  0.5963
 1618SOL    HW116490   0.147   3.311   7.043 -0.0801 -1.8365 -1.3784
 1618SOL    HW216491   0.071   3.305   6.914  1.9926  0.4447  0.0003
 1619SOL     OW16492   1.440   1.172   7.889  0.1384  0.5752  0.2935
 1619SOL    HW116493   1.400   1.090   7.861 -0.4590  0.1179  2.4691
 1619SOL    HW216494   1.466   1.156   7.980  1.3672  0.9783  0.0260
 1620SOL     OW16495   2.470   3.669  14.967  0.2319 -0.0088 -0.0315
 1620SOL    HW116496   2.545   3.617  14.938  0.1603 -0.3546  0.3902
 1620SOL    HW216497   2.496   3.712  15.048  0.5815 -2.4221  1.1520
 1621SOL     OW16498   1.267   0.781   7.245  0.4696 -0.1937 -0.1845
 1621SOL    HW116499   1.231   0.869   7.260  0.7007  0.0721 -1.2231
 1621SOL    HW216500   1.275   0.761   7.339  0.6550  0.6785 -0.0119
 1622SOL     OW16501   0.278   2.537   7.458  0.3058  0.5538 -0.3152
 1622SOL    HW116502   0.226   2.459   7.474  1.4774 -0.0166  0.7075
 1622SOL    HW216503   0.235   2.603   7.513 -1.0556 -0.6611  0.0664
 1623SOL     OW16504   2.782   1.856   1.941 -0.3014  0.3676  1.1688
 1623SOL    HW116505   2.829   1.778   1.912 -0.8062  0.9689 -1.2447
 1623SOL    HW216506   2.708   1.861   1.881 -0.5505  0.6204  1.4958
 1624SOL     OW16507   3.203   3.242   8.220  0.7596 -0.4239  0.4326
 1624SOL    HW116508   3.280   3.287   8.256 -0.1351  0.7964  0.8026
 1624SOL    HW216509   3.133   3.298   8.252  0.9430  0.3676 -0.5343
 1625SOL     OW16510   0.025   2.229   3.702 -0.2758  0.5167 -0.0841
 1625SOL    HW116511   4.688   2.236   3.641 -0.8349 -4.2704  0.0324
 1625SOL    HW216512   0.026   2.309   3.755  0.4221 -0.2346  1.0413
 1626SOL     OW16513   0.419   3.103   1.963  0.5518  0.5402  0.5895
 1626SOL    HW116514   0.357   3.106   1.891  1.9486  0.4048 -0.6178
 1626SOL    HW216515   0.480   3.033   1.939 -2.0015 -0.6186 -2.5501
 1627SOL     OW16516   0.521   2.862  16.189 -0.0939  0.3839 -0.6165
 1627SOL    HW116517   0.478   2.928  16.135  2.4477  2.3022 -0.2784
 1627SOL    HW216518   0.613   2.889  16.192 -0.4869  1.6675 -0.1853
 1628SOL     OW16519   1.178   2.137   8.179  0.5277  0.1196 -0.5083
 1628SOL    HW116520   1.154   2.171   8.093 -2.1475  4.0558  1.8398
 1628SOL    HW216521   1.196   2.215   8.231 -1.4679 -0.5408  1.1646
 1629SOL     OW16522   1.332   3.880   8.338  0.3340 -0.2581  0.4756
 1629SOL    HW116523   1.253   3.829   8.320  1.2297 -1.4390 -0.1455
 1629SOL    HW216524   1.394   3.814   8.368  1.7399 -0.0565 -1.9382
 1630SOL     OW16525   1.832   0.613   5.896  0.3898 -0.5677  0.1504
 1630SOL    HW116526   1.789   0.536   5.861  1.0716 -0.3969 -1.0333
 1630SOL    HW216527   1.894   0.572   5.956 -1.0661 -0.6886  1.5976
 1631SOL     OW16528   1.443   2.621  10.190 -0.3762 -0.1489  0.1557
 1631SOL    HW116529   1.510   2.617  10.121 -0.3685  0.0642  0.1533
 1631SOL    HW216530   1.498   2.603  10.266  2.2711 -2.5520 -2.3041
 1632SOL     OW16531   2.061   3.259   8.429 -0.1773 -0.1162 -0.0302
 1632SOL    HW116532   2.126   3.264   8.499 -0.1534 -0.9050  0.0029
 1632SOL    HW216533   2.103   3.312   8.361 -2.6716 -0.8650 -2.1816
 1633SOL     OW16534   1.801   3.297  15.230 -0.4070 -0.0552  0.4658
 1633SOL    HW116535   1.749   3.291  15.149 -2.1652 -0.0555  1.5870
 1633SOL    HW216536   1.743   3.271  15.302 -0.0891  1.3285  1.2383
 1634SOL     OW16537   3.612   1.722   1.192 -0.1316  0.2289 -0.0384
 1634SOL    HW116538   3.668   1.777   1.136 -1.4678 -0.9536 -2.5438
 1634SOL    HW216539   3.539   1.706   1.132 -0.1674 -1.6624  0.5156
 1635SOL     OW16540   3.022   4.591   7.183  0.3001 -0.1971  0.2204
 1635SOL    HW116541   3.039   4.653   7.113 -4.7863 -1.2049 -1.8831
 1635SOL    HW216542   2.946   4.548   7.144  1.2556 -0.8337 -0.9318
 1636SOL     OW16543   1.868   0.420   3.356 -0.1917  0.4156 -0.5827
 1636SOL    HW116544   1.832   0.343   3.400 -1.3757  0.7573 -0.9397
 1636SOL    HW216545   1.835   0.487   3.417  0.7871  1.2177 -0.9239
 1637SOL     OW16546   4.558   4.262  10.868 -0.2900  0.4568  0.5760
 1637SOL    HW116547   4.643   4.299  10.845  0.5568 -1.0298  1.3204
 1637SOL    HW216548   4.498   4.329  10.836  0.2214  1.3422  1.4931
 1638SOL     OW16549   3.540   4.611   0.725 -0.3321  0.0422 -0.5921
 1638SOL    HW116550   3.549   4.698   0.764  0.6818 -0.6735  0.7666
 1638SOL    HW216551   3.633   4.591   0.712  0.5066  2.0086  2.2472
 1639SOL     OW16552   2.508   0.162   0.365 -0.0037 -0.0892  0.5745
 1639SOL    HW116553   2.492   0.252   0.393 -0.2426 -0.7683  2.6275
 1639SOL    HW216554   2.461   0.180   0.284  0.2894 -4.1173 -0.4951
 1640SOL     OW16555   4.730   1.494  10.200  0.2050 -0.0730 -0.0413
 1640SOL    HW116556   4.716   1.460  10.289  1.0821 -0.7748 -0.1736
 1640SOL    HW216557   0.043   1.420  10.165  1.7736  0.1493  1.7488
 1641SOL     OW16558   4.382   1.293   5.228 -0.0127 -0.3039  0.1578
 1641SOL    HW116559   4.371   1.269   5.319 -1.1711  1.4318  0.4750
 1641SOL    HW216560   4.361   1.206   5.196  1.2555  0.4865 -2.8582
 1642SOL     OW16561   4.697   3.938   2.449  0.4774  0.0652 -0.7140
 1642SOL    HW116562   4.706   3.922   2.543 -0.4856 -2.2931 -1.0416
 1642SOL    HW216563   4.614   3.985   2.450  0.5905  0.2492  0.3511
 1643SOL     OW16564   4.538   3.252   8.109 -0.0079  0.1712  0.1823
 1643SOL    HW116565   4.459   3.305   8.103  0.0495  0.1090 -1.1515
 1643SOL    HW216566   4.509   3.178   8.162  0.4971 -0.7349 -0.7977
 1644SOL     OW16567   2.563   2.421   6.825  0.1193 -0.5539 -0.4017
 1644SOL    HW116568   2.507   2.357   6.780  0.3798 -0.7705 -0.4196
 1644SOL    HW216569   2.651   2.397   6.795  0.6073 -0.4018  0.9216
 1645SOL     OW16570   4.079   2.141   4.133  0.3610 -0.5096  0.0788
 1645SOL    HW116571   4.027   2.146   4.213 -1.2844  0.6903 -1.0712
 1645SOL    HW216572   4.148   2.082   4.163  0.1345 -0.1146  1.3536
 1646SOL     OW16573   2.687   2.112   7.382 -0.3157  0.2358 -0.3994
 1646SOL    HW116574   2.698   2.051   7.455  1.5727  1.7717  0.5986
 1646SOL    HW216575   2.776   2.101   7.348  0.5738 -1.4900  2.4811
 1647SOL     OW16576   1.556   2.224   8.271 -0.4699  0.2781 -0.2968
 1647SOL    HW116577   1.518   2.283   8.205 -2.2147  1.0492  1.3860
 1647SOL    HW216578   1.619   2.180   8.214 -1.4133 -2.9443  1.1682
 1648SOL     OW16579   2.983   3.655   4.677  0.0054 -0.0346  0.3185
 1648SOL    HW116580   3.063   3.660   4.624 -0.2701 -0.2475 -0.1230
 1648SOL    HW216581   2.926   3.597   4.627 -2.0148  1.3232  1.0599
 1649SOL     OW16582   4.015   2.723  11.604 -0.0929 -0.3204 -0.5143
 1649SOL    HW116583   3.981   2.665  11.535 -1.2155 -1.0738  0.6778
 1649SOL    HW216584   4.108   2.716  11.587 -0.8099 -0.4466 -4.4902
 1650SOL     OW16585   1.938   0.136   9.647 -0.5797 -0.6722  0.0108
 1650SOL    HW116586   1.959   0.214   9.698 -0.2415  0.2302 -1.5173
 1650SOL    HW216587   1.959   0.184   9.566 -0.6265  1.2574  1.1458
 1651SOL     OW16588   4.034   0.790   3.762  0.0865 -0.1861 -0.1980
 1651SOL    HW116589   4.039   0.721   3.696 -0.3270  0.3985 -0.8502
 1651SOL    HW216590   3.975   0.752   3.827 -0.3935 -0.7056 -0.9426
 1652SOL     OW16591   4.675   4.114  16.933  0.4568 -0.1334 -0.6984
 1652SOL    HW116592   4.718   4.088  16.852  3.5771  1.3294  0.4936
 1652SOL    HW216593   4.677   4.208  16.918 -0.3234 -0.4639 -2.8997
 1653SOL     OW16594   3.238   2.508  12.127 -0.0629  0.4690 -0.0062
 1653SOL    HW116595   3.237   2.486  12.034 -0.0460  0.7665 -0.0778
 1653SOL    HW216596   3.209   2.426  12.167  0.9023 -0.4728 -1.2056
 1654SOL     OW16597   2.141   2.656   2.621  0.5019 -0.0435  0.1017
 1654SOL    HW116598   2.202   2.729   2.615  0.6527  0.0246  2.2656
 1654SOL    HW216599   2.178   2.602   2.692  1.8826  1.5867  0.5972
 1655SOL     OW16600   0.252   3.776  14.233 -0.7735  0.6295  0.1327
 1655SOL    HW116601   0.199   3.853  14.254  2.6805  2.7568  1.0116
 1655SOL    HW216602   0.340   3.814  14.229  0.3047 -1.4946  3.4673
 1656SOL     OW16603   4.534   2.315   9.939  0.1667 -0.0132 -0.2989
 1656SOL    HW116604   4.623   2.330   9.970 -1.1200  1.3405  2.7586
 1656SOL    HW216605   4.539   2.234   9.889  1.5200  0.0423 -0.2386
 1657SOL     OW16606   0.153   1.626  15.468  0.4693  0.2441 -0.0327
 1657SOL    HW116607   0.133   1.603  15.559  1.0541  1.3733  0.3856
 1657SOL    HW216608   0.247   1.642  15.471  0.3396  0.8854  0.9615
 1658SOL     OW16609   0.886   0.447  13.109 -0.8125  0.8498 -0.0903
 1658SOL    HW116610   0.951   0.495  13.161 -0.4597 -0.8947  1.0824
 1658SOL    HW216611   0.841   0.395  13.176 -0.5995  1.2244  0.3464
 1659SOL     OW16612   3.920   0.573  17.405 -0.3873  0.5402  0.5194
 1659SOL    HW116613   3.889   0.610  17.487 -2.9015  2.0326 -1.0709
 1659SOL    HW216614   3.854   0.505  17.394 -1.1575  1.3518  0.0999
 1660SOL     OW16615   0.796   0.701   4.901 -0.6015  0.6401 -0.0927
 1660SOL    HW116616   0.728   0.634   4.911  0.2030 -0.1399  0.1444
 1660SOL    HW216617   0.753   0.763   4.842  0.4341 -1.4387 -2.9847
 1661SOL     OW16618   4.282   1.673   8.092 -0.0088 -0.0558 -0.4543
 1661SOL    HW116619   4.312   1.664   8.182  0.1666 -0.6960 -0.5778
 1661SOL    HW216620   4.334   1.609   8.045 -3.0428 -1.3681 -2.0558
 1662SOL     OW16621   0.004   2.742   6.935 -0.5136 -0.5212 -0.2297
 1662SOL    HW116622   0.003   2.646   6.941 -1.8353 -0.5540 -0.9726
 1662SOL    HW216623   4.716   2.776   7.021  2.9432 -1.8689  1.2945
 1663SOL     OW16624   0.506   0.769   5.265 -0.4095 -0.0378  0.0997
 1663SOL    HW116625   0.493   0.793   5.357 -0.5313  1.2851 -0.2641
 1663SOL    HW216626   0.434   0.815   5.224  0.6166 -0.4469 -2.1653
 1664SOL     OW16627   4.734   3.489  12.153  0.1538  0.4910  0.2931
 1664SOL    HW116628   0.024   3.461  12.240  0.9475 -0.6312 -0.3242
 1664SOL    HW216629   4.684   3.411  12.130  1.9853 -0.5031 -0.2197
 1665SOL     OW16630   1.899   1.300   5.980 -0.1623  0.8489  0.6551
 1665SOL    HW116631   1.939   1.246   6.047 -0.2324 -1.1656 -0.9269
 1665SOL    HW216632   1.824   1.250   5.946 -1.8208  1.9082  2.7040
 1666SOL     OW16633   1.360   2.304   5.333 -0.0328  0.7993 -0.1157
 1666SOL    HW116634   1.322   2.387   5.362 -0.6270  0.7472 -0.7498
 1666SOL    HW216635   1.398   2.267   5.413  0.3355 -1.2518 -1.2331
 1667SOL     OW16636   0.604   4.084  14.996 -0.2511  0.1239 -0.3496
 1667SOL    HW116637   0.655   4.111  15.073 -0.9114  0.4241 -0.0225
 1667SOL    HW216638   0.520   4.128  15.002 -0.4120 -0.3240  0.5664
 1668SOL     OW16639   1.752   3.178   5.247  0.1472 -0.2923 -0.1290
 1668SOL    HW116640   1.840   3.184   5.211  1.1869 -0.3326  2.4002
 1668SOL    HW216641   1.722   3.266   5.227  0.7361 -0.1606 -0.4287
 1669SOL     OW16642   1.597   1.458   1.647 -0.1485 -0.2220 -0.2626
 1669SOL    HW116643   1.682   1.499   1.633 -0.1621 -0.4616 -1.0656
 1669SOL    HW216644   1.612   1.420   1.734 -0.7561 -0.1917 -0.1449
 1670SOL     OW16645   4.388   2.737   5.323  0.1806 -0.7866 -0.1824
 1670SOL    HW116646   4.392   2.679   5.246  0.0221 -0.6372 -0.3034
 1670SOL    HW216647   4.355   2.675   5.388  2.3840 -1.5524  0.2099
 1671SOL     OW16648   4.442   2.653   2.062  0.1544 -0.5425 -0.2189
 1671SOL    HW116649   4.353   2.633   2.093  0.8635  0.0895  2.1995
 1671SOL    HW216650   4.447   2.746   2.082 -1.2336 -0.3254 -0.8524
 1672SOL     OW16651   2.019   1.796   1.042  0.0640  0.1987 -0.3306
 1672SOL    HW116652   2.062   1.864   0.991 -1.5236  1.6098  0.2093
 1672SOL    HW216653   2.022   1.719   0.985 -1.4834  0.4419 -0.7592
 1673SOL     OW16654   1.186   3.563   0.707  0.1902 -0.4574  0.3395
 1673SOL    HW116655   1.109   3.616   0.721 -0.0423 -0.3602 -1.2500
 1673SOL    HW216656   1.203   3.537   0.798  0.0602  2.2713  1.1263
 1674SOL     OW16657   1.184   1.614   5.014  0.6024  0.2858 -0.4648
 1674SOL    HW116658   1.138   1.602   4.931 -1.4744  3.0524  0.3247
 1674SOL    HW216659   1.215   1.525   5.031  0.4769  0.2894 -0.2162
 1675SOL     OW16660   2.543   2.889   6.768  0.0199  0.4212 -0.3342
 1675SOL    HW116661   2.475   2.832   6.804  2.1336 -1.3948  0.7444
 1675SOL    HW216662   2.510   2.885   6.678  1.0549 -0.7073 -0.6548
 1676SOL     OW16663   4.047   1.503   7.345  0.5109 -0.1231  0.5342
 1676SOL    HW116664   4.130   1.536   7.380  0.1000  1.8164 -0.3629
 1676SOL    HW216665   4.080   1.462   7.265  0.2852  1.8519 -0.5662
 1677SOL     OW16666   4.286   0.173  13.803 -0.6149  0.2775  0.1425
 1677SOL    HW116667   4.250   0.102  13.749 -0.9846 -0.6762  1.6396
 1677SOL    HW216668   4.379   0.159  13.784  0.4499  3.0693  3.3661
 1678SOL     OW16669   1.029   0.621   5.042 -0.2900 -0.2752  0.0703
 1678SOL    HW116670   1.087   0.599   4.969  1.0764 -2.0748  1.6939
 1678SOL    HW216671   0.953   0.659   4.997 -0.9212  0.6922  1.9809
 1679SOL     OW16672   0.285   0.987   6.112 -0.1670  0.3602  0.4918
 1679SOL    HW116673   0.193   0.988   6.087 -0.3649 -0.2329  1.2023
 1679SOL    HW216674   0.322   0.943   6.035  0.3158  1.5880  0.0177
 1680SOL     OW16675   0.666   1.780   6.640  0.2049  0.4582  0.5297
 1680SOL    HW116676   0.616   1.860   6.623  0.0940 -0.2100 -2.2953
 1680SOL    HW216677   0.739   1.818   6.690 -0.4457  1.1777  0.9231
 1681SOL     OW16678   4.311   4.623  11.165 -0.1029  0.2978  0.3424
 1681SOL    HW116679   4.389   4.676  11.149 -0.2559  0.6378  0.7093
 1681SOL    HW216680   4.313   4.628  11.261  1.3551  1.9555  0.2293
 1682SOL     OW16681   1.778   1.188  12.787 -0.6753 -0.2442 -0.3195
 1682SOL    HW116682   1.836   1.212  12.714 -0.6558 -1.1652 -0.6076
 1682SOL    HW216683   1.709   1.249  12.763 -0.2780 -0.9179 -3.2390
 1683SOL     OW16684   4.485   0.437   7.822 -0.0369 -0.0810 -0.6039
 1683SOL    HW116685   4.520   0.453   7.909 -0.8083  1.0318 -0.4991
 1683SOL    HW216686   4.505   0.343   7.820  3.0916  0.5899 -1.1994
 1684SOL     OW16687   3.153   0.868   9.834 -0.1364  0.0672  0.0387
 1684SOL    HW116688   3.111   0.836   9.914  0.5514  0.2798  0.4828
 1684SOL    HW216689   3.228   0.914   9.871  2.2350 -2.6658 -1.4140
 1685SOL     OW16690   3.638   0.693  10.088 -0.2470  0.2151  0.0797
 1685SOL    HW116691   3.645   0.662   9.998 -1.0186 -1.5131  0.6097
 1685SOL    HW216692   3.545   0.708  10.100 -0.3213  1.3640 -1.9547
 1686SOL     OW16693   3.916   0.225   5.242 -0.4686 -0.6564  0.0791
 1686SOL    HW116694   3.982   0.288   5.214 -1.1002  0.9352  2.1497
 1686SOL    HW216695   3.893   0.260   5.328  1.0271 -1.7961  0.9536
 1687SOL     OW16696   0.760   2.195  12.140  0.0041 -0.2196 -0.1705
 1687SOL    HW116697   0.694   2.190  12.210  0.1460 -0.7938 -0.0786
 1687SOL    HW216698   0.750   2.286  12.113 -2.4317 -0.6681 -0.7827
 1688SOL     OW16699   0.411   3.458  14.929 -0.4066  0.1312  0.3743
 1688SOL    HW116700   0.376   3.380  14.886 -2.3952  0.8361  0.7124
 1688SOL    HW216701   0.373   3.528  14.876 -0.2884 -1.7807 -2.2449
 1689SOL     OW16702   0.699   3.118  13.923 -0.1901  0.7803  0.6422
 1689SOL    HW116703   0.712   3.024  13.932 -2.9272  0.0939 -2.5028
 1689SOL    HW216704   0.726   3.153  13.838 -1.0615  1.8913  0.8151
 1690SOL     OW16705   2.849   4.104   2.077  0.5374  0.0662 -0.4469
 1690SOL    HW116706   2.845   4.010   2.094 -1.9726  0.6092  1.9652
 1690SOL    HW216707   2.893   4.099   1.992  2.7295 -0.5468  0.7102
 1691SOL     OW16708   3.806   2.944   4.866 -0.3651 -0.0836  0.0602
 1691SOL    HW116709   3.847   2.984   4.943 -2.5388 -0.1725  1.2501
 1691SOL    HW216710   3.848   2.983   4.789  0.5543 -0.4829  0.3507
 1692SOL     OW16711   3.053   2.032  11.657 -0.2255 -0.2196 -0.0196
 1692SOL    HW116712   3.041   2.102  11.593 -1.2209 -0.3119  0.0590
 1692SOL    HW216713   3.065   1.958  11.597  0.6091  0.0703 -0.2081
 1693SOL     OW16714   4.293   3.096   0.498 -0.1744  0.8073 -0.3445
 1693SOL    HW116715   4.364   3.072   0.439 -1.0274 -0.0290 -1.0479
 1693SOL    HW216716   4.276   3.015   0.546 -1.3705  0.6435 -1.0344
 1694SOL     OW16717   1.268   2.599   9.745  0.1158 -0.0141  0.1406
 1694SOL    HW116718   1.358   2.568   9.740  0.0288 -0.1321 -0.7053
 1694SOL    HW216719   1.216   2.519   9.749  1.0171 -0.5632  0.9878
 1695SOL     OW16720   1.075   0.972   5.210 -0.1248  0.0690 -0.2748
 1695SOL    HW116721   1.035   1.054   5.180  1.3667  0.9238  0.0538
 1695SOL    HW216722   1.158   0.995   5.253  0.1909 -2.7062  0.5944
 1696SOL     OW16723   2.845   1.981   5.334 -0.1044  0.2025 -0.4484
 1696SOL    HW116724   2.766   1.936   5.303 -1.1532  1.6246  0.2250
 1696SOL    HW216725   2.918   1.924   5.310 -3.3166 -3.8697 -0.5473
 1697SOL     OW16726   1.314   4.031  14.675 -0.0353  0.4271  0.9895
 1697SOL    HW116727   1.226   4.062  14.653  0.5827 -0.1073 -2.1919
 1697SOL    HW216728   1.325   3.976  14.597 -1.8908 -1.9144  2.4040
 1698SOL     OW16729   3.039   1.258   2.796 -0.0124  0.6277 -0.4284
 1698SOL    HW116730   3.028   1.307   2.878  0.6504  0.4078 -0.2149
 1698SOL    HW216731   2.959   1.292   2.754  0.0079 -0.5864 -1.4219
 1699SOL     OW16732   3.247   0.187   4.974  0.5988 -0.4110  0.4924
 1699SOL    HW116733   3.324   0.137   4.947  1.0294  0.4860  0.0568
 1699SOL    HW216734   3.266   0.239   5.053  2.1826 -1.4723  0.8004
 1700SOL     OW16735   3.530   2.845   7.015 -0.0896 -0.2371  0.0709
 1700SOL    HW116736   3.578   2.843   6.932  0.7503  0.6230  0.5321
 1700SOL    HW216737   3.603   2.886   7.062  0.9979 -0.6197 -1.2747
 1701SOL     OW16738   1.531   3.761   2.454  0.3231  0.3414  0.0134
 1701SOL    HW116739   1.575   3.732   2.374 -0.2968 -0.9823  0.1607
 1701SOL    HW216740   1.527   3.675   2.494 -0.5829  0.5330  0.3312
 1702SOL     OW16741   0.752   0.627   0.222 -0.5371  0.4439  0.1336
 1702SOL    HW116742   0.741   0.721   0.215  0.6585  0.3351 -3.1537
 1702SOL    HW216743   0.674   0.609   0.275 -0.0669 -1.5459  0.1826
 1703SOL     OW16744   2.397   4.519   8.805 -0.3221 -0.4832 -0.5089
 1703SOL    HW116745   2.350   4.493   8.885  1.4418 -2.1589 -0.0078
 1703SOL    HW216746   2.491   4.518   8.822 -0.5710  0.0972  0.9112
 1704SOL     OW16747   3.433   4.095   2.809 -0.2110 -0.1593 -0.1834
 1704SOL    HW116748   3.376   4.164   2.775 -2.1902 -1.9261 -0.4272
 1704SOL    HW216749   3.406   4.027   2.747  1.3611  1.4325 -2.6125
 1705SOL     OW16750   1.094   3.396   7.983  0.0826 -0.1052 -0.0559
 1705SOL    HW116751   1.025   3.377   7.921 -1.5777  0.3007  1.6551
 1705SOL    HW216752   1.083   3.490   7.999  0.0744 -0.2194  0.6091
 1706SOL     OW16753   1.812   0.873  12.555  0.2359  0.1915 -0.3293
 1706SOL    HW116754   1.898   0.842  12.526  0.1812 -1.5164  1.3192
 1706SOL    HW216755   1.777   0.912  12.475  0.3646  2.1206  0.5558
 1707SOL     OW16756   4.627   0.930   3.244  0.4258 -0.4034 -0.3824
 1707SOL    HW116757   4.540   0.957   3.215 -0.2304 -0.9074  1.1276
 1707SOL    HW216758   4.615   0.838   3.221 -0.0564 -0.5710  0.5513
 1708SOL     OW16759   2.606   0.676   9.060 -0.3186  0.7201  0.1821
 1708SOL    HW116760   2.650   0.652   9.142 -0.3142  2.1991  0.6170
 1708SOL    HW216761   2.521   0.706   9.092 -1.6128 -2.1628 -0.4901
 1709SOL     OW16762   0.396   1.165   5.132  0.0662 -0.6423  0.3041
 1709SOL    HW116763   0.325   1.212   5.089  0.1821 -2.0309 -1.4109
 1709SOL    HW216764   0.412   1.211   5.215  1.7147  0.1357 -0.4469
 1710SOL     OW16765   1.650   3.911   9.788 -0.0141  0.2486  0.3002
 1710SOL    HW116766   1.649   3.952   9.875  0.0720  0.2329  0.3080
 1710SOL    HW216767   1.579   3.846   9.787  1.9289 -1.9578  4.1789
 1711SOL     OW16768   1.611   3.666   1.965 -0.4709  0.1406  0.3567
 1711SOL    HW116769   1.592   3.586   1.915  1.5470 -0.2126  0.1785
 1711SOL    HW216770   1.650   3.722   1.898 -1.0032 -0.4307 -0.4395
 1712SOL     OW16771   0.297   2.726   6.713  0.0929 -0.0875  0.3687
 1712SOL    HW116772   0.325   2.802   6.764 -0.7133 -0.2541  1.0644
 1712SOL    HW216773   0.328   2.653   6.767  0.8929  0.9473  1.3398
 1713SOL     OW16774   3.897   4.360   5.155 -0.1455  0.4638  0.2703
 1713SOL    HW116775   3.860   4.288   5.104  0.4408  0.2053  0.2080
 1713SOL    HW216776   3.878   4.350   5.248 -2.8432 -0.2283 -0.3538
 1714SOL     OW16777   0.369   2.691   8.150 -0.3514  0.1450  0.0818
 1714SOL    HW116778   0.329   2.617   8.103 -0.3612  0.8077 -0.9572
 1714SOL    HW216779   0.407   2.757   8.092 -2.8887 -0.3831 -2.2214
 1715SOL     OW16780   3.161   4.706   8.784  0.8808  0.2737 -0.3494
 1715SOL    HW116781   3.202   4.655   8.713  2.6649 -0.2565  1.0577
 1715SOL    HW216782   3.192   4.662   8.863 -0.0456  1.5695  0.7380
 1716SOL     OW16783   0.294   0.175  16.061  0.4573  0.1880 -0.5708
 1716SOL    HW116784   0.374   0.123  16.060  1.5632  1.9075 -0.2135
 1716SOL    HW216785   0.275   0.186  15.967  0.4795 -0.1217 -0.6130
 1717SOL     OW16786   0.531   4.221  14.597 -0.5345 -0.2525 -0.1564
 1717SOL    HW116787   0.541   4.179  14.511  1.0489  2.1634 -1.1560
 1717SOL    HW216788   0.449   4.186  14.631  0.3890 -1.2379  1.0414
 1718SOL     OW16789   1.594   3.177   1.378 -0.0025 -0.0847  0.0418
 1718SOL    HW116790   1.508   3.204   1.345  1.1304 -0.3042 -3.0390
 1718SOL    HW216791   1.656   3.245   1.353 -1.3090  0.1132 -2.5886
 1719SOL     OW16792   4.442   4.336   4.176 -0.0588 -0.3929 -0.2524
 1719SOL    HW116793   4.527   4.375   4.154 -0.2186 -0.4510 -0.9598
 1719SOL    HW216794   4.458   4.242   4.165 -2.1332 -0.6811 -0.7282
 1720SOL     OW16795   1.052   3.893   7.120  0.2003 -0.4328 -0.2645
 1720SOL    HW116796   1.070   3.849   7.203  1.3552 -0.5239 -0.5599
 1720SOL    HW216797   0.956   3.896   7.121  0.1967 -0.3460 -0.8961
 1721SOL     OW16798   1.399   0.500   6.511  0.4468 -0.7171  0.3054
 1721SOL    HW116799   1.322   0.545   6.543 -0.1563  0.4165 -2.7660
 1721SOL    HW216800   1.426   0.447   6.586  0.4794 -1.5355 -0.2761
 1722SOL     OW16801   1.704   1.835  17.481  0.3826 -0.2675 -0.4920
 1722SOL    HW116802   1.782   1.883  17.455 -0.6341  1.0127 -1.2168
 1722SOL    HW216803   1.694   1.761  17.421  0.8933 -1.8551  1.3811
 1723SOL     OW16804   2.592   2.515   5.086 -0.0813 -0.2294  0.0431
 1723SOL    HW116805   2.666   2.574   5.074  0.4501 -1.2736 -1.7915
 1723SOL    HW216806   2.592   2.502   5.181  1.6620  0.0253  0.0744
 1724SOL     OW16807   0.064   1.739   6.428 -0.3484 -0.2922  0.6432
 1724SOL    HW116808   0.002   1.692   6.484 -0.6926  0.7637  1.1413
 1724SOL    HW216809   0.137   1.680   6.444  1.5362  1.7485 -0.5017
 1725SOL     OW16810   2.738   3.241   3.252  0.0438  0.4509 -0.0593
 1725SOL    HW116811   2.692   3.274   3.175  0.6380  0.8825 -0.2282
 1725SOL    HW216812   2.721   3.147   3.252  0.1392  0.4408 -2.6129
 1726SOL     OW16813   3.428   0.920   7.203 -0.0273  0.4259 -0.3251
 1726SOL    HW116814   3.351   0.871   7.231  1.9580 -1.6104  1.5890
 1726SOL    HW216815   3.423   1.008   7.240  0.5097  0.0816  0.5521
 1727SOL     OW16816   3.485   2.779   6.135 -0.9785  0.1104 -0.6080
 1727SOL    HW116817   3.562   2.745   6.090 -0.7982  1.8118 -1.5980
 1727SOL    HW216818   3.452   2.694   6.162 -2.4443 -0.1194 -3.0683
 1728SOL     OW16819   2.027   0.721   1.007 -0.0845  0.1361  0.2297
 1728SOL    HW116820   2.118   0.743   0.987 -0.1982 -0.0015 -0.4452
 1728SOL    HW216821   2.020   0.760   1.094 -1.9779  1.6390 -0.6110
 1729SOL     OW16822   1.404   1.530   0.881  0.9223  0.8598  0.4127
 1729SOL    HW116823   1.318   1.506   0.915  1.4323 -3.7856 -1.6692
 1729SOL    HW216824   1.380   1.559   0.794  2.9302  0.3566 -0.3207
 1730SOL     OW16825   3.438   0.898   6.523 -0.3870  0.5341  0.0023
 1730SOL    HW116826   3.523   0.941   6.535  0.3409 -0.4941 -1.5257
 1730SOL    HW216827   3.394   0.914   6.607  0.5350  1.2453  0.3516
 1731SOL     OW16828   2.660   3.028   7.405 -0.1084  0.1147 -0.4311
 1731SOL    HW116829   2.599   3.100   7.415 -1.5335 -1.4609  2.3414
 1731SOL    HW216830   2.722   3.039   7.476  1.2349 -0.2822 -1.5372
 1732SOL     OW16831   4.558   4.349   6.441 -0.7060 -0.1815 -0.0737
 1732SOL    HW116832   4.583   4.436   6.412  1.5418 -2.2638 -4.3192
 1732SOL    HW216833   4.463   4.361   6.439 -0.6417  0.5572  0.9115
 1733SOL     OW16834   4.234   1.663   5.373  0.1894  0.5374  0.5723
 1733SOL    HW116835   4.175   1.645   5.446 -0.1393  0.6389  0.3328
 1733SOL    HW216836   4.185   1.736   5.336  0.8555  0.0150 -1.3604
 1734SOL     OW16837   0.595   2.822   7.132  0.2279 -0.1047  0.0933
 1734SOL    HW116838   0.620   2.730   7.126 -1.0467 -0.7400  4.7263
 1734SOL    HW216839   0.501   2.825   7.151 -0.2527  0.2296 -2.2846
 1735SOL     OW16840   4.143   4.463  11.718 -0.1963 -0.4141 -0.4314
 1735SOL    HW116841   4.213   4.400  11.702 -1.3516 -1.6126 -0.8236
 1735SOL    HW216842   4.088   4.431  11.790 -0.7881 -0.9767 -1.1276
 1736SOL     OW16843   4.071   4.000   3.684  0.1794 -0.4256 -0.2673
 1736SOL    HW116844   4.056   4.063   3.614 -0.0253  0.0817  0.2315
 1736SOL    HW216845   4.088   4.058   3.758 -0.4331 -1.4001  0.6445
 1737SOL     OW16846   1.780   1.315   9.259  0.0453 -0.1832  0.0815
 1737SOL    HW116847   1.763   1.406   9.280 -0.8286 -0.1271 -0.8882
 1737SOL    HW216848   1.701   1.295   9.209 -1.1582 -0.9698  2.2863
 1738SOL     OW16849   2.541   3.453   4.133  0.1722 -0.9978  0.1362
 1738SOL    HW116850   2.483   3.402   4.077 -1.8707 -0.9880  2.2228
 1738SOL    HW216851   2.489   3.441   4.213  2.3648 -1.4515  1.5102
 1739SOL     OW16852   0.785   1.530   2.309 -0.1610 -0.5160  0.1385
 1739SOL    HW116853   0.807   1.471   2.381  0.7403 -1.5510 -0.9665
 1739SOL    HW216854   0.833   1.502   2.230  0.4945  0.5968  0.1497
 1740SOL     OW16855   3.972   1.725   3.089 -0.3206  0.2726  0.6843
 1740SOL    HW116856   3.950   1.789   3.156  0.8066  1.4141 -0.0255
 1740SOL    HW216857   3.887   1.690   3.062 -0.9264  0.8504  1.8649
 1741SOL     OW16858   1.962   4.037   2.861 -0.1874  0.1725 -0.5471
 1741SOL    HW116859   2.033   4.041   2.796 -0.9711  0.7669 -1.3763
 1741SOL    HW216860   2.009   3.986   2.926  0.5323  1.0252 -0.3980
 1742SOL     OW16861   0.910   3.932  14.774  0.1476  0.6856 -0.2692
 1742SOL    HW116862   0.921   3.958  14.683  0.9006  0.6324 -0.1911
 1742SOL    HW216863   0.903   4.023  14.802  1.3938  1.0968 -1.3291
 1743SOL     OW16864   2.120   1.692   8.516  0.1453 -0.3195 -0.3944
 1743SOL    HW116865   2.177   1.753   8.469  0.1988  0.2913  0.4469
 1743SOL    HW216866   2.112   1.625   8.449  0.0176  0.2036 -0.8981
 1744SOL     OW16867   3.803   4.428   6.863  0.2572  0.3415  0.2636
 1744SOL    HW116868   3.716   4.465   6.846  0.4038  0.6551  0.1881
 1744SOL    HW216869   3.811   4.447   6.957 -0.1254  0.1513  0.3351
 1745SOL     OW16870   2.839   1.249   5.075  0.1594 -0.5157 -0.1227
 1745SOL    HW116871   2.767   1.309   5.097 -0.3854 -0.8887 -0.8902
 1745SOL    HW216872   2.784   1.173   5.056  0.4136 -0.6388 -0.3599
 1746SOL     OW16873   2.341   0.584  13.908  0.1858 -0.1942 -0.0108
 1746SOL    HW116874   2.413   0.527  13.883 -0.0575 -0.8112  0.7275
 1746SOL    HW216875   2.395   0.661  13.890 -0.8424  0.0317 -2.2057
 1747SOL     OW16876   2.784   4.169   8.524  0.3782 -0.3900  0.0609
 1747SOL    HW116877   2.720   4.100   8.509 -2.0409  2.0056 -0.5150
 1747SOL    HW216878   2.865   4.125   8.552 -0.3256 -2.2222 -0.7765
 1748SOL     OW16879   1.863   4.397   7.937  0.6889 -0.5409  0.3078
 1748SOL    HW116880   1.925   4.328   7.965  1.7675  0.6318  0.8238
 1748SOL    HW216881   1.904   4.422   7.854  0.1998  1.6268  0.7408
 1749SOL     OW16882   0.191   1.981   6.464  0.4021 -0.2872 -0.3548
 1749SOL    HW116883   0.159   1.891   6.455  0.7904 -0.5643  0.9049
 1749SOL    HW216884   0.122   2.011   6.524  1.9825  0.6534  0.9985
 1750SOL     OW16885   1.978   2.907   2.245 -0.2065 -0.2689  0.3702
 1750SOL    HW116886   1.916   2.834   2.245 -0.5001 -0.0214  1.0184
 1750SOL    HW216887   1.986   2.919   2.339  0.2414 -0.1352  0.3158
 1751SOL     OW16888   3.863   4.354   5.925 -0.6792 -0.5762 -0.0916
 1751SOL    HW116889   3.867   4.449   5.935 -2.5294 -0.6647  1.4045
 1751SOL    HW216890   3.957   4.347   5.942 -0.7751 -0.9136  0.2963
 1752SOL     OW16891   3.878   1.747  14.400 -0.6157 -0.2919 -0.2806
 1752SOL    HW116892   3.875   1.838  14.372  1.0131  0.2721  1.3404
 1752SOL    HW216893   3.900   1.747  14.493  0.9127 -1.4398 -0.6261
 1753SOL     OW16894   1.851   2.005  16.327  0.2027 -0.0413 -0.7485
 1753SOL    HW116895   1.847   2.024  16.233  0.6775  1.1025 -0.5341
 1753SOL    HW216896   1.945   2.007  16.344  0.2219 -0.0912 -0.8494
 1754SOL     OW16897   2.546   1.434   3.244  0.2265 -0.1506  0.0726
 1754SOL    HW116898   2.481   1.365   3.242 -0.1162  0.1222  1.5195
 1754SOL    HW216899   2.589   1.424   3.329 -0.8999  1.3040  0.8139
 1755SOL     OW16900   2.801   3.959   8.789 -0.0896  0.1401  0.0058
 1755SOL    HW116901   2.803   4.043   8.835 -0.1013  0.8168 -1.2568
 1755SOL    HW216902   2.800   3.893   8.859  0.1787 -0.9022 -0.9804
 1756SOL     OW16903   1.029   1.095   6.076 -0.0519 -0.0767  0.0348
 1756SOL    HW116904   1.077   1.174   6.049  0.1046 -0.4655 -0.8475
 1756SOL    HW216905   1.017   1.058   5.988 -0.3164 -2.2770  0.9941
 1757SOL     OW16906   3.146   2.448   7.662 -0.7246 -0.4351  0.8631
 1757SOL    HW116907   3.058   2.417   7.683 -2.0186  3.1207  0.7526
 1757SOL    HW216908   3.163   2.397   7.583 -0.4237 -0.0860  0.7078
 1758SOL     OW16909   1.019   2.828   4.521 -0.1430 -0.0504 -0.1564
 1758SOL    HW116910   1.054   2.915   4.499  2.8663 -1.4689 -0.9251
 1758SOL    HW216911   0.965   2.839   4.599  0.2737 -1.8671  0.3878
 1759SOL     OW16912   1.184   4.168   8.493 -0.3362 -0.2464  0.1472
 1759SOL    HW116913   1.229   4.164   8.409  0.2180 -2.3523  0.5263
 1759SOL    HW216914   1.165   4.261   8.486 -1.7614 -0.4741  1.0316
 1760SOL     OW16915   0.471   1.337  12.916 -0.5576 -0.6229 -0.6856
 1760SOL    HW116916   0.515   1.314  12.834 -0.0299 -0.4843 -0.4393
 1760SOL    HW216917   0.414   1.264  12.938  0.9724 -2.0637 -1.4701
 1761SOL     OW16918   1.519   0.833   4.211 -0.5318 -0.0591  0.6025
 1761SOL    HW116919   1.584   0.893   4.174  0.3096 -1.0625  0.4727
 1761SOL    HW216920   1.443   0.868   4.165 -0.3517 -2.0850 -1.2149
 1762SOL     OW16921   0.365   0.197  11.136 -0.0181 -0.0377  0.2454
 1762SOL    HW116922   0.282   0.159  11.167 -0.0640 -1.3884 -1.4789
 1762SOL    HW216923   0.417   0.178  11.214 -1.1413 -3.0923  0.2582
 1763SOL     OW16924   0.105   4.519  15.059  0.3393  0.1448  0.2391
 1763SOL    HW116925   0.145   4.581  14.998  2.4946 -0.5697  0.9515
 1763SOL    HW216926   0.094   4.561  15.145 -0.8945  1.8493 -0.7408
 1764SOL     OW16927   1.380   0.904   4.525  0.4740 -0.1757  0.2828
 1764SOL    HW116928   1.375   0.837   4.593 -0.1985  0.3927  0.7918
 1764SOL    HW216929   1.351   0.858   4.446 -0.3066  1.4016 -0.3648
 1765SOL     OW16930   1.020   0.892   2.610 -0.0573 -0.0656 -0.1362
 1765SOL    HW116931   1.033   0.933   2.525 -0.9456  0.5203  0.0148
 1765SOL    HW216932   0.980   0.810   2.583  0.7396 -0.9578  1.3454
 1766SOL     OW16933   1.244   1.354   5.005  0.3122  0.2886  0.0251
 1766SOL    HW116934   1.315   1.320   5.060  0.5919  1.6880  0.5344
 1766SOL    HW216935   1.171   1.296   5.026  2.3649 -2.2217  0.1955
 1767SOL     OW16936   1.415   3.727   9.765 -0.1331  0.6236 -0.2061
 1767SOL    HW116937   1.337   3.690   9.723 -1.3466  1.0812  1.6368
 1767SOL    HW216938   1.384   3.734   9.855 -1.6139 -0.9993 -0.5759
 1768SOL     OW16939   0.341   0.726   0.229  0.3279 -0.6015 -0.0932
 1768SOL    HW116940   0.399   0.706   0.302  0.2575 -0.0248  0.1211
 1768SOL    HW216941   0.354   0.820   0.219  1.2344 -0.5559  1.5525
 1769SOL     OW16942   2.640   2.418   2.982 -0.3618  0.0671  0.1554
 1769SOL    HW116943   2.562   2.456   3.022 -0.8953 -1.4264  0.5070
 1769SOL    HW216944   2.684   2.488   2.933 -0.8533 -0.5521 -1.1676
 1770SOL     OW16945   0.112   3.632   7.222  0.1128  0.2374 -0.1693
 1770SOL    HW116946   0.207   3.619   7.223  0.0640 -0.2687 -1.7203
 1770SOL    HW216947   0.090   3.580   7.145 -0.9791 -3.0574  2.3582
 1771SOL     OW16948   3.630   4.139   9.330 -0.0981  0.4467  0.2755
 1771SOL    HW116949   3.538   4.146   9.302  0.1900  0.1124 -0.7634
 1771SOL    HW216950   3.609   4.162   9.420  0.0777  0.6857  0.2557
 1772SOL     OW16951   3.727   1.927   6.591 -0.4369 -0.8241  0.1364
 1772SOL    HW116952   3.806   1.883   6.559  1.8066  1.7305  2.2032
 1772SOL    HW216953   3.751   1.987   6.662  0.6850 -0.0145 -0.9323
 1773SOL     OW16954   3.540   1.449   2.831  0.3006  0.1609  0.4474
 1773SOL    HW116955   3.573   1.538   2.815  0.4720  0.3026  1.5680
 1773SOL    HW216956   3.599   1.429   2.905  2.4453 -0.0159 -1.3061
 1774SOL     OW16957   1.889   0.809  16.792 -0.0690 -0.0099 -0.1321
 1774SOL    HW116958   1.975   0.842  16.769  0.2543 -0.2729  0.7008
 1774SOL    HW216959   1.908   0.715  16.789 -1.3277 -0.2717 -0.2117
 1775SOL     OW16960   1.017   2.599   4.388  0.8434  0.0040  0.3848
 1775SOL    HW116961   1.018   2.684   4.433  0.4623  1.5497 -2.5216
 1775SOL    HW216962   0.925   2.604   4.361  0.9384 -1.1917 -0.1238
 1776SOL     OW16963   0.315   2.017  13.946  0.1546  0.7997 -0.6032
 1776SOL    HW116964   0.342   2.071  14.020 -0.9175  0.9132 -0.2983
 1776SOL    HW216965   0.401   2.015  13.905  0.5302 -0.8814  0.2812
 1777SOL     OW16966   1.099   4.400   4.780  0.0340  0.5585  0.2328
 1777SOL    HW116967   1.057   4.478   4.744 -0.5865 -0.5674 -1.5049
 1777SOL    HW216968   1.056   4.330   4.730 -0.7383  1.1136  0.1180
 1778SOL     OW16969   0.518   3.851   8.139  0.3389 -0.5116  0.4598
 1778SOL    HW116970   0.601   3.820   8.176  1.5108  1.1710 -0.7592
 1778SOL    HW216971   0.486   3.896   8.217 -0.3417  0.1723 -0.2183
 1779SOL     OW16972   1.259   0.318  15.184  0.1109 -0.4033  0.1448
 1779SOL    HW116973   1.228   0.231  15.208  1.6649 -0.9439  0.1753
 1779SOL    HW216974   1.321   0.295  15.116 -1.2897  0.2985 -1.3766
 1780SOL     OW16975   0.074   3.080   4.194 -0.0557 -0.3130 -0.9436
 1780SOL    HW116976   0.071   3.162   4.242 -0.5762 -0.0103 -1.4858
 1780SOL    HW216977   0.156   3.092   4.146  0.1958  0.5950 -0.2812
 1781SOL     OW16978   0.088   2.144   1.336 -0.1293  0.0627  0.2682
 1781SOL    HW116979   4.735   2.176   1.333 -0.4909 -1.1641 -1.9719
 1781SOL    HW216980   0.107   2.116   1.246 -0.0608  1.9870 -0.3260
 1782SOL     OW16981   1.085   3.920   3.061  0.0927  0.2882  0.4395
 1782SOL    HW116982   1.108   3.881   2.976  0.1286 -0.1748  0.6642
 1782SOL    HW216983   1.135   4.001   3.058 -1.5165  1.3316  2.0581
 1783SOL     OW16984   0.308   2.913   7.182  0.5818  0.1785 -0.1178
 1783SOL    HW116985   0.297   2.819   7.197  0.2448 -0.0225 -1.6707
 1783SOL    HW216986   0.218   2.934   7.205  0.3557  0.9968 -1.7722
 1784SOL     OW16987   1.740   3.809   6.605  0.1811 -0.2516  0.2187
 1784SOL    HW116988   1.718   3.799   6.513  1.1266  0.0313 -0.0400
 1784SOL    HW216989   1.653   3.808   6.644  0.1862  1.4068  0.2556
 1785SOL     OW16990   2.306   1.742   7.656 -0.2818  0.2813 -0.1945
 1785SOL    HW116991   2.253   1.732   7.577  0.0429  0.6149 -0.4588
 1785SOL    HW216992   2.382   1.687   7.638 -2.9996 -3.8140  0.7978
 1786SOL     OW16993   4.462   2.154   0.120  0.3015  0.1100  0.0339
 1786SOL    HW116994   4.393   2.139   0.056  1.5740  0.3011 -1.3716
 1786SOL    HW216995   4.528   2.089   0.095  2.4612  2.0336  0.7947
 1787SOL     OW16996   1.579   2.308   4.839  0.2956 -0.4403  0.4025
 1787SOL    HW116997   1.576   2.215   4.815 -2.0536 -0.4734  0.7532
 1787SOL    HW216998   1.485   2.323   4.850  0.7982  0.5117  3.4083
 1788SOL     OW16999   2.996   3.679   1.525  0.2934 -0.1372 -0.0888
 1788SOL    HW117000   2.984   3.593   1.484 -1.9623  0.0706  0.1299
 1788SOL    HW217001   3.091   3.691   1.523  0.6697 -2.2931  4.0545
 1789SOL     OW17002   1.489   2.001  14.314  0.3359 -0.4392  0.2195
 1789SOL    HW117003   1.523   1.963  14.395  2.2421  1.4703  0.3026
 1789SOL    HW217004   1.506   1.933  14.249 -1.8877 -0.3345 -0.4764
 1790SOL     OW17005   3.541   0.584  14.764 -0.0474  0.1104  0.6890
 1790SOL    HW117006   3.531   0.536  14.847  0.9224 -0.4483  0.4761
 1790SOL    HW217007   3.519   0.673  14.792  0.3179  0.7890 -1.1746
 1791SOL     OW17008   1.309   1.061   6.878  0.7976  0.1927 -0.1230
 1791SOL    HW117009   1.297   0.983   6.824 -3.3339 -0.4928  1.8193
 1791SOL    HW217010   1.220   1.092   6.895 -0.2244 -2.4311 -0.7152
 1792SOL     OW17011   3.724   2.415  11.698  0.1235  0.3251 -0.1198
 1792SOL    HW117012   3.748   2.325  11.719  0.4237  0.1469 -1.2641
 1792SOL    HW217013   3.640   2.411  11.744  1.0906 -1.3259  1.5369
 1793SOL     OW17014   0.285   3.443   7.858 -0.4694 -0.2719  0.3277
 1793SOL    HW117015   0.322   3.454   7.946 -0.2419 -1.2655  0.3499
 1793SOL    HW217016   0.255   3.533   7.843 -0.9484 -0.3958  0.5463
 1794SOL     OW17017   4.031   0.289  10.860 -0.2058  0.2804 -0.1872
 1794SOL    HW117018   4.084   0.223  10.816 -0.6216  0.6307 -1.2354
 1794SOL    HW217019   4.076   0.369  10.834  0.9458 -0.1168  0.6107
 1795SOL     OW17020   1.260   3.565   6.789 -0.3633  0.0448  0.0198
 1795SOL    HW117021   1.205   3.493   6.757 -1.0206 -0.5458  2.4072
 1795SOL    HW217022   1.287   3.527   6.873  1.5734 -0.2280 -0.7353
 1796SOL     OW17023   4.407   4.082   8.701 -0.3134  0.0001  0.0755
 1796SOL    HW117024   4.448   4.006   8.659 -1.0221  0.5662 -1.6629
 1796SOL    HW217025   4.371   4.038   8.777  1.7924 -0.3956  0.8312
 1797SOL     OW17026   4.388   2.780   4.983 -0.1093  0.2454 -0.1756
 1797SOL    HW117027   4.422   2.705   5.032 -0.7043  1.0951  1.5433
 1797SOL    HW217028   4.421   2.851   5.039  0.4955 -2.2066  2.5556
 1798SOL     OW17029   2.252   4.427   8.264  0.0103 -0.1968  0.1111
 1798SOL    HW117030   2.269   4.335   8.284  1.9590  0.0008 -0.6214
 1798SOL    HW217031   2.308   4.474   8.326 -1.1934 -0.4009  1.3440
 1799SOL     OW17032   0.256   3.240   8.561 -0.1380 -0.1657 -0.7275
 1799SOL    HW117033   0.203   3.233   8.481 -1.2166  4.5876 -0.4520
 1799SOL    HW217034   0.341   3.261   8.522 -0.1075  1.9110  0.4828
 1800SOL     OW17035   3.408   0.702   4.303  0.2311 -0.5919  0.1288
 1800SOL    HW117036   3.425   0.795   4.286 -0.2142  0.0953  3.4244
 1800SOL    HW217037   3.372   0.677   4.218 -1.6219 -0.6630  0.9191
 1801SOL     OW17038   1.695   0.999   1.716  0.3832  0.1310 -1.0081
 1801SOL    HW117039   1.723   0.918   1.757 -1.4981  0.0113  0.0376
 1801SOL    HW217040   1.603   0.979   1.696  0.2546  0.0566 -0.3231
 1802SOL     OW17041   1.427   1.596  17.203  0.2405 -0.6490 -0.2234
 1802SOL    HW117042   1.382   1.620  17.122  0.3406 -0.3946 -0.2040
 1802SOL    HW217043   1.517   1.612  17.177  1.0306 -2.1109  1.5941
 1803SOL     OW17044   1.485   4.330   7.026 -0.2094  0.0667  0.1548
 1803SOL    HW117045   1.519   4.419   7.018  1.7544 -0.6268  0.6978
 1803SOL    HW217046   1.428   4.324   6.949 -1.0680  0.0805  0.7836
 1804SOL     OW17047   3.508   2.566   0.409  0.0894  0.5192  0.2271
 1804SOL    HW117048   3.495   2.471   0.408  2.6605  0.2043 -2.4859
 1804SOL    HW217049   3.592   2.562   0.363  0.2842 -1.0826  0.7047
 1805SOL     OW17050   4.344   3.314  17.452  0.0838  0.4328 -0.5083
 1805SOL    HW117051   4.254   3.285  17.469  0.2395  0.4658  0.3418
 1805SOL    HW217052   4.392   3.236  17.480 -0.1205  0.0411 -1.2554
 1806SOL     OW17053   2.973   0.546   1.502  0.6954  0.3351  0.3637
 1806SOL    HW117054   3.066   0.562   1.515  0.4875  1.0672  0.9234
 1806SOL    HW217055   2.952   0.546   1.595 -0.6676  4.5536  0.0575
 1807SOL     OW17056   4.595   0.212   9.067 -0.2168 -0.2113 -0.2786
 1807SOL    HW117057   4.591   0.133   9.012  1.8047 -2.2310  2.4676
 1807SOL    HW217058   4.503   0.239   9.062  0.6838  3.0138  0.6055
 1808SOL     OW17059   3.264   2.025   2.776 -0.1162  0.1193 -0.6267
 1808SOL    HW117060   3.241   2.071   2.695 -3.5086  2.5923  1.6941
 1808SOL    HW217061   3.332   2.085   2.805 -0.4858  1.0417 -1.6451
 1809SOL     OW17062   3.816   1.193   4.253 -0.0519  0.5105 -0.2122
 1809SOL    HW117063   3.768   1.264   4.295 -1.6267 -0.4881 -0.3186
 1809SOL    HW217064   3.827   1.239   4.169 -0.8295  1.3142  0.1241
 1810SOL     OW17065   3.448   2.172   2.923 -0.0218 -0.0615  0.2621
 1810SOL    HW117066   3.438   2.164   3.018  0.5620  0.7162  0.3856
 1810SOL    HW217067   3.437   2.266   2.912  0.8262  0.0944  0.7555
 1811SOL     OW17068   4.167   4.674   8.667  0.1316  0.3626  0.1695
 1811SOL    HW117069   4.110   0.011   8.690  1.2770  0.9265  1.2171
 1811SOL    HW217070   4.126   4.643   8.586 -0.4342  0.5498  0.3828
 1812SOL     OW17071   1.635   0.882   4.801 -0.2425  0.0649 -0.1754
 1812SOL    HW117072   1.679   0.813   4.752  1.8736  1.2187  0.0741
 1812SOL    HW217073   1.602   0.938   4.730  2.1185  1.8181  0.1002
 1813SOL     OW17074   2.676   2.787  14.393  0.5068  0.0339  0.4229
 1813SOL    HW117075   2.734   2.730  14.342  0.1715  0.8662 -0.8763
 1813SOL    HW217076   2.731   2.865  14.394  0.0230  0.4013 -2.8394
 1814SOL     OW17077   2.921   3.994  10.431 -0.1405  0.4561  0.1978
 1814SOL    HW117078   3.002   3.966  10.474 -0.3600  0.3432  0.5334
 1814SOL    HW217079   2.894   3.915  10.383  2.1961 -0.7363  0.8606
 1815SOL     OW17080   0.110   0.646   4.757 -0.5553  0.0662  0.3624
 1815SOL    HW117081   0.146   0.561   4.731 -1.4134 -0.1114 -0.2274
 1815SOL    HW217082   0.074   0.627   4.844 -0.3675  2.2433  0.9248
 1816SOL     OW17083   0.919   1.359   7.202 -0.1994 -0.2175 -0.1955
 1816SOL    HW117084   0.887   1.271   7.225  0.5023 -0.2904  0.5029
 1816SOL    HW217085   1.009   1.333   7.182  0.5484  0.0460  2.8880
 1817SOL     OW17086   2.551   0.518  17.325 -0.2960  0.2601  0.2413
 1817SOL    HW117087   2.578   0.603  17.358 -0.4246  0.6205 -0.5972
 1817SOL    HW217088   2.460   0.534  17.300  0.2914 -0.3525 -2.2700
 1818SOL     OW17089   4.189   0.425  10.564 -0.4780  0.6763 -0.7842
 1818SOL    HW117090   4.183   0.462  10.652 -0.5430 -0.5604 -0.2589
 1818SOL    HW217091   4.284   0.413  10.565 -0.7747 -1.8268 -1.4866
 1819SOL     OW17092   0.133   2.961   6.854 -0.1954 -0.2131  0.0785
 1819SOL    HW117093   0.169   2.941   6.941  0.3398  1.7070  0.2878
 1819SOL    HW217094   0.082   2.880   6.853  2.3413 -1.8958  4.7913
 1820SOL     OW17095   4.734   3.189   2.899 -0.1432 -0.2329  0.2583
 1820SOL    HW117096   4.700   3.237   2.824 -1.0963 -1.2318  0.0546
 1820SOL    HW217097   0.089   3.172   2.879 -0.3272 -2.4404  1.2584
 1821SOL     OW17098   2.108   3.531   6.825 -0.2927 -0.5014 -0.2019
 1821SOL    HW117099   2.039   3.597   6.830 -1.3002 -1.3957 -2.4504
 1821SOL    HW217100   2.106   3.508   6.733  0.2711 -1.9360  0.1399
 1822SOL     OW17101   4.667   0.708   5.269 -0.1032 -0.4774  0.6185
 1822SOL    HW117102   4.642   0.788   5.223 -0.0694 -0.7746  0.0875
 1822SOL    HW217103   4.692   0.756   5.348  2.4245 -1.3845  0.3849
 1823SOL     OW17104   3.376   4.134   4.512  0.0403 -0.3356 -0.3399
 1823SOL    HW117105   3.456   4.133   4.459  1.4972 -0.4539  1.8606
 1823SOL    HW217106   3.313   4.178   4.455 -1.4391 -1.7801  0.1754
 1824SOL     OW17107   3.252   3.884  16.589 -0.7482 -0.1557 -0.5522
 1824SOL    HW117108   3.204   3.879  16.507 -1.0770  1.8597 -0.4925
 1824SOL    HW217109   3.184   3.877  16.656 -0.2071  0.5442  0.0730
 1825SOL     OW17110   1.758   2.640   8.001  0.1940  0.2848  0.0748
 1825SOL    HW117111   1.801   2.680   7.925 -0.8889  1.6485  0.1780
 1825SOL    HW217112   1.675   2.688   7.995  0.4870  0.8307  0.3338
 1826SOL     OW17113   3.710   1.758   3.794  0.3627 -0.2616  0.7396
 1826SOL    HW117114   3.756   1.829   3.748 -1.5933  0.4844 -0.0771
 1826SOL    HW217115   3.622   1.792   3.811 -0.1451 -0.7381 -0.9261
 1827SOL     OW17116   2.130   2.908   5.430 -0.6326 -0.4737 -0.0645
 1827SOL    HW117117   2.059   2.889   5.369  0.4106 -2.9083 -0.5188
 1827SOL    HW217118   2.082   2.894   5.511  0.3740  1.3529  0.8462
 1828SOL     OW17119   0.082   0.223  10.469 -0.5400  0.8958  0.3902
 1828SOL    HW117120   0.158   0.247  10.522  0.0958 -2.5478  0.9969
 1828SOL    HW217121   0.066   0.307  10.425 -1.0483 -0.2085 -1.5358
 1829SOL     OW17122   0.064   4.399   6.266 -0.2917 -0.0113  0.5905
 1829SOL    HW117123   4.731   4.462   6.282 -1.8202 -1.1648 -1.5434
 1829SOL    HW217124   0.065   4.361   6.354 -0.2340 -1.4883 -0.0567
 1830SOL     OW17125   0.827   1.814   5.157 -0.0113 -0.2225  0.0606
 1830SOL    HW117126   0.746   1.860   5.180 -0.8877 -1.1672 -1.1090
 1830SOL    HW217127   0.830   1.748   5.226  1.7338  0.1676  0.3578
 1831SOL     OW17128   1.038   3.585  16.010  0.8271 -0.6995  0.2643
 1831SOL    HW117129   1.116   3.640  15.997  1.4236 -1.6000  0.0803
 1831SOL    HW217130   0.989   3.631  15.942 -0.8550  0.3810  2.2244
 1832SOL     OW17131   1.031   4.033   5.622  0.1109 -0.2541  0.2555
 1832SOL    HW117132   0.965   4.027   5.554  0.8191  1.9469 -0.6320
 1832SOL    HW217133   1.010   3.949   5.663  1.7198 -1.2360 -0.9622
 1833SOL     OW17134   4.645   4.497   8.753  0.2624 -0.2780 -0.0639
 1833SOL    HW117135   4.579   4.433   8.728  0.0706  0.0558 -0.4229
 1833SOL    HW217136   4.664   4.464   8.841 -0.9497  1.5104  0.8698
 1834SOL     OW17137   3.512   4.530   7.178 -0.5073  0.0149  0.1435
 1834SOL    HW117138   3.440   4.544   7.117  0.3253  2.1738 -0.3791
 1834SOL    HW217139   3.588   4.511   7.122  0.6709 -0.2852  1.8214
 1835SOL     OW17140   1.197   1.022   3.075  0.5613 -0.4806  0.3459
 1835SOL    HW117141   1.176   1.030   2.982 -2.8580 -2.1366  0.9935
 1835SOL    HW217142   1.133   0.958   3.107  1.3675 -0.0531  2.8231
 1836SOL     OW17143   3.666   1.236   3.798  0.2090  0.0121 -0.6262
 1836SOL    HW117144   3.691   1.144   3.799  0.7883  0.1572 -1.3959
 1836SOL    HW217145   3.669   1.254   3.704 -1.2063 -0.8934 -0.8444
 1837SOL     OW17146   0.294   0.039   7.489  0.3977 -0.1808  0.0956
 1837SOL    HW117147   0.294   0.041   7.585  1.0487  0.7242  0.0771
 1837SOL    HW217148   0.387   0.054   7.473  0.4891 -3.0732 -2.0654
 1838SOL     OW17149   0.211   0.252   4.413 -0.4282  0.1153  0.3913
 1838SOL    HW117150   0.229   0.158   4.413 -0.2871  0.1447 -0.5472
 1838SOL    HW217151   0.279   0.297   4.462  0.7106 -0.0149 -1.0843
 1839SOL     OW17152   0.092   4.561   1.353  0.7561  1.0407  0.4009
 1839SOL    HW117153   0.033   4.634   1.371  1.1430  1.7228 -1.0941
 1839SOL    HW217154   0.046   4.483   1.383  2.1184 -0.8119 -2.3224
 1840SOL     OW17155   3.760   0.978   8.202 -0.4435  0.6575  0.3359
 1840SOL    HW117156   3.799   1.065   8.206 -1.7328  1.1354  2.3891
 1840SOL    HW217157   3.669   0.998   8.181  0.5602  4.8439 -0.0351
 1841SOL     OW17158   4.367   1.767  14.752  0.0488 -0.0040 -0.1787
 1841SOL    HW117159   4.459   1.761  14.725  0.3920  1.3538  0.7318
 1841SOL    HW217160   4.324   1.719  14.681 -0.3534  1.4312 -0.9050
 1842SOL     OW17161   1.547   1.107   4.642 -0.4909  0.4176  0.3411
 1842SOL    HW117162   1.562   1.199   4.621  0.1933  0.5697  1.5340
 1842SOL    HW217163   1.458   1.088   4.610  0.4992 -0.1773 -2.0960
 1843SOL     OW17164   0.809   2.670  12.776  0.1143 -0.4357 -0.6790
 1843SOL    HW117165   0.826   2.670  12.870 -0.6145  0.9246 -0.5514
 1843SOL    HW217166   0.842   2.586  12.744 -0.3823 -0.3081 -1.5288
 1844SOL     OW17167   3.786   2.446   7.447  0.6834  0.5140 -0.2072
 1844SOL    HW117168   3.750   2.480   7.365 -0.3526 -1.5552 -0.6004
 1844SOL    HW217169   3.716   2.467   7.508 -0.1924  1.2270 -1.4473
 1845SOL     OW17170   2.090   0.634  13.051  0.8047  0.1877  0.1619
 1845SOL    HW117171   2.124   0.706  12.996  1.1713  0.4257  0.6982
 1845SOL    HW217172   2.001   0.660  13.075  0.1589  0.8356 -2.8548
 1846SOL     OW17173   0.463   3.879   6.528 -0.3533 -0.2671 -0.1096
 1846SOL    HW117174   0.484   3.926   6.608 -0.0726 -1.7196  0.6678
 1846SOL    HW217175   0.553   3.867   6.496 -1.1916 -3.1053 -1.4694
 1847SOL     OW17176   1.679   4.010   8.891 -0.4865 -0.0361  0.2903
 1847SOL    HW117177   1.685   3.961   8.973 -2.2397 -0.7192  0.0315
 1847SOL    HW217178   1.761   3.979   8.855  0.2129 -0.2784  2.0888
 1848SOL     OW17179   1.565   0.169  10.703  0.5827 -0.0813 -0.4906
 1848SOL    HW117180   1.561   0.261  10.677  1.6188  0.5900  1.7799
 1848SOL    HW217181   1.575   0.165  10.798 -1.1607 -0.7836 -0.3309
 1849SOL     OW17182   0.741   2.067  15.575  0.0061  0.3788  0.5877
 1849SOL    HW117183   0.697   2.006  15.634  0.7456  0.4790  1.2407
 1849SOL    HW217184   0.833   2.043  15.578  0.0488  0.3852 -0.5381
 1850SOL     OW17185   4.651   0.434   5.267 -0.6236  0.4620 -0.1965
 1850SOL    HW117186   4.640   0.528   5.281 -0.7246  0.7343 -2.1280
 1850SOL    HW217187   4.664   0.404   5.357  1.1955 -0.7341 -0.8528
 1851SOL     OW17188   3.251   2.505   3.825 -0.3925 -0.1327  0.0555
 1851SOL    HW117189   3.217   2.542   3.743 -0.9017 -1.7209 -0.4453
 1851SOL    HW217190   3.181   2.445   3.850 -0.2423 -0.5992 -0.6196
 1852SOL     OW17191   3.471   2.042   0.959  0.0071 -0.4117  0.1454
 1852SOL    HW117192   3.400   2.021   0.899 -0.8306  1.6010  0.4177
 1852SOL    HW217193   3.465   2.138   0.960 -1.5522 -0.4958 -0.7990
 1853SOL     OW17194   1.910   3.724   9.047  0.3622  0.3022 -0.1532
 1853SOL    HW117195   1.883   3.763   9.131 -1.2379 -3.0106  0.8383
 1853SOL    HW217196   1.853   3.648   9.044  2.6563 -1.4935  1.0939
 1854SOL     OW17197   0.241   0.870  14.361  0.0426 -0.1658  0.1264
 1854SOL    HW117198   0.252   0.919  14.279  0.4325  0.4973  0.5747
 1854SOL    HW217199   0.269   0.938  14.422  1.2257  0.0404 -0.6346
 1855SOL     OW17200   0.474   3.748   2.767  0.2447  0.2262 -0.0830
 1855SOL    HW117201   0.477   3.677   2.704  2.4375 -1.5284  2.0037
 1855SOL    HW217202   0.387   3.733   2.806 -0.1369  1.4490 -0.4626
 1856SOL     OW17203   0.459   1.277   6.752  0.0738 -0.4609  0.3616
 1856SOL    HW117204   0.490   1.363   6.781 -1.1250  1.0311 -2.8577
 1856SOL    HW217205   0.438   1.290   6.660 -1.4890  5.5621  1.5831
 1857SOL     OW17206   2.422   1.194   9.445 -0.3869  0.1141 -0.3572
 1857SOL    HW117207   2.364   1.162   9.514  1.4314  0.6862  1.4543
 1857SOL    HW217208   2.367   1.266   9.415  0.3600  0.6470 -0.4558
 1858SOL     OW17209   3.895   1.144   6.972 -0.2669 -0.2371 -0.0929
 1858SOL    HW117210   3.803   1.121   6.988 -0.0727 -0.9108  0.0178
 1858SOL    HW217211   3.875   1.235   6.950 -0.8200  0.0922  1.7549
 1859SOL     OW17212   4.503   1.720  15.088  0.1548  0.3769  0.2738
 1859SOL    HW117213   4.521   1.692  15.178 -0.9587 -1.1193  0.0288
 1859SOL    HW217214   4.494   1.814  15.099  0.4852  0.1485  2.4447
 1860SOL     OW17215   3.821   2.778   7.462  0.0769 -0.4867 -0.2289
 1860SOL    HW117216   3.817   2.789   7.367 -0.7749  0.7734 -0.0495
 1860SOL    HW217217   3.897   2.833   7.482  0.0160 -0.1686 -0.8897
 1861SOL     OW17218   1.026   2.817   2.145 -0.0053  0.1313  0.4252
 1861SOL    HW117219   1.101   2.842   2.198 -0.6675  1.2141  0.8587
 1861SOL    HW217220   1.033   2.722   2.153 -1.8945  0.0279  0.8638
 1862SOL     OW17221   0.992   2.243   5.406 -0.2848 -0.2591 -0.5113
 1862SOL    HW117222   0.906   2.283   5.405 -0.8343 -1.4048  0.8280
 1862SOL    HW217223   1.007   2.182   5.334  0.8588 -0.5734 -0.0205
 1863SOL     OW17224   0.452   2.495  15.248 -0.1369  0.2571  0.2287
 1863SOL    HW117225   0.418   2.487  15.159  2.2943  0.6496 -0.7394
 1863SOL    HW217226   0.378   2.501  15.308  0.1750  1.8592  0.4656
 1864SOL     OW17227   4.607   0.139   7.472 -0.1431 -0.2320 -0.2899
 1864SOL    HW117228   4.608   0.046   7.449  0.2431 -0.2481 -0.2062
 1864SOL    HW217229   4.597   0.190   7.392  1.3429  1.8430  0.8469
 1865SOL     OW17230   4.673   1.243   4.350 -0.3554  0.5489  0.7041
 1865SOL    HW117231   4.706   1.215   4.265 -0.1845 -2.1740  1.6804
 1865SOL    HW217232   4.692   1.165   4.402  0.0557  0.1855  0.0097
 1866SOL     OW17233   3.598   1.898   4.589 -0.2229  0.4869  0.0019
 1866SOL    HW117234   3.523   1.870   4.640 -0.5133 -0.4649 -0.9323
 1866SOL    HW217235   3.665   1.863   4.649  1.0531  2.8123 -0.0492
 1867SOL     OW17236   2.677   1.820  17.022 -0.3172 -0.5852  0.2474
 1867SOL    HW117237   2.708   1.907  17.048 -0.9629  0.3482 -2.0882
 1867SOL    HW217238   2.635   1.844  16.939  0.6662 -0.6068 -0.2519
 1868SOL     OW17239   1.457   2.757  13.379 -0.3552  0.3652  0.2843
 1868SOL    HW117240   1.369   2.794  13.382 -0.8385 -0.6742 -1.0473
 1868SOL    HW217241   1.425   2.668  13.360  0.4895 -0.1888  1.4413
 1869SOL     OW17242   1.673   2.633   9.670 -0.3308 -0.0978  0.0486
 1869SOL    HW117243   1.681   2.619   9.575 -2.0957 -2.0086  0.1882
 1869SOL    HW217244   1.768   2.636   9.684 -0.3164  2.8646 -0.7547
 1870SOL     OW17245   2.283   4.367   5.388 -0.1620 -0.1111  0.1321
 1870SOL    HW117246   2.297   4.415   5.306 -2.4355  0.3285  0.0081
 1870SOL    HW217247   2.208   4.403   5.436  0.6169  2.0482 -0.2688
 1871SOL     OW17248   0.890   0.867   6.534  0.1140 -0.2937  0.4659
 1871SOL    HW117249   0.888   0.828   6.447 -1.7008  0.1924  0.2902
 1871SOL    HW217250   0.900   0.956   6.499 -1.9106 -0.9770 -1.8799
 1872SOL     OW17251   0.595   2.578   6.137 -0.0162 -0.0324  0.3236
 1872SOL    HW117252   0.635   2.577   6.050 -0.7871 -0.5272 -0.0251
 1872SOL    HW217253   0.552   2.493   6.143 -1.9139  0.7817 -1.4569
 1873SOL     OW17254   1.156   2.863   5.572 -0.4475  0.0679 -0.2869
 1873SOL    HW117255   1.175   2.877   5.480 -1.2700  0.3815 -0.4071
 1873SOL    HW217256   1.065   2.835   5.571  0.5094 -2.9099 -2.0105
 1874SOL     OW17257   3.483   2.490   4.005 -0.3326  0.7215  0.1520
 1874SOL    HW117258   3.502   2.583   4.014 -2.0374  0.9460  1.3776
 1874SOL    HW217259   3.400   2.498   3.958  0.3258  1.3195 -0.9207
 1875SOL     OW17260   0.276   0.696  11.966 -0.1948 -0.0849 -0.0551
 1875SOL    HW117261   0.282   0.639  11.889  1.8776  0.4118 -0.2400
 1875SOL    HW217262   0.224   0.647  12.031  0.2067 -1.1557 -0.5423
 1876SOL     OW17263   3.727   0.771  11.023  0.1153  0.0377 -0.2020
 1876SOL    HW117264   3.819   0.786  11.044 -0.3042 -0.5148  2.0072
 1876SOL    HW217265   3.693   0.754  11.111  0.9845 -2.1838 -0.2935
 1877SOL     OW17266   1.668   0.071   4.065  0.7176 -0.3873  0.3276
 1877SOL    HW117267   1.587   0.081   4.116  0.1805 -1.7136 -0.2861
 1877SOL    HW217268   1.627   0.057   3.980  1.5578 -0.6187 -0.0384
 1878SOL     OW17269   3.468   0.239  11.164  0.4073 -0.2079 -0.6384
 1878SOL    HW117270   3.437   0.171  11.224  2.2779  2.5509  3.4551
 1878SOL    HW217271   3.561   0.250  11.183 -0.0295  1.6270  0.4822
 1879SOL     OW17272   2.679   0.526   8.812 -0.0612  0.2800  0.1219
 1879SOL    HW117273   2.634   0.591   8.865  0.9539  1.4037 -0.4098
 1879SOL    HW217274   2.610   0.460   8.819 -1.3745  1.7117  0.7578
 1880SOL     OW17275   1.030   2.464   1.947 -0.4653  0.3586  0.4472
 1880SOL    HW117276   1.028   2.535   1.882  0.0414  1.1266  1.2588
 1880SOL    HW217277   1.064   2.388   1.900 -1.2926  0.4116 -0.2380
 1881SOL     OW17278   4.316   1.460  11.227 -0.3470  0.1625 -0.1907
 1881SOL    HW117279   4.337   1.551  11.208  1.7260 -0.1594  0.5645
 1881SOL    HW217280   4.321   1.458  11.322 -0.9653 -0.3537 -0.1722
 1882SOL     OW17281   1.490   0.826   1.065  0.3530 -0.1516 -0.5998
 1882SOL    HW117282   1.584   0.829   1.046  0.9298 -0.9554  2.0829
 1882SOL    HW217283   1.497   0.784   1.151  1.6830  1.1771 -0.0634
 1883SOL     OW17284   1.533   1.890   2.873 -0.2582  0.6475 -0.4622
 1883SOL    HW117285   1.476   1.908   2.948  0.5649 -0.1001  0.3243
 1883SOL    HW217286   1.465   1.857   2.814 -0.4900  0.9294 -0.3503
 1884SOL     OW17287   1.294   0.976   4.030 -0.0852  0.4292  0.2500
 1884SOL    HW117288   1.233   1.016   3.967 -3.0026 -3.3477  0.6511
 1884SOL    HW217289   1.277   1.026   4.110  0.3805 -0.1680  0.7260
 1885SOL     OW17290   2.990   1.877  11.207  0.0960  0.1750  0.0649
 1885SOL    HW117291   3.031   1.800  11.169  0.9276  0.1698  0.9946
 1885SOL    HW217292   2.914   1.891  11.150  0.1756  0.5750  0.0519
 1886SOL     OW17293   4.457   1.606   5.218 -0.2111 -0.0571  0.0714
 1886SOL    HW117294   4.404   1.564   5.150  1.7770 -0.9972 -0.9111
 1886SOL    HW217295   4.389   1.645   5.272 -0.0315 -0.1242  0.3467
 1887SOL     OW17296   2.613   3.489   7.951 -0.1241 -0.4066 -0.1661
 1887SOL    HW117297   2.555   3.424   7.911  0.1382  0.4002 -1.8414
 1887SOL    HW217298   2.596   3.551   7.880 -1.0820 -1.6647 -1.0473
 1888SOL     OW17299   4.159   0.188  11.822  0.4490  0.2021  0.3212
 1888SOL    HW117300   4.194   0.114  11.771 -3.1044  0.3331 -2.3288
 1888SOL    HW217301   4.170   0.260  11.760  1.6599 -1.2754 -1.1636
 1889SOL     OW17302   2.802   0.375   4.588  0.6076  0.6746 -0.3901
 1889SOL    HW117303   2.747   0.395   4.513 -1.0830 -0.8032  0.4524
 1889SOL    HW217304   2.848   0.297   4.558  0.4603  0.6372 -0.5144
 1890SOL     OW17305   4.141   4.704   5.041  0.1499  1.0393 -0.3702
 1890SOL    HW117306   4.120   4.652   4.964 -0.5513 -1.2296  1.3693
 1890SOL    HW217307   4.223   0.012   5.019  1.3036 -0.1097  1.5095
 1891SOL     OW17308   3.083   4.633   1.657 -0.6298  0.5367 -0.0185
 1891SOL    HW117309   3.079   4.559   1.716 -0.0117  0.6366  0.1494
 1891SOL    HW217310   3.160   4.665   1.704  0.8674 -0.1815 -1.9899
 1892SOL     OW17311   4.151   1.077   3.587  0.0659  0.1836 -0.1542
 1892SOL    HW117312   4.099   1.147   3.627  1.9068  0.5826  1.5426
 1892SOL    HW217313   4.123   1.004   3.642 -0.1886 -0.7580 -1.5398
 1893SOL     OW17314   0.687   2.188   5.622 -0.0116  0.1567 -0.4233
 1893SOL    HW117315   0.616   2.246   5.650  1.1610  0.9162  0.9170
 1893SOL    HW217316   0.646   2.106   5.593 -1.6979  0.1928  1.8711
 1894SOL     OW17317   3.203   3.373  17.015  0.0946  0.5790  0.3717
 1894SOL    HW117318   3.253   3.432  17.071  0.6955  1.0365 -0.6497
 1894SOL    HW217319   3.225   3.406  16.927  2.3219 -0.0387  0.7054
 1895SOL     OW17320   0.555   4.604   1.486  0.1347 -0.5489 -0.1734
 1895SOL    HW117321   0.580   4.682   1.537 -0.8252  0.6377 -1.5500
 1895SOL    HW217322   0.638   4.555   1.487 -0.7302 -1.9969  0.2289
 1896SOL     OW17323   1.455   2.206   3.033  0.5814  0.1963  0.0669
 1896SOL    HW117324   1.441   2.247   2.947  0.7591  0.2221  0.0507
 1896SOL    HW217325   1.464   2.113   3.012 -1.2770  0.4256 -1.7651
 1897SOL     OW17326   2.555   4.297   3.259 -0.2935  0.0223 -0.4847
 1897SOL    HW117327   2.466   4.314   3.229 -0.3659 -0.6270 -0.6306
 1897SOL    HW217328   2.618   4.317   3.190 -1.4540 -0.3271 -1.6517
 1898SOL     OW17329   0.254   2.253   5.323 -0.1535 -0.2827  0.6725
 1898SOL    HW117330   0.215   2.168   5.303  1.5722 -0.6061 -1.3765
 1898SOL    HW217331   0.208   2.316   5.268 -1.7906  1.0791  3.6481
 1899SOL     OW17332   3.575   1.522  10.997 -0.2403  0.3044 -0.1365
 1899SOL    HW117333   3.563   1.460  10.926  0.1643 -0.7857  0.7395
 1899SOL    HW217334   3.659   1.565  10.980 -1.3638  1.8117 -1.8622
 1900SOL     OW17335   2.185   3.460   9.566  0.5527  0.2306  0.9487
 1900SOL    HW117336   2.181   3.538   9.622  2.2553  1.2314 -0.3264
 1900SOL    HW217337   2.209   3.498   9.482 -2.2210 -0.9678 -0.3832
 1901SOL     OW17338   2.555   0.257  17.356 -0.2423 -0.2748 -0.3239
 1901SOL    HW117339   2.560   0.353  17.359 -0.5754 -0.2927  0.8179
 1901SOL    HW217340   2.647   0.234  17.370  0.1259  1.5127  0.2816
 1902SOL     OW17341   3.443   3.613   2.727 -0.2145  0.2594  0.0355
 1902SOL    HW117342   3.349   3.616   2.746 -0.6009  3.8390 -2.3238
 1902SOL    HW217343   3.482   3.589   2.811 -0.0272 -0.7725 -0.3454
 1903SOL     OW17344   0.256   0.466  14.207 -0.4787  0.3163 -0.0890
 1903SOL    HW117345   0.304   0.396  14.163  1.4386  2.1071 -0.8578
 1903SOL    HW217346   0.310   0.545  14.206 -0.8152  0.5587  1.1809
 1904SOL     OW17347   3.076   1.456  17.669 -0.5197 -0.0105 -0.1968
 1904SOL    HW117348   3.139   1.394  17.633  0.1878  0.7845 -0.3245
 1904SOL    HW217349   3.008   1.462  17.602  0.7299 -0.0012 -1.4380
 1905SOL     OW17350   1.573   2.846   2.650 -0.0781 -0.0114 -0.5240
 1905SOL    HW117351   1.623   2.888   2.720 -0.0078 -0.2260 -0.4445
 1905SOL    HW217352   1.595   2.889   2.568 -2.5961  0.4871 -0.9526
 1906SOL     OW17353   3.391   3.590  14.517 -0.3655 -0.0972 -0.1110
 1906SOL    HW117354   3.340   3.619  14.442 -0.7478  0.3859  0.3274
 1906SOL    HW217355   3.356   3.646  14.587  2.1893 -0.4631  1.4871
 1907SOL     OW17356   1.389   1.990  17.680 -0.1093 -0.0440  0.3482
 1907SOL    HW117357   1.404   2.081  17.707 -2.5606  0.9798 -1.6700
 1907SOL    HW217358   1.299   2.003  17.650  0.0691 -0.5734 -0.4234
 1908SOL     OW17359   3.785   1.101  11.023  0.4033 -0.2843  0.0301
 1908SOL    HW117360   3.725   1.155  11.073  0.0787 -1.2712  0.7214
 1908SOL    HW217361   3.862   1.096  11.080 -0.4521  0.6884  1.2589
 1909SOL     OW17362   1.605   1.116  11.371  0.4663 -0.2162  0.7013
 1909SOL    HW117363   1.608   1.201  11.415 -0.6439  0.4275 -0.4658
 1909SOL    HW217364   1.674   1.067  11.417  1.7150  0.5184 -0.4067
 1910SOL     OW17365   3.445   1.803   8.198  0.5063 -0.1779 -0.6473
 1910SOL    HW117366   3.439   1.876   8.136 -0.6775  0.6889  0.4704
 1910SOL    HW217367   3.399   1.846   8.271  1.1973 -3.1713  1.5435
 1911SOL     OW17368   4.325   1.492   6.971 -0.3638  0.1036  0.1672
 1911SOL    HW117369   4.293   1.554   6.905  3.0369  1.5728 -0.1129
 1911SOL    HW217370   4.391   1.448   6.917 -0.5594  2.0869 -1.7014
 1912SOL     OW17371   4.724   1.367   2.671 -0.4405 -0.8724  0.1069
 1912SOL    HW117372   4.645   1.355   2.724  0.2516  1.0241  1.5868
 1912SOL    HW217373   0.046   1.323   2.733  0.9779 -0.6678 -1.0842
 1913SOL     OW17374   4.580   1.214   0.604 -0.3426 -0.2861  0.0204
 1913SOL    HW117375   4.650   1.173   0.554  1.6859  1.8878  1.0480
 1913SOL    HW217376   4.574   1.298   0.558  1.9504 -0.3180 -0.3400
 1914SOL     OW17377   1.384   0.936   5.789  0.3051 -0.3424  0.0163
 1914SOL    HW117378   1.453   0.871   5.775  0.0165 -0.5691 -0.3393
 1914SOL    HW217379   1.318   0.873   5.817 -1.5224  0.8283 -1.6969
 1915SOL     OW17380   0.830   2.740   8.906 -0.1019 -0.0807  0.1264
 1915SOL    HW117381   0.815   2.714   8.815 -0.1421 -0.9781  0.3908
 1915SOL    HW217382   0.809   2.832   8.892  1.6833  0.4544  0.9292
 1916SOL     OW17383   0.428   0.682   6.880 -0.0885  0.5315  0.0866
 1916SOL    HW117384   0.484   0.627   6.826  2.3498 -0.4307  3.5987
 1916SOL    HW217385   0.466   0.770   6.877  0.0844  0.3684 -1.9858
 1917SOL     OW17386   2.593   4.216  14.273  0.8642 -0.3062  0.5194
 1917SOL    HW117387   2.555   4.287  14.222  1.3468 -2.3449 -2.6989
 1917SOL    HW217388   2.551   4.142  14.229  0.0854  0.1270  0.5339
 1918SOL     OW17389   4.245   0.662   5.765 -0.6589 -0.0260 -0.3103
 1918SOL    HW117390   4.324   0.634   5.811 -0.8489 -1.2625 -0.7145
 1918SOL    HW217391   4.274   0.675   5.675  0.1958 -1.8502 -0.3159
 1919SOL     OW17392   0.862   1.972   2.108  0.1197  0.7963  0.6453
 1919SOL    HW117393   0.815   2.043   2.151 -1.8434 -0.3964  0.4530
 1919SOL    HW217394   0.939   2.014   2.068 -0.0309  0.2089 -0.2611
 1920SOL     OW17395   0.320   3.519   5.635 -0.0858  0.4123  0.5446
 1920SOL    HW117396   0.228   3.492   5.635  0.0619 -0.1038 -1.4738
 1920SOL    HW217397   0.317   3.586   5.703 -0.5282  0.4480  0.4896
 1921SOL     OW17398   1.222   0.299   7.091 -0.3361 -0.1853  0.0883
 1921SOL    HW117399   1.135   0.318   7.127 -0.2718  1.2971 -0.5340
 1921SOL    HW217400   1.249   0.390   7.078  1.1781 -0.3581  1.9944
 1922SOL     OW17401   4.674   0.580   1.523 -0.3133 -0.2152  0.0381
 1922SOL    HW117402   4.729   0.503   1.509  0.3834  0.5605 -1.5493
 1922SOL    HW217403   4.734   0.649   1.550 -0.7444  1.0150 -2.1166
 1923SOL     OW17404   3.387   0.679   3.094 -0.5183 -0.2547  0.1323
 1923SOL    HW117405   3.444   0.605   3.112 -1.0375 -0.3989  1.1994
 1923SOL    HW217406   3.327   0.695   3.168  2.2539 -0.4598  2.4257
 1924SOL     OW17407   1.273   3.150   5.531 -0.3555  0.2630  0.0305
 1924SOL    HW117408   1.251   3.058   5.544 -1.7480  0.6500  0.3453
 1924SOL    HW217409   1.302   3.183   5.617 -2.0083  2.3058 -0.1997
 1925SOL     OW17410   3.355   3.396   3.799 -0.1078 -0.1935  0.0203
 1925SOL    HW117411   3.420   3.457   3.765 -1.7198  1.8004  0.4585
 1925SOL    HW217412   3.296   3.459   3.841 -1.8241  0.0857 -2.8351
 1926SOL     OW17413   2.367   1.635  12.772  0.6107 -0.4052 -0.0620
 1926SOL    HW117414   2.405   1.548  12.783  1.1396  0.0179  1.4329
 1926SOL    HW217415   2.389   1.684  12.851  0.4814 -2.2543  1.1207
 1927SOL     OW17416   3.084   2.388   4.046  0.2242 -0.3941  0.1596
 1927SOL    HW117417   3.053   2.372   3.957 -0.8218  0.9948  0.2725
 1927SOL    HW217418   3.147   2.317   4.056  0.7331 -0.0663 -0.7016
 1928SOL     OW17419   0.475   4.283   2.024  0.0614  0.2318 -0.1160
 1928SOL    HW117420   0.428   4.217   2.076  0.8629  0.7457  1.2826
 1928SOL    HW217421   0.565   4.253   2.040 -0.5178 -0.9992  0.9063
 1929SOL     OW17422   2.751   3.533   9.210  0.3659  0.2100  0.2748
 1929SOL    HW117423   2.804   3.473   9.157 -0.8358  0.3639 -1.0770
 1929SOL    HW217424   2.752   3.479   9.290 -0.1488 -1.6423 -0.9724
 1930SOL     OW17425   3.235   4.678  15.051  0.4760  0.5992 -0.2554
 1930SOL    HW117426   3.179   4.692  14.975  0.4549  0.7827 -0.2062
 1930SOL    HW217427   3.316   4.646  15.012  0.3154 -1.0040  0.7114
 1931SOL     OW17428   0.039   0.849   5.014  0.8337  0.0907  0.0123
 1931SOL    HW117429   4.716   0.907   5.061 -0.3107 -1.7443  0.8198
 1931SOL    HW217430   4.712   0.780   4.999  0.8496  0.0300  0.2174
 1932SOL     OW17431   2.636   2.297   5.969 -0.1238  0.4526  0.0551
 1932SOL    HW117432   2.593   2.250   6.041  0.7184  1.2922  1.1027
 1932SOL    HW217433   2.675   2.367   6.021  1.0295 -0.3619  0.2974
 1933SOL     OW17434   4.538   0.482   8.811 -0.0198 -0.5408 -0.3730
 1933SOL    HW117435   4.602   0.552   8.824  0.4282 -0.9108 -0.5768
 1933SOL    HW217436   4.497   0.494   8.897 -0.2325 -0.2997 -0.5073
 1934SOL     OW17437   4.147   0.321   7.793  0.1999  0.7481 -0.4165
 1934SOL    HW117438   4.234   0.324   7.832 -0.0391  2.8459 -0.0303
 1934SOL    HW217439   4.141   0.409   7.756 -0.5366  0.4003 -1.1278
 1935SOL     OW17440   3.501   4.177   5.544 -0.0453 -0.1703  0.2931
 1935SOL    HW117441   3.435   4.245   5.528  1.5131  1.4395  0.6682
 1935SOL    HW217442   3.444   4.114   5.588  0.0467  0.1743  0.9034
 1936SOL     OW17443   4.403   3.714   8.249 -0.5091  0.2659  1.0386
 1936SOL    HW117444   4.323   3.694   8.201  0.2653 -2.1980  0.7459
 1936SOL    HW217445   4.469   3.656   8.211 -0.0365  0.6347  1.2900
 1937SOL     OW17446   2.997   3.089   2.483  0.0981 -0.0579  0.2606
 1937SOL    HW117447   2.999   3.072   2.389  3.3978  0.8055  0.1571
 1937SOL    HW217448   3.087   3.062   2.503  0.0910 -0.1454  0.1733
 1938SOL     OW17449   2.130   3.199  12.751 -0.0708 -0.5075  0.3668
 1938SOL    HW117450   2.210   3.152  12.772 -0.2791 -1.0731 -0.1064
 1938SOL    HW217451   2.097   3.213  12.840 -0.4458  0.2105  0.1205
 1939SOL     OW17452   1.758   3.627   1.047  0.5054 -0.2013 -0.0046
 1939SOL    HW117453   1.826   3.687   1.077 -1.0647  1.5313  0.0856
 1939SOL    HW217454   1.778   3.627   0.953 -2.2462  2.5492 -0.5895
 1940SOL     OW17455   1.342   0.246   2.808  0.3877  0.7889 -0.0432
 1940SOL    HW117456   1.332   0.263   2.901  0.5237  0.0440  0.1108
 1940SOL    HW217457   1.354   0.151   2.812  0.0937  0.8734  2.5450
 1941SOL     OW17458   1.009   1.829   4.183 -0.0307  0.0557 -0.0205
 1941SOL    HW117459   1.097   1.846   4.216 -0.7880  0.8180  1.6236
 1941SOL    HW217460   1.005   1.870   4.097  1.3237  1.6044  0.6653
 1942SOL     OW17461   1.264   3.210  13.360  0.1006 -0.1372  0.6331
 1942SOL    HW117462   1.282   3.303  13.369  0.7627  0.0523 -2.7086
 1942SOL    HW217463   1.263   3.187  13.453  1.2032  1.8080  1.1170
 1943SOL     OW17464   0.419   2.555   5.427  0.7870  0.1750  0.0867
 1943SOL    HW117465   0.482   2.506   5.374  0.9640 -2.7667  3.0081
 1943SOL    HW217466   0.468   2.630   5.461  0.0332  0.6515  0.1074
 1944SOL     OW17467   3.733   4.590  15.681  0.1543 -0.2362 -0.1175
 1944SOL    HW117468   3.815   4.637  15.665  0.1698 -0.3656 -0.4138
 1944SOL    HW217469   3.673   4.638  15.623  1.1472 -1.1137 -1.8877
 1945SOL     OW17470   2.988   1.112   2.037 -0.2647  0.3873 -0.0872
 1945SOL    HW117471   2.952   1.033   2.077  0.6376  0.3547  0.6459
 1945SOL    HW217472   3.054   1.156   2.091 -0.6045  1.5341 -0.5992
 1946SOL     OW17473   0.446   4.122   6.288 -0.4027  0.4426 -0.7587
 1946SOL    HW117474   0.417   4.210   6.314 -1.0754 -0.2015  0.6809
 1946SOL    HW217475   0.536   4.112   6.319 -0.2508 -0.0962 -1.3845
 1947SOL     OW17476   2.682   3.747   4.983 -0.3018 -0.2028 -0.3594
 1947SOL    HW117477   2.645   3.768   5.069  2.1644 -1.8178  1.0908
 1947SOL    HW217478   2.752   3.690   5.014 -0.3455  1.2404  2.3821
 1948SOL     OW17479   2.591   1.667   6.160 -0.0995 -0.2425  0.8303
 1948SOL    HW117480   2.678   1.651   6.197 -0.4890  0.8304  2.2286
 1948SOL    HW217481   2.580   1.762   6.156  0.5720 -0.2304 -0.3559
 1949SOL     OW17482   4.346   0.770  10.429 -0.1175 -0.5531 -0.0619
 1949SOL    HW117483   4.386   0.856  10.436 -2.4446  0.6485 -1.6271
 1949SOL    HW217484   4.345   0.738  10.519 -0.2221 -0.5722 -0.0705
 1950SOL     OW17485   0.184   0.097  14.190  0.5433 -0.2618 -0.0256
 1950SOL    HW117486   0.236   0.111  14.111 -0.7431  0.3793 -0.7589
 1950SOL    HW217487   0.114   0.160  14.171 -0.2637 -1.2261 -0.2527
 1951SOL     OW17488   4.386   1.476   8.603  0.2601 -0.1198 -0.5627
 1951SOL    HW117489   4.312   1.415   8.605  0.6803 -0.5741  1.8059
 1951SOL    HW217490   4.458   1.425   8.640  0.0883  0.8540  1.1481
 1952SOL     OW17491   3.081   1.540   8.209 -0.0257 -0.2241  0.0412
 1952SOL    HW117492   3.122   1.504   8.131 -1.9212  0.7723 -1.4142
 1952SOL    HW217493   3.041   1.623   8.185  0.2841  0.4548  1.8431
 1953SOL     OW17494   3.167   2.392   5.161 -0.6160  0.2390  0.1327
 1953SOL    HW117495   3.128   2.310   5.191  0.0862 -0.1163  0.0788
 1953SOL    HW217496   3.256   2.368   5.133 -2.1655 -1.4666 -3.3407
 1954SOL     OW17497   0.622   3.767   5.664 -0.3562 -0.0172 -0.5180
 1954SOL    HW117498   0.590   3.835   5.606 -0.3478  1.0983  0.7735
 1954SOL    HW217499   0.716   3.776   5.652 -0.2324  0.3371  0.6861
 1955SOL     OW17500   1.495   0.722   9.380 -0.1504 -0.1413  0.1538
 1955SOL    HW117501   1.446   0.678   9.311  0.5396  2.4703 -1.9734
 1955SOL    HW217502   1.496   0.655   9.449 -0.6625 -1.5379 -1.1964
 1956SOL     OW17503   3.223   3.044   4.754 -0.8005 -0.6122 -0.4892
 1956SOL    HW117504   3.217   2.982   4.827 -0.6488 -0.8996 -0.7195
 1956SOL    HW217505   3.152   3.107   4.769  1.0776  2.2654 -3.7508
 1957SOL     OW17506   1.729   0.156   0.015  0.8160 -0.2623  0.0414
 1957SOL    HW117507   1.750   0.093  17.693  1.0992 -0.1767  0.0519
 1957SOL    HW217508   1.785   0.230  17.739  0.1136 -0.1138 -1.2578
 1958SOL     OW17509   1.113   0.898  17.365 -0.0865 -0.1611 -0.8895
 1958SOL    HW117510   1.115   0.858  17.452 -0.8254 -0.5337 -1.0451
 1958SOL    HW217511   1.184   0.853  17.319  1.7847  1.9306 -0.0208
 1959SOL     OW17512   2.996   1.836   8.814 -0.0111  0.3480 -0.0325
 1959SOL    HW117513   3.034   1.758   8.855 -0.6701  0.1280  0.1630
 1959SOL    HW217514   2.927   1.811   8.752  0.6172 -1.7238  0.0846
 1960SOL     OW17515   2.036   1.109   4.579  0.1747  0.1564  0.7186
 1960SOL    HW117516   1.962   1.051   4.562  0.4177 -0.4520  1.7500
 1960SOL    HW217517   2.071   1.125   4.491  0.0241 -3.4462 -0.0073
 1961SOL     OW17518   3.204   3.430   0.755 -0.0602  0.0558 -0.3942
 1961SOL    HW117519   3.122   3.384   0.741 -0.1725 -0.5636  2.2497
 1961SOL    HW217520   3.236   3.449   0.666  2.7296 -3.5251 -0.1565
 1962SOL     OW17521   3.097   4.604  16.472  0.0771  0.0675 -0.1593
 1962SOL    HW117522   3.099   4.509  16.482  0.5934  0.1407  0.4293
 1962SOL    HW217523   3.122   4.632  16.561 -1.5039  1.3883 -0.1057
 1963SOL     OW17524   1.353   2.218   2.532  0.5481  0.1206  0.0915
 1963SOL    HW117525   1.358   2.261   2.447 -0.3015 -1.6776 -0.8856
 1963SOL    HW217526   1.277   2.159   2.533 -0.5145  1.4860  0.0163
 1964SOL     OW17527   0.133   3.808   4.861  0.3716  0.6801  0.7453
 1964SOL    HW117528   0.175   3.851   4.787  2.9676 -0.4274  1.5882
 1964SOL    HW217529   0.042   3.797   4.835  0.2071  1.8027  0.8637
 1965SOL     OW17530   0.253   2.330  17.326 -0.0736 -0.1916  0.2260
 1965SOL    HW117531   0.266   2.299  17.415 -1.2860 -1.3164  0.0109
 1965SOL    HW217532   0.248   2.249  17.275  3.2503  0.7904 -1.6660
 1966SOL     OW17533   2.022   3.991   8.624  0.4703  0.1385 -0.7831
 1966SOL    HW117534   2.036   4.000   8.718 -0.8727 -1.2364 -0.4522
 1966SOL    HW217535   2.057   3.903   8.606  0.3964  0.0767 -0.6183
 1967SOL     OW17536   3.488   1.063   3.371  0.0739  0.1053  0.7281
 1967SOL    HW117537   3.434   1.034   3.297 -0.2997 -1.0274  1.4452
 1967SOL    HW217538   3.505   1.145   3.323  0.7144 -0.7479 -0.4974
 1968SOL     OW17539   3.257   3.384   3.423 -0.2007  0.5181 -0.3345
 1968SOL    HW117540   3.350   3.406   3.433 -0.4677  1.1895  0.7050
 1968SOL    HW217541   3.225   3.383   3.513 -2.6379  1.0046 -1.2040
 1969SOL     OW17542   1.735   0.791  17.675 -0.6516 -0.3878  0.3316
 1969SOL    HW117543   1.720   0.727  17.744  2.2097 -0.4235  0.9078
 1969SOL    HW217544   1.766   0.727  17.611  0.5945  0.1020  0.4398
 1970SOL     OW17545   2.392   2.756   2.623  0.2063  0.0531  0.0943
 1970SOL    HW117546   2.383   2.698   2.547  0.2923  1.7429 -1.2063
 1970SOL    HW217547   2.468   2.807   2.595  0.9814 -1.2563 -0.2350
 1971SOL     OW17548   2.131   0.294  17.171 -0.3662  0.0081  0.0889
 1971SOL    HW117549   2.049   0.314  17.217  0.0591 -0.8072  1.2099
 1971SOL    HW217550   2.100   0.266  17.085  1.5013 -1.2517 -0.1691
 1972SOL     OW17551   0.690   3.902   9.828 -0.0017 -0.0804  0.1614
 1972SOL    HW117552   0.671   3.976   9.770  0.4482 -0.6293 -0.6788
 1972SOL    HW217553   0.613   3.846   9.840 -1.6208  1.4791 -2.9493
 1973SOL     OW17554   3.503   0.415  11.713 -0.1330  0.2378  0.2256
 1973SOL    HW117555   3.442   0.351  11.676  1.3422 -0.0500 -1.6946
 1973SOL    HW217556   3.561   0.420  11.637 -0.0942 -3.4948  0.0178
 1974SOL     OW17557   3.598   2.643   0.936  0.2153 -0.3082  0.1313
 1974SOL    HW117558   3.544   2.649   0.857 -0.0862  0.4401  0.3936
 1974SOL    HW217559   3.679   2.598   0.913  1.1458  0.7673  1.3157
 1975SOL     OW17560   1.685   0.675   1.956 -0.2380 -0.0816  0.6467
 1975SOL    HW117561   1.593   0.672   1.931  0.2546  0.4960 -1.2121
 1975SOL    HW217562   1.738   0.663   1.877 -0.9620 -0.8266  0.2703
 1976SOL     OW17563   3.762   4.137   7.846 -0.3107 -0.0852 -0.0139
 1976SOL    HW117564   3.699   4.079   7.804 -0.1503 -0.3674  0.1370
 1976SOL    HW217565   3.733   4.218   7.805 -0.5920 -0.9263 -1.4607
 1977SOL     OW17566   0.483   4.442   7.763  0.5847  0.8368 -0.1309
 1977SOL    HW117567   0.443   4.421   7.848  1.1981 -0.2420 -0.1099
 1977SOL    HW217568   0.511   4.355   7.736  2.2479  0.7253  1.9168
 1978SOL     OW17569   0.875   3.905  13.147 -0.0440  0.4064 -0.0401
 1978SOL    HW117570   0.913   3.962  13.213  0.8800  3.9633 -3.6020
 1978SOL    HW217571   0.845   3.831  13.199  1.6418 -0.0201  0.3403
 1979SOL     OW17572   1.549   4.445  15.178 -0.0648 -0.3204 -0.2569
 1979SOL    HW117573   1.467   4.410  15.214  1.1521 -0.3828  2.4662
 1979SOL    HW217574   1.608   4.370  15.176  0.0311 -0.2857  1.1069
 1980SOL     OW17575   0.261   1.422   6.585 -0.4097  0.3643  0.1418
 1980SOL    HW117576   0.199   1.441   6.655 -0.6641  3.0944 -0.8267
 1980SOL    HW217577   0.336   1.476   6.611 -1.3868  1.4955  0.6345
 1981SOL     OW17578   1.526   3.988  11.972 -0.0318 -0.0824 -0.2461
 1981SOL    HW117579   1.498   4.023  12.056  1.6196 -0.4148  0.4305
 1981SOL    HW217580   1.611   3.950  11.995  0.6800  2.1993  0.8951
 1982SOL     OW17581   1.577   0.405   4.762 -0.4901 -0.0497  0.8795
 1982SOL    HW117582   1.575   0.478   4.824 -3.2973  0.6166  0.0236
 1982SOL    HW217583   1.487   0.373   4.770 -0.7379  0.4419  0.0518
 1983SOL     OW17584   4.479   0.614  15.986 -0.5987 -0.4801  0.0849
 1983SOL    HW117585   4.416   0.613  16.058  1.0587 -0.7365  1.5230
 1983SOL    HW217586   4.556   0.662  16.015 -0.5266 -1.4683  1.5159
 1984SOL     OW17587   1.211   4.206  16.611 -0.0695 -0.6443 -0.2262
 1984SOL    HW117588   1.226   4.112  16.602 -1.1918 -0.5086 -3.5919
 1984SOL    HW217589   1.125   4.216  16.570  0.0904 -1.9973 -0.8848
 1985SOL     OW17590   1.774   1.693   7.872 -0.1816  0.2997 -0.3678
 1985SOL    HW117591   1.769   1.616   7.816 -1.2388  0.7698 -0.9105
 1985SOL    HW217592   1.724   1.760   7.825  1.2312  1.1907 -0.5947
 1986SOL     OW17593   2.783   0.761  10.697 -0.0961 -0.1779 -0.0589
 1986SOL    HW117594   2.872   0.783  10.669 -0.6061 -0.8229 -2.2100
 1986SOL    HW217595   2.736   0.777  10.615 -1.6491 -1.3903  0.6121
 1987SOL     OW17596   1.595   4.099   6.751  0.0380  0.3033  0.2472
 1987SOL    HW117597   1.651   4.092   6.674  3.6601  0.1541  2.9124
 1987SOL    HW217598   1.645   4.146   6.818 -1.4766 -1.7990  2.8868
 1988SOL     OW17599   0.443   1.010   3.785  0.3489 -0.5618 -0.2248
 1988SOL    HW117600   0.402   0.963   3.858  1.5881 -2.4530 -0.7436
 1988SOL    HW217601   0.517   1.048   3.833  0.7487  1.5042 -2.4640
 1989SOL     OW17602   0.295   3.414   8.248  0.6149  0.5047 -0.1466
 1989SOL    HW117603   0.203   3.440   8.243  0.0343 -0.9366  3.5778
 1989SOL    HW217604   0.302   3.338   8.190  0.6030  1.8294 -1.9146
 1990SOL     OW17605   1.908   4.369   8.886  0.2008  0.9102  0.1824
 1990SOL    HW117606   1.869   4.353   8.972  0.6232  1.3260  0.4525
 1990SOL    HW217607   1.995   4.329   8.892 -0.0933  0.3575  0.8020
 1991SOL     OW17608   1.738   3.635  17.729 -0.9267 -0.0495 -0.3590
 1991SOL    HW117609   1.753   3.628   0.076 -0.2041 -0.2942 -0.4975
 1991SOL    HW217610   1.750   3.543  17.703  0.2944  0.3030 -1.0380
 1992SOL     OW17611   3.268   2.409   6.939 -0.5834 -0.2680 -0.4336
 1992SOL    HW117612   3.292   2.476   7.004  1.0363  1.0056 -2.3628
 1992SOL    HW217613   3.198   2.457   6.896 -0.9742 -1.1308 -0.7430
 1993SOL     OW17614   0.509   2.010   4.331  0.5028 -0.1219 -0.1997
 1993SOL    HW117615   0.461   1.977   4.255 -0.3568  0.8261 -0.0700
 1993SOL    HW217616   0.583   2.047   4.284  0.1055  0.7759 -0.1038
 1994SOL     OW17617   3.913   3.583   1.922  0.5869 -0.0520 -0.0778
 1994SOL    HW117618   3.863   3.501   1.932  2.8705 -1.5022 -0.5139
 1994SOL    HW217619   4.005   3.555   1.922  0.9467  1.1454 -1.9170
 1995SOL     OW17620   2.505   3.898   3.999 -0.9016  0.4441 -0.1972
 1995SOL    HW117621   2.467   3.919   3.914  0.3430  2.3924 -0.2953
 1995SOL    HW217622   2.548   3.819   3.968 -1.6778 -0.6827  1.6240
 1996SOL     OW17623   0.892   2.161   1.133 -0.2139  0.3396  0.0515
 1996SOL    HW117624   0.895   2.091   1.198 -0.4006 -1.2231 -1.6281
 1996SOL    HW217625   0.804   2.195   1.148 -0.5850  0.6330 -2.7240
 1997SOL     OW17626   2.858   1.286   1.392  0.1579 -0.0878  0.2019
 1997SOL    HW117627   2.818   1.354   1.338  0.5300  0.0635  0.1118
 1997SOL    HW217628   2.888   1.315   1.478  1.6857  1.1896 -0.7302
 1998SOL     OW17629   1.666   2.833   4.597  0.4935  0.0683 -0.3465
 1998SOL    HW117630   1.695   2.924   4.583 -1.2077 -0.0145 -4.3722
 1998SOL    HW217631   1.595   2.827   4.533  1.7299  0.9216 -1.7954
 1999SOL     OW17632   2.069   0.692   7.242 -0.6730  0.0641 -0.1746
 1999SOL    HW117633   2.058   0.706   7.336  1.3866 -0.5670  0.1634
 1999SOL    HW217634   2.058   0.785   7.220  0.4671  0.0109 -0.9851
 2000SOL     OW17635   3.347   3.116   5.549 -0.2169 -0.7777  0.2031
 2000SOL    HW117636   3.380   3.104   5.460 -1.6000 -0.1687 -0.3900
 2000SOL    HW217637   3.254   3.131   5.535  0.0594  0.6571 -0.0575
 2001SOL     OW17638   2.886   4.625   5.992  0.0589 -0.2693  0.0588
 2001SOL    HW117639   2.831   4.688   6.038 -0.4757  0.1632 -1.1719
 2001SOL    HW217640   2.860   4.624   5.900 -2.5273 -0.6177  0.8132
 2002SOL     OW17641   2.665   1.024  16.437  0.3627 -0.9595  0.1573
 2002SOL    HW117642   2.744   0.984  16.473  0.8180 -1.0872 -0.9826
 2002SOL    HW217643   2.690   1.116  16.443  1.2559 -1.2141  0.3171
 2003SOL     OW17644   2.425   0.899   7.112 -0.0125 -0.2933  0.6544
 2003SOL    HW117645   2.353   0.930   7.167  0.1198 -0.2284  0.7913
 2003SOL    HW217646   2.371   0.849   7.050  3.6645 -1.6449 -1.4030
 2004SOL     OW17647   2.208   4.336  15.065  0.4365 -0.4320  0.4134
 2004SOL    HW117648   2.228   4.410  15.009  0.4277 -0.2433  0.6564
 2004SOL    HW217649   2.114   4.335  15.048  0.8336 -2.0277 -1.6370
 2005SOL     OW17650   3.196   1.489   4.053 -0.5057 -0.8828 -0.0569
 2005SOL    HW117651   3.230   1.565   4.099 -1.7265  0.2480 -1.0182
 2005SOL    HW217652   3.105   1.511   4.073 -0.6465 -2.2851  0.8492
 2006SOL     OW17653   2.287   0.419   3.876 -0.1204 -0.2524  0.4957
 2006SOL    HW117654   2.364   0.408   3.820 -0.7420  2.4290 -0.8777
 2006SOL    HW217655   2.302   0.345   3.934  0.8165 -1.5445 -1.3982
 2007SOL     OW17656   2.607   2.317   2.185 -1.1789  0.4604  0.2413
 2007SOL    HW117657   2.531   2.279   2.229 -0.7308  0.7922  1.2845
 2007SOL    HW217658   2.635   2.236   2.142 -0.4491 -0.2131  2.0029
 2008SOL     OW17659   0.884   1.212  15.067  0.0678  0.0359 -0.3829
 2008SOL    HW117660   0.896   1.131  15.017 -1.6841 -0.5191  0.0883
 2008SOL    HW217661   0.963   1.207  15.121  0.9635  2.7107 -1.4451
 2009SOL     OW17662   3.733   3.829   6.480  0.1529 -0.3427  0.1276
 2009SOL    HW117663   3.709   3.907   6.530  1.6107  2.4504 -3.5260
 2009SOL    HW217664   3.662   3.825   6.416 -2.2640  0.1308  2.7441
 2010SOL     OW17665   1.594   2.161  16.333  0.5315  1.0699 -0.1585
 2010SOL    HW117666   1.680   2.120  16.334  0.8645  1.8146  1.6219
 2010SOL    HW217667   1.557   2.139  16.418  1.3948  0.3347  0.0239
 2011SOL     OW17668   1.624   4.027  10.627 -0.0894 -0.2900  0.3867
 2011SOL    HW117669   1.651   4.013  10.718  1.3407 -0.7411 -0.1231
 2011SOL    HW217670   1.562   4.097  10.644 -0.8729 -0.5038 -1.5727
 2012SOL     OW17671   2.114   4.603   2.648 -0.1533 -0.3276  0.0287
 2012SOL    HW117672   2.198   4.559   2.633 -1.0539 -2.0542  0.1505
 2012SOL    HW217673   2.143   4.666   2.714  1.2159 -1.1910  0.2671
 2013SOL     OW17674   3.646   2.168  12.924 -0.2792 -0.4253 -0.0726
 2013SOL    HW117675   3.551   2.170  12.915 -0.0233  0.7627 -2.4681
 2013SOL    HW217676   3.652   2.186  13.018 -3.1059  0.6280 -0.1073
 2014SOL     OW17677   1.965   1.882   5.843 -0.2903 -0.0645  0.3080
 2014SOL    HW117678   2.059   1.862   5.848  0.2622  3.1529  2.4775
 2014SOL    HW217679   1.936   1.841   5.924  0.4507  1.7816  1.4860
 2015SOL     OW17680   1.928   1.880   9.439 -0.1374 -0.1825 -0.4059
 2015SOL    HW117681   1.964   1.955   9.487  0.2687 -0.5831 -0.0891
 2015SOL    HW217682   1.844   1.919   9.414 -0.0751 -0.5692 -1.2121
 2016SOL     OW17683   3.015   2.973   6.009  0.5494  0.0501  0.1247
 2016SOL    HW117684   2.937   2.923   6.034  1.3189 -0.9266  0.5521
 2016SOL    HW217685   3.040   2.915   5.937 -0.8071 -1.7104  1.0696
 2017SOL     OW17686   3.239   2.178  17.338 -0.4610 -1.1941 -0.5653
 2017SOL    HW117687   3.325   2.171  17.380 -0.7264 -2.0906 -0.1685
 2017SOL    HW217688   3.263   2.203  17.249  0.1337  0.9416  0.2084
 2018SOL     OW17689   1.256   3.402   2.832  0.3412  0.0040 -0.9299
 2018SOL    HW117690   1.224   3.491   2.851  0.2180 -0.4378  0.9680
 2018SOL    HW217691   1.251   3.397   2.737  1.3885  0.2579 -1.0014
 2019SOL     OW17692   4.151   3.604   5.314  0.6056 -0.2639 -0.7420
 2019SOL    HW117693   4.108   3.672   5.263  0.8140 -0.4215 -1.1274
 2019SOL    HW217694   4.101   3.610   5.395 -1.6497 -4.7896 -1.7883
 2020SOL     OW17695   3.737   0.271   5.463 -0.6333 -0.1258 -0.0183
 2020SOL    HW117696   3.823   0.273   5.505 -0.9351 -0.6849  0.6288
 2020SOL    HW217697   3.704   0.356   5.493  0.0146  0.1664 -0.1236
 2021SOL     OW17698   1.611   3.665  13.774  0.2078  0.0184 -0.6407
 2021SOL    HW117699   1.617   3.596  13.840  1.2390  1.1603  0.4470
 2021SOL    HW217700   1.553   3.727  13.817 -0.3396 -0.1385 -1.1581
 2022SOL     OW17701   1.543   2.103   3.401 -0.2510 -0.4768 -0.2253
 2022SOL    HW117702   1.589   2.075   3.322 -0.4237 -1.0280 -0.1261
 2022SOL    HW217703   1.454   2.083   3.374  0.1094  0.8070 -2.3881
 2023SOL     OW17704   2.607   0.956   1.985 -0.0764  0.1678 -0.1319
 2023SOL    HW117705   2.571   0.868   1.977  0.9892 -0.4078  1.4014
 2023SOL    HW217706   2.650   0.961   2.070  2.1366 -0.6718 -1.2141
 2024SOL     OW17707   0.567   2.012   5.424  0.3965  0.3950  0.6066
 2024SOL    HW117708   0.535   1.940   5.478  0.2514  0.1589  0.2038
 2024SOL    HW217709   0.487   2.064   5.412  0.7716  0.8236  0.0114
 2025SOL     OW17710   4.339   3.482   8.681 -0.5345 -0.2346  0.5981
 2025SOL    HW117711   4.297   3.436   8.609  0.2757 -1.4896  0.9210
 2025SOL    HW217712   4.409   3.421   8.704  0.1060  0.1369 -0.3701
 2026SOL     OW17713   2.569   0.683   7.332 -0.4879 -0.7854  0.1325
 2026SOL    HW117714   2.512   0.726   7.268  0.6468  0.5861  0.0253
 2026SOL    HW217715   2.653   0.721   7.306 -0.0390 -2.5210 -0.9788
 2027SOL     OW17716   0.134   3.247   8.798 -0.3100  0.6583  0.3279
 2027SOL    HW117717   0.166   3.239   8.708  0.3023  0.1354  0.5962
 2027SOL    HW217718   0.215   3.242   8.848  0.2433  1.6364 -0.4609
 2028SOL     OW17719   3.576   3.001   7.424  0.1884 -0.4211  0.3190
 2028SOL    HW117720   3.624   3.006   7.342  1.2587 -0.4799  0.9496
 2028SOL    HW217721   3.499   2.966   7.380  0.0686 -0.6467  0.7044
 2029SOL     OW17722   4.728   4.545  11.299  0.1411 -0.8004  0.0204
 2029SOL    HW117723   0.052   4.547  11.226 -1.5644 -2.2302 -1.4518
 2029SOL    HW217724   4.642   4.537  11.256 -0.1072  0.0179  0.3646
 2030SOL     OW17725   4.501   3.316  17.109  0.4385  0.3467  0.2660
 2030SOL    HW117726   4.518   3.407  17.133 -1.2755  0.9017 -0.6023
 2030SOL    HW217727   4.546   3.272  17.181 -2.3255 -1.0028  1.1679
 2031SOL     OW17728   1.981   1.015   0.966  0.0711 -1.2641 -0.0956
 2031SOL    HW117729   2.002   1.108   0.979  1.4242 -1.3976 -1.4125
 2031SOL    HW217730   2.064   0.968   0.964  0.6287 -0.3913  1.9306
 2032SOL     OW17731   0.442   2.888  15.399  0.0058  0.4274  0.2609
 2032SOL    HW117732   0.393   2.943  15.461 -1.7382  0.5384 -1.2106
 2032SOL    HW217733   0.368   2.829  15.384  0.6260  0.3172 -2.3824
 2033SOL     OW17734   0.146   4.339  16.420  0.3906  0.4588  0.4591
 2033SOL    HW117735   0.176   4.315  16.508 -2.0284 -0.5771  0.9985
 2033SOL    HW217736   0.130   4.252  16.385  0.4653  1.9688 -3.3568
 2034SOL     OW17737   0.211   2.768  13.062  0.2056 -0.2931  0.3882
 2034SOL    HW117738   0.209   2.787  13.156 -1.5541 -0.7223  0.4241
 2034SOL    HW217739   0.306   2.775  13.049 -0.0564  1.0962 -0.6561
 2035SOL     OW17740   1.302   0.193   2.248 -0.0259  0.1649 -0.5138
 2035SOL    HW117741   1.233   0.132   2.274 -1.1598  1.3095 -0.8320
 2035SOL    HW217742   1.305   0.258   2.318 -3.3199  1.1082 -1.2023
 2036SOL     OW17743   4.411   3.650   1.864  0.1068  0.3720 -0.7082
 2036SOL    HW117744   4.453   3.641   1.779 -0.1806 -1.7497 -0.6272
 2036SOL    HW217745   4.393   3.744   1.861  1.1782  0.5730 -0.9219
 2037SOL     OW17746   0.582   0.823  15.132 -0.1037  0.0002  0.2817
 2037SOL    HW117747   0.652   0.848  15.072 -0.1265 -3.3334 -1.1625
 2037SOL    HW217748   0.545   0.740  15.099 -0.7345  0.5515 -0.3911
 2038SOL     OW17749   2.770   3.436  13.606  0.2681 -0.0798  0.5275
 2038SOL    HW117750   2.687   3.439  13.655 -0.2927 -0.4036 -0.3999
 2038SOL    HW217751   2.782   3.342  13.614 -0.0865 -0.3302 -1.7784
 2039SOL     OW17752   3.145   0.752   0.703 -0.6703  0.3480  0.2031
 2039SOL    HW117753   3.174   0.696   0.631 -0.1677  0.8367  0.0300
 2039SOL    HW217754   3.173   0.835   0.664  2.4306 -1.3542 -1.1673
 2040SOL     OW17755   2.856   3.146  10.543 -0.0033 -0.5593 -0.3306
 2040SOL    HW117756   2.883   3.187  10.625  1.0879  1.2223 -1.5582
 2040SOL    HW217757   2.897   3.060  10.544  0.6754 -0.3113 -4.1604
 2041SOL     OW17758   2.535   2.550   2.060  0.5767  0.4430 -0.2091
 2041SOL    HW117759   2.527   2.460   2.092  4.3687  0.7619  1.6364
 2041SOL    HW217760   2.446   2.563   2.026  0.2104 -1.8405 -0.1095
 2042SOL     OW17761   0.113   2.927   1.612 -0.2802  0.6235  0.2700
 2042SOL    HW117762   0.168   2.880   1.550  0.2943 -1.1986  2.1390
 2042SOL    HW217763   0.067   2.978   1.546 -3.5828 -0.3960  1.7793
 2043SOL     OW17764   0.235   4.223   5.166  0.5139 -0.1272 -0.0347
 2043SOL    HW117765   0.181   4.181   5.233  2.1272 -2.1936 -0.0301
 2043SOL    HW217766   0.251   4.143   5.116  0.3787 -2.6824  4.0210
 2044SOL     OW17767   0.155   2.145   1.888 -0.2160 -0.1174 -0.0004
 2044SOL    HW117768   0.204   2.065   1.868  1.6857  1.0899 -0.1894
 2044SOL    HW217769   0.152   2.182   1.800 -0.3990  0.7088  0.3538
 2045SOL     OW17770   0.735   3.139   7.797  0.3704 -0.0109  0.3351
 2045SOL    HW117771   0.725   3.140   7.702 -0.8184 -0.1339  0.4513
 2045SOL    HW217772   0.825   3.171   7.804  0.0041  0.4607  2.8326
 2046SOL     OW17773   2.722   1.639   8.937 -0.0308  0.6232 -0.2773
 2046SOL    HW117774   2.728   1.595   8.852 -1.7515 -1.3482  0.6367
 2046SOL    HW217775   2.768   1.579   8.996 -0.2126  0.4284 -0.3366
 2047SOL     OW17776   3.967   3.987  11.365 -0.3106 -0.5116  0.7000
 2047SOL    HW117777   4.013   3.912  11.328  1.2185  0.4107  0.7365
 2047SOL    HW217778   3.886   3.980  11.314  0.1664 -0.1141 -0.1059
 2048SOL     OW17779   3.922   2.545  15.290 -0.0119  0.0293  0.7012
 2048SOL    HW117780   3.960   2.478  15.348 -0.4962 -1.2945 -0.5208
 2048SOL    HW217781   3.832   2.513  15.282  1.0115 -2.8759  0.8724
 2049SOL     OW17782   4.019   4.469   7.217  0.2163 -0.3111 -0.3164
 2049SOL    HW117783   3.937   4.434   7.252 -1.0360  1.2079 -1.7652
 2049SOL    HW217784   4.049   4.497   7.303 -1.0824 -0.2339  0.1147
 2050SOL     OW17785   0.548   0.835   9.619 -0.0183 -1.0196 -0.0962
 2050SOL    HW117786   0.621   0.773   9.619  0.0764 -0.9067  0.3559
 2050SOL    HW217787   0.550   0.882   9.535  0.0234  0.1040  0.5327
 2051SOL     OW17788   4.574   0.642   3.216 -0.5096 -0.5866  0.3272
 2051SOL    HW117789   4.646   0.589   3.181  0.0734  0.7000 -0.4535
 2051SOL    HW217790   4.577   0.618   3.308  3.4611 -1.0011  0.0914
 2052SOL     OW17791   3.874   0.622   1.098  0.3453  0.3352  0.1974
 2052SOL    HW117792   3.902   0.706   1.134 -0.3480  0.8630 -0.4976
 2052SOL    HW217793   3.806   0.646   1.036  0.2118 -2.9001 -0.9178
 2053SOL     OW17794   3.231   3.389   4.198 -0.1869  0.3711  0.6046
 2053SOL    HW117795   3.297   3.336   4.154 -0.7995  1.2444 -1.3593
 2053SOL    HW217796   3.269   3.397   4.286  0.8102 -0.0223  0.2046
 2054SOL     OW17797   3.579   3.617   7.963 -0.3762 -0.1726 -0.0399
 2054SOL    HW117798   3.661   3.599   7.917  0.0652  0.9791  0.2867
 2054SOL    HW217799   3.521   3.619   7.886  0.2888  1.3658 -0.5212
 2055SOL     OW17800   4.190   0.996   3.337  0.5053  0.3870 -0.0089
 2055SOL    HW117801   4.154   0.908   3.343  3.2709 -0.7493  0.0517
 2055SOL    HW217802   4.180   1.024   3.428  1.9776 -1.6355  0.7839
 2056SOL     OW17803   3.677   0.963   9.126 -0.2228 -0.0837 -0.5973
 2056SOL    HW117804   3.587   0.995   9.139 -0.0138 -0.2851  1.3616
 2056SOL    HW217805   3.668   0.891   9.188  1.7906  0.4453  0.2872
 2057SOL     OW17806   0.979   3.336   2.324 -0.1018  0.0300 -0.2715
 2057SOL    HW117807   0.907   3.281   2.353  0.5818 -1.5803 -1.6439
 2057SOL    HW217808   0.935   3.406   2.275  0.4646 -0.6538 -1.7601
 2058SOL     OW17809   0.494   3.057   6.410  0.6383  0.4854 -0.5259
 2058SOL    HW117810   0.545   3.030   6.486 -0.7712  1.7978  0.8649
 2058SOL    HW217811   0.435   2.984   6.396 -0.1643  1.4646 -2.2470
 2059SOL     OW17812   4.390   2.816  16.783  0.0828  0.3759 -0.3214
 2059SOL    HW117813   4.404   2.751  16.713  1.2941 -0.1787  0.4310
 2059SOL    HW217814   4.407   2.757  16.856 -0.5119 -0.9658 -1.2571
 2060SOL     OW17815   1.217   0.332   8.842  0.5862 -0.0157 -0.1900
 2060SOL    HW117816   1.196   0.283   8.922  1.7746  0.3122  0.3298
 2060SOL    HW217817   1.135   0.342   8.795  0.5313  1.1367  0.1447
 2061SOL     OW17818   3.992   3.264   2.641  0.2387  0.3059  0.1893
 2061SOL    HW117819   3.997   3.331   2.573  0.9487 -0.2733 -0.3361
 2061SOL    HW217820   4.036   3.302   2.717 -0.7934 -1.4619  1.6862
 2062SOL     OW17821   0.873   1.271   6.651  0.1826 -0.0183 -0.3281
 2062SOL    HW117822   0.939   1.334   6.623  2.3561 -1.0453  2.4609
 2062SOL    HW217823   0.809   1.337   6.677  0.1000 -0.9798  1.9221
 2063SOL     OW17824   4.216   1.066  17.280  0.2001 -0.2154  0.1341
 2063SOL    HW117825   4.123   1.074  17.298  0.4144 -0.9590  1.5577
 2063SOL    HW217826   4.220   1.112  17.196 -0.7639 -0.5039 -0.0670
 2064SOL     OW17827   2.246   1.211   8.083  0.6598 -0.0880 -0.1626
 2064SOL    HW117828   2.301   1.223   8.161  0.0588  0.0437  0.2442
 2064SOL    HW217829   2.161   1.234   8.121  0.3870  0.2595 -0.9834
 2065SOL     OW17830   2.518   0.662  10.400 -0.4225  0.5140  0.1793
 2065SOL    HW117831   2.568   0.744  10.400 -3.7606  2.5223 -2.6678
 2065SOL    HW217832   2.463   0.667  10.478  0.6957  2.0654  0.8879
 2066SOL     OW17833   1.550   1.240   1.526  0.2141  0.6168  0.4543
 2066SOL    HW117834   1.557   1.329   1.561 -0.9705  1.2420 -0.9272
 2066SOL    HW217835   1.642   1.222   1.505 -0.1888 -1.7220  0.6543
 2067SOL     OW17836   3.041   4.685  15.544 -0.1634 -0.5573  0.1270
 2067SOL    HW117837   3.122   4.653  15.505  0.7467  1.4808  0.3189
 2067SOL    HW217838   3.082   0.000  15.612 -1.6134 -0.3920  0.8741
 2068SOL     OW17839   1.168   1.303   3.553  0.1696  0.1126  0.3071
 2068SOL    HW117840   1.162   1.340   3.465  1.7854  1.5435  0.7960
 2068SOL    HW217841   1.208   1.216   3.542  1.0865  0.9182 -2.7339
 2069SOL     OW17842   0.350   3.156   4.524  0.2530  0.4148 -0.6151
 2069SOL    HW117843   0.376   3.210   4.599 -2.9528  0.3696  0.5065
 2069SOL    HW217844   0.256   3.174   4.524  0.1394 -0.1840 -0.8869
 2070SOL     OW17845   1.843   4.336   0.195  0.0739 -0.4928 -0.0806
 2070SOL    HW117846   1.849   4.245   0.223  0.9664 -0.4839 -0.2489
 2070SOL    HW217847   1.754   4.326   0.163 -0.5845  1.5874  1.1005
 2071SOL     OW17848   0.586   1.310   5.929 -0.4175  0.3275  0.5816
 2071SOL    HW117849   0.567   1.403   5.920 -0.8789 -0.0256 -1.9079
 2071SOL    HW217850   0.663   1.300   5.873 -0.4705  0.1708  0.5369
 2072SOL     OW17851   1.939   4.404   3.998  0.4644  0.0076 -0.1267
 2072SOL    HW117852   1.952   4.326   4.052  1.3054  1.0997  1.2547
 2072SOL    HW217853   1.977   4.469   4.058 -0.3535  1.5117 -1.2390
 2073SOL     OW17854   4.418   4.681  15.086 -0.4360  0.3502  0.2280
 2073SOL    HW117855   4.465   4.601  15.061  3.2603  2.1439  1.5259
 2073SOL    HW217856   4.326   4.661  15.067 -0.7922 -0.0937  2.3717
 2074SOL     OW17857   0.439   4.448   0.824 -0.9449 -0.4383  0.3217
 2074SOL    HW117858   0.356   4.470   0.867  0.0583  0.0858  2.0139
 2074SOL    HW217859   0.494   4.489   0.891 -0.1899 -2.3130  0.8739
 2075SOL     OW17860   1.226   4.569   6.443 -0.2665  0.7329 -0.1010
 2075SOL    HW117861   1.167   4.493   6.438  0.5084  0.1563 -0.5735
 2075SOL    HW217862   1.288   4.540   6.509  1.2254  4.0393 -0.0911
 2076SOL     OW17863   2.776   1.997   5.910  0.1916 -0.0504  0.6193
 2076SOL    HW117864   2.752   1.980   5.819  1.2668 -0.9803  0.5181
 2076SOL    HW217865   2.792   1.912   5.949  0.6342 -0.0727  0.3850
 2077SOL     OW17866   2.299   2.626  11.527  0.0516  0.3069 -0.3089
 2077SOL    HW117867   2.321   2.651  11.438 -1.2698  0.1347 -0.6857
 2077SOL    HW217868   2.329   2.702  11.577 -0.9380  0.7107 -0.3288
 2078SOL     OW17869   0.504   4.014   2.736  0.1431 -0.2072  0.5564
 2078SOL    HW117870   0.498   3.920   2.757  1.3920 -0.4426 -0.1614
 2078SOL    HW217871   0.589   4.021   2.693  0.1301 -0.0970  0.5494
 2079SOL     OW17872   1.401   4.621   3.530 -0.3053  0.0238  0.2036
 2079SOL    HW117873   1.427   4.556   3.465  0.6528 -0.4197  1.0470
 2079SOL    HW217874   1.306   4.610   3.534 -0.4713  0.9445 -1.1840
 2080SOL     OW17875   2.854   2.952   7.185 -0.5100 -0.1496  0.4662
 2080SOL    HW117876   2.828   2.972   7.274 -1.5815 -3.0877  0.7947
 2080SOL    HW217877   2.925   3.013   7.168  0.2839 -1.1516  0.2087
 2081SOL     OW17878   4.508   2.574   4.230  0.8742 -0.3161 -0.1224
 2081SOL    HW117879   4.483   2.502   4.288 -1.3175 -2.0880 -3.2301
 2081SOL    HW217880   4.460   2.650   4.261  0.1058 -1.7887  2.3450
 2082SOL     OW17881   1.204   1.292   2.263 -0.2000  0.8371 -0.6765
 2082SOL    HW117882   1.268   1.255   2.203 -0.7695  0.2102 -0.8998
 2082SOL    HW217883   1.144   1.339   2.205 -0.7480 -0.0758 -0.8584
 2083SOL     OW17884   2.607   4.000   3.201 -0.1431  0.2298  0.5066
 2083SOL    HW117885   2.690   3.967   3.234  0.2313  2.1069  1.3903
 2083SOL    HW217886   2.617   4.013   3.107  0.1677  3.3345  0.9786
 2084SOL     OW17887   4.692   0.326  11.306  0.0389  0.9233  0.0148
 2084SOL    HW117888   0.040   0.292  11.280 -0.1871  0.8457 -0.6124
 2084SOL    HW217889   4.639   0.339  11.228 -0.7185  0.0372  0.3669
 2085SOL     OW17890   3.186   0.420   4.635 -0.9393 -0.1481 -0.2082
 2085SOL    HW117891   3.210   0.329   4.617 -0.2331 -0.0198  0.0776
 2085SOL    HW217892   3.143   0.436   4.551 -0.1057  0.4600 -0.5161
 2086SOL     OW17893   3.961   0.217   5.958  0.6229 -0.3744  0.0878
 2086SOL    HW117894   3.946   0.163   6.035 -1.4435 -1.2128 -0.8881
 2086SOL    HW217895   4.052   0.205   5.932  0.3445 -3.2145  0.4513
 2087SOL     OW17896   0.350   2.625   5.096  0.1777 -0.5906 -0.4190
 2087SOL    HW117897   0.282   2.639   5.162  1.3086  0.1932  0.5819
 2087SOL    HW217898   0.327   2.534   5.078 -2.0663  0.0922 -1.0104
 2088SOL     OW17899   4.288   2.005   2.199  0.3696 -0.2794  0.4311
 2088SOL    HW117900   4.309   2.097   2.212  3.3188 -0.6030 -2.0347
 2088SOL    HW217901   4.201   2.018   2.164  0.0039  0.2760  1.5485
 2089SOL     OW17902   1.232   1.541   9.336 -0.0921 -0.0448 -0.8028
 2089SOL    HW117903   1.232   1.570   9.245 -0.4641  0.5935 -0.5960
 2089SOL    HW217904   1.167   1.471   9.343  0.8941 -1.0791 -1.9781
 2090SOL     OW17905   4.349   2.251   1.643  0.3210  0.4847 -0.4069
 2090SOL    HW117906   4.367   2.303   1.721  2.9778 -0.5150 -0.3704
 2090SOL    HW217907   4.285   2.189   1.677  1.7297 -1.3190 -1.0647
 2091SOL     OW17908   0.862   2.483   2.395  0.6401  0.1007  0.5289
 2091SOL    HW117909   0.771   2.507   2.409  0.7951  2.3141 -2.1626
 2091SOL    HW217910   0.859   2.476   2.300 -1.9974 -0.3534  0.6639
 2092SOL     OW17911   4.564   3.792   5.329 -0.1203  0.0133  0.2493
 2092SOL    HW117912   4.536   3.869   5.379 -0.1157  1.3386 -1.7927
 2092SOL    HW217913   4.581   3.836   5.246  1.2493  1.0402  1.0591
 2093SOL     OW17914   2.478   4.509   4.269 -0.3031  0.4101  0.7735
 2093SOL    HW117915   2.437   4.425   4.291  0.2583 -0.5029 -1.6877
 2093SOL    HW217916   2.559   4.492   4.316 -1.1053  0.2275  2.0991
 2094SOL     OW17917   2.479   2.463   1.749  0.5631 -0.5442  0.6213
 2094SOL    HW117918   2.432   2.425   1.674 -1.9660  4.3591 -0.2682
 2094SOL    HW217919   2.440   2.421   1.825 -0.5455 -1.8072 -0.6435
 2095SOL     OW17920   4.402   2.197   2.617  0.2689 -0.1020  0.0077
 2095SOL    HW117921   4.458   2.148   2.557 -1.1566 -0.8406 -0.7152
 2095SOL    HW217922   4.417   2.291   2.603  1.1532 -0.1674  0.5696
 2096SOL     OW17923   1.427   4.361   5.447 -0.3047  0.3261 -0.0982
 2096SOL    HW117924   1.375   4.320   5.516  2.2741 -0.0869  1.6270
 2096SOL    HW217925   1.352   4.365   5.388  1.2560 -0.8122 -2.1482
 2097SOL     OW17926   0.899   2.589   9.721  0.0914 -0.5198  0.2320
 2097SOL    HW117927   0.807   2.594   9.693  0.3159 -2.4139 -0.8050
 2097SOL    HW217928   0.923   2.676   9.689 -2.6272  0.7833  1.6704
 2098SOL     OW17929   4.503   0.743   6.764  0.6734 -0.0854 -0.6401
 2098SOL    HW117930   4.518   0.681   6.836 -0.6139  0.2283 -0.0983
 2098SOL    HW217931   4.476   0.677   6.700  3.1710 -2.9186  1.1447
 2099SOL     OW17932   0.318   0.570   3.737  0.0277 -0.1253 -0.6569
 2099SOL    HW117933   0.346   0.496   3.791  0.2401 -0.2019 -0.8695
 2099SOL    HW217934   0.231   0.592   3.769  0.5547 -1.0991  1.4319
 2100SOL     OW17935   3.113   2.364   7.413 -0.2762 -0.0440  0.5199
 2100SOL    HW117936   3.072   2.387   7.330 -1.0514  0.0114  0.9201
 2100SOL    HW217937   3.201   2.338   7.385  0.3686  0.5210  2.0455
 2101SOL     OW17938   2.559   3.002   9.748 -0.4424  0.1577 -0.0921
 2101SOL    HW117939   2.620   2.950   9.799 -0.9867 -0.7002 -0.3063
 2101SOL    HW217940   2.528   2.938   9.683  0.8791 -0.1982 -0.3618
 2102SOL     OW17941   4.367   0.371   8.282 -0.1248  0.5417 -0.0177
 2102SOL    HW117942   4.409   0.409   8.359 -2.0845  0.6943  0.9784
 2102SOL    HW217943   4.337   0.286   8.315  0.1371  0.3614 -0.2383
 2103SOL     OW17944   0.336   1.566   8.288 -0.8522 -0.1221 -0.0171
 2103SOL    HW117945   0.389   1.643   8.307 -2.3259  0.9465 -0.3005
 2103SOL    HW217946   0.318   1.522   8.372  0.7837 -0.4442  0.1809
 2104SOL     OW17947   1.181   4.548  11.886  0.4646  0.4239 -0.2770
 2104SOL    HW117948   1.253   4.611  11.892  0.0548  1.0246 -1.6808
 2104SOL    HW217949   1.198   4.497  11.965  0.7647  0.8555 -0.0620
 2105SOL     OW17950   1.435   1.590   0.613  0.0531  0.6364  0.1656
 2105SOL    HW117951   1.522   1.553   0.625 -0.6660 -1.6445 -1.4903
 2105SOL    HW217952   1.440   1.674   0.566  1.2795 -0.2925 -1.3557
 2106SOL     OW17953   1.069   2.049  11.790 -0.0452  0.4067 -0.2745
 2106SOL    HW117954   1.164   2.058  11.803  0.2558 -1.7572 -0.9337
 2106SOL    HW217955   1.073   1.971  11.735 -0.3851 -0.5743  1.1001
 2107SOL     OW17956   3.360   0.708  17.204  0.0944 -0.0254 -0.4808
 2107SOL    HW117957   3.365   0.628  17.257  1.8532  0.0250 -0.5552
 2107SOL    HW217958   3.448   0.724  17.168 -0.0033  1.0263 -0.2468
 2108SOL     OW17959   2.659   0.632  16.239 -0.5411 -0.1707  0.2280
 2108SOL    HW117960   2.732   0.689  16.215  1.2296 -1.8704  1.5482
 2108SOL    HW217961   2.600   0.641  16.165  1.1084  0.9106 -0.9434
 2109SOL     OW17962   1.000   4.240   1.535  0.0640 -0.3332  0.7709
 2109SOL    HW117963   1.032   4.156   1.565 -0.3256 -0.1568  1.6677
 2109SOL    HW217964   1.054   4.307   1.577  0.0013 -0.6475  1.3418
 2110SOL     OW17965   1.632   3.827   5.489 -0.2507  0.4127 -0.0406
 2110SOL    HW117966   1.541   3.800   5.479 -0.5367  0.4974  2.5166
 2110SOL    HW217967   1.673   3.744   5.465 -1.3964  0.3202 -1.7082
 2111SOL     OW17968   1.708   1.097   5.948  0.3482  0.3805  0.4780
 2111SOL    HW117969   1.640   1.050   5.996 -1.5820  0.1361 -2.5152
 2111SOL    HW217970   1.773   1.027   5.938  1.4510  1.2381  1.4596
 2112SOL     OW17971   0.504   3.550   5.357 -0.3406 -0.1590 -0.0557
 2112SOL    HW117972   0.482   3.540   5.264  0.4498  1.2176 -0.3898
 2112SOL    HW217973   0.573   3.617   5.355 -0.8148  0.4144  2.0948
 2113SOL     OW17974   2.485   0.780   6.551 -0.3056 -0.4663  0.6495
 2113SOL    HW117975   2.580   0.785   6.559 -0.4110  2.2901  0.0642
 2113SOL    HW217976   2.474   0.686   6.564 -0.2634 -0.9750 -3.0025
 2114SOL     OW17977   0.569   2.105   3.241  0.7192  0.2352  0.1048
 2114SOL    HW117978   0.476   2.085   3.253  0.6865 -0.2230 -0.8923
 2114SOL    HW217979   0.595   2.113   3.333  2.6328  0.3598 -0.4692
 2115SOL     OW17980   1.778   3.201   2.383  0.2259 -0.4344 -0.2854
 2115SOL    HW117981   1.855   3.241   2.342 -0.0028  2.0846  1.7468
 2115SOL    HW217982   1.829   3.150   2.446 -0.3086  0.1966  0.6519
 2116SOL     OW17983   2.341   4.184   2.583  0.0634  0.1284  0.7568
 2116SOL    HW117984   2.257   4.141   2.596 -0.4269  0.8396 -0.0170
 2116SOL    HW217985   2.399   4.111   2.604 -0.2841  0.0603  1.4603
 2117SOL     OW17986   1.131   3.761   5.069 -0.3450  0.2176  0.0719
 2117SOL    HW117987   1.055   3.730   5.020 -0.6819 -2.1611  2.0910
 2117SOL    HW217988   1.198   3.750   5.001 -0.3243 -0.9060  0.2674
 2118SOL     OW17989   3.802   0.478   8.523  0.1191 -0.5685 -0.0828
 2118SOL    HW117990   3.888   0.497   8.485 -0.0803 -1.3206 -0.9055
 2118SOL    HW217991   3.740   0.490   8.451  0.1130 -0.9964 -0.1534
 2119SOL     OW17992   1.396   2.686   7.741 -0.5560  0.4406 -0.2863
 2119SOL    HW117993   1.407   2.746   7.667  1.1833 -0.1518 -0.5076
 2119SOL    HW217994   1.456   2.717   7.808 -2.4567  2.6199  0.4111
 2120SOL     OW17995   4.391   0.382  15.106 -0.1843 -0.5868 -0.2503
 2120SOL    HW117996   4.369   0.323  15.035 -0.5521  0.5320 -1.0647
 2120SOL    HW217997   4.474   0.416  15.072  1.5838 -3.7685  0.9167
 2121SOL     OW17998   2.855   4.539  10.935  0.4169 -0.1152  0.1418
 2121SOL    HW117999   2.793   4.537  11.008  2.1708 -1.4105  1.5910
 2121SOL    HW218000   2.908   4.606  10.979 -0.5647  1.2105 -0.6980
 2122SOL     OW18001   2.192   3.741   8.545  0.1000 -0.0340  0.4712
 2122SOL    HW118002   2.270   3.691   8.569 -0.5448 -1.0990  0.3874
 2122SOL    HW218003   2.123   3.699   8.598  1.7687 -3.9463 -0.4576
 2123SOL     OW18004   3.195   4.044   3.989  0.3570  0.8345  0.5775
 2123SOL    HW118005   3.194   4.135   4.018 -2.4502  0.9115  0.1708
 2123SOL    HW218006   3.210   4.048   3.894  1.7703  0.5635  0.7882
 2124SOL     OW18007   0.273   3.960   2.591  0.2739  0.4359  0.3515
 2124SOL    HW118008   0.352   3.995   2.632  1.3145 -2.6401  0.9118
 2124SOL    HW218009   0.232   3.915   2.665  1.5531 -1.1476  0.0894
 2125SOL     OW18010   3.957   3.079   9.842  0.3019  0.6452 -0.4544
 2125SOL    HW118011   3.978   2.989   9.817  0.3564  0.8847 -1.2589
 2125SOL    HW218012   3.871   3.085   9.801 -0.3851  0.8154  1.0189
 2126SOL     OW18013   3.529   1.932   4.941  0.4160 -0.3424  0.0663
 2126SOL    HW118014   3.494   1.929   5.030  1.7027  0.2403  0.5952
 2126SOL    HW218015   3.550   1.842   4.916  0.3072 -0.3490 -0.0037
 2127SOL     OW18016   3.510   2.406  11.871 -0.3407 -0.0763  0.5279
 2127SOL    HW118017   3.420   2.379  11.890 -0.2011 -0.3678  0.7891
 2127SOL    HW218018   3.531   2.466  11.943 -0.6316  1.2088 -0.4624
 2128SOL     OW18019   2.582   3.683   3.536 -0.0998  0.0126  0.0516
 2128SOL    HW118020   2.553   3.592   3.543 -1.8984  0.7224  1.9988
 2128SOL    HW218021   2.567   3.693   3.442  1.0111 -0.1609 -0.1454
 2129SOL     OW18022   1.648   0.380   4.267  0.0321  0.6187  0.2120
 2129SOL    HW118023   1.592   0.449   4.233 -0.6995 -1.1949 -2.2604
 2129SOL    HW218024   1.643   0.394   4.362 -0.6482 -1.3702  0.4694
 2130SOL     OW18025   4.289   2.238   2.959 -0.7530  0.2023  0.4684
 2130SOL    HW118026   4.357   2.205   2.901 -0.4868  2.4733 -0.5290
 2130SOL    HW218027   4.207   2.252   2.912 -0.1382 -2.1570 -1.3266
 2131SOL     OW18028   0.008   1.815  10.137  0.2376  0.1939  0.4356
 2131SOL    HW118029   4.660   1.854  10.161 -0.7231 -0.8764 -1.2881
 2131SOL    HW218030   4.720   1.724  10.124  1.0686  0.2843 -1.6934
 2132SOL     OW18031   1.213   4.069  17.073 -0.4504 -0.5161  0.0484
 2132SOL    HW118032   1.230   4.120  16.994  1.5661 -2.6295 -0.8777
 2132SOL    HW218033   1.168   4.117  17.143 -1.4687  0.0741 -1.0202
 2133SOL     OW18034   0.167   3.577   6.269  0.0282 -0.0074 -0.1958
 2133SOL    HW118035   0.185   3.662   6.309 -1.3725  0.0894  0.2352
 2133SOL    HW218036   0.072   3.568   6.259  0.0671 -1.3638  0.6629
 2134SOL     OW18037   3.199   1.511   5.973  0.7244  0.2244 -0.5010
 2134SOL    HW118038   3.235   1.582   5.919  1.3866  0.6352  0.4790
 2134SOL    HW218039   3.153   1.459   5.907  0.5127 -0.4733  0.2051
 2135SOL     OW18040   2.647   2.882   3.610 -0.2338 -0.3816  0.0445
 2135SOL    HW118041   2.716   2.820   3.630 -0.7573 -0.3459  1.9220
 2135SOL    HW218042   2.600   2.880   3.693 -1.5604  1.3932 -0.6593
 2136SOL     OW18043   2.902   4.616   5.691  0.2362  0.2169  0.0621
 2136SOL    HW118044   2.867   4.527   5.683 -0.8934  0.4499  2.3964
 2136SOL    HW218045   2.958   4.621   5.614  1.4180 -0.4599  0.8883
 2137SOL     OW18046   1.486   0.416  11.425  0.1823 -0.3275 -0.3593
 2137SOL    HW118047   1.555   0.360  11.391 -0.1320  0.5954 -2.5200
 2137SOL    HW218048   1.522   0.430  11.513  1.2383  1.2788 -1.0331
 2138SOL     OW18049   0.235   2.247  17.044 -0.6856  0.2093  0.3085
 2138SOL    HW118050   0.206   2.337  17.061 -0.4690  0.2217  0.6372
 2138SOL    HW218051   0.196   2.231  16.959 -0.0889 -0.6736  0.2031
 2139SOL     OW18052   1.829   1.222   7.695 -0.4069  0.0344  0.2945
 2139SOL    HW118053   1.835   1.178   7.610 -2.3615 -2.2070  1.3273
 2139SOL    HW218054   1.745   1.178   7.712 -0.8136  0.8689  0.4683
 2140SOL     OW18055   1.508   0.823   1.369  0.4435  0.0598  0.3358
 2140SOL    HW118056   1.575   0.765   1.405 -1.1601 -1.8459  0.2593
 2140SOL    HW218057   1.428   0.771   1.373 -1.5637  3.0651 -0.4671
 2141SOL     OW18058   1.760   0.672   6.237  0.3487 -0.9523 -0.3399
 2141SOL    HW118059   1.732   0.666   6.328  0.8541  0.8911 -0.0441
 2141SOL    HW218060   1.817   0.749   6.234 -0.1622 -0.4495  3.4574
 2142SOL     OW18061   1.154   0.679   4.432  0.0886 -0.3399  0.4312
 2142SOL    HW118062   1.076   0.627   4.412  1.8598 -2.0165 -2.0591
 2142SOL    HW218063   1.185   0.693   4.343 -1.4731  1.7158  0.1996
 2143SOL     OW18064   3.029   1.614   5.027  0.1324 -0.1493  0.7206
 2143SOL    HW118065   3.057   1.535   4.979 -0.3578  0.3298 -0.3648
 2143SOL    HW218066   3.112   1.659   5.043  0.7885 -0.2204 -2.4549
 2144SOL     OW18067   4.118   4.350   5.961 -0.4074 -0.5269  0.4864
 2144SOL    HW118068   4.183   4.299   6.009 -0.8863 -1.2328  0.3917
 2144SOL    HW218069   4.172   4.403   5.903 -2.6239  0.8841 -0.2839
 2145SOL     OW18070   0.487   4.171   8.866 -0.0497 -0.2737 -0.2523
 2145SOL    HW118071   0.570   4.160   8.819  0.1993  0.3866  0.0433
 2145SOL    HW218072   0.508   4.226   8.942  0.6559  0.1869 -0.7835
 2146SOL     OW18073   2.580   2.794   7.599 -0.2507 -0.0163  0.3089
 2146SOL    HW118074   2.540   2.758   7.678 -0.9040 -0.1048 -0.0672
 2146SOL    HW218075   2.593   2.881   7.636  0.0737 -0.4591  1.2204
 2147SOL     OW18076   2.807   3.480   1.000  1.0070 -0.1500  0.4413
 2147SOL    HW118077   2.780   3.546   0.935  1.5773 -0.4316 -0.0861
 2147SOL    HW218078   2.889   3.507   1.043  1.0841 -0.6967  0.6319
 2148SOL     OW18079   4.562   0.465  14.677 -0.1726 -0.1823 -0.2117
 2148SOL    HW118080   4.602   0.379  14.668 -1.0786 -0.7234  0.8055
 2148SOL    HW218081   4.573   0.489  14.769  1.5735 -1.1418 -0.1768
 2149SOL     OW18082   0.918   4.150   3.677  0.4198 -0.0358 -0.1908
 2149SOL    HW118083   0.952   4.184   3.595  0.4262  0.7199  0.1244
 2149SOL    HW218084   0.831   4.113   3.659  1.2464 -1.7821 -0.5227
 2150SOL     OW18085   2.017   3.478   5.510  0.0359 -0.0410  0.3601
 2150SOL    HW118086   2.039   3.513   5.424 -0.3323 -2.3090 -0.6668
 2150SOL    HW218087   2.060   3.393   5.511  1.9348  0.9544  2.8826
 2151SOL     OW18088   4.009   3.512   8.599 -0.2675 -0.0276  0.3686
 2151SOL    HW118089   4.027   3.605   8.583  1.0574 -0.2955  0.2997
 2151SOL    HW218090   4.052   3.500   8.684  2.3373  3.9553 -0.3536
 2152SOL     OW18091   1.208   1.653   8.657 -0.2604  0.5401 -0.2176
 2152SOL    HW118092   1.149   1.619   8.724  1.5822 -0.1837  1.0560
 2152SOL    HW218093   1.291   1.605   8.657  1.3259  3.2713  1.6918
 2153SOL     OW18094   4.642   2.578  16.841  0.1084  0.1048  0.1975
 2153SOL    HW118095   4.579   2.591  16.771 -0.7147 -0.8928  0.7535
 2153SOL    HW218096   4.611   2.498  16.885 -0.4724 -1.3418 -2.8735
 2154SOL     OW18097   0.339   0.768   2.952  0.1973 -0.1991  0.5176
 2154SOL    HW118098   0.324   0.853   2.992  1.1695  0.1010  0.2566
 2154SOL    HW218099   0.283   0.700   2.990 -0.6156  0.6856  0.8863
 2155SOL     OW18100   2.973   1.176   6.892  0.7688  0.2822  0.0771
 2155SOL    HW118101   3.022   1.250   6.856 -0.2298  1.2451  0.6832
 2155SOL    HW218102   3.009   1.161   6.979 -0.7163 -2.3424  0.2464
 2156SOL     OW18103   4.016   3.374   4.924  0.1307 -0.0788 -0.3741
 2156SOL    HW118104   4.045   3.309   4.989  1.4576 -0.2979 -1.1949
 2156SOL    HW218105   3.959   3.436   4.970  0.4643  0.1276 -0.2444
 2157SOL     OW18106   3.416   1.744   7.313  1.3012  0.4630  0.2177
 2157SOL    HW118107   3.437   1.784   7.228 -0.3919 -2.0702 -1.4142
 2157SOL    HW218108   3.342   1.796   7.343 -0.2167 -0.6861 -1.4855
 2158SOL     OW18109   0.451   3.426   1.932 -0.0368  0.3785 -0.4210
 2158SOL    HW118110   0.497   3.488   1.875  1.4647  0.5388  0.9826
 2158SOL    HW218111   0.368   3.406   1.888 -1.6282  0.9568  2.3072
 2159SOL     OW18112   1.269   2.766   6.108  0.7510 -0.6650  0.1400
 2159SOL    HW118113   1.287   2.672   6.113 -1.3772 -1.0018  1.4625
 2159SOL    HW218114   1.287   2.783   6.016 -0.2800  0.1356  0.0931
 2160SOL     OW18115   2.382   4.467   3.457 -0.5150  0.0273 -0.0782
 2160SOL    HW118116   2.343   4.402   3.397  1.8982 -1.0846 -0.4390
 2160SOL    HW218117   2.327   4.545   3.452 -0.5569 -0.1715 -3.1359
 2161SOL     OW18118   4.168   1.344  15.126 -1.0345  0.0089  0.2646
 2161SOL    HW118119   4.212   1.268  15.087 -0.1998 -0.0390  1.2817
 2161SOL    HW218120   4.215   1.422  15.096 -0.0467 -0.2005  1.2473
 2162SOL     OW18121   0.292   1.186  10.967 -0.1897  0.7057  0.1674
 2162SOL    HW118122   0.288   1.240  10.888 -1.4510 -0.4031 -0.5199
 2162SOL    HW218123   0.388   1.182  10.963 -0.2244 -0.7509  0.8762
 2163SOL     OW18124   0.120   0.213   3.251 -0.2967  0.1025 -0.0306
 2163SOL    HW118125   0.167   0.192   3.170  0.4292 -0.9268  0.6502
 2163SOL    HW218126   0.195   0.233   3.307 -0.6626  0.8031  0.2010
 2164SOL     OW18127   2.276   3.735   8.991 -0.1252 -0.1358  0.3985
 2164SOL    HW118128   2.266   3.775   9.077 -0.4690 -0.6881  0.6080
 2164SOL    HW218129   2.371   3.729   8.984 -0.0227  0.3345  1.3677
 2165SOL     OW18130   2.324   2.507   2.784 -0.1108  0.4389  0.2275
 2165SOL    HW118131   2.358   2.448   2.717 -1.7340 -0.2795  0.0573
 2165SOL    HW218132   2.360   2.592   2.758 -0.9255  0.9883  0.9101
 2166SOL     OW18133   0.024   3.084   5.700 -0.4348 -0.2134  0.1817
 2166SOL    HW118134   0.064   3.058   5.617 -0.3711  1.1601 -0.2032
 2166SOL    HW218135   4.726   3.168   5.673 -1.7997 -1.4313 -1.8196
 2167SOL     OW18136   2.389   1.710  12.246  0.4348  0.0153  0.0214
 2167SOL    HW118137   2.391   1.651  12.322  2.7638 -0.0972 -0.1490
 2167SOL    HW218138   2.480   1.700  12.219 -0.6330 -1.5585 -3.0345
 2168SOL     OW18139   1.751   1.071  16.818 -0.1702 -0.1023  0.0519
 2168SOL    HW118140   1.732   1.072  16.725 -0.6271  0.3339  0.1498
 2168SOL    HW218141   1.821   1.007  16.827  0.6338  0.9424  1.4650
 2169SOL     OW18142   1.527   3.056   2.086 -0.1313 -0.0121 -0.4882
 2169SOL    HW118143   1.599   3.099   2.039  0.5297 -0.9850 -0.3680
 2169SOL    HW218144   1.478   3.017   2.013  0.7626 -1.1474 -0.4783
 2170SOL     OW18145   3.304   0.942   7.464  0.5631  0.2471  0.0021
 2170SOL    HW118146   3.230   0.972   7.516 -1.4054 -0.9096 -2.1620
 2170SOL    HW218147   3.269   0.872   7.410 -0.3313  0.4574  0.3170
 2171SOL     OW18148   1.994   3.098   8.977  0.7474 -0.8740 -0.4959
 2171SOL    HW118149   1.971   3.032   9.042  0.6686  1.0307  1.3883
 2171SOL    HW218150   1.943   3.057   8.907  1.0170 -1.5568 -0.2971
 2172SOL     OW18151   2.471   0.468   7.101 -0.1086  0.1985  0.5619
 2172SOL    HW118152   2.540   0.494   7.162  0.2814 -2.2447  1.1880
 2172SOL    HW218153   2.498   0.504   7.016 -1.0831  1.7078  0.8977
 2173SOL     OW18154   4.367   2.993   4.778 -0.0230  0.3602 -0.2938
 2173SOL    HW118155   4.441   3.041   4.817 -1.1965  1.8134  0.1058
 2173SOL    HW218156   4.376   2.916   4.835 -0.8999  0.0517 -0.5853
 2174SOL     OW18157   0.442   0.831   2.003 -0.3074 -0.5664 -0.6746
 2174SOL    HW118158   0.452   0.777   1.925 -3.4169 -0.8457 -0.8814
 2174SOL    HW218159   0.394   0.768   2.058 -0.0098  1.2154  1.6551
 2175SOL     OW18160   1.720   0.340   8.583 -0.4245 -0.2891 -0.1794
 2175SOL    HW118161   1.699   0.295   8.664  1.3148  0.5427  0.7366
 2175SOL    HW218162   1.783   0.282   8.539 -0.1453 -0.3720  0.3292
 2176SOL     OW18163   1.441   2.523   9.111  0.2336  0.0459 -0.1164
 2176SOL    HW118164   1.368   2.526   9.049  0.4844 -1.5223 -0.4950
 2176SOL    HW218165   1.396   2.496   9.191  0.2389 -0.6948 -0.3676
 2177SOL     OW18166   1.873   0.630  12.103 -0.3046  0.6288 -0.2973
 2177SOL    HW118167   1.789   0.671  12.128 -0.6712  0.0679 -0.6282
 2177SOL    HW218168   1.873   0.647  12.009 -0.1611 -1.3163 -0.6372
 2178SOL     OW18169   2.591   2.657   8.406 -0.2774 -0.5310 -0.5735
 2178SOL    HW118170   2.559   2.718   8.473 -1.6754 -0.3462 -1.4097
 2178SOL    HW218171   2.514   2.605   8.383 -1.5299  0.5785  1.1252
 2179SOL     OW18172   2.195   3.651  16.255 -0.2694  0.9467  0.4615
 2179SOL    HW118173   2.234   3.564  16.241 -1.2876  0.0774  3.0090
 2179SOL    HW218174   2.100   3.641  16.251 -0.3537  2.1903 -0.4091
 2180SOL     OW18175   1.657   3.654   7.888 -0.2733 -0.6168  0.6754
 2180SOL    HW118176   1.741   3.608   7.889  0.0909 -0.0200 -1.9024
 2180SOL    HW218177   1.670   3.717   7.959  1.7008 -0.3547  0.0756
 2181SOL     OW18178   3.529   3.913   2.368 -0.3941  0.2418 -0.0982
 2181SOL    HW118179   3.486   3.919   2.453  0.4193  0.6766  0.2912
 2181SOL    HW218180   3.464   3.945   2.305 -1.2119 -1.9777 -0.3740
 2182SOL     OW18181   1.625   4.432   9.467 -0.3029  0.7534 -0.1572
 2182SOL    HW118182   1.698   4.444   9.407 -1.3676 -2.0381 -1.9680
 2182SOL    HW218183   1.557   4.404   9.406 -2.0560  1.3101  1.5431
 2183SOL     OW18184   4.348   0.705   6.145 -0.7886  0.7924 -0.0621
 2183SOL    HW118185   4.260   0.691   6.109 -1.5827 -0.3842  2.3058
 2183SOL    HW218186   4.330   0.699   6.239  3.2767  0.3758  0.6698
 2184SOL     OW18187   2.794   4.159  14.105  0.1407 -0.1360 -0.8538
 2184SOL    HW118188   2.856   4.200  14.166 -0.1022  0.3850 -0.9558
 2184SOL    HW218189   2.720   4.139  14.162 -1.4737 -0.3613 -3.0403
 2185SOL     OW18190   2.434   0.827  11.160 -0.5743  0.0942 -0.6948
 2185SOL    HW118191   2.452   0.769  11.234  1.3120  0.2727 -1.0193
 2185SOL    HW218192   2.504   0.892  11.168 -0.3469 -0.0113 -1.8567
 2186SOL     OW18193   3.465   0.360   8.219 -0.1887 -0.5833 -0.9768
 2186SOL    HW118194   3.444   0.335   8.129  0.6035 -0.7890 -1.1080
 2186SOL    HW218195   3.379   0.386   8.253 -0.5720 -1.1196 -1.5325
 2187SOL     OW18196   0.281   2.328   4.292  0.5795 -0.5722  0.0932
 2187SOL    HW118197   0.348   2.389   4.321  1.1864 -0.6896 -1.0701
 2187SOL    HW218198   0.306   2.323   4.200  0.3102  1.1429 -0.0637
 2188SOL     OW18199   4.542   3.340   0.525 -0.0560 -0.0856 -0.1235
 2188SOL    HW118200   4.605   3.350   0.453  3.5326  0.4273  3.1334
 2188SOL    HW218201   4.590   3.304   0.599 -0.7084  0.1196  0.4006
 2189SOL     OW18202   4.565   1.946   3.026  0.0635 -0.2029 -0.9537
 2189SOL    HW118203   4.561   1.881   3.096 -1.4727 -0.3002 -1.1178
 2189SOL    HW218204   4.646   1.921   2.982  0.3252 -0.3300 -0.4032
 2190SOL     OW18205   1.160   3.431   1.609  0.0661  0.5725 -0.1643
 2190SOL    HW118206   1.170   3.359   1.547 -0.0538 -0.4177  0.9506
 2190SOL    HW218207   1.249   3.467   1.611  0.0541  0.6125 -0.4219
 2191SOL     OW18208   2.233   1.622   8.039 -0.5772  0.3212  0.3669
 2191SOL    HW118209   2.327   1.615   8.056 -0.3022  2.5339 -0.1539
 2191SOL    HW218210   2.233   1.711   8.004  0.0724 -0.2321 -1.0249
 2192SOL     OW18211   1.505   2.329   4.261  0.2015 -0.0032  0.0232
 2192SOL    HW118212   1.531   2.297   4.175  1.1540  1.9361 -0.4286
 2192SOL    HW218213   1.480   2.246   4.302  0.9244  0.1718  0.8327
 2193SOL     OW18214   0.985   0.850   8.590  0.0081  0.3145  0.0150
 2193SOL    HW118215   0.976   0.936   8.631 -1.2467  0.0911  0.2084
 2193SOL    HW218216   1.025   0.870   8.505 -0.8951 -0.0957 -0.5011
 2194SOL     OW18217   1.162   1.802   1.891 -0.3672  0.1194 -0.0606
 2194SOL    HW118218   1.248   1.829   1.857 -0.5459 -0.5311 -1.0363
 2194SOL    HW218219   1.172   1.838   1.979 -0.9929  1.4852 -0.5404
 2195SOL     OW18220   2.592   3.151   3.904  0.0363  0.0707 -0.1381
 2195SOL    HW118221   2.565   3.061   3.887 -1.5259  0.5078 -0.0006
 2195SOL    HW218222   2.513   3.194   3.938 -0.4888 -0.0325 -1.2528
 2196SOL     OW18223   0.687   4.188   4.002  0.3998 -0.2424  0.2521
 2196SOL    HW118224   0.614   4.146   3.957  0.2641 -1.1911  1.3603
 2196SOL    HW218225   0.721   4.110   4.047  0.3444  0.6052  1.7705
 2197SOL     OW18226   3.542   0.024   8.595 -0.3045 -0.9680  0.3796
 2197SOL    HW118227   3.534   0.048   8.503 -1.4927  0.1669  0.7647
 2197SOL    HW218228   3.597   0.095   8.627  1.1248 -0.9937 -2.0798
 2198SOL     OW18229   4.622   1.939   6.316  0.2409 -0.8488  0.3534
 2198SOL    HW118230   4.690   1.878   6.345  0.0688 -1.3230 -0.2492
 2198SOL    HW218231   4.661   1.994   6.249  1.4179 -1.2761  0.6894
 2199SOL     OW18232   1.703   2.946  15.364 -0.4833  0.1111 -0.5223
 2199SOL    HW118233   1.688   3.029  15.318  0.2368 -1.8993 -4.3511
 2199SOL    HW218234   1.640   2.947  15.436  0.3300  1.2675  0.1834
 2200SOL     OW18235   1.262   3.723  13.243  0.0851  0.4972  0.1141
 2200SOL    HW118236   1.340   3.774  13.266  0.0785  1.1778 -1.4140
 2200SOL    HW218237   1.190   3.765  13.289  0.3658  0.1675  0.8536
 2201SOL     OW18238   3.755   1.533   0.519  0.4720 -0.8377 -0.7516
 2201SOL    HW118239   3.811   1.605   0.550 -0.8667  1.1708 -2.9884
 2201SOL    HW218240   3.669   1.554   0.556  1.4692  0.3881  0.8753
 2202SOL     OW18241   0.944   3.717   5.946  0.1539  0.4389 -0.1363
 2202SOL    HW118242   0.906   3.639   5.906  3.2215 -1.9350  1.5591
 2202SOL    HW218243   0.938   3.699   6.040 -0.0983 -1.2687 -0.4794
 2203SOL     OW18244   4.475   1.114   0.817  0.2134  0.0920 -0.3864
 2203SOL    HW118245   4.502   1.156   0.736  1.1880 -1.1524 -0.7084
 2203SOL    HW218246   4.558   1.076   0.846  1.3221  2.5546 -0.3504
 2204SOL     OW18247   2.851   3.192   4.429  0.6969  0.1168 -0.0836
 2204SOL    HW118248   2.902   3.225   4.355 -1.5093  2.1887 -0.6726
 2204SOL    HW218249   2.910   3.198   4.504  0.1535  3.3850  0.0875
 2205SOL     OW18250   1.066   4.570   7.029  0.3287 -0.4745 -0.0756
 2205SOL    HW118251   0.995   4.630   7.051 -0.9439 -1.9361 -0.1912
 2205SOL    HW218252   1.103   4.605   6.948  0.8406 -0.9222 -0.0357
 2206SOL     OW18253   4.100   4.203   3.054  0.1772 -0.5174  0.2160
 2206SOL    HW118254   4.028   4.153   3.018  0.6892  1.3492 -3.3598
 2206SOL    HW218255   4.153   4.131   3.088 -0.5632 -0.7702  0.8245
 2207SOL     OW18256   1.028   0.734  14.941  0.6072  0.4524 -0.2013
 2207SOL    HW118257   0.969   0.669  14.903  0.6943  0.0472  0.3690
 2207SOL    HW218258   1.084   0.689  15.004 -1.4802 -1.9939 -0.0818
 2208SOL     OW18259   3.108   3.065   1.753  0.3206 -0.7293  0.6304
 2208SOL    HW118260   3.089   3.098   1.665  2.8231 -2.0241 -0.3785
 2208SOL    HW218261   3.029   3.013   1.767 -0.4989  0.5530  0.7867
 2209SOL     OW18262   3.913   4.413  13.345 -0.4673 -0.1474  0.2446
 2209SOL    HW118263   3.973   4.482  13.373 -1.6063  1.3077 -0.9514
 2209SOL    HW218264   3.828   4.455  13.354 -0.1704  0.3298  0.7898
 2210SOL     OW18265   1.613   1.628   6.114  0.0987  0.9838  0.3205
 2210SOL    HW118266   1.622   1.540   6.076 -1.1631  0.7588  0.5230
 2210SOL    HW218267   1.520   1.651   6.103 -0.2032  0.2822  1.4421
 2211SOL     OW18268   0.010   0.641  17.619  0.2814  0.4851 -0.2863
 2211SOL    HW118269   0.081   0.621  17.680 -0.8524 -1.4557  0.3742
 2211SOL    HW218270   4.677   0.587  17.655  1.9204 -0.1715  1.8988
 2212SOL     OW18271   1.659   0.573   7.328  0.0749  0.4235  0.0708
 2212SOL    HW118272   1.628   0.663   7.322  0.3658  0.4948 -0.3901
 2212SOL    HW218273   1.693   0.590   7.416 -0.5788 -1.3124  0.6687
 2213SOL     OW18274   2.560   3.014   7.781 -0.1562  0.6205 -0.2371
 2213SOL    HW118275   2.572   2.953   7.853 -0.0782  2.2748  1.1485
 2213SOL    HW218276   2.621   3.087   7.797  0.5123  0.3030 -1.3419
 2214SOL     OW18277   1.008   0.181   4.063 -0.1639 -0.6481 -0.2222
 2214SOL    HW118278   1.013   0.091   4.031  1.0255  0.0881 -2.1071
 2214SOL    HW218279   0.917   0.197   4.087  0.0584  0.8001 -0.3466
 2215SOL     OW18280   3.717   4.560   8.045  0.2435  0.4812 -0.4265
 2215SOL    HW118281   3.739   4.618   8.119  0.9970  0.0447 -0.3079
 2215SOL    HW218282   3.674   4.495   8.101 -0.0074  2.2928  1.5162
 2216SOL     OW18283   2.269   3.280   5.799  0.6753 -0.2720 -0.3234
 2216SOL    HW118284   2.227   3.268   5.884  2.9893 -0.1404  0.8412
 2216SOL    HW218285   2.235   3.211   5.742 -0.5179  0.9968 -1.1395
 2217SOL     OW18286   1.038   0.435   7.395 -0.3841 -0.7061 -0.6239
 2217SOL    HW118287   0.996   0.487   7.464 -0.9091  0.4296 -1.7975
 2217SOL    HW218288   0.986   0.354   7.385  1.5083 -2.1408  1.0793
 2218SOL     OW18289   2.441   4.059  12.872 -0.5076 -0.0915  0.1178
 2218SOL    HW118290   2.512   4.123  12.864 -0.8392  0.2925  0.2200
 2218SOL    HW218291   2.452   3.991  12.805 -2.5805 -1.0190  0.7341
 2219SOL     OW18292   4.134   1.171  11.515 -0.0669 -0.1727 -0.1147
 2219SOL    HW118293   4.057   1.116  11.530 -1.0001  1.1932  0.2031
 2219SOL    HW218294   4.122   1.196  11.423 -0.5484 -1.0409 -0.2840
 2220SOL     OW18295   4.013   3.421   1.607  0.6239  0.3065 -0.0669
 2220SOL    HW118296   4.067   3.358   1.656  0.0757 -1.1398 -1.2910
 2220SOL    HW218297   3.933   3.374   1.584  0.7783  1.6952 -3.4141
 2221SOL     OW18298   3.960   4.430   3.413  0.0186 -0.4033 -0.0769
 2221SOL    HW118299   3.948   4.510   3.361  0.6092  0.3116  0.8696
 2221SOL    HW218300   3.911   4.364   3.365  0.8666 -0.8264 -0.3503
 2222SOL     OW18301   0.318   1.681   4.176  0.2070  0.0680 -0.1659
 2222SOL    HW118302   0.408   1.658   4.200 -0.9222 -0.6954  3.2807
 2222SOL    HW218303   0.334   1.705   4.084 -1.2385 -1.3643 -0.7967
 2223SOL     OW18304   4.000   4.351   1.907  0.2716  0.1385 -0.2329
 2223SOL    HW118305   4.071   4.309   1.859  0.8873 -0.0123  0.8188
 2223SOL    HW218306   3.928   4.291   1.889  0.0950  0.2952 -0.0484
 2224SOL     OW18307   0.484   2.468   4.417  0.1372  0.0656 -0.0105
 2224SOL    HW118308   0.560   2.413   4.399  1.5404  2.1361 -0.3524
 2224SOL    HW218309   0.514   2.514   4.496  0.6704 -3.0347  1.6083
 2225SOL     OW18310   2.719   2.952   6.484  0.4333  0.3324 -0.3600
 2225SOL    HW118311   2.787   2.927   6.547 -2.1329  0.1756  2.3757
 2225SOL    HW218312   2.719   3.044   6.512 -1.5942 -0.1024  1.1150
 2226SOL     OW18313   1.370   3.403   8.033  0.0157  0.6228  0.3201
 2226SOL    HW118314   1.370   3.482   7.978  1.4329  0.7980  0.5646
 2226SOL    HW218315   1.285   3.367   8.009  0.9723 -0.5475 -1.2883
 2227SOL     OW18316   1.355   4.520   2.213 -0.1515 -0.3184 -0.0531
 2227SOL    HW118317   1.433   4.576   2.209 -1.7703  1.8742 -1.2602
 2227SOL    HW218318   1.331   4.524   2.121  2.3355  0.8581 -0.6640
 2228SOL     OW18319   2.135   0.296  14.919  0.0660 -0.2399 -0.0061
 2228SOL    HW118320   2.046   0.274  14.947 -0.5611  1.1178 -0.9006
 2228SOL    HW218321   2.177   0.291  15.005 -0.7984  0.6151  0.4673
 2229SOL     OW18322   0.090   0.798   3.992 -0.2565 -0.0274  0.0614
 2229SOL    HW118323   0.081   0.782   3.898 -0.6702  0.2346  0.0550
 2229SOL    HW218324   0.001   0.775   4.018  0.4547 -1.5555  1.1171
 2230SOL     OW18325   3.755   3.333  12.537 -0.9356  0.2204 -0.5401
 2230SOL    HW118326   3.815   3.407  12.530 -0.5105  0.0130  0.8674
 2230SOL    HW218327   3.812   3.275  12.588 -0.9756  1.0407  0.4437
 2231SOL     OW18328   3.396   0.060   6.849 -0.3182 -0.0684  0.3993
 2231SOL    HW118329   3.449   0.137   6.829 -0.7661 -0.1209 -1.0008
 2231SOL    HW218330   3.348   0.074   6.930  0.8220  0.5095  0.9651
 2232SOL     OW18331   3.301   0.307   6.992  0.5542  0.3408  0.3824
 2232SOL    HW118332   3.282   0.253   7.069 -2.6024 -0.5587 -1.0183
 2232SOL    HW218333   3.219   0.302   6.942  0.9747 -0.1108 -0.2621
 2233SOL     OW18334   0.369   3.304  13.408  0.3337  0.5168  0.2074
 2233SOL    HW118335   0.372   3.273  13.317 -3.2802  1.2566 -0.1522
 2233SOL    HW218336   0.382   3.218  13.447  0.5183  0.0371 -0.9014
 2234SOL     OW18337   1.306   0.811   2.563 -0.2144  0.3018 -0.0350
 2234SOL    HW118338   1.269   0.896   2.584  1.2543  1.2845 -1.3837
 2234SOL    HW218339   1.321   0.818   2.468 -0.3521 -3.0939 -0.3153
 2235SOL     OW18340   1.233   3.759   3.833  0.0213  0.4017 -0.2056
 2235SOL    HW118341   1.180   3.826   3.791  0.3319  0.9793  0.3161
 2235SOL    HW218342   1.300   3.813   3.875 -0.9962  3.0560 -2.0247
 2236SOL     OW18343   3.899   0.012   5.645  0.0699 -0.1510 -0.6548
 2236SOL    HW118344   3.831   0.074   5.671 -0.3500  0.0117 -2.1587
 2236SOL    HW218345   3.940   4.735   5.731  0.0827  0.5297 -0.5489
 2237SOL     OW18346   1.117   4.544   3.571 -0.2293 -0.1285  0.7995
 2237SOL    HW118347   1.150   4.454   3.576 -0.1557 -0.2015 -0.9260
 2237SOL    HW218348   1.025   4.517   3.561 -0.0918 -0.0383 -0.6765
 2238SOL     OW18349   4.375   3.850   6.770  0.8136  0.1089 -0.4857
 2238SOL    HW118350   4.469   3.869   6.782  0.5132 -0.0508  2.0380
 2238SOL    HW218351   4.339   3.891   6.849 -0.9246  0.2253 -1.3385
 2239SOL     OW18352   2.437   1.101  16.581  0.1783 -0.2009 -0.1701
 2239SOL    HW118353   2.519   1.068  16.544  0.8965  1.8663 -0.4181
 2239SOL    HW218354   2.406   1.020  16.623 -0.0317  1.0042  1.9971
 2240SOL     OW18355   1.888   4.099  13.864  0.2643 -0.5512  0.5221
 2240SOL    HW118356   1.927   4.121  13.779 -1.4815  0.8137  0.0881
 2240SOL    HW218357   1.917   4.008  13.858 -1.1689 -0.9900  0.3772
 2241SOL     OW18358   0.324   2.861  11.324  0.6574 -0.0048  0.4542
 2241SOL    HW118359   0.376   2.781  11.315  2.6630  1.4972 -1.1198
 2241SOL    HW218360   0.366   2.893  11.404 -1.2101  0.1645  1.3763
 2242SOL     OW18361   4.507   1.772  10.936 -0.2533 -0.2613  0.2487
 2242SOL    HW118362   4.597   1.799  10.952 -0.9315  1.7497  0.6598
 2242SOL    HW218363   4.454   1.802  11.010 -2.1971 -0.4488 -1.0885
 2243SOL     OW18364   2.152   0.062   9.906 -0.4416 -0.2010  0.1028
 2243SOL    HW118365   2.241   0.086   9.881 -0.2915 -2.4696 -1.5649
 2243SOL    HW218366   2.104   0.143   9.888  2.6679  1.9187  1.4094
 2244SOL     OW18367   4.460   1.180   4.601 -0.0964 -0.0104  0.1649
 2244SOL    HW118368   4.390   1.155   4.540 -0.2373 -0.4877  0.5169
 2244SOL    HW218369   4.492   1.093   4.627  0.3394  0.4835  1.2825
 2245SOL     OW18370   0.079   0.511   3.870  0.0802  0.1230 -0.0666
 2245SOL    HW118371   4.729   0.524   3.908 -0.3310  1.5495 -1.4996
 2245SOL    HW218372   0.121   0.510   3.955 -0.3792  0.3793  0.1634
 2246SOL     OW18373   3.346   3.114   9.051 -0.0165  0.4746 -0.6655
 2246SOL    HW118374   3.380   3.168   8.979  0.5629  1.0123  0.0210
 2246SOL    HW218375   3.256   3.144   9.039  0.0572  1.9476  2.5061
 2247SOL     OW18376   1.621   1.499   6.501  0.2230  0.1048 -0.1401
 2247SOL    HW118377   1.680   1.552   6.447  3.2612 -1.3922  1.6739
 2247SOL    HW218378   1.652   1.484   6.590  0.4225  0.2873 -0.1791
 2248SOL     OW18379   2.558   1.001  13.103  0.0247  0.2248  0.1956
 2248SOL    HW118380   2.615   1.000  13.026  0.3782 -2.2136  0.4749
 2248SOL    HW218381   2.610   0.937  13.152  1.0728  1.4610  0.6981
 2249SOL     OW18382   3.842   1.652   5.284 -0.1456 -0.1957  0.4403
 2249SOL    HW118383   3.836   1.628   5.376  1.7674 -1.4703  0.2219
 2249SOL    HW218384   3.849   1.748   5.288 -1.2497 -0.1212  0.5428
 2250SOL     OW18385   3.713   1.774   2.266  0.1284  0.1076 -0.4809
 2250SOL    HW118386   3.768   1.726   2.204 -0.1020  1.7328 -1.9553
 2250SOL    HW218387   3.767   1.771   2.345 -0.1874 -1.2318 -0.3144
 2251SOL     OW18388   4.491   4.238   7.707  0.1879  0.5890  0.2289
 2251SOL    HW118389   4.530   4.187   7.778  0.0636 -0.8957 -0.7679
 2251SOL    HW218390   4.399   4.224   7.727  0.7000  1.2600  3.1115
 2252SOL     OW18391   0.811   1.809   5.641 -0.4392  0.3760  0.1574
 2252SOL    HW118392   0.736   1.759   5.673 -0.4787 -0.1551 -0.7787
 2252SOL    HW218393   0.872   1.798   5.714 -0.0964 -2.1235 -0.5058
 2253SOL     OW18394   2.586   2.802  16.579 -0.0083  0.0859  0.0387
 2253SOL    HW118395   2.577   2.897  16.576 -0.3487  0.0502 -0.0343
 2253SOL    HW218396   2.673   2.783  16.543 -1.4928 -2.7465 -2.0767
 2254SOL     OW18397   0.741   1.283   0.645  0.7170  0.1489  0.2714
 2254SOL    HW118398   0.757   1.372   0.677 -2.7631  0.9977 -0.3387
 2254SOL    HW218399   0.646   1.274   0.649  1.1035 -2.7050  3.0861
 2255SOL     OW18400   3.254   0.533   1.473  0.0638 -0.1050 -0.0779
 2255SOL    HW118401   3.316   0.574   1.412  0.1123  0.9899  0.7050
 2255SOL    HW218402   3.277   0.441   1.460 -0.7115 -0.3523  0.3048
 2256SOL     OW18403   4.191   1.140   6.976 -0.5399 -0.5760  0.7362
 2256SOL    HW118404   4.239   1.092   6.909 -2.5799 -2.9032  0.9248
 2256SOL    HW218405   4.104   1.099   6.973  0.7029 -3.0992 -0.5975
 2257SOL     OW18406   2.199   2.266  16.568 -0.3305  0.6000 -0.2612
 2257SOL    HW118407   2.211   2.319  16.490 -1.2573 -0.4296 -1.1149
 2257SOL    HW218408   2.133   2.322  16.609 -3.4158 -1.1014 -2.7971
 2258SOL     OW18409   4.660   1.644   2.735 -0.6989 -0.4271 -0.1208
 2258SOL    HW118410   4.628   1.647   2.825 -0.2473  0.0376  0.0266
 2258SOL    HW218411   4.682   1.552   2.721  1.2633 -0.0146  0.1591
 2259SOL     OW18412   0.422   4.584   4.022 -0.0809 -0.5129  0.0809
 2259SOL    HW118413   0.432   4.592   3.927  0.6845 -0.4617  0.1712
 2259SOL    HW218414   0.347   4.641   4.040 -1.3290 -1.2056 -2.8839
 2260SOL     OW18415   1.730   0.889   0.986  0.3093  0.3920 -0.8710
 2260SOL    HW118416   1.689   0.942   0.918 -0.0763 -1.0735 -1.7853
 2260SOL    HW218417   1.823   0.905   0.967  0.3861  1.5636  0.4860
 2261SOL     OW18418   3.582   2.928  10.655  0.2065  0.0047  0.5852
 2261SOL    HW118419   3.501   2.920  10.606  1.7917 -2.3062 -1.6855
 2261SOL    HW218420   3.575   2.841  10.696 -1.0949 -0.7085 -1.1231
 2262SOL     OW18421   0.093   3.283   7.744 -0.2274 -0.0488 -0.0645
 2262SOL    HW118422   0.062   3.320   7.661 -0.7377  0.2748  0.2750
 2262SOL    HW218423   0.182   3.317   7.753 -0.0357  0.3072 -3.0336
 2263SOL     OW18424   4.126   3.035  14.380  0.3880  0.2951  0.2824
 2263SOL    HW118425   4.063   2.963  14.388 -0.1730  0.8489  0.8548
 2263SOL    HW218426   4.087   3.105  14.432 -2.4826 -1.1485  0.0533
 2264SOL     OW18427   3.522   3.398   1.297  0.4797  0.3689 -0.2549
 2264SOL    HW118428   3.554   3.483   1.329  2.6328 -0.0450 -1.3569
 2264SOL    HW218429   3.433   3.406   1.331 -0.9729  1.3507 -4.2868
 2265SOL     OW18430   3.118   2.428  10.933  0.0019 -0.2278 -0.2787
 2265SOL    HW118431   3.036   2.455  10.975  0.2892 -0.4315  0.4293
 2265SOL    HW218432   3.095   2.342  10.898 -1.2244  0.9791 -2.3797
 2266SOL     OW18433   3.621   0.306   2.226  0.3866 -0.6701  0.4347
 2266SOL    HW118434   3.683   0.354   2.172  1.2178 -0.8908  1.1909
 2266SOL    HW218435   3.626   0.368   2.299  0.0744  1.3429 -1.2775
 2267SOL     OW18436   0.298   4.619   6.439  0.7935 -0.1870 -0.5339
 2267SOL    HW118437   0.357   4.624   6.514 -1.3255  2.1456  0.9789
 2267SOL    HW218438   0.215   4.625   6.487  2.1271  0.9757  1.6507
 2268SOL     OW18439   0.517   3.443  12.918  0.6905 -0.0461  0.1777
 2268SOL    HW118440   0.542   3.366  12.969 -0.2093 -2.3152 -2.7889
 2268SOL    HW218441   0.599   3.491  12.920 -0.2716  1.6747 -1.6261
 2269SOL     OW18442   1.948   2.523   8.201  0.3094  0.4915 -0.4286
 2269SOL    HW118443   1.897   2.575   8.138  0.4017  1.7868  0.5468
 2269SOL    HW218444   1.892   2.521   8.280 -0.1155 -3.0796 -0.8566
 2270SOL     OW18445   0.030   0.710  14.945 -0.6452 -0.5829 -0.0962
 2270SOL    HW118446   4.715   0.789  14.925  0.4241  0.1496  0.0403
 2270SOL    HW218447   0.076   0.684  14.865 -0.9664 -4.3839  0.9800
 2271SOL     OW18448   2.720   1.058   7.810 -0.0196  0.5701  0.1724
 2271SOL    HW118449   2.705   1.078   7.718 -2.8202 -1.1095  0.2523
 2271SOL    HW218450   2.741   1.137   7.861  2.0498  0.4866 -0.5872
 2272SOL     OW18451   4.398   2.644  11.271  0.5358  0.3265 -0.0843
 2272SOL    HW118452   4.486   2.629  11.236  0.3180 -2.2581  0.4471
 2272SOL    HW218453   4.388   2.737  11.250 -0.2740  0.0460 -0.9435
 2273SOL     OW18454   0.636   4.358  12.295 -0.2146  0.1406 -0.1428
 2273SOL    HW118455   0.609   4.270  12.268  2.2057 -0.5519 -0.3331
 2273SOL    HW218456   0.607   4.363  12.386 -1.1167 -1.5218 -0.3575
 2274SOL     OW18457   0.141   0.102   5.688 -0.1346  0.1083 -0.4371
 2274SOL    HW118458   0.142   0.154   5.608 -2.2104 -0.6044 -0.9145
 2274SOL    HW218459   0.168   0.171   5.749 -3.1375 -1.1984  2.3339
 2275SOL     OW18460   0.256   4.655   9.190 -0.0189 -0.3371  0.5016
 2275SOL    HW118461   0.203   4.656   9.110  0.1631 -0.5331  0.3798
 2275SOL    HW218462   0.317   4.584   9.170  0.6380  1.1372 -2.7674
 2276SOL     OW18463   0.629   0.603   4.594 -0.4052  0.3932  0.2095
 2276SOL    HW118464   0.578   0.684   4.601 -0.1987  0.4876  0.5977
 2276SOL    HW218465   0.716   0.642   4.603  0.1028 -1.2490  2.4163
 2277SOL     OW18466   1.901   0.350   5.633 -0.1266 -0.0358 -0.0447
 2277SOL    HW118467   1.856   0.305   5.705  0.0513 -0.6442 -0.3105
 2277SOL    HW218468   1.973   0.291   5.612 -0.8337  0.5859 -4.2430
 2278SOL     OW18469   4.633   1.659   8.387 -0.3596 -0.3960  0.2098
 2278SOL    HW118470   4.709   1.618   8.346 -1.5839 -1.1254 -1.3173
 2278SOL    HW218471   4.617   1.591   8.452  0.0327 -1.8495 -1.1975
 2279SOL     OW18472   2.915   0.907   7.030  0.1956  0.4173  0.3112
 2279SOL    HW118473   2.956   0.858   6.959 -1.4798 -1.2546  0.4984
 2279SOL    HW218474   2.912   0.999   7.002  1.0352  1.3819  3.4308
 2280SOL     OW18475   1.937   3.710   3.671  0.2451  0.7649 -0.3201
 2280SOL    HW118476   1.878   3.782   3.652  2.2756  2.1517 -1.4472
 2280SOL    HW218477   1.972   3.693   3.584 -1.1019  0.9832 -0.8954
 2281SOL     OW18478   1.252   4.130   3.962  0.0428  0.4035  0.0798
 2281SOL    HW118479   1.271   4.204   3.903  1.7082  0.0825  0.2018
 2281SOL    HW218480   1.336   4.122   4.007  0.1065 -0.2817 -0.1690
 2282SOL     OW18481   3.671   3.660  17.151  0.0997 -0.2541  0.1306
 2282SOL    HW118482   3.721   3.737  17.178  1.4073 -1.7206  1.8530
 2282SOL    HW218483   3.733   3.604  17.104  0.3388  0.6625 -0.6557
 2283SOL     OW18484   0.462   1.528  11.700 -0.0755  0.3845  0.2850
 2283SOL    HW118485   0.415   1.559  11.777  0.8614 -0.3501  1.1413
 2283SOL    HW218486   0.403   1.468  11.655  0.5609  0.0525 -0.1003
 2284SOL     OW18487   3.200   4.016   9.221  0.3794 -0.1834 -0.1115
 2284SOL    HW118488   3.247   3.935   9.237 -0.4126 -0.3712  1.2746
 2284SOL    HW218489   3.134   3.981   9.160 -1.0425  1.5481  0.4353
 2285SOL     OW18490   1.742   3.663   3.256  0.2380  0.6193 -0.5152
 2285SOL    HW118491   1.793   3.642   3.334 -0.1079  0.7694 -0.2472
 2285SOL    HW218492   1.652   3.655   3.288  0.8254  0.7659  1.1764
 2286SOL     OW18493   1.798   0.541   8.907  0.1033  0.1521 -0.3252
 2286SOL    HW118494   1.765   0.557   8.818  0.8654  2.7901 -0.1320
 2286SOL    HW218495   1.889   0.530   8.879  0.3767 -0.5161  0.8169
 2287SOL     OW18496   3.268   2.710   6.758 -0.0971  0.8212 -0.0788
 2287SOL    HW118497   3.231   2.683   6.842  5.4691 -0.9324  1.8115
 2287SOL    HW218498   3.214   2.786   6.734  0.0519  1.7330  2.3926
 2288SOL     OW18499   1.837   0.043   8.009  0.3797 -0.1784  0.2824
 2288SOL    HW118500   1.873   0.103   8.076 -1.2800  1.7109 -0.5191
 2288SOL    HW218501   1.801   4.703   8.052 -0.1417 -0.5743 -0.8777
 2289SOL     OW18502   2.794   4.519  16.528 -0.1718 -0.6582 -0.3487
 2289SOL    HW118503   2.767   4.432  16.557  0.9989 -0.5463  1.0844
 2289SOL    HW218504   2.854   4.539  16.600  0.2113  0.6284 -1.0318
 2290SOL     OW18505   4.139   0.008  11.434  0.2595 -0.1813 -0.2897
 2290SOL    HW118506   4.225   0.026  11.396  0.6866  0.7820  1.1265
 2290SOL    HW218507   4.127   4.654  11.408  2.0791 -0.5512  0.2046
 2291SOL     OW18508   3.828   0.658  17.681  0.4480 -0.5237  0.3577
 2291SOL    HW118509   3.764   0.611  17.733  1.0005 -0.8681  0.7274
 2291SOL    HW218510   3.822   0.746  17.717  0.1077 -0.7724  0.9046
 2292SOL     OW18511   2.758   3.178   7.857 -0.8271  0.3617  0.0924
 2292SOL    HW118512   2.758   3.263   7.814 -0.8033 -0.3427 -1.2878
 2292SOL    HW218513   2.845   3.189   7.895  0.4136  0.5699 -2.8128
 2293SOL     OW18514   3.502   2.747  13.820 -0.4963 -0.1672  0.0029
 2293SOL    HW118515   3.575   2.689  13.837  0.9348  1.3067 -1.0696
 2293SOL    HW218516   3.458   2.706  13.746 -0.0970 -2.7353  1.1893
 2294SOL     OW18517   2.530   4.525   3.789 -0.3904  0.1774  0.2403
 2294SOL    HW118518   2.543   4.453   3.726  0.8189  0.0240  0.6668
 2294SOL    HW218519   2.606   4.504   3.843 -0.8323  1.6346  1.4252
 2295SOL     OW18520   2.850   1.215   4.280 -0.4420 -0.4301 -0.0694
 2295SOL    HW118521   2.843   1.120   4.282 -0.6084 -0.4497 -1.9778
 2295SOL    HW218522   2.761   1.246   4.298 -0.2372 -1.2251  2.2929
 2296SOL     OW18523   0.031   2.086   1.024  0.4056 -0.7233 -0.2960
 2296SOL    HW118524   0.037   2.005   1.074 -2.3011 -0.5466  0.3123
 2296SOL    HW218525   0.046   2.066   0.932  2.0429 -1.1148  0.0585
 2297SOL     OW18526   3.274   1.703   4.219  0.1598 -0.3920  0.6144
 2297SOL    HW118527   3.222   1.784   4.218  1.2063  0.2806  0.7775
 2297SOL    HW218528   3.308   1.704   4.308  1.5631 -0.2307  0.0854
 2298SOL     OW18529   2.003   1.556  16.738 -0.7305 -0.3012 -0.6371
 2298SOL    HW118530   1.936   1.625  16.740 -0.2414  0.2302 -3.5065
 2298SOL    HW218531   1.947   1.484  16.710  0.4210 -1.3174 -0.2793
 2299SOL     OW18532   2.207   2.890  15.336 -0.0526 -0.2725 -0.3772
 2299SOL    HW118533   2.148   2.874  15.410 -0.6461 -0.4813 -0.8992
 2299SOL    HW218534   2.176   2.823  15.276  2.7010 -0.6445 -1.3494
 2300SOL     OW18535   4.368   2.155   6.137 -0.9580  0.4000  0.2531
 2300SOL    HW118536   4.295   2.174   6.078  0.6525 -0.1856 -1.9215
 2300SOL    HW218537   4.419   2.234   6.121  0.7578 -0.6726  0.4638
 2301SOL     OW18538   0.555   2.762  15.180 -0.2142  0.0249  0.0228
 2301SOL    HW118539   0.539   2.672  15.208 -1.6380 -0.0698 -1.0672
 2301SOL    HW218540   0.532   2.816  15.256  0.2609  0.0427  0.1547
 2302SOL     OW18541   2.142   2.441   7.763 -0.1440 -0.0798 -0.4690
 2302SOL    HW118542   2.154   2.417   7.671  0.3361  1.0170 -0.6991
 2302SOL    HW218543   2.138   2.358   7.809  1.7952  0.0818 -0.0080
 2303SOL     OW18544   2.971   2.416  15.473  0.1363  0.3263 -0.1914
 2303SOL    HW118545   2.970   2.343  15.411  4.1043  0.2770 -0.1793
 2303SOL    HW218546   3.054   2.396  15.517  0.5650 -0.4356 -1.3583
 2304SOL     OW18547   2.799   4.265   8.210  0.5187 -0.0329  0.9497
 2304SOL    HW118548   2.791   4.226   8.297 -1.2949 -0.3849  0.6433
 2304SOL    HW218549   2.884   4.236   8.178 -0.2598  1.2975 -2.2855
 2305SOL     OW18550   2.674   3.853   5.951  0.2449  0.3203  0.3302
 2305SOL    HW118551   2.671   3.890   6.039  2.4793  1.2972  0.0112
 2305SOL    HW218552   2.584   3.862   5.920 -0.1719 -0.7395  1.2328
 2306SOL     OW18553   1.204   3.082   9.192 -0.8349  0.2730 -0.2151
 2306SOL    HW118554   1.164   3.091   9.105 -0.2421 -0.4857 -0.5711
 2306SOL    HW218555   1.136   3.114   9.251  0.7295  0.9370  1.2093
 2307SOL     OW18556   0.267   4.572  10.820  0.2266  0.1199  0.5284
 2307SOL    HW118557   0.221   4.515  10.758  0.3000 -0.1772  0.7488
 2307SOL    HW218558   0.330   4.609  10.758  1.4341 -3.0986 -0.1812
 2308SOL     OW18559   4.069   3.905   2.750  0.1640  0.2086  0.3682
 2308SOL    HW118560   3.996   3.961   2.724 -0.1819 -0.5107 -0.2187
 2308SOL    HW218561   4.090   3.857   2.669 -0.0668  1.4221 -0.3996
 2309SOL     OW18562   3.813   2.380   2.261 -0.4493 -0.0122  0.7314
 2309SOL    HW118563   3.820   2.372   2.356 -1.3479 -0.3776  0.7660
 2309SOL    HW218564   3.875   2.310   2.241 -1.0391 -0.7662  1.5455
 2310SOL     OW18565   2.182   0.048  14.813  0.4479 -0.1584  0.1007
 2310SOL    HW118566   2.092   0.040  14.844  0.3654  3.2411  0.6669
 2310SOL    HW218567   2.207   0.137  14.838  0.1502 -0.5368  1.7652
 2311SOL     OW18568   3.910   2.738   7.804 -0.3820 -1.0646  0.5542
 2311SOL    HW118569   3.932   2.667   7.744 -1.7655 -1.9391  1.0691
 2311SOL    HW218570   3.830   2.770   7.762  0.9303  0.5016 -0.7335
 2312SOL     OW18571   2.220   3.374   9.924  0.2087 -0.1052 -0.3109
 2312SOL    HW118572   2.294   3.432   9.907  0.0969  0.2347  0.3963
 2312SOL    HW218573   2.151   3.413   9.871  0.8639  3.0436  1.2068
 2313SOL     OW18574   0.863   1.377  10.840  0.2695 -0.7445 -0.6961
 2313SOL    HW118575   0.809   1.309  10.800 -0.8896 -0.6079  0.5990
 2313SOL    HW218576   0.845   1.448  10.778  1.3339  2.3171  2.4612
 2314SOL     OW18577   4.249   0.979   6.309  0.0882 -0.0729 -0.8510
 2314SOL    HW118578   4.320   0.975   6.245 -0.5045  4.2553 -1.7784
 2314SOL    HW218579   4.217   0.888   6.304 -1.3184  0.3706  0.0932
 2315SOL     OW18580   0.085   3.216   7.400 -0.4492  0.1436 -0.0711
 2315SOL    HW118581   0.060   3.307   7.419 -0.8886 -0.3180  1.5716
 2315SOL    HW218582   0.002   3.192   7.360 -0.6508  1.9466 -0.7731
 2316SOL     OW18583   2.165   1.086  15.974 -0.2357 -0.0808 -0.0484
 2316SOL    HW118584   2.095   1.021  15.976 -0.1473 -0.1335  1.1661
 2316SOL    HW218585   2.227   1.041  15.917 -1.1393 -2.1413  0.6157
 2317SOL     OW18586   1.077   0.359   6.547  0.6843  0.2358 -0.3127
 2317SOL    HW118587   1.046   0.288   6.604  0.6129 -0.5894 -1.3794
 2317SOL    HW218588   1.169   0.333   6.549 -0.0379 -2.1758  1.2303
 2318SOL     OW18589   0.320   0.612   8.625  0.4076  0.2338  0.4409
 2318SOL    HW118590   0.238   0.569   8.649 -1.2300  1.8987 -2.1640
 2318SOL    HW218591   0.310   0.631   8.532 -0.5696  0.4587  0.5842
 2319SOL     OW18592   0.187   1.713   3.650 -0.3871 -0.1686 -0.5747
 2319SOL    HW118593   0.124   1.680   3.586 -0.6303  0.4359 -0.6395
 2319SOL    HW218594   0.125   1.771   3.695 -1.2062  0.3436 -2.3780
 2320SOL     OW18595   4.415   3.683   8.878 -0.0326  0.5646  0.3440
 2320SOL    HW118596   4.506   3.672   8.851 -0.4605 -1.9780 -0.0131
 2320SOL    HW218597   4.369   3.620   8.822  0.9761  1.9367 -2.0383
 2321SOL     OW18598   2.880   0.182  15.314 -0.1253 -0.0777 -0.6788
 2321SOL    HW118599   2.857   0.274  15.299  1.3053  0.5968  1.3953
 2321SOL    HW218600   2.948   0.197  15.379  0.3730 -0.9733 -0.9946
 2322SOL     OW18601   4.022   4.578   2.091  0.0151 -0.4512  0.0768
 2322SOL    HW118602   4.011   4.531   2.009  1.4150  1.5512 -1.2745
 2322SOL    HW218603   4.038   4.506   2.152  0.8023 -0.9302 -0.7073
 2323SOL     OW18604   2.748   1.952   8.085  0.5938 -0.0812  0.0681
 2323SOL    HW118605   2.682   1.997   8.137 -0.9008  0.7888 -2.5444
 2323SOL    HW218606   2.767   2.012   8.013 -2.3006  0.2733 -0.4127
 2324SOL     OW18607   0.795   0.464   7.119 -0.2273  0.0988 -0.1392
 2324SOL    HW118608   0.771   0.462   7.026 -0.4385  2.1240 -0.1301
 2324SOL    HW218609   0.710   0.440   7.156 -0.4939 -1.2352 -1.6168
 2325SOL     OW18610   4.677   4.275   4.638 -0.0876 -0.0402  0.1527
 2325SOL    HW118611   4.735   4.322   4.578  1.1391  0.0813  1.4307
 2325SOL    HW218612   4.726   4.286   4.719  1.6825  0.8685 -1.0386
 2326SOL     OW18613   4.045   1.936   3.632 -0.2430  0.2877 -0.0586
 2326SOL    HW118614   4.113   1.902   3.690  0.6982  1.3183 -0.5551
 2326SOL    HW218615   4.082   2.024   3.622  1.6472 -0.3324  1.4079
 2327SOL     OW18616   3.402   3.817   8.430 -0.4471  0.2901 -0.2064
 2327SOL    HW118617   3.454   3.870   8.491 -2.1939  0.3637  1.2098
 2327SOL    HW218618   3.469   3.832   8.362 -1.6706  0.1430 -1.4453
 2328SOL     OW18619   2.393   3.400   9.064  0.5547 -0.0189 -0.4528
 2328SOL    HW118620   2.340   3.404   8.984  1.0357  1.0183 -0.7088
 2328SOL    HW218621   2.360   3.322   9.109  0.9700  0.4454  0.6307
 2329SOL     OW18622   0.597   4.478   5.843 -0.3223  0.2288 -0.3264
 2329SOL    HW118623   0.605   4.483   5.938  1.5959  0.0127 -0.4886
 2329SOL    HW218624   0.663   4.543   5.820 -0.6082  0.1508 -1.4007
 2330SOL     OW18625   4.360   0.290  15.599  0.2593 -0.6507 -0.0317
 2330SOL    HW118626   4.435   0.284  15.541  1.2907  1.1902  1.1083
 2330SOL    HW218627   4.380   0.370  15.647 -0.4945 -0.7088  0.3848
 2331SOL     OW18628   0.836   1.700  12.745  0.1408 -0.2895  0.1319
 2331SOL    HW118629   0.850   1.717  12.838  0.0316  0.3694  0.0313
 2331SOL    HW218630   0.923   1.665  12.729  0.1220 -0.6278  0.7639
 2332SOL     OW18631   4.728   3.178  10.780  0.4402  0.2680 -0.1726
 2332SOL    HW118632   4.660   3.129  10.733  1.5231 -2.4734  1.0891
 2332SOL    HW218633   4.723   3.116  10.853 -0.0494 -0.7521 -1.0727
 2333SOL     OW18634   2.089   1.866   2.392  0.7833 -0.5002  0.1092
 2333SOL    HW118635   2.133   1.949   2.411 -0.4812 -0.1360  1.4222
 2333SOL    HW218636   2.116   1.818   2.471 -1.2349  1.0959  1.7464
 2334SOL     OW18637   1.040   3.666   2.495  0.3793 -0.3974  0.7153
 2334SOL    HW118638   0.965   3.657   2.435  2.0991 -3.2577 -1.0548
 2334SOL    HW218639   1.108   3.691   2.432 -0.0834  2.0556  1.2020
 2335SOL     OW18640   0.881   0.388   2.206  0.2476 -0.1362 -0.2294
 2335SOL    HW118641   0.819   0.462   2.205  0.5687  0.0895 -2.4194
 2335SOL    HW218642   0.940   0.402   2.280 -0.4836  0.6180  0.2141
 2336SOL     OW18643   1.555   0.890   8.315  0.5612  0.2650 -0.7437
 2336SOL    HW118644   1.610   0.812   8.317  1.2671  0.7468 -1.4348
 2336SOL    HW218645   1.472   0.861   8.353  0.9910 -0.0792 -0.0447
 2337SOL     OW18646   1.302   2.794   2.677  0.0514 -0.0259 -0.9856
 2337SOL    HW118647   1.397   2.789   2.666  0.0746 -2.5505  0.6095
 2337SOL    HW218648   1.295   2.795   2.772 -0.5590  0.2746 -1.0351
 2338SOL     OW18649   3.058   1.857   1.203  0.4116  0.2467 -0.1528
 2338SOL    HW118650   3.110   1.932   1.175 -0.4653  1.1112  0.5553
 2338SOL    HW218651   3.101   1.836   1.286 -0.0381  1.1800  0.3138
 2339SOL     OW18652   3.712   2.487  17.583  0.4318  0.0927  0.3013
 2339SOL    HW118653   3.681   2.416  17.639 -0.7057  2.2109  2.3367
 2339SOL    HW218654   3.683   2.459  17.496 -1.6164  0.9917  0.6916
 2340SOL     OW18655   0.068   2.777  17.423  0.2968 -0.3873  0.4482
 2340SOL    HW118656   0.026   2.769  17.337 -2.0315  2.9213  1.2543
 2340SOL    HW218657   0.150   2.734  17.399 -0.4340 -2.3967  1.5582
 2341SOL     OW18658   2.752   3.407   6.495 -0.8555  0.2282 -0.1641
 2341SOL    HW118659   2.755   3.321   6.536 -0.3686 -0.5479 -1.8389
 2341SOL    HW218660   2.749   3.378   6.404  2.5728 -2.0690  0.4871
 2342SOL     OW18661   0.732   0.871  14.834  0.4337 -0.1513 -0.3437
 2342SOL    HW118662   0.740   0.777  14.851  0.1925 -0.0545  0.2957
 2342SOL    HW218663   0.817   0.912  14.850 -0.1732  0.1752  1.9788
 2343SOL     OW18664   0.714   3.968   7.555  0.2961 -0.1706  0.5216
 2343SOL    HW118665   0.710   3.874   7.573 -2.9511 -0.1410 -0.0956
 2343SOL    HW218666   0.808   3.975   7.537 -0.0726 -0.9146 -1.6856
 2344SOL     OW18667   4.657   2.765   6.645 -0.0042 -0.7278 -0.1609
 2344SOL    HW118668   4.703   2.747   6.727  1.1006 -0.3233 -0.6884
 2344SOL    HW218669   4.568   2.731   6.654  0.6623 -2.3943  0.1335
 2345SOL     OW18670   1.599   2.504   7.223  0.4030  0.2002 -0.3254
 2345SOL    HW118671   1.539   2.469   7.289 -0.3339 -0.0832 -1.1544
 2345SOL    HW218672   1.540   2.547   7.162 -0.4096  0.8459  0.9277
 2346SOL     OW18673   1.171   2.088  11.297 -0.0507  0.1953 -0.2420
 2346SOL    HW118674   1.146   2.169  11.254 -1.5830 -0.8272 -1.2696
 2346SOL    HW218675   1.095   2.063  11.349 -0.4502 -1.6632 -1.7061
 2347SOL     OW18676   3.916   3.999   2.351 -0.1076  0.5095  0.3467
 2347SOL    HW118677   4.000   4.029   2.316 -0.5365  1.9085  0.5298
 2347SOL    HW218678   3.891   4.084   2.387  1.0354  1.8821 -2.1818
 2348SOL     OW18679   2.594   2.237   2.783 -0.0639 -0.2533  0.1682
 2348SOL    HW118680   2.609   2.285   2.865 -0.3053  1.1072 -0.5887
 2348SOL    HW218681   2.673   2.183   2.782  1.3227  1.7884 -1.1852
 2349SOL     OW18682   4.511   0.913  17.668  1.0587 -0.3286  0.2329
 2349SOL    HW118683   4.457   0.990  17.647  2.2586  0.1577 -1.0744
 2349SOL    HW218684   4.581   0.945  17.724 -0.8406  1.4411  1.5848
 2350SOL     OW18685   4.307   2.463   9.837 -0.1187  0.8984 -0.3330
 2350SOL    HW118686   4.346   2.543   9.802 -0.0059  1.5420  1.2322
 2350SOL    HW218687   4.386   2.410   9.845  1.2563  2.9850 -0.2186
 2351SOL     OW18688   3.062   2.274  10.618  0.0276  0.0554  0.2384
 2351SOL    HW118689   3.147   2.230  10.624  0.7993  1.6150  0.7259
 2351SOL    HW218690   3.085   2.362  10.587  1.3339 -0.3572  0.0214
 2352SOL     OW18691   2.255   2.936   7.944  0.9960  0.3259 -0.4874
 2352SOL    HW118692   2.220   2.991   7.874  1.4671  4.1554  2.2772
 2352SOL    HW218693   2.242   2.852   7.900 -0.7720  0.1336  0.4317
 2353SOL     OW18694   1.210   0.722   5.821 -0.3785 -0.3940  0.1050
 2353SOL    HW118695   1.238   0.721   5.913  2.3983  1.5859 -0.7262
 2353SOL    HW218696   1.223   0.632   5.790  0.5011  0.5232 -2.1548
 2354SOL     OW18697   0.995   3.914   7.507 -0.1051 -0.5579 -0.0493
 2354SOL    HW118698   1.003   3.832   7.459 -0.8202 -0.9141  0.4356
 2354SOL    HW218699   1.023   3.887   7.595 -0.3661  0.2311  0.2787
 2355SOL     OW18700   0.282   3.504  13.087 -0.1956 -0.2414 -0.1160
 2355SOL    HW118701   0.316   3.503  12.998 -0.9578 -0.2366 -0.4053
 2355SOL    HW218702   0.223   3.579  13.083 -1.0133 -0.9813 -1.6288
 2356SOL     OW18703   3.956   4.197  13.157 -0.0137  0.2245 -0.2519
 2356SOL    HW118704   3.938   4.259  13.087  0.6823 -1.6087 -2.0575
 2356SOL    HW218705   3.950   4.258  13.230 -1.0933  2.3064 -2.0773
 2357SOL     OW18706   1.963   1.799   3.969  0.7772 -0.4598  0.1708
 2357SOL    HW118707   2.050   1.822   3.936  1.5175  0.5351  2.7992
 2357SOL    HW218708   1.928   1.753   3.892 -1.0808  1.9674 -0.4534
 2358SOL     OW18709   2.915   0.328   8.607 -0.1185  0.6335  0.1795
 2358SOL    HW118710   2.916   0.367   8.695 -1.1490  0.2431  0.3660
 2358SOL    HW218711   2.827   0.291   8.611 -0.1871  0.9034  1.4217
 2359SOL     OW18712   0.886   1.446   4.477 -0.4170 -0.0504  0.5763
 2359SOL    HW118713   0.799   1.478   4.500 -0.8734  0.0953 -1.4312
 2359SOL    HW218714   0.908   1.386   4.549  1.9495 -0.5571 -0.5606
 2360SOL     OW18715   2.234   2.259   5.919 -0.1073 -0.1351  0.2387
 2360SOL    HW118716   2.174   2.289   5.988  0.9518 -2.8780  2.3765
 2360SOL    HW218717   2.169   2.237   5.853 -0.9423 -0.5608  1.1892
 2361SOL     OW18718   4.555   3.016   6.648 -0.2604  0.1323  0.3897
 2361SOL    HW118719   4.548   3.038   6.555 -0.6281  1.6106  0.7632
 2361SOL    HW218720   4.602   2.932   6.643 -1.9876 -0.8616  0.9238
 2362SOL     OW18721   1.950   0.232  15.159  0.4153  0.2196 -0.1772
 2362SOL    HW118722   1.947   0.228  15.254  2.0239 -2.0769 -0.2213
 2362SOL    HW218723   1.998   0.150  15.142  2.8516  1.3156  1.5141
 2363SOL     OW18724   0.412   2.230   8.959 -0.4060 -0.1309  0.3654
 2363SOL    HW118725   0.415   2.326   8.960 -0.0611 -0.1197 -1.4905
 2363SOL    HW218726   0.347   2.233   8.888  0.8547  0.5641 -0.7421
 2364SOL     OW18727   4.001   0.507   8.290  0.2241 -0.3528 -0.4308
 2364SOL    HW118728   3.931   0.556   8.248 -1.8326 -1.7371  1.3847
 2364SOL    HW218729   4.051   0.580   8.327  1.2460 -1.0868 -0.3507
 2365SOL     OW18730   2.903   4.439   1.457  0.9814 -0.0359 -0.8117
 2365SOL    HW118731   2.827   4.461   1.403  0.5844 -2.5734 -1.3090
 2365SOL    HW218732   2.976   4.484   1.414  1.6679  0.1759  0.5892
 2366SOL     OW18733   1.999   4.613   7.209  0.1708  0.2102  0.1689
 2366SOL    HW118734   1.907   4.593   7.227 -0.1350 -0.6588 -2.3105
 2366SOL    HW218735   1.990   4.704   7.183 -0.2469  0.4159  1.0363
 2367SOL     OW18736   3.831   2.564   6.939  0.3582 -0.1171  0.7058
 2367SOL    HW118737   3.835   2.652   6.901  2.8171  0.3909  2.1738
 2367SOL    HW218738   3.755   2.528   6.893  1.6221 -1.2308 -0.5215
 2368SOL     OW18739   3.642   4.439   1.662 -0.0016 -0.1316  0.3792
 2368SOL    HW118740   3.640   4.437   1.567  0.9717  1.0531  0.3321
 2368SOL    HW218741   3.681   4.525   1.675  1.5259 -0.5935 -1.2106
 2369SOL     OW18742   1.118   2.527   5.941  0.7985  0.2480 -0.7967
 2369SOL    HW118743   1.146   2.583   6.014 -1.3403  0.7634 -0.3485
 2369SOL    HW218744   1.072   2.461   5.993  2.5165 -0.7877 -0.6091
 2370SOL     OW18745   0.828   3.859  15.968  0.2797 -0.1641 -0.0409
 2370SOL    HW118746   0.853   3.822  15.883  0.4673  1.2881 -0.6054
 2370SOL    HW218747   0.733   3.863  15.957 -0.0256 -1.7473  2.0767
 2371SOL     OW18748   2.967   1.951   3.598  0.2204 -0.6082  0.0211
 2371SOL    HW118749   3.050   1.937   3.644 -0.2460 -0.5671  0.8684
 2371SOL    HW218750   2.920   1.870   3.613  0.6006 -1.2984 -2.5251
 2372SOL     OW18751   3.621   1.960  14.988 -0.3113 -0.2266 -0.5367
 2372SOL    HW118752   3.709   1.983  15.016 -0.4604  0.0802 -0.3086
 2372SOL    HW218753   3.561   2.004  15.049  1.4047  2.4093 -0.7372
 2373SOL     OW18754   1.320   2.460   9.372  0.4775 -0.0348 -0.0056
 2373SOL    HW118755   1.227   2.471   9.353  1.3788  2.6997 -2.6857
 2373SOL    HW218756   1.301   2.431   9.462 -0.3742  0.2432 -0.0960
 2374SOL     OW18757   4.096   3.993   7.580  0.5762  0.4056  0.3468
 2374SOL    HW118758   4.069   4.084   7.580 -1.8223 -0.3023 -0.5283
 2374SOL    HW218759   4.184   3.995   7.542  1.0603  0.3683  1.4597
 2375SOL     OW18760   1.010   2.128   4.316 -0.2382  0.2654  0.4093
 2375SOL    HW118761   1.039   2.040   4.341 -2.1116 -0.3738  0.3349
 2375SOL    HW218762   1.008   2.156   4.407 -1.5491 -0.2859  0.5449
 2376SOL     OW18763   1.758   2.563   8.403  0.1364 -0.2905  0.5631
 2376SOL    HW118764   1.741   2.648   8.444  1.2103 -0.3718  1.1742
 2376SOL    HW218765   1.737   2.501   8.473  2.4999 -0.6275  0.9574
 2377SOL     OW18766   2.034   4.316   0.004 -0.3882  0.0118 -0.1216
 2377SOL    HW118767   1.976   4.322   0.079 -1.6381 -1.3465 -0.9925
 2377SOL    HW218768   1.982   4.339  17.673 -2.0101  0.3439  1.0650
 2378SOL     OW18769   3.420   3.035   2.941 -0.2126 -0.0843  0.0729
 2378SOL    HW118770   3.377   2.954   2.967 -1.6198  0.5330 -0.3087
 2378SOL    HW218771   3.358   3.102   2.970  0.7439  1.1677 -0.7871
 2379SOL     OW18772   1.615   4.460  14.831 -0.2275 -0.0119 -0.3218
 2379SOL    HW118773   1.520   4.464  14.820 -0.6270 -0.4905  3.0898
 2379SOL    HW218774   1.620   4.364  14.838  3.0397  0.1204 -0.9398
 2380SOL     OW18775   3.767   3.095   2.613  0.3140 -0.2020  0.7358
 2380SOL    HW118776   3.825   3.170   2.607  1.2278 -1.0063 -0.5749
 2380SOL    HW218777   3.731   3.088   2.701 -0.4278 -1.8399  0.3034
 2381SOL     OW18778   2.830   2.497   2.045  0.1197  0.4201 -0.0075
 2381SOL    HW118779   2.739   2.512   2.071  0.3646  1.2138  0.4222
 2381SOL    HW218780   2.825   2.418   1.993 -0.1387  0.9067 -0.7157
 2382SOL     OW18781   4.199   4.315   8.041  0.4761  0.0675  0.2123
 2382SOL    HW118782   4.245   4.399   8.038  0.5413  0.0551  0.7516
 2382SOL    HW218783   4.213   4.272   7.957  0.4378  0.4263  0.0227
 2383SOL     OW18784   3.038   1.801   5.262 -0.2525 -0.3542 -0.2643
 2383SOL    HW118785   3.021   1.861   5.190 -0.7653 -2.9027 -2.2805
 2383SOL    HW218786   3.004   1.715   5.236  2.5489 -0.1229 -4.7356
 2384SOL     OW18787   3.272   2.009  11.269  0.5147 -0.0187 -0.4036
 2384SOL    HW118788   3.176   2.008  11.269  0.5212 -0.7934 -1.6955
 2384SOL    HW218789   3.291   2.075  11.203 -2.2656  0.5854 -0.6015
 2385SOL     OW18790   0.608   3.753  15.045 -0.0684  0.6023  0.3068
 2385SOL    HW118791   0.545   3.685  15.022  0.5136  0.9393 -2.3406
 2385SOL    HW218792   0.615   3.794  14.959 -0.5589  0.6847  0.3092
 2386SOL     OW18793   0.026   0.338  17.154  0.7739 -0.0894  0.4861
 2386SOL    HW118794   0.107   0.338  17.102 -1.1658  1.2191 -2.5603
 2386SOL    HW218795   4.735   0.246  17.160  0.0245 -0.0283 -1.9119
 2387SOL     OW18796   4.489   2.136   9.292 -0.4720 -0.4940 -0.1374
 2387SOL    HW118797   4.415   2.172   9.341  0.3104 -0.2144  0.8189
 2387SOL    HW218798   4.551   2.099   9.354 -0.0293  2.0253  0.9106
 2388SOL     OW18799   1.780   0.137  15.536 -0.4887 -0.0293  0.0648
 2388SOL    HW118800   1.730   0.112  15.458 -2.4720 -0.1897  1.3773
 2388SOL    HW218801   1.857   0.172  15.491 -1.1005  1.0098 -0.1772
 2389SOL     OW18802   1.161   1.138  14.789  0.0660 -0.3032  0.0327
 2389SOL    HW118803   1.256   1.141  14.804  0.0960  1.1439 -0.4652
 2389SOL    HW218804   1.135   1.228  14.806 -0.0782 -0.0846 -1.3562
 2390SOL     OW18805   2.156   4.290   0.418 -0.0485 -0.2773  0.0197
 2390SOL    HW118806   2.209   4.308   0.340  0.0763 -1.3822 -0.1438
 2390SOL    HW218807   2.233   4.285   0.474 -1.3831  1.7664  2.0555
 2391SOL     OW18808   0.281   1.184  15.985 -0.1020  0.7391  0.1407
 2391SOL    HW118809   0.207   1.186  15.923 -0.3304  2.8365  0.5096
 2391SOL    HW218810   0.272   1.272  16.020 -2.8258  0.0400  1.2148
 2392SOL     OW18811   1.877   4.215   5.058  0.0485  0.2229 -0.1823
 2392SOL    HW118812   1.841   4.235   4.971  1.2043 -0.5170 -0.8343
 2392SOL    HW218813   1.969   4.209   5.032  1.3100 -0.3566  4.4779
 2393SOL     OW18814   4.283   3.058  14.153  0.0679 -0.3648 -0.2705
 2393SOL    HW118815   4.358   3.096  14.199  0.1308  1.0560 -1.5407
 2393SOL    HW218816   4.219   3.045  14.223 -0.2774  0.1073 -0.4989
 2394SOL     OW18817   2.626   1.059   5.052 -0.2216 -0.3670 -0.8069
 2394SOL    HW118818   2.610   1.001   4.978  0.9472 -3.3209  1.2491
 2394SOL    HW218819   2.609   1.002   5.128  0.0645 -0.4914 -0.8354
 2395SOL     OW18820   3.140   0.737  12.334  0.1043  0.3825 -0.4006
 2395SOL    HW118821   3.129   0.783  12.417 -3.0105  0.5094 -0.8979
 2395SOL    HW218822   3.056   0.739  12.289 -1.7281  0.0813  2.9725
 2396SOL     OW18823   1.615   3.916  10.071  0.5368  0.2519  0.9737
 2396SOL    HW118824   1.689   3.968  10.101  1.7734  0.8289 -3.1117
 2396SOL    HW218825   1.595   3.865  10.150  0.3126 -1.3003 -0.0780
 2397SOL     OW18826   1.969   4.134   6.329 -0.1249 -0.0017  0.2776
 2397SOL    HW118827   1.962   4.044   6.362  0.9632 -0.0245  0.4546
 2397SOL    HW218828   2.064   4.143   6.342 -0.1983  0.1404  0.7327
 2398SOL     OW18829   1.450   0.749  11.513 -0.3392 -0.0994 -0.2884
 2398SOL    HW118830   1.422   0.839  11.529 -0.3066 -0.2467  0.6443
 2398SOL    HW218831   1.373   0.695  11.532 -0.9406  1.2775  1.1945
 2399SOL     OW18832   2.164   0.494   9.684 -0.4190  0.3334 -0.4281
 2399SOL    HW118833   2.082   0.520   9.642 -0.3826  1.4891  0.2322
 2399SOL    HW218834   2.161   0.537   9.769  2.1431 -1.2702  0.4648
 2400SOL     OW18835   1.319   0.217   6.591  0.1847 -0.3626 -0.0751
 2400SOL    HW118836   1.269   0.179   6.664 -0.5890 -0.0419 -0.4302
 2400SOL    HW218837   1.397   0.241   6.639 -0.9228  0.1924  1.4448
 2401SOL     OW18838   1.004   1.587  11.800  0.1408 -0.0446  0.1353
 2401SOL    HW118839   1.050   1.535  11.866  1.7110  0.7941 -0.2754
 2401SOL    HW218840   0.910   1.583  11.816  0.3964 -2.6009  0.9590
 2402SOL     OW18841   2.180   0.269   7.405 -0.7722  0.0164 -0.1800
 2402SOL    HW118842   2.112   0.295   7.343 -0.1582  1.2440 -0.3449
 2402SOL    HW218843   2.260   0.301   7.363 -2.1817  2.5064 -0.9461
 2403SOL     OW18844   1.965   3.937  11.586  0.1192  0.1385  0.2244
 2403SOL    HW118845   2.033   3.874  11.561  0.1167  0.6005 -0.9390
 2403SOL    HW218846   2.014   4.019  11.594  1.3843 -0.3316 -2.7557
 2404SOL     OW18847   2.006   2.851   5.198 -0.5655  0.9224 -0.0159
 2404SOL    HW118848   2.064   2.778   5.177  1.1666  2.9840 -2.5053
 2404SOL    HW218849   2.000   2.886   5.109 -0.7716  0.3566 -0.2237
 2405SOL     OW18850   0.970   3.338   6.966  0.6068  0.2748  0.2403
 2405SOL    HW118851   1.027   3.397   7.015 -0.0561  0.6062  0.6046
 2405SOL    HW218852   1.023   3.305   6.893 -1.0887 -0.5636 -0.6127
 2406SOL     OW18853   2.483   3.866   6.425  0.7067  0.2317 -0.0699
 2406SOL    HW118854   2.545   3.882   6.496 -0.0920 -1.7090  1.0726
 2406SOL    HW218855   2.471   3.771   6.426 -1.4913  0.4621 -3.0602
 2407SOL     OW18856   2.995   4.405   8.475 -0.2160  0.2392  0.0666
 2407SOL    HW118857   2.987   4.326   8.528 -0.4423  0.7892  0.8345
 2407SOL    HW218858   3.044   4.364   8.403 -0.3492  0.0529  0.0821
 2408SOL     OW18859   0.710   3.140   0.561 -0.0636 -0.7675 -0.3619
 2408SOL    HW118860   0.632   3.182   0.597  0.1512 -1.8777  1.3659
 2408SOL    HW218861   0.687   3.157   0.469 -1.8047 -0.5048  0.1210
 2409SOL     OW18862   3.717   2.321  14.144  0.5434  0.3782 -0.0190
 2409SOL    HW118863   3.658   2.364  14.083  0.5687  0.8164  0.2694
 2409SOL    HW218864   3.695   2.371  14.222 -0.7968 -1.8715  1.0298
 2410SOL     OW18865   1.300   4.681   2.474  0.6968  0.7085 -0.3293
 2410SOL    HW118866   1.213   4.682   2.433  0.6123 -1.4765 -0.1927
 2410SOL    HW218867   1.352   4.653   2.398 -0.5993 -0.4136 -0.8037
 2411SOL     OW18868   4.656   1.365   4.027 -0.2298 -0.2002  0.2677
 2411SOL    HW118869   4.681   1.274   4.044 -0.3539 -0.1369  0.8111
 2411SOL    HW218870   4.716   1.410   4.086 -2.1460  2.0923  0.4848
 2412SOL     OW18871   2.606   3.945   0.829  0.1793  0.4653 -0.1340
 2412SOL    HW118872   2.664   3.937   0.754  1.7991 -0.7557  1.2456
 2412SOL    HW218873   2.631   4.027   0.871  0.8381 -0.5866  1.5377
 2413SOL     OW18874   1.870   3.426  13.790 -0.6821 -0.1051  0.1468
 2413SOL    HW118875   1.852   3.356  13.728 -0.2667 -0.8173  0.8416
 2413SOL    HW218876   1.783   3.452  13.820 -0.2079  1.5931  0.0420
 2414SOL     OW18877   0.011   0.623  11.285  0.0703 -0.4637  0.0110
 2414SOL    HW118878   0.015   0.533  11.316 -1.9663  0.3189  2.5191
 2414SOL    HW218879   4.656   0.626  11.312 -0.9225  0.1628 -3.4556
 2415SOL     OW18880   3.999   2.826   9.733 -0.0583 -0.6779  0.4953
 2415SOL    HW118881   3.955   2.741   9.726  0.3510 -0.9251  0.8752
 2415SOL    HW218882   4.042   2.828   9.648  0.4616 -3.8263  0.6584
 2416SOL     OW18883   2.035   0.678   5.112  0.0254 -0.3490  0.2974
 2416SOL    HW118884   1.955   0.710   5.072  0.0600 -1.1221 -0.3940
 2416SOL    HW218885   1.999   0.620   5.178  1.0957 -0.1991  1.0208
 2417SOL     OW18886   4.500   3.574   9.217  0.0576 -0.2913  0.0876
 2417SOL    HW118887   4.524   3.510   9.284 -1.1525 -1.8702 -0.9729
 2417SOL    HW218888   4.582   3.625   9.216 -1.0678  1.4979 -0.9426
 2418SOL     OW18889   0.904   3.166   4.632 -0.3747  0.3867 -0.2981
 2418SOL    HW118890   0.957   3.207   4.563  2.6325 -0.9108  1.2353
 2418SOL    HW218891   0.841   3.238   4.641 -2.1390 -1.1125 -0.7636
 2419SOL     OW18892   2.798   0.745   5.532  0.1455 -0.4082 -0.4596
 2419SOL    HW118893   2.852   0.757   5.454  0.6797  0.9685  0.1186
 2419SOL    HW218894   2.726   0.808   5.522 -0.1721 -0.0929  3.9136
 2420SOL     OW18895   3.841   4.592   4.297  0.5347  0.0642  0.2269
 2420SOL    HW118896   3.834   4.630   4.385  3.3627 -0.3003  0.6398
 2420SOL    HW218897   3.935   4.604   4.284  0.3620  1.5390  0.4228
 2421SOL     OW18898   0.481   4.494   4.788  0.4590  0.3192 -0.2146
 2421SOL    HW118899   0.564   4.448   4.783  0.3244  0.0580 -0.0771
 2421SOL    HW218900   0.435   4.443   4.722 -0.1377  0.0601  0.3933
 2422SOL     OW18901   3.219   3.896  16.285  0.0772 -0.2238 -0.0226
 2422SOL    HW118902   3.237   3.930  16.198  3.2013  0.8656  1.0279
 2422SOL    HW218903   3.303   3.851  16.301 -0.2687 -0.8439  0.0613
 2423SOL     OW18904   1.204   4.127   7.787 -0.2573  0.5863  0.0273
 2423SOL    HW118905   1.231   4.201   7.733 -1.4500 -0.1771 -1.6395
 2423SOL    HW218906   1.271   4.134   7.855  0.3931 -1.4602 -0.3914
 2424SOL     OW18907   0.317   3.755  12.078  0.5881 -0.9326 -0.2553
 2424SOL    HW118908   0.265   3.690  12.031 -0.9481 -0.9603  1.4709
 2424SOL    HW218909   0.314   3.831  12.019 -0.4346 -0.8481 -0.0945
 2425SOL     OW18910   4.505   2.714   7.568  0.2631  0.4592  0.4968
 2425SOL    HW118911   4.415   2.699   7.596  0.7243  1.2643  2.4181
 2425SOL    HW218912   4.538   2.630   7.534  0.3409  0.2430  1.1034
 2426SOL     OW18913   1.543   2.863  10.959 -0.0699 -0.0917 -0.3123
 2426SOL    HW118914   1.570   2.805  10.888  0.3751  0.6680 -0.7669
 2426SOL    HW218915   1.573   2.944  10.918  3.5306 -1.6511 -0.7141
 2427SOL     OW18916   0.406   2.988   8.306 -0.0282  0.1657 -0.0513
 2427SOL    HW118917   0.328   3.013   8.258  0.1491 -1.6573 -1.3108
 2427SOL    HW218918   0.366   2.931   8.372 -0.3328  3.0750  2.2840
 2428SOL     OW18919   1.983   1.185   3.083 -0.5131  0.2464  0.1914
 2428SOL    HW118920   1.991   1.115   3.019 -1.5511  1.7987 -1.6332
 2428SOL    HW218921   2.005   1.141   3.165 -1.2520 -1.5474 -0.5753
 2429SOL     OW18922   3.283   1.151   6.931 -0.2487 -0.6252 -0.0878
 2429SOL    HW118923   3.242   1.233   6.902 -0.3898 -0.7950 -0.3748
 2429SOL    HW218924   3.330   1.169   7.012  1.6750 -1.4079 -1.0162
 2430SOL     OW18925   3.783   2.517   8.399 -0.6548 -0.0111  0.1704
 2430SOL    HW118926   3.695   2.480   8.406 -0.7412  0.2077  0.2477
 2430SOL    HW218927   3.834   2.448   8.357  1.8567  1.8264  0.1433
 2431SOL     OW18928   1.356   0.352   8.592 -0.2469  0.0357 -0.4010
 2431SOL    HW118929   1.298   0.347   8.668  2.3603 -0.2961  1.5662
 2431SOL    HW218930   1.327   0.271   8.548  0.1274 -1.7949  2.6942
 2432SOL     OW18931   1.375   1.898  13.893 -0.4005 -0.2505 -0.1465
 2432SOL    HW118932   1.394   1.904  13.799 -0.1817 -0.8084 -0.1342
 2432SOL    HW218933   1.280   1.892  13.894 -0.5980  2.2734 -1.5769
 2433SOL     OW18934   4.628   2.415  17.628  0.5334  0.1226 -0.3891
 2433SOL    HW118935   4.709   2.456  17.598  1.3257 -1.1268  0.0315
 2433SOL    HW218936   4.634   2.331  17.583  0.5484 -0.2505  0.3097
 2434SOL     OW18937   0.229   0.919   9.509 -0.2333  0.1194  0.2584
 2434SOL    HW118938   0.212   0.890   9.419 -0.1293  3.8488 -0.9839
 2434SOL    HW218939   0.273   0.842   9.545 -1.4012 -1.5687 -1.9201
 2435SOL     OW18940   3.449   2.022   1.905  0.6742 -0.3408 -0.7875
 2435SOL    HW118941   3.428   2.114   1.919 -0.3646 -0.5615 -0.8901
 2435SOL    HW218942   3.400   2.006   1.824 -1.1423  1.0664  0.0312
 2436SOL     OW18943   4.419   0.308  11.205 -0.6365  0.1454  0.2899
 2436SOL    HW118944   4.377   0.344  11.283 -1.5980 -2.3131  0.8895
 2436SOL    HW218945   4.446   0.221  11.232 -0.9067 -0.7096 -2.1609
 2437SOL     OW18946   1.264   1.174   9.301 -0.3241 -0.5295 -0.3298
 2437SOL    HW118947   1.338   1.234   9.305 -1.7678  1.3724 -1.9031
 2437SOL    HW218948   1.304   1.088   9.312  3.9593  1.7265  1.3789
 2438SOL     OW18949   0.494   1.804   4.823  0.3497 -0.5955  0.1918
 2438SOL    HW118950   0.512   1.844   4.738 -2.2426 -0.1629 -0.1737
 2438SOL    HW218951   0.580   1.776   4.854  0.8475  0.2116 -0.4540
 2439SOL     OW18952   3.108   4.037   6.675  1.2485  0.3728  0.4581
 2439SOL    HW118953   3.040   4.103   6.688  0.1761 -0.4717 -0.7944
 2439SOL    HW218954   3.115   3.998   6.762 -0.3007  2.3824  1.4654
 2440SOL     OW18955   3.701   0.680   0.305 -0.6838  0.0637 -0.1907
 2440SOL    HW118956   3.693   0.714   0.395 -1.5502  1.6021 -0.8558
 2440SOL    HW218957   3.797   0.678   0.307 -0.6162  1.5878 -1.5549
 2441SOL     OW18958   0.122   0.433   8.693  0.2861  0.6753 -0.2439
 2441SOL    HW118959   0.111   0.347   8.652 -0.6722 -0.1127  1.6809
 2441SOL    HW218960   0.124   0.407   8.785 -0.0013  2.8301  0.3582
 2442SOL     OW18961   4.262   0.289  13.418  0.0702  0.5748 -0.0618
 2442SOL    HW118962   4.329   0.346  13.379 -1.3444  3.1889  1.3225
 2442SOL    HW218963   4.324   0.223  13.449 -0.4613 -0.2461 -0.7815
 2443SOL     OW18964   0.161   1.414   0.515  0.0807  0.3725 -0.5027
 2443SOL    HW118965   0.069   1.436   0.501  0.9012  2.5818 -2.3988
 2443SOL    HW218966   0.188   1.497   0.554 -1.3410 -1.1715  3.8270
 2444SOL     OW18967   4.424   0.029   5.018 -0.0659 -0.3741 -0.4554
 2444SOL    HW118968   4.404   0.059   5.107 -1.7556  0.1119 -0.9912
 2444SOL    HW218969   4.451   0.110   4.974  1.0849 -0.3451  0.3213
 2445SOL     OW18970   2.457   0.420   2.235  0.0965  0.2119  0.0840
 2445SOL    HW118971   2.394   0.453   2.300 -1.1254 -1.3390 -0.3108
 2445SOL    HW218972   2.503   0.366   2.300 -0.6743  1.0786  1.3693
 2446SOL     OW18973   4.424   3.574   5.347 -0.5805  0.7855  0.2391
 2446SOL    HW118974   4.468   3.655   5.323 -3.1385  2.5941  1.7156
 2446SOL    HW218975   4.334   3.597   5.327  0.2085  3.6820  0.0460
 2447SOL     OW18976   2.387   3.560   9.866 -0.0529  0.7124 -0.2636
 2447SOL    HW118977   2.339   3.631   9.824  1.6050  1.6697 -0.5688
 2447SOL    HW218978   2.466   3.551   9.812  0.1285  1.3008 -0.1041
 2448SOL     OW18979   4.649   1.099   6.466 -0.3935  0.2363 -0.6952
 2448SOL    HW118980   4.722   1.047   6.499 -0.7637 -0.8402 -1.5846
 2448SOL    HW218981   4.694   1.183   6.462 -1.4073  0.6931 -2.3747
 2449SOL     OW18982   4.638   1.130  15.331  0.0864 -0.0691  0.8008
 2449SOL    HW118983   4.625   1.214  15.287 -1.1979 -0.7763 -0.1939
 2449SOL    HW218984   4.684   1.091  15.257  0.3887  2.3526 -0.2758
 2450SOL     OW18985   0.164   4.467  16.940  0.3560 -0.2964  0.5890
 2450SOL    HW118986   0.247   4.423  16.924  0.4345  0.2119 -0.4037
 2450SOL    HW218987   0.114   4.438  16.863  1.8518 -2.2973  0.3609
 2451SOL     OW18988   0.664   2.280   5.232 -0.1443  0.4735 -0.0557
 2451SOL    HW118989   0.622   2.205   5.272 -0.4869  1.0774  0.7107
 2451SOL    HW218990   0.725   2.310   5.299  0.6962 -2.8267  0.6159
 2452SOL     OW18991   4.731   1.072   2.551 -0.1708 -0.8893  0.0904
 2452SOL    HW118992   4.699   1.152   2.509  1.8413 -0.2789 -0.2731
 2452SOL    HW218993   4.681   1.080   2.633  0.7420 -1.5607  0.7110
 2453SOL     OW18994   3.958   1.997   3.158 -0.2178  0.5272 -0.0363
 2453SOL    HW118995   3.973   1.952   3.075 -1.1354 -1.1777  0.7078
 2453SOL    HW218996   3.866   2.022   3.153 -0.5423 -0.3460  1.5110
 2454SOL     OW18997   2.968   4.346   4.844 -0.0748  0.1222  0.0784
 2454SOL    HW118998   2.894   4.357   4.783  0.8399 -0.6782 -1.1798
 2454SOL    HW218999   3.022   4.294   4.784 -2.2050 -0.4937 -1.3263
 2455SOL     OW19000   2.742   4.233  14.478  0.9878  0.3728 -0.2925
 2455SOL    HW119001   2.680   4.207  14.409 -0.0291  2.7196 -0.2510
 2455SOL    HW219002   2.679   4.259  14.544  1.3786 -0.6124  0.4622
 2456SOL     OW19003   2.856   0.932   8.134  0.1829  0.0344 -0.3161
 2456SOL    HW119004   2.775   0.904   8.091 -0.9796  1.8960  0.6292
 2456SOL    HW219005   2.821   0.959   8.219  1.5087  1.0573 -0.0932
 2457SOL     OW19006   3.910   4.150   7.106 -0.2368  1.0512 -0.0312
 2457SOL    HW119007   3.970   4.134   7.034 -0.0309 -1.5655  0.7018
 2457SOL    HW219008   3.944   4.074   7.153 -0.4419  1.4226  0.7107
 2458SOL     OW19009   1.830   1.699   0.459  0.5114 -0.1666 -0.2324
 2458SOL    HW119010   1.886   1.723   0.533 -0.8133  1.0381  0.3802
 2458SOL    HW219011   1.849   1.606   0.456  1.8151  0.0296  1.4750
 2459SOL     OW19012   1.644   0.598  14.454  0.4842 -0.8116 -0.3324
 2459SOL    HW119013   1.580   0.543  14.498 -1.2545  0.4166 -1.3366
 2459SOL    HW219014   1.715   0.586  14.517 -0.1832  1.3468  0.8242
 2460SOL     OW19015   3.426   0.862   6.051 -0.7102 -0.2445 -0.6803
 2460SOL    HW119016   3.471   0.939   6.086  0.9202 -0.8225 -1.5248
 2460SOL    HW219017   3.381   0.892   5.972 -2.4504 -1.4189 -0.1486
 2461SOL     OW19018   4.266   1.314  12.578  0.1789  0.1111 -0.3643
 2461SOL    HW119019   4.230   1.231  12.547 -0.6361 -1.3904  4.5192
 2461SOL    HW219020   4.360   1.294  12.572  0.0013 -0.2772 -1.7296
 2462SOL     OW19021   4.056   2.992   2.759  0.5280 -0.2141 -0.2319
 2462SOL    HW119022   4.019   3.031   2.679  1.5305  0.4488 -0.3741
 2462SOL    HW219023   4.011   3.046   2.824 -0.3681 -0.6483 -0.4931
 2463SOL     OW19024   2.467   0.944   4.105 -0.0700  1.1630 -0.4341
 2463SOL    HW119025   2.405   0.891   4.054  0.3877 -0.0868  0.3214
 2463SOL    HW219026   2.548   0.899   4.083  0.1102  0.2878  2.0362
 2464SOL     OW19027   1.659   3.459   7.290 -0.1413  0.1121  0.7000
 2464SOL    HW119028   1.609   3.540   7.295 -0.6343 -0.3073  2.4670
 2464SOL    HW219029   1.652   3.445   7.196  0.2820 -0.7400  0.7970
 2465SOL     OW19030   2.281   2.588   7.091  0.1678 -0.4477 -0.2125
 2465SOL    HW119031   2.342   2.550   7.154  0.1206  0.7045  0.5270
 2465SOL    HW219032   2.206   2.609   7.148  0.1777 -1.3240  0.1217
 2466SOL     OW19033   0.923   1.063  12.785  0.2812 -0.1132  0.1318
 2466SOL    HW119034   0.914   1.150  12.824 -1.0061 -0.9160  1.6317
 2466SOL    HW219035   1.007   1.028  12.815 -0.4301 -0.8390  1.2703
 2467SOL     OW19036   2.148   3.835  12.177  0.5467  0.7814 -0.1772
 2467SOL    HW119037   2.223   3.826  12.236 -1.9015 -0.1250  2.8683
 2467SOL    HW219038   2.089   3.771  12.218  1.9203 -1.7978 -2.2906
 2468SOL     OW19039   3.099   2.117   5.699  0.3801  0.1737 -0.0749
 2468SOL    HW119040   3.019   2.156   5.734  0.2130 -1.6378  1.6076
 2468SOL    HW219041   3.052   2.056   5.641 -0.5389  2.1804 -1.4180
 2469SOL     OW19042   0.363   1.455   5.556  0.5982  0.0652 -0.0678
 2469SOL    HW119043   0.287   1.487   5.509  2.8782  0.1359 -3.7635
 2469SOL    HW219044   0.312   1.432   5.634 -1.4017  3.7103 -0.3405
 2470SOL     OW19045   0.175   4.500  15.592  0.8290 -0.6751 -0.3495
 2470SOL    HW119046   0.084   4.527  15.608  1.9262  1.8831  1.6092
 2470SOL    HW219047   0.174   4.425  15.652 -2.7425  0.5508  1.1520
 2471SOL     OW19048   0.439   2.922   2.550  0.2847  0.0845  0.1225
 2471SOL    HW119049   0.354   2.967   2.544 -0.1026 -0.9780 -2.4753
 2471SOL    HW219050   0.415   2.892   2.637 -2.0348  0.1027 -0.5168
 2472SOL     OW19051   1.461   3.665  12.206 -0.0515  0.0876 -0.0627
 2472SOL    HW119052   1.532   3.601  12.201 -0.0439  0.0671  0.3444
 2472SOL    HW219053   1.403   3.617  12.265  0.4247  0.1596  0.4599
 2473SOL     OW19054   2.251   1.634   4.113 -0.0505  0.4018 -0.0415
 2473SOL    HW119055   2.269   1.568   4.046  0.0074  1.5376 -1.1358
 2473SOL    HW219056   2.274   1.576   4.186 -1.5656  1.2450  1.0964
 2474SOL     OW19057   4.625   1.395  16.633  0.1534  0.5231 -0.0793
 2474SOL    HW119058   4.551   1.335  16.643  0.1129  0.8080  1.3307
 2474SOL    HW219059   4.668   1.357  16.557 -1.0622 -0.3475 -0.3262
 2475SOL     OW19060   1.829   2.120  17.289 -0.3932  0.6015 -0.5100
 2475SOL    HW119061   1.826   2.169  17.207  0.6358 -1.8714 -2.0549
 2475SOL    HW219062   1.919   2.137  17.317 -0.9820  1.6531  0.7127
 2476SOL     OW19063   1.358   1.330   0.344  0.3983  0.4982 -0.4859
 2476SOL    HW119064   1.433   1.309   0.399 -0.3388  0.7219  0.5948
 2476SOL    HW219065   1.378   1.419   0.314  1.0613  0.3538 -0.4867
 2477SOL     OW19066   1.322   0.943   7.800  0.1700  0.1108 -0.2174
 2477SOL    HW119067   1.317   0.849   7.815  1.1599  0.2855  1.1443
 2477SOL    HW219068   1.251   0.956   7.737 -0.0303 -0.7082 -0.1554
 2478SOL     OW19069   3.182   1.481   7.947 -0.1199 -0.0945  0.0960
 2478SOL    HW119070   3.135   1.555   7.908  0.8916 -0.0600 -1.0603
 2478SOL    HW219071   3.141   1.412   7.896  1.6850 -2.7362  2.2356
 2479SOL     OW19072   1.402   1.825   1.764 -0.6529 -0.0421  0.8019
 2479SOL    HW119073   1.491   1.815   1.732 -1.4296 -2.3223 -0.6424
 2479SOL    HW219074   1.360   1.758   1.711  2.0285 -1.2524  0.2165
 2480SOL     OW19075   2.687   1.878   5.628  0.0598 -0.1970 -0.5628
 2480SOL    HW119076   2.652   1.894   5.541 -4.1369  0.0808  1.1804
 2480SOL    HW219077   2.648   1.791   5.634  0.9897 -0.5160  0.9909
 2481SOL     OW19078   0.945   2.919   6.003  0.0673 -0.3076  0.5285
 2481SOL    HW119079   0.904   2.903   5.918 -3.5333  0.0212  2.1833
 2481SOL    HW219080   0.890   2.991   6.032  0.1807  0.2643 -0.6948
 2482SOL     OW19081   2.320   2.066  15.374  0.3739  0.2306 -0.2722
 2482SOL    HW119082   2.297   2.028  15.289 -1.2433 -0.4621  0.4840
 2482SOL    HW219083   2.363   2.148  15.348  1.0291 -0.1870 -0.5335
 2483SOL     OW19084   4.246   3.958   6.155  0.4278  0.0775  0.4195
 2483SOL    HW119085   4.244   3.982   6.062 -3.6237  2.3342  1.1047
 2483SOL    HW219086   4.160   3.930   6.186 -0.3926  1.1229 -0.9200
 2484SOL     OW19087   2.291   0.207  17.398 -0.0032  0.4479  0.5457
 2484SOL    HW119088   2.239   0.248  17.329  1.0280 -0.1655 -0.5832
 2484SOL    HW219089   2.380   0.228  17.370  0.4689  0.0101  1.7226
 2485SOL     OW19090   2.562   0.712  16.545  0.4787  0.1048 -0.2097
 2485SOL    HW119091   2.637   0.724  16.488  0.2046  1.0665 -0.3729
 2485SOL    HW219092   2.589   0.752  16.627 -2.2029  0.6547  0.4257
 2486SOL     OW19093   1.461   3.993  12.245  0.0726 -0.0030 -0.2466
 2486SOL    HW119094   1.503   3.912  12.215 -0.8635 -0.1063 -1.2597
 2486SOL    HW219095   1.374   3.958  12.260 -0.1554  1.4729  1.8957
 2487SOL     OW19096   2.369   1.949   2.217 -0.1620 -0.7283 -0.3790
 2487SOL    HW119097   2.279   1.980   2.214 -0.2206 -0.8817 -0.1684
 2487SOL    HW219098   2.398   1.975   2.129  0.0211  1.4596  0.3274
 2488SOL     OW19099   0.917   4.112  15.704 -0.4221  0.0119 -0.4863
 2488SOL    HW119100   0.840   4.128  15.760 -1.2483 -0.3729 -1.5170
 2488SOL    HW219101   0.972   4.188  15.723 -1.2417  1.2264 -2.9094
 2489SOL     OW19102   1.696   1.613   9.324 -0.2845  0.5803  0.1287
 2489SOL    HW119103   1.726   1.625   9.414 -1.3394  1.8090  0.3177
 2489SOL    HW219104   1.677   1.702   9.292  2.2933  1.5584  1.3279
 2490SOL     OW19105   3.952   0.534  12.462 -0.3140  0.2120  0.3937
 2490SOL    HW119106   3.993   0.497  12.540 -0.0609  1.7458  0.9852
 2490SOL    HW219107   3.896   0.460  12.438  0.0764  0.0662 -0.0700
 2491SOL     OW19108   4.649   2.412   3.195 -0.2782  0.1691 -0.6259
 2491SOL    HW119109   4.567   2.394   3.242  0.3378 -0.2337  0.2909
 2491SOL    HW219110   4.706   2.432   3.269 -0.1593  0.1831 -0.7225
 2492SOL     OW19111   1.811   1.726  12.897 -0.2896  0.0979  0.0944
 2492SOL    HW119112   1.872   1.654  12.916 -0.3679  0.4989  1.8113
 2492SOL    HW219113   1.813   1.726  12.801 -1.1674  2.9444  0.0896
 2493SOL     OW19114   2.348   0.015   4.274 -0.1028  0.3798 -0.4139
 2493SOL    HW119115   2.275   4.712   4.227 -0.2607  1.5198 -1.1596
 2493SOL    HW219116   2.407   4.677   4.280 -0.4630  0.2095  0.8511
 2494SOL     OW19117   3.597   0.425  12.609 -0.0979 -0.4912  0.2719
 2494SOL    HW119118   3.613   0.408  12.516  0.5254  1.3727  0.0295
 2494SOL    HW219119   3.504   0.401  12.608 -0.2022 -0.0182 -1.0934
 2495SOL     OW19120   2.042   0.744   6.098  0.3329 -0.3192  0.4630
 2495SOL    HW119121   2.125   0.738   6.144  1.1207  2.6936 -0.6375
 2495SOL    HW219122   2.004   0.658   6.119 -1.0950  0.6336  1.7703
 2496SOL     OW19123   1.904   2.440   1.598 -0.3023  0.5710  0.8848
 2496SOL    HW119124   1.898   2.506   1.667  0.7848  1.6116 -0.0166
 2496SOL    HW219125   1.913   2.363   1.655  2.3431 -0.9558 -1.5875
 2497SOL     OW19126   3.681   4.479   1.388  0.1174 -0.4736 -0.0848
 2497SOL    HW119127   3.735   4.512   1.317 -0.7376 -1.7693 -1.3255
 2497SOL    HW219128   3.627   4.415   1.342 -1.0185 -1.6573  2.8686
 2498SOL     OW19129   2.898   1.524   5.317  0.2056  0.3481  0.2954
 2498SOL    HW119130   2.971   1.469   5.287 -1.3828 -1.2513 -0.6504
 2498SOL    HW219131   2.817   1.475   5.304  1.0028 -0.4099 -1.7981
 2499SOL     OW19132   2.294   2.821   8.794  0.3911 -0.4816 -0.0645
 2499SOL    HW119133   2.324   2.781   8.876 -0.6406 -0.0915  0.5111
 2499SOL    HW219134   2.198   2.824   8.800  0.4125 -0.8042  0.4325
 2500SOL     OW19135   3.430   2.621   8.679 -0.0866 -0.5514  0.2192
 2500SOL    HW119136   3.354   2.672   8.707 -1.4008 -2.1453 -0.4910
 2500SOL    HW219137   3.405   2.586   8.593 -1.9521 -1.5541  1.1648
 2501SOL     OW19138   3.144   4.580  10.387 -0.2135  0.7262 -0.5781
 2501SOL    HW119139   3.222   4.548  10.341  0.2001 -0.6640  1.0742
 2501SOL    HW219140   3.093   4.501  10.405  0.6790  0.2037 -0.3474
 2502SOL     OW19141   0.756   1.182   9.437 -0.7237 -0.3219  0.4367
 2502SOL    HW119142   0.706   1.104   9.461 -0.8552 -1.4089 -3.4663
 2502SOL    HW219143   0.842   1.144   9.419 -0.0441  0.0065  2.9162
 2503SOL     OW19144   4.293   3.880   1.182  0.1074 -0.4813  0.3078
 2503SOL    HW119145   4.261   3.833   1.105  3.0216 -0.4652 -0.9321
 2503SOL    HW219146   4.349   3.947   1.142 -1.0692  1.0626  1.2564
 2504SOL     OW19147   1.372   2.318   3.507  0.2061 -0.2905  0.0670
 2504SOL    HW119148   1.287   2.274   3.495 -0.3745  1.1236 -0.9458
 2504SOL    HW219149   1.413   2.310   3.421  0.0193  0.2247 -0.0663
 2505SOL     OW19150   2.211   4.539   9.070 -0.1177 -0.1306  0.0851
 2505SOL    HW119151   2.202   4.634   9.059  1.1315  0.0366  0.5645
 2505SOL    HW219152   2.123   4.515   9.100 -1.8918  5.6513 -0.4099
 2506SOL     OW19153   0.800   2.135  13.221 -0.4442  0.0433 -0.0132
 2506SOL    HW119154   0.717   2.117  13.176 -0.5015 -1.9599  0.8937
 2506SOL    HW219155   0.768   2.208  13.274  0.2488 -1.2304  2.1384
 2507SOL     OW19156   3.516   3.650   3.820  0.0335  0.0784  0.5763
 2507SOL    HW119157   3.524   3.746   3.822 -1.9781  0.3048 -1.3233
 2507SOL    HW219158   3.603   3.623   3.792 -0.5732 -1.4745  0.1597
 2508SOL     OW19159   1.672   3.601   6.319 -0.2076  0.0359  0.3784
 2508SOL    HW119160   1.612   3.676   6.323  0.1656  0.4452 -1.5567
 2508SOL    HW219161   1.613   3.538   6.278 -0.5553  1.2522 -1.0008
 2509SOL     OW19162   1.653   1.255   4.332  0.2739  0.5717 -0.3442
 2509SOL    HW119163   1.739   1.250   4.291  0.9149  1.6944  0.8274
 2509SOL    HW219164   1.674   1.283   4.422  3.2160 -3.3486  0.1915
 2510SOL     OW19165   3.793   2.392  13.166  0.1650  0.3466 -0.2076
 2510SOL    HW119166   3.801   2.298  13.179 -0.3489  0.2121 -0.8814
 2510SOL    HW219167   3.886   2.413  13.175  0.0571  0.8070 -0.1439
 2511SOL     OW19168   1.205   0.514   3.964 -0.0070  0.4992  0.2227
 2511SOL    HW119169   1.121   0.499   3.922 -0.3177 -2.3718  1.8743
 2511SOL    HW219170   1.247   0.428   3.957  0.2909  0.5472  1.4161
 2512SOL     OW19171   2.288   0.873  15.403  0.1647  0.1720 -0.4114
 2512SOL    HW119172   2.383   0.870  15.412  0.0637  0.0529  0.6469
 2512SOL    HW219173   2.273   0.781  15.383  1.5259 -0.1555  0.0726
 2513SOL     OW19174   1.397   0.275   0.256 -0.7578 -0.4730  0.4453
 2513SOL    HW119175   1.477   0.315   0.222  1.0442 -3.4558  1.1865
 2513SOL    HW219176   1.332   0.307   0.192 -1.5702 -2.4518  0.2977
 2514SOL     OW19177   2.889   2.042   3.153 -0.5519 -0.4896  0.2525
 2514SOL    HW119178   2.947   1.999   3.216  1.4558  2.1113  0.1621
 2514SOL    HW219179   2.949   2.074   3.086 -0.8292 -0.7142 -0.1026
 2515SOL     OW19180   1.729   0.085  13.128 -0.3084  0.3948 -0.0846
 2515SOL    HW119181   1.733   0.179  13.111  1.7124  0.5632  1.2616
 2515SOL    HW219182   1.807   0.062  13.178 -0.2511  0.1848 -0.2728
 2516SOL     OW19183   1.740   3.539  12.764 -0.7451 -0.1692 -0.0906
 2516SOL    HW119184   1.833   3.550  12.783 -0.6969 -1.0550  0.1543
 2516SOL    HW219185   1.715   3.498  12.846  0.0808  1.7698  1.1236
 2517SOL     OW19186   2.593   0.321   5.339 -0.2589 -0.3333 -0.4626
 2517SOL    HW119187   2.570   0.244   5.392 -1.3673 -0.2106 -0.7700
 2517SOL    HW219188   2.674   0.354   5.379 -0.2241 -0.5078 -0.3869
 2518SOL     OW19189   3.821   2.907   5.944  0.5757  0.4175 -0.2647
 2518SOL    HW119190   3.838   2.937   6.033 -0.1227  1.0424 -0.3322
 2518SOL    HW219191   3.779   2.986   5.909  0.5901  0.3403 -0.4568
 2519SOL     OW19192   1.027   2.143   6.283 -0.2418 -0.5641 -0.1099
 2519SOL    HW119193   1.018   2.196   6.204  0.1944 -0.8123 -0.3285
 2519SOL    HW219194   0.934   2.120   6.286 -0.5993  0.6437 -2.0289
 2520SOL     OW19195   2.330   4.648   4.922  0.0640 -0.5680  0.5367
 2520SOL    HW119196   2.396   4.675   4.859 -1.3264 -0.0698 -0.6877
 2520SOL    HW219197   2.349   4.554   4.913 -2.6785 -0.9878 -0.8460
 2521SOL     OW19198   4.521   0.475   8.527  0.1636 -0.0147  0.0197
 2521SOL    HW119199   4.596   0.533   8.510  1.2825 -1.7104 -0.7988
 2521SOL    HW219200   4.527   0.478   8.623  0.4224  3.2861 -0.1073
 2522SOL     OW19201   3.282   0.005   4.724  0.4489 -0.1083  0.0802
 2522SOL    HW119202   3.358   0.006   4.781  1.0213 -2.0213 -0.6170
 2522SOL    HW219203   3.235   4.681   4.781 -0.1201  0.0344 -0.2387
 2523SOL     OW19204   3.297   1.283   8.981 -0.7023  0.2750  0.1216
 2523SOL    HW119205   3.230   1.221   9.007  1.4966 -1.7872  0.8784
 2523SOL    HW219206   3.361   1.217   8.953 -0.0966  1.3858 -1.1210
 2524SOL     OW19207   4.677   4.508   5.680  0.6256  0.2344 -0.0490
 2524SOL    HW119208   0.023   4.528   5.637  0.8848  1.0849  0.8428
 2524SOL    HW219209   4.680   4.413   5.672 -3.2711  0.2087 -1.3783
 2525SOL     OW19210   3.535   4.469   6.064 -0.2196 -0.1524  0.3645
 2525SOL    HW119211   3.453   4.434   6.099 -0.0304 -0.4362  0.5198
 2525SOL    HW219212   3.531   4.418   5.983 -2.0427  3.7200 -1.9950
 2526SOL     OW19213   3.775   3.529   7.565 -0.0455  0.6638  0.0091
 2526SOL    HW119214   3.753   3.618   7.593  1.2252  1.0610 -0.2090
 2526SOL    HW219215   3.695   3.478   7.558 -0.2543  1.3218 -2.5604
 2527SOL     OW19216   1.208   3.179   4.238  0.0728 -0.0032  0.4473
 2527SOL    HW119217   1.265   3.168   4.162 -0.4318 -2.7101  0.4891
 2527SOL    HW219218   1.149   3.106   4.224  0.7631 -0.5304  0.3010
 2528SOL     OW19219   4.661   3.787   1.915 -0.4612 -0.2173  0.0555
 2528SOL    HW119220   4.714   3.708   1.899 -0.7916 -0.5036  0.3592
 2528SOL    HW219221   4.602   3.790   1.840  0.2520 -1.7069 -0.5826
 2529SOL     OW19222   1.504   3.378   8.558  0.6257  0.0754 -0.4829
 2529SOL    HW119223   1.483   3.413   8.472 -0.3171 -0.9392 -0.6592
 2529SOL    HW219224   1.597   3.357   8.545  0.5702 -0.8344  0.5494
 2530SOL     OW19225   3.634   4.049   5.761 -0.0499 -0.2812 -0.0352
 2530SOL    HW119226   3.726   4.064   5.783  0.6706 -2.6545 -1.3915
 2530SOL    HW219227   3.636   4.054   5.665 -1.5669 -0.5980 -0.0947
 2531SOL     OW19228   3.744   0.076   3.708  0.1600 -0.2811  0.0508
 2531SOL    HW119229   3.765   0.107   3.796 -2.3453  0.8329  0.2396
 2531SOL    HW219230   3.759   4.720   3.726 -0.7133 -0.3917  0.2085
 2532SOL     OW19231   1.466   4.370   5.106  0.2159  0.6722 -0.1528
 2532SOL    HW119232   1.438   4.379   5.015  1.3031  3.6248 -0.2107
 2532SOL    HW219233   1.387   4.394   5.156 -1.0809 -0.4169 -1.6800
 2533SOL     OW19234   0.880   4.540  11.235  0.0386  0.8083 -0.0029
 2533SOL    HW119235   0.812   4.606  11.250  0.7139  1.0302  2.1034
 2533SOL    HW219236   0.856   4.461  11.283  0.5211  1.9373  2.0875
 2534SOL     OW19237   3.790   2.234   5.336  0.3055  0.0668 -0.4755
 2534SOL    HW119238   3.820   2.324   5.345  0.8116  0.0083 -1.5907
 2534SOL    HW219239   3.695   2.243   5.345  0.2124  1.2364 -2.7609
 2535SOL     OW19240   0.486   1.283   4.377 -0.9011  0.0965  0.6963
 2535SOL    HW119241   0.544   1.262   4.451  1.3485 -0.3022 -1.1814
 2535SOL    HW219242   0.540   1.355   4.346  0.8221 -1.6912 -0.5049
 2536SOL     OW19243   4.296   2.900  12.157  0.0580  0.1346 -0.0210
 2536SOL    HW119244   4.380   2.855  12.148 -1.0934 -1.5905 -2.1404
 2536SOL    HW219245   4.252   2.873  12.077  1.5546 -0.4232 -0.6540
 2537SOL     OW19246   4.518   3.074   8.378 -0.0212 -0.1671 -0.0237
 2537SOL    HW119247   4.458   3.000   8.363  0.5284 -0.2059 -2.0467
 2537SOL    HW219248   4.540   3.066   8.471  0.6936 -0.2365 -0.2006
 2538SOL     OW19249   0.723   2.172   3.481  0.3485  0.3877 -0.2218
 2538SOL    HW119250   0.745   2.265   3.473  1.2592  0.0647 -1.4921
 2538SOL    HW219251   0.668   2.165   3.559 -0.1313 -1.5092 -0.7205
 2539SOL     OW19252   2.205   3.355   4.267 -0.2304 -0.2672 -0.2394
 2539SOL    HW119253   2.168   3.438   4.300  0.5595  0.4470 -1.1625
 2539SOL    HW219254   2.287   3.366   4.315 -2.0531  0.5392  2.7292
 2540SOL     OW19255   3.481   0.390   5.887 -0.6705 -0.8245  0.0281
 2540SOL    HW119256   3.395   0.427   5.867  0.3082  2.1245  1.2198
 2540SOL    HW219257   3.531   0.465   5.855 -2.5078 -0.4384 -1.9100
 2541SOL     OW19258   1.756   0.159   4.472 -0.1100 -0.3545 -0.1796
 2541SOL    HW119259   1.752   0.204   4.556 -2.1378 -1.1755  0.1587
 2541SOL    HW219260   1.836   0.198   4.437 -0.2669  0.0329 -0.1156
 2542SOL     OW19261   0.018   2.971  16.992  0.2225 -1.3082  0.4792
 2542SOL    HW119262   0.099   2.967  16.940 -0.1222 -3.2619  0.0975
 2542SOL    HW219263   0.053   3.045  17.041 -0.1914 -2.2101  2.1413
 2543SOL     OW19264   3.715   4.328  15.801  0.1589 -0.2768  0.4091
 2543SOL    HW119265   3.809   4.331  15.817 -0.0465  2.6919  1.0924
 2543SOL    HW219266   3.692   4.401  15.743 -0.2591 -1.3134 -0.7223
 2544SOL     OW19267   3.743   2.309   3.197 -0.6021  0.4221 -0.2185
 2544SOL    HW119268   3.826   2.354   3.208 -1.3617  1.9867 -0.8694
 2544SOL    HW219269   3.685   2.363   3.250 -2.2220  1.2425 -2.8298
 2545SOL     OW19270   3.872   2.479   5.104 -0.3054 -0.1434  0.2353
 2545SOL    HW119271   3.828   2.475   5.189  1.3849 -0.1801  1.1240
 2545SOL    HW219272   3.811   2.530   5.052  0.3034  1.1459  0.7771
 2546SOL     OW19273   0.917   2.755  14.339  0.6368  0.8452  0.1129
 2546SOL    HW119274   0.991   2.795  14.292  1.0453 -0.8173 -0.6819
 2546SOL    HW219275   0.872   2.710  14.268  0.7772  1.3490 -0.3013
 2547SOL     OW19276   4.445   2.451   4.852 -0.1969  0.2652 -0.2433
 2547SOL    HW119277   4.497   2.438   4.931 -2.3444  1.2853  1.3331
 2547SOL    HW219278   4.388   2.374   4.848  0.6373 -0.3397 -0.3695
 2548SOL     OW19279   0.376   4.213  14.984 -0.7056  0.4347  0.7987
 2548SOL    HW119280   0.305   4.175  14.931  0.8755  0.2819 -1.2116
 2548SOL    HW219281   0.390   4.295  14.937 -0.6275 -0.5043 -0.8316
 2549SOL     OW19282   3.931   3.255   5.467 -0.3264  0.1083  0.3720
 2549SOL    HW119283   3.978   3.171   5.466  0.8912  0.7940  0.3108
 2549SOL    HW219284   3.865   3.235   5.533 -0.6027 -0.9161 -0.1944
 2550SOL     OW19285   3.004   2.407   6.170  0.6135  0.1161  0.3000
 2550SOL    HW119286   3.015   2.312   6.162  1.2953  0.0993  1.4997
 2550SOL    HW219287   3.063   2.436   6.101  3.2963 -3.0730  1.2519
 2551SOL     OW19288   2.700   4.524  17.597  0.2826 -0.6698  0.0592
 2551SOL    HW119289   2.675   4.462  17.529  1.8891  0.3520 -1.4586
 2551SOL    HW219290   2.636   4.593  17.582  1.5949  0.9399  1.8040
 2552SOL     OW19291   3.080   1.897   5.955 -0.2441 -0.2994 -0.2031
 2552SOL    HW119292   3.022   1.966   5.921  1.4379  1.1912 -0.0498
 2552SOL    HW219293   3.045   1.823   5.906  2.5605 -2.0505  0.4611
 2553SOL     OW19294   0.136   2.345   8.107  0.6910  0.6710 -0.3755
 2553SOL    HW119295   0.105   2.266   8.063  1.9811  1.5902 -2.9605
 2553SOL    HW219296   0.142   2.325   8.200 -0.3250  0.0647 -0.4446
 2554SOL     OW19297   1.008   2.908  12.739 -0.1787  0.1239 -0.0816
 2554SOL    HW119298   1.085   2.861  12.771 -0.4967 -0.9117 -0.8105
 2554SOL    HW219299   0.940   2.840  12.738 -0.3010  0.2877 -2.1819
 2555SOL     OW19300   1.771   0.075   1.976  0.8438  0.2092  0.0623
 2555SOL    HW119301   1.865   0.089   1.992  1.1155 -0.8144 -0.6568
 2555SOL    HW219302   1.730   0.158   2.002 -0.1201 -0.4867  0.7541
 2556SOL     OW19303   0.257   1.391  10.394  0.3234 -0.2363  0.5482
 2556SOL    HW119304   0.278   1.428  10.308  0.5384 -1.5821  0.0216
 2556SOL    HW219305   0.342   1.401  10.437 -0.1812  1.5152  1.1511
 2557SOL     OW19306   4.107   3.672   3.448  0.5466  0.3356 -0.2102
 2557SOL    HW119307   4.132   3.588   3.409  2.8699  0.0841  1.8021
 2557SOL    HW219308   4.110   3.650   3.541 -2.5482  0.5102 -0.0614
 2558SOL     OW19309   1.624   1.199   5.093 -0.3242 -0.2007 -0.4165
 2558SOL    HW119310   1.641   1.135   5.163  0.7341 -1.2387 -1.6403
 2558SOL    HW219311   1.538   1.178   5.057 -0.4561 -2.8258  1.4403
 2559SOL     OW19312   3.693   1.064   9.910  0.1275  0.8067 -0.3028
 2559SOL    HW119313   3.766   1.005   9.892 -0.5212  0.1244 -0.7676
 2559SOL    HW219314   3.724   1.145   9.868  1.2877  0.4535 -0.1175
 2560SOL     OW19315   3.341   1.203  10.104  0.0518 -0.6863  0.3702
 2560SOL    HW119316   3.356   1.200  10.199 -0.7204  0.6991  0.5302
 2560SOL    HW219317   3.314   1.295  10.105  4.2232  0.5138  2.2602
 2561SOL     OW19318   2.162   2.767  12.882  0.0240 -0.1177 -0.1797
 2561SOL    HW119319   2.234   2.727  12.833  0.3497  2.0283 -1.4561
 2561SOL    HW219320   2.198   2.856  12.888  2.5064 -1.1496  0.2581
 2562SOL     OW19321   0.649   2.701   2.822 -0.2986  0.2600 -0.0798
 2562SOL    HW119322   0.743   2.719   2.816 -0.1824 -1.2617 -2.6370
 2562SOL    HW219323   0.637   2.607   2.817 -2.3953  0.5900 -1.2085
 2563SOL     OW19324   2.226   3.411   7.949  0.2918  0.5900  0.0310
 2563SOL    HW119325   2.309   3.382   7.911 -0.4677  0.9161 -1.8623
 2563SOL    HW219326   2.213   3.490   7.896  1.4495  0.1008 -0.9803
 2564SOL     OW19327   1.647   1.614   4.388 -0.1628  0.4340  0.4396
 2564SOL    HW119328   1.681   1.657   4.466 -1.9306 -0.2477  1.5866
 2564SOL    HW219329   1.710   1.642   4.322 -2.1376  2.9664 -0.3648
 2565SOL     OW19330   1.395   3.697   7.617 -0.5003 -0.4288  0.0484
 2565SOL    HW119331   1.475   3.725   7.574 -1.4051  1.5239 -0.3653
 2565SOL    HW219332   1.335   3.771   7.615  1.0572  0.8321  0.5651
 2566SOL     OW19333   3.360   2.756   2.986 -0.2984  0.3314 -0.4424
 2566SOL    HW119334   3.380   2.770   2.893  1.0545  1.2370 -0.0148
 2566SOL    HW219335   3.429   2.691   2.993 -0.9916 -0.3635 -0.0008
 2567SOL     OW19336   2.861   4.700   9.332  0.1015 -0.1276  0.0910
 2567SOL    HW119337   2.852   4.715   9.426 -2.0814  1.6774 -0.4087
 2567SOL    HW219338   2.807   0.030   9.290  1.6303  0.6040 -0.7324
 2568SOL     OW19339   3.422   4.493   0.974 -0.3817  0.4179 -0.5865
 2568SOL    HW119340   3.457   4.553   0.908 -0.4596 -0.0519 -1.0529
 2568SOL    HW219341   3.366   4.548   1.029  0.0667  0.3712 -0.0799
 2569SOL     OW19342   0.473   1.978   6.612  0.0713  0.3067  0.4165
 2569SOL    HW119343   0.385   1.983   6.650 -0.0349 -0.4979  0.2628
 2569SOL    HW219344   0.505   2.065   6.637  0.2596  0.2932  0.2158
 2570SOL     OW19345   3.180   3.531  14.836  0.4442 -0.5169 -0.4022
 2570SOL    HW119346   3.149   3.470  14.769 -0.6046 -0.4423  0.0073
 2570SOL    HW219347   3.216   3.600  14.781 -0.1564  0.4295  0.3955
 2571SOL     OW19348   2.286   3.192   3.648 -0.2736 -0.3269 -0.6487
 2571SOL    HW119349   2.346   3.119   3.634  0.8980  0.2783  1.2233
 2571SOL    HW219350   2.218   3.188   3.580 -0.8581 -0.5328 -0.0605
 2572SOL     OW19351   2.151   2.878   5.978 -0.0993  0.3116 -0.5492
 2572SOL    HW119352   2.076   2.916   5.932  1.8827  2.0402 -2.3290
 2572SOL    HW219353   2.194   2.835   5.904  0.1537 -0.3385 -0.0217
 2573SOL     OW19354   2.089   3.676   3.003  0.5559 -0.0295 -0.3104
 2573SOL    HW119355   1.994   3.681   3.017  0.2360 -0.7896 -2.3246
 2573SOL    HW219356   2.095   3.594   2.954  0.5322 -1.0928  1.4465
 2574SOL     OW19357   3.260   2.584   5.818 -0.2994 -0.1113  0.2631
 2574SOL    HW119358   3.194   2.533   5.770 -0.4379 -1.4826  1.9085
 2574SOL    HW219359   3.284   2.527   5.891  0.5488 -0.4404 -0.2803
 2575SOL     OW19360   0.218   0.080  16.824  0.6897  0.2070 -0.4843
 2575SOL    HW119361   0.215   0.135  16.746 -0.7286 -0.3779 -0.8404
 2575SOL    HW219362   0.200   4.732  16.783  2.5046  0.2561 -1.3746
 2576SOL     OW19363   4.686   0.114   3.654  0.6346 -0.1870  0.6668
 2576SOL    HW119364   4.607   0.072   3.690  1.2576  0.6492  3.0399
 2576SOL    HW219365   4.727   0.042   3.606  0.4767  0.1227  0.0745
 2577SOL     OW19366   1.831   1.496  15.545  0.0072 -0.3665 -0.4406
 2577SOL    HW119367   1.818   1.579  15.591 -1.6449  0.1304 -1.8128
 2577SOL    HW219368   1.808   1.438  15.617  2.4600 -0.1411  0.5570
 2578SOL     OW19369   3.266   0.404   5.158  0.8368 -0.4154 -0.1810
 2578SOL    HW119370   3.247   0.472   5.094  0.2271  0.6929  1.1766
 2578SOL    HW219371   3.359   0.426   5.164  0.8405 -0.3634 -0.4265
 2579SOL     OW19372   0.610   0.966   1.797  0.3753 -0.8485  0.0068
 2579SOL    HW119373   0.664   1.003   1.866 -0.8243 -0.9735  1.0089
 2579SOL    HW219374   0.542   1.034   1.789  2.4561  1.1727 -0.6895
 2580SOL     OW19375   0.305   0.373   9.568 -0.1062  0.1328  0.2224
 2580SOL    HW119376   0.307   0.357   9.474 -1.6486  0.5144  0.1274
 2580SOL    HW219377   0.309   0.468   9.553 -0.0151  0.2117  0.7582
 2581SOL     OW19378   1.844   3.733   4.141  0.1498  0.3479 -0.5283
 2581SOL    HW119379   1.817   3.677   4.068 -3.6033  4.2244 -2.0537
 2581SOL    HW219380   1.912   3.782   4.095 -0.6357  1.2512 -0.6994
 2582SOL     OW19381   0.934   3.139   3.235 -0.1839 -0.7324 -0.1263
 2582SOL    HW119382   1.002   3.095   3.184  3.0684  2.6745  1.3417
 2582SOL    HW219383   0.863   3.163   3.175 -0.8385 -0.4967  0.7421
 2583SOL     OW19384   0.132   3.118  17.217  0.0115  0.0358  0.1932
 2583SOL    HW119385   0.177   3.187  17.168  0.9384 -1.7821 -1.5301
 2583SOL    HW219386   0.188   3.107  17.294  0.1809  1.4567  0.2677
 2584SOL     OW19387   3.309   2.400   4.332 -0.7339  0.4363 -0.0787
 2584SOL    HW119388   3.299   2.360   4.418  0.3169 -1.4493 -0.8456
 2584SOL    HW219389   3.332   2.491   4.351 -0.6271  0.5799 -0.8902
 2585SOL     OW19390   2.974   4.679   7.435  0.1806  0.2229  0.1299
 2585SOL    HW119391   2.920   0.014   7.401 -0.6173 -1.4448 -2.1231
 2585SOL    HW219392   3.009   4.644   7.353  0.3221 -0.6245  0.5552
 2586SOL     OW19393   4.152   4.538   3.660  0.4098 -0.5397 -0.6441
 2586SOL    HW119394   4.164   4.455   3.708 -0.3649 -0.2450  0.0518
 2586SOL    HW219395   4.057   4.549   3.650  0.3099 -0.2464  0.6569
 2587SOL     OW19396   1.945   4.159   9.642  0.0462 -0.8237  0.5971
 2587SOL    HW119397   1.880   4.090   9.631 -2.4128  1.3588  1.3101
 2587SOL    HW219398   1.938   4.165   9.737  1.6229 -1.0864  0.7312
 2588SOL     OW19399   1.294   0.481   0.945 -0.0080 -0.4307  0.0412
 2588SOL    HW119400   1.228   0.484   0.876  0.2390  1.5058 -0.0948
 2588SOL    HW219401   1.333   0.397   0.920 -0.9066 -0.9657  0.4216
 2589SOL     OW19402   2.517   1.628   2.346 -0.1481 -0.0666  0.3085
 2589SOL    HW119403   2.584   1.696   2.351  0.6834 -0.9145  0.9188
 2589SOL    HW219404   2.483   1.646   2.434  0.9776 -2.6954  1.3072
 2590SOL     OW19405   1.243   2.848   3.273  0.5100 -0.1314 -0.1069
 2590SOL    HW119406   1.258   2.821   3.363 -0.0524  1.5682  0.5151
 2590SOL    HW219407   1.318   2.802   3.236  0.9962 -0.3192  1.1257
 2591SOL     OW19408   1.240   1.610   5.715  0.4028 -0.3007  0.4981
 2591SOL    HW119409   1.227   1.641   5.805 -0.9950  1.4723 -0.3101
 2591SOL    HW219410   1.309   1.671   5.689 -2.3961  2.8608  0.4578
 2592SOL     OW19411   1.386   0.720   3.799  0.3138  0.1811 -0.2852
 2592SOL    HW119412   1.478   0.743   3.790 -0.0510  2.2161  1.1416
 2592SOL    HW219413   1.386   0.627   3.822 -1.1986 -0.0731 -1.3066
 2593SOL     OW19414   3.335   2.327  10.625  0.0197 -0.7242  0.3495
 2593SOL    HW119415   3.367   2.389  10.559 -0.8392  1.1276  1.6725
 2593SOL    HW219416   3.319   2.388  10.697 -0.4311  1.2926 -1.4489
 2594SOL     OW19417   3.968   1.777   2.699 -0.1478 -0.1932  0.3110
 2594SOL    HW119418   4.063   1.775   2.685  0.0987  2.0260  1.6676
 2594SOL    HW219419   3.952   1.683   2.696 -0.3500 -0.1882  1.1712
 2595SOL     OW19420   0.686   4.396   8.945  0.0302 -0.3327 -0.5030
 2595SOL    HW119421   0.704   4.313   8.902 -1.0871  0.7073 -2.9475
 2595SOL    HW219422   0.694   4.443   8.862  1.2020  0.8654  0.2749
 2596SOL     OW19423   1.692   4.543  13.730 -0.1509  0.3435 -0.3818
 2596SOL    HW119424   1.745   4.603  13.782 -0.0319 -0.7432  0.7420
 2596SOL    HW219425   1.678   4.478  13.799  0.4279 -0.9403 -1.4846
 2597SOL     OW19426   1.175   3.940   0.349  0.3397 -0.0127  0.2614
 2597SOL    HW119427   1.111   3.977   0.410  0.3130  1.2716 -0.5326
 2597SOL    HW219428   1.166   3.847   0.370  2.3659 -0.0700  0.8000
 2598SOL     OW19429   3.925   3.185   6.492  0.3350  0.3446 -0.5410
 2598SOL    HW119430   3.906   3.279   6.491  1.0073  0.5008  0.7883
 2598SOL    HW219431   3.841   3.158   6.528  1.4098 -0.6604  1.2037
 2599SOL     OW19432   3.458   2.371   7.900 -0.0425 -0.0638 -0.5126
 2599SOL    HW119433   3.501   2.428   7.964 -0.5669  0.1892 -0.3876
 2599SOL    HW219434   3.390   2.435   7.881 -0.3356 -0.1946  0.0965
 2600SOL     OW19435   0.045   3.202   8.022 -0.2247 -0.7633  0.2066
 2600SOL    HW119436   4.687   3.211   8.031 -0.2579 -1.0831  0.1572
 2600SOL    HW219437   0.071   3.260   7.950 -1.1166 -0.4646  0.1329
 2601SOL     OW19438   2.287   3.935   1.795  0.0855  0.4526 -0.1893
 2601SOL    HW119439   2.203   3.955   1.752 -0.0356  0.7428  0.1892
 2601SOL    HW219440   2.297   4.004   1.860  3.7678 -0.7263  0.4891
 2602SOL     OW19441   2.618   3.828   9.810 -0.2207  0.5901  0.1008
 2602SOL    HW119442   2.666   3.911   9.799 -1.6647  1.1679 -1.7925
 2602SOL    HW219443   2.684   3.786   9.865 -0.7873  0.9092  1.0221
 2603SOL     OW19444   1.247   2.544   4.273 -0.1084 -0.2517  0.0599
 2603SOL    HW119445   1.160   2.556   4.312  0.5401  0.8793  1.1704
 2603SOL    HW219446   1.296   2.491   4.336  0.5712  1.0686  0.6505
 2604SOL     OW19447   1.416   1.150  11.845  0.5298 -0.5326 -0.2072
 2604SOL    HW119448   1.381   1.183  11.928  0.4280  1.8731 -1.2251
 2604SOL    HW219449   1.398   1.228  11.793 -2.1921 -1.2611 -0.3883
 2605SOL     OW19450   3.068   4.617   6.696  0.3175 -0.0204 -0.0947
 2605SOL    HW119451   3.136   4.556   6.668 -0.5930 -0.3441 -1.6236
 2605SOL    HW219452   3.022   4.620   6.612 -1.2141 -1.4327  0.6903
 2606SOL     OW19453   2.642   1.640   4.764  0.2603  0.0823 -0.6887
 2606SOL    HW119454   2.709   1.591   4.810 -2.0422 -0.9301  1.5868
 2606SOL    HW219455   2.645   1.720   4.817  1.0006  0.6563 -1.5939
 2607SOL     OW19456   0.930   4.678   7.730 -0.3837  0.5766  0.1042
 2607SOL    HW119457   0.860   4.613   7.732 -0.5342  0.8106  2.1216
 2607SOL    HW219458   1.004   4.617   7.729  0.0736  1.1248  0.9623
 2608SOL     OW19459   0.634   0.589  16.697  0.0779 -0.5579 -0.6803
 2608SOL    HW119460   0.639   0.495  16.717 -1.7670 -0.7142 -0.9524
 2608SOL    HW219461   0.543   0.612  16.680  0.0378  0.6895  1.2406
 2609SOL     OW19462   4.559   0.647   7.280 -0.5188  0.7820  0.0944
 2609SOL    HW119463   4.482   0.592   7.270  0.4702 -0.3804 -1.0267
 2609SOL    HW219464   4.600   0.615   7.360 -1.4635  0.5792  0.4936
 2610SOL     OW19465   0.702   1.010  10.511 -0.1274  0.0633 -0.3636
 2610SOL    HW119466   0.699   0.917  10.536 -0.8547 -0.0773 -0.9499
 2610SOL    HW219467   0.788   1.007  10.470 -0.0547 -0.7904 -0.1465
 2611SOL     OW19468   0.957   4.073   6.472 -0.2685  0.4259  0.0364
 2611SOL    HW119469   1.010   3.999   6.442  2.1712  1.9868  0.5035
 2611SOL    HW219470   0.901   4.031   6.538  0.6376 -2.0936 -0.7865
 2612SOL     OW19471   2.035   0.678   2.522  0.0570  0.3605 -0.1793
 2612SOL    HW119472   2.029   0.623   2.600 -1.7696 -0.5795 -0.9968
 2612SOL    HW219473   2.011   0.763   2.559  0.0819 -0.1216  0.9281
 2613SOL     OW19474   0.271   4.207   3.333  0.1284 -0.2056  0.5242
 2613SOL    HW119475   0.360   4.209   3.298  0.4348  0.3650  1.3398
 2613SOL    HW219476   0.244   4.299   3.331  1.9311  0.2858 -0.9039
 2614SOL     OW19477   0.619   2.643   9.661  0.0482 -0.4118  0.4684
 2614SOL    HW119478   0.554   2.712   9.647  0.2616 -0.1699  0.6648
 2614SOL    HW219479   0.575   2.587   9.725 -1.6038 -1.8557 -1.9144
 2615SOL     OW19480   2.022   1.341   9.939  0.7061 -0.1457  0.2293
 2615SOL    HW119481   2.005   1.426   9.898 -0.1804 -0.8432 -0.8523
 2615SOL    HW219482   2.038   1.282   9.865  0.8003  0.3685 -0.1559
 2616SOL     OW19483   4.246   3.379  14.405 -0.5103  0.2499 -0.0254
 2616SOL    HW119484   4.183   3.332  14.459  1.1162 -0.4400  1.2941
 2616SOL    HW219485   4.202   3.394  14.322 -0.0505 -1.7802 -0.6362
 2617SOL     OW19486   2.778   1.193  12.265  0.1017  0.4969 -0.2381
 2617SOL    HW119487   2.830   1.211  12.187 -0.4113  0.0522 -0.6863
 2617SOL    HW219488   2.782   1.276  12.312 -0.6167 -0.0153  0.7272
 2618SOL     OW19489   2.871   2.433  10.741 -0.3527  0.2887  0.3774
 2618SOL    HW119490   2.943   2.382  10.704  0.2533  0.7153  0.9720
 2618SOL    HW219491   2.815   2.453  10.666 -0.0054 -0.4307 -0.0654
 2619SOL     OW19492   2.694   3.917   8.546  0.5089 -0.3686  0.2630
 2619SOL    HW119493   2.757   3.851   8.515  0.2683 -0.6166  0.3017
 2619SOL    HW219494   2.737   3.940   8.628  0.2736 -0.7828  0.5038
 2620SOL     OW19495   1.005   3.595   1.756  0.1453 -0.2412 -0.6093
 2620SOL    HW119496   1.002   3.670   1.697  0.9065 -0.6371 -1.1666
 2620SOL    HW219497   1.060   3.529   1.712 -0.1715 -0.8937 -0.0225
 2621SOL     OW19498   1.927   0.543  16.711 -0.4615  0.5302  0.0531
 2621SOL    HW119499   1.899   0.488  16.785  0.8890 -0.4052 -0.1472
 2621SOL    HW219500   1.854   0.527  16.652 -0.8518  0.4607  0.5486
 2622SOL     OW19501   2.950   3.175  12.256  0.3521  0.3689  0.2417
 2622SOL    HW119502   3.009   3.245  12.284 -0.3714  0.7532  0.7980
 2622SOL    HW219503   3.014   3.117  12.213  1.7537  2.2452 -0.2163
 2623SOL     OW19504   2.017   2.179   0.762  0.5578  0.0909 -0.3081
 2623SOL    HW119505   1.979   2.241   0.700 -1.4765 -0.8281  0.0139
 2623SOL    HW219506   2.057   2.115   0.703 -0.5847  0.3844 -1.3897
 2624SOL     OW19507   1.875   2.360   0.631 -0.3319 -0.5731  0.9310
 2624SOL    HW119508   1.849   2.444   0.667 -1.0068 -0.6980  0.7321
 2624SOL    HW219509   1.812   2.353   0.560  0.4043  0.7950  0.1508
 2625SOL     OW19510   3.558   2.571   2.968 -0.7229  0.5709  0.3271
 2625SOL    HW119511   3.646   2.605   2.981 -0.7482  0.6209  0.3699
 2625SOL    HW219512   3.569   2.483   2.933  0.7231  1.1385 -0.6554
 2626SOL     OW19513   4.018   1.138   4.855 -0.0293  0.1197 -0.0408
 2626SOL    HW119514   3.955   1.186   4.908 -0.4518  0.8435 -1.1915
 2626SOL    HW219515   4.012   1.167   4.763 -0.3882 -0.0196 -0.0598
 2627SOL     OW19516   1.744   4.282   6.908  0.0611  0.1544  0.1241
 2627SOL    HW119517   1.741   4.374   6.882 -0.4743 -0.6631 -2.7267
 2627SOL    HW219518   1.668   4.274   6.966  0.0090  3.0478  0.4541
 2628SOL     OW19519   3.844   1.316   4.015  0.4809  0.3612 -0.1017
 2628SOL    HW119520   3.795   1.269   3.947  0.5880 -1.6437  1.2023
 2628SOL    HW219521   3.930   1.325   3.975  1.6680 -0.6243  2.2037
 2629SOL     OW19522   2.786   3.855   3.608 -0.1716 -0.5164  0.0672
 2629SOL    HW119523   2.838   3.797   3.551  0.6974  1.0662 -0.7456
 2629SOL    HW219524   2.707   3.799   3.609 -1.5853  1.4190 -2.1964
 2630SOL     OW19525   1.052   3.005   6.558 -0.1226 -0.3355  0.5397
 2630SOL    HW119526   1.132   2.997   6.610  1.6813 -0.3509 -2.2752
 2630SOL    HW219527   1.072   2.944   6.487  1.2973 -0.4043  0.9945
 2631SOL     OW19528   0.663   0.523   5.654  0.2017 -0.1872  0.2428
 2631SOL    HW119529   0.717   0.588   5.608 -1.8546  2.0183  0.9487
 2631SOL    HW219530   0.592   0.536   5.590  0.3004 -0.2168  0.1272
 2632SOL     OW19531   0.257   4.156   6.700 -0.8543 -0.0691 -0.1735
 2632SOL    HW119532   0.239   4.067   6.731 -1.1691 -0.6786 -2.1452
 2632SOL    HW219533   0.350   4.173   6.708 -0.6918 -1.9409  2.0045
 2633SOL     OW19534   3.343   3.365   6.668  0.1685 -0.0409  0.5637
 2633SOL    HW119535   3.265   3.371   6.724  0.9403 -0.0506  1.6262
 2633SOL    HW219536   3.413   3.328   6.722  1.1889  0.4376 -0.4410
 2634SOL     OW19537   2.412   4.008   7.098 -0.3645  0.3700 -0.6353
 2634SOL    HW119538   2.330   3.976   7.060 -0.9898  0.6904  0.4536
 2634SOL    HW219539   2.417   3.963   7.183  0.3021  1.3837 -0.1336
 2635SOL     OW19540   2.934   2.673   7.263  0.1076 -0.3251 -0.0052
 2635SOL    HW119541   2.849   2.645   7.296 -0.1828  1.7930  1.0518
 2635SOL    HW219542   2.920   2.755   7.215 -1.5192  1.2235  3.0969
 2636SOL     OW19543   1.548   0.976   2.443  0.2009  0.3813  0.4907
 2636SOL    HW119544   1.569   0.883   2.449 -1.9710 -0.0903  0.8713
 2636SOL    HW219545   1.486   0.977   2.370 -0.4546 -0.8479  1.0322
 2637SOL     OW19546   0.722   3.743   5.036  0.0249  0.8621  0.1085
 2637SOL    HW119547   0.677   3.826   5.049 -0.3440  0.5770  0.6438
 2637SOL    HW219548   0.651   3.696   5.080  0.0871  3.0712  2.5738
 2638SOL     OW19549   3.966   4.465   8.865 -0.1401 -0.3916 -0.3976
 2638SOL    HW119550   3.940   4.485   8.775  1.0065 -0.1017 -0.6631
 2638SOL    HW219551   3.898   4.515   8.910  0.4448 -0.4128  0.5041
 2639SOL     OW19552   3.145   0.205   5.264 -0.4309 -0.0345 -0.6331
 2639SOL    HW119553   3.188   0.213   5.350  0.3892  0.3262 -1.0735
 2639SOL    HW219554   3.195   0.270   5.215 -3.8909  2.2177 -1.1387
 2640SOL     OW19555   2.753   3.404   7.661 -0.2165 -0.4223  0.0566
 2640SOL    HW119556   2.844   3.435   7.660 -0.6508  0.8684  0.8209
 2640SOL    HW219557   2.727   3.406   7.570 -0.6004 -0.7465  0.1621
 2641SOL     OW19558   0.861   0.494   6.409  0.1786 -0.2814 -0.7989
 2641SOL    HW119559   0.903   0.578   6.388  1.1131 -0.4682  0.2587
 2641SOL    HW219560   0.926   0.452   6.466  0.6453  1.3382 -0.1376
 2642SOL     OW19561   1.748   2.238   6.276 -0.4100  0.0048 -0.7561
 2642SOL    HW119562   1.725   2.184   6.352 -1.3003 -1.7154 -2.2415
 2642SOL    HW219563   1.817   2.295   6.311 -0.9205  1.2468 -1.7981
 2643SOL     OW19564   3.448   3.219  16.393 -0.3005  0.2693 -0.8892
 2643SOL    HW119565   3.356   3.238  16.413 -0.8239 -1.5795 -1.5096
 2643SOL    HW219566   3.488   3.285  16.449  1.5825 -0.9284 -0.8073
 2644SOL     OW19567   1.752   0.972   4.090 -0.3819 -0.1940 -0.1206
 2644SOL    HW119568   1.844   0.980   4.064 -0.3919  0.9962  0.1900
 2644SOL    HW219569   1.706   1.016   4.018 -1.3793 -1.0971 -0.0298
 2645SOL     OW19570   1.359   4.477  14.744  0.2527 -0.1543 -0.2208
 2645SOL    HW119571   1.396   4.400  14.701  0.4522 -1.1241  1.7032
 2645SOL    HW219572   1.273   4.479  14.702  1.1178 -1.7928 -2.0382
 2646SOL     OW19573   1.587   0.339   2.519 -0.3528  0.0391 -0.0993
 2646SOL    HW119574   1.600   0.251   2.483 -2.4838 -0.7269  0.9740
 2646SOL    HW219575   1.516   0.374   2.465 -1.0671  1.9938  2.1244
 2647SOL     OW19576   0.609   1.570  17.279 -0.0846 -0.0589 -0.3607
 2647SOL    HW119577   0.552   1.573  17.202 -3.0772 -2.0546  1.7999
 2647SOL    HW219578   0.564   1.497  17.322  1.5790  0.5892  2.4550
 2648SOL     OW19579   4.253   2.488   3.122 -0.7561 -0.7925  0.2072
 2648SOL    HW119580   4.255   2.409   3.068  2.1574 -1.0055  0.6396
 2648SOL    HW219581   4.307   2.455   3.194 -1.0613 -0.0074  0.7887
 2649SOL     OW19582   0.224   2.425   2.364 -0.5441 -0.5814 -0.5855
 2649SOL    HW119583   0.312   2.431   2.327  0.2328  0.5387  1.4393
 2649SOL    HW219584   0.237   2.456   2.453 -0.2224  3.7057 -2.1088
 2650SOL     OW19585   4.514   4.489   4.695  0.0966  0.2529 -0.1196
 2650SOL    HW119586   4.543   4.483   4.786  3.3167  1.0055 -1.0974
 2650SOL    HW219587   4.581   4.427   4.667 -0.8517 -0.9489  0.2408
 2651SOL     OW19588   2.339   2.621   7.467 -0.2274  1.0487 -0.5678
 2651SOL    HW119589   2.291   2.696   7.502 -1.1585  0.4062 -0.4581
 2651SOL    HW219590   2.401   2.664   7.408  0.5204  2.8627  1.5657
 2652SOL     OW19591   3.159   4.182  17.084 -0.0543  0.1091  0.1240
 2652SOL    HW119592   3.157   4.087  17.071  1.4505  0.0931 -0.0482
 2652SOL    HW219593   3.212   4.185  17.164  0.7035  0.3434 -0.3848
 2653SOL     OW19594   1.457   0.609   8.216 -0.1348  0.8279  0.4453
 2653SOL    HW119595   1.527   0.559   8.174 -0.9850  0.1074 -0.1083
 2653SOL    HW219596   1.449   0.564   8.301  0.8841  0.8362  0.5483
 2654SOL     OW19597   2.262   4.640   3.104 -0.4838 -0.9513 -0.2784
 2654SOL    HW119598   2.284   4.547   3.107 -0.3787 -0.9976 -2.3557
 2654SOL    HW219599   2.234   4.663   3.193 -1.3690  1.1834 -1.1036
 2655SOL     OW19600   4.034   3.745   5.096 -0.2671 -0.1934  0.2111
 2655SOL    HW119601   3.959   3.689   5.077 -1.2545  1.1019  0.3213
 2655SOL    HW219602   3.996   3.828   5.125  3.0563  1.6223 -0.6271
 2656SOL     OW19603   0.288   0.153  15.174 -0.1712 -0.1595  0.0157
 2656SOL    HW119604   0.320   0.136  15.263 -0.2240  1.0613  0.2682
 2656SOL    HW219605   0.294   0.065  15.137  0.7934  0.4053 -1.1619
 2657SOL     OW19606   3.818   4.102  10.714  0.0091 -0.1308  0.0666
 2657SOL    HW119607   3.848   4.091  10.624 -0.3168  0.1362 -0.0743
 2657SOL    HW219608   3.734   4.147  10.707  1.3894  2.0297 -2.5835
 2658SOL     OW19609   1.719   0.526   8.096  0.4428  0.1118  0.3570
 2658SOL    HW119610   1.770   0.574   8.031  1.3295 -0.4152  0.6676
 2658SOL    HW219611   1.693   0.446   8.051  0.5983  0.5469 -0.5081
 2659SOL     OW19612   0.281   3.237   7.135 -0.4927 -0.4911  0.2828
 2659SOL    HW119613   0.290   3.144   7.158 -0.1432 -0.4625  0.2695
 2659SOL    HW219614   0.311   3.285   7.212  2.0872 -2.3037  0.4265
 2660SOL     OW19615   4.436   2.780   1.675 -0.0552 -0.6054 -0.2464
 2660SOL    HW119616   4.446   2.686   1.661  1.7323 -0.2267 -1.4990
 2660SOL    HW219617   4.512   2.793   1.731 -0.5388 -0.2166  0.3216
 2661SOL     OW19618   2.815   1.524   2.575  0.0511  0.6828 -0.2854
 2661SOL    HW119619   2.730   1.509   2.535 -0.2424  0.1362  0.5456
 2661SOL    HW219620   2.800   1.486   2.661  1.7989  0.5722 -0.0295
 2662SOL     OW19621   3.615   3.465  13.708 -0.2668 -0.4864  0.2307
 2662SOL    HW119622   3.532   3.446  13.664  0.0490  0.5457 -0.8027
 2662SOL    HW219623   3.657   3.381  13.690  0.5566  0.5386 -2.7123
 2663SOL     OW19624   0.489   2.587  16.333 -0.4458 -0.5834  0.1957
 2663SOL    HW119625   0.492   2.667  16.281 -1.0816 -0.7157 -0.0416
 2663SOL    HW219626   0.455   2.623  16.415 -0.2801 -0.3744  0.1726
 2664SOL     OW19627   4.225   2.656   7.510 -0.5016 -0.1486 -0.9569
 2664SOL    HW119628   4.162   2.593   7.475 -0.6192 -2.4361  3.4724
 2664SOL    HW219629   4.198   2.665   7.601  0.7671 -0.1683 -0.5769
 2665SOL     OW19630   1.921   2.540   2.709  0.9089  0.0674  0.2712
 2665SOL    HW119631   1.992   2.593   2.676 -1.8867  3.0206 -1.0199
 2665SOL    HW219632   1.934   2.463   2.654  0.5374 -1.2356  1.9747
 2666SOL     OW19633   1.255   0.921  16.762 -0.0822 -0.1978  0.1901
 2666SOL    HW119634   1.170   0.878  16.759 -0.2306  0.0835  0.4368
 2666SOL    HW219635   1.234   0.994  16.820 -1.1421 -0.1595 -0.2478
 2667SOL     OW19636   0.216   2.508   6.257  0.4804  0.6497 -0.0977
 2667SOL    HW119637   0.286   2.539   6.315  0.2013 -0.8530  1.0504
 2667SOL    HW219638   0.145   2.507   6.321  2.3629 -0.1749  1.9897
 2668SOL     OW19639   4.070   4.385   9.305 -0.8357  0.8686  0.0086
 2668SOL    HW119640   4.055   4.475   9.276 -0.3454  1.5290  1.8240
 2668SOL    HW219641   3.987   4.341   9.286 -0.6440  0.6018 -0.2007
 2669SOL     OW19642   4.491   4.080   3.259 -0.1940 -0.1393  0.1025
 2669SOL    HW119643   4.582   4.053   3.247 -0.7966 -2.8740  1.6436
 2669SOL    HW219644   4.448   3.995   3.253 -1.7405  0.5731  1.1981
 2670SOL     OW19645   1.396   3.224   6.913  0.3691 -0.4832  0.1654
 2670SOL    HW119646   1.443   3.269   6.842 -2.1480 -1.5148 -2.1673
 2670SOL    HW219647   1.464   3.215   6.979  0.3008  2.5353  0.6713
 2671SOL     OW19648   2.498   0.042   8.356  0.0366  0.1912 -0.5944
 2671SOL    HW119649   2.493   0.027   8.261 -0.2846  1.7204 -0.8175
 2671SOL    HW219650   2.491   4.688   8.384  0.4504  0.9522  1.9746
 2672SOL     OW19651   3.573   0.752  16.980  0.1528 -0.3162 -0.0522
 2672SOL    HW119652   3.591   0.718  16.892  0.1839  1.0339 -0.5759
 2672SOL    HW219653   3.536   0.840  16.969 -0.6709 -0.8883 -1.9298
 2673SOL     OW19654   1.936   0.356   9.466  0.3930 -0.0695 -0.7484
 2673SOL    HW119655   1.844   0.330   9.462  0.3562 -0.3075  1.7319
 2673SOL    HW219656   1.922   0.450   9.457  0.0574  0.0698  1.2376
 2674SOL     OW19657   3.982   3.975   6.250 -0.3193 -0.0223 -0.1596
 2674SOL    HW119658   4.000   4.059   6.293  0.8380  0.2419 -1.1707
 2674SOL    HW219659   3.924   3.999   6.178  0.8218 -2.2014 -1.7922
 2675SOL     OW19660   3.337   4.285   3.650  0.1941  0.3661  0.5235
 2675SOL    HW119661   3.278   4.212   3.632 -0.0104  0.6830 -0.0643
 2675SOL    HW219662   3.371   4.259   3.736 -0.1038  0.5828  0.7052
 2676SOL     OW19663   2.360   3.178   7.525 -0.4901 -0.5670  0.1704
 2676SOL    HW119664   2.328   3.264   7.552  0.4751  0.0984 -0.7913
 2676SOL    HW219665   2.364   3.181   7.429 -0.4134 -1.4204  0.1460
 2677SOL     OW19666   3.042   3.894   2.950  0.2831 -0.0001  0.1454
 2677SOL    HW119667   3.066   3.986   2.941  4.7677 -1.1613  0.0324
 2677SOL    HW219668   3.045   3.877   3.044  0.2364 -3.8913 -0.5538
 2678SOL     OW19669   2.113   4.033  16.998  0.1630 -0.5146  0.1921
 2678SOL    HW119670   2.161   4.072  16.926 -0.5545 -1.8874 -1.0349
 2678SOL    HW219671   2.175   3.967  17.029  2.0830  1.2762  0.0964
 2679SOL     OW19672   1.442   2.127  17.367 -0.2489  0.2863 -0.3997
 2679SOL    HW119673   1.418   2.163  17.282  1.1332 -0.7233 -1.2158
 2679SOL    HW219674   1.396   2.189  17.424 -0.0962 -0.7346  0.8276
 2680SOL     OW19675   3.815   2.770   6.401  0.2646  0.2463  0.2220
 2680SOL    HW119676   3.757   2.733   6.467  1.8707 -0.0341  1.4722
 2680SOL    HW219677   3.895   2.790   6.449 -0.2321 -0.3485  1.2885
 2681SOL     OW19678   2.039   0.467   3.749 -0.0419 -0.2472 -0.5214
 2681SOL    HW119679   2.045   0.394   3.687 -2.0522 -1.0883  0.2537
 2681SOL    HW219680   2.127   0.461   3.785 -0.0215  0.1606 -0.5124
 2682SOL     OW19681   4.439   4.043   5.413  0.1385 -0.0870 -0.2710
 2682SOL    HW119682   4.438   4.138   5.396 -0.5069  0.0406  0.4960
 2682SOL    HW219683   4.414   4.046   5.505 -2.0103  0.1610 -0.8473
 2683SOL     OW19684   1.676   0.308   0.238  0.1741  0.2860 -0.1416
 2683SOL    HW119685   1.718   0.264   0.165 -0.7334  0.5726 -0.8393
 2683SOL    HW219686   1.669   0.232   0.295 -1.0001  0.2319 -0.3607
 2684SOL     OW19687   3.111   1.057   9.011 -0.6219 -0.1348  0.4037
 2684SOL    HW119688   3.027   1.089   8.980  0.1896  1.4858 -0.1534
 2684SOL    HW219689   3.118   1.069   9.106  0.8720  0.2466  0.2525
 2685SOL     OW19690   4.251   3.625   9.099  0.4754 -0.0081  0.2874
 2685SOL    HW119691   4.340   3.619   9.135  1.1269  0.5225 -1.2676
 2685SOL    HW219692   4.255   3.691   9.030  0.6063 -0.2956  0.0211
 2686SOL     OW19693   0.104   1.700  17.324 -0.1690  0.5200 -0.1021
 2686SOL    HW119694   0.050   1.645  17.267  0.1552  1.9190 -1.7739
 2686SOL    HW219695   0.072   1.660  17.405  2.7492 -2.4723 -0.4568
 2687SOL     OW19696   1.778   4.349   4.848  0.9140 -0.5938 -0.1231
 2687SOL    HW119697   1.754   4.417   4.910  0.2760 -1.8265  0.9878
 2687SOL    HW219698   1.742   4.404   4.779 -0.1785 -1.1686 -0.0295
 2688SOL     OW19699   3.337   0.315  16.055  0.3204  0.4776 -0.4670
 2688SOL    HW119700   3.385   0.264  16.120 -0.8603  1.0375  0.8626
 2688SOL    HW219701   3.253   0.269  16.057  2.1989 -2.8587  0.7080
 2689SOL     OW19702   1.600   4.462   6.116 -0.1943  0.0971 -0.8262
 2689SOL    HW119703   1.540   4.499   6.181  0.0386  0.1397 -0.6390
 2689SOL    HW219704   1.540   4.470   6.042  0.4329  1.1200 -1.2223
 2690SOL     OW19705   0.942   2.362   2.811 -0.0196  0.5335 -0.5382
 2690SOL    HW119706   0.982   2.380   2.726 -0.3096  1.5249 -0.4580
 2690SOL    HW219707   0.905   2.274   2.796  0.2784  0.2547  0.3591
 2691SOL     OW19708   1.640   3.978  13.690 -0.0297  0.4933 -0.0259
 2691SOL    HW119709   1.570   3.930  13.733  0.2119 -0.0632 -0.2491
 2691SOL    HW219710   1.640   4.062  13.736 -1.6742 -0.3454  1.4967
 2692SOL     OW19711   2.762   0.044   2.711  0.8904  0.1261 -0.1625
 2692SOL    HW119712   2.761   0.082   2.624  0.0157 -2.0878 -1.1302
 2692SOL    HW219713   2.817   4.704   2.696  0.1581 -1.0300  2.9832
 2693SOL     OW19714   3.085   1.791  13.875  0.2569  0.2729 -0.8546
 2693SOL    HW119715   3.171   1.818  13.906 -0.2599 -0.6669  1.4301
 2693SOL    HW219716   3.042   1.872  13.904 -1.8307 -0.9023 -0.6057
 2694SOL     OW19717   4.611   0.937   7.186 -0.2321 -0.3462 -0.1537
 2694SOL    HW119718   4.595   0.846   7.212 -0.6963 -0.6107 -1.3514
 2694SOL    HW219719   4.523   0.954   7.151 -0.2590  1.5046  0.8015
 2695SOL     OW19720   0.707   3.801   1.089  0.5606 -0.3573  0.3112
 2695SOL    HW119721   0.648   3.810   1.164  0.2502  0.5500 -0.0472
 2695SOL    HW219722   0.758   3.881   1.082 -0.2980  0.0143 -1.7811
 2696SOL     OW19723   1.398   0.012   5.895 -0.0542 -0.0357  0.3573
 2696SOL    HW119724   1.360   0.093   5.859  0.6589  0.8426  1.5808
 2696SOL    HW219725   1.333   4.714   5.957  0.1432  1.0848  1.2099
 2697SOL     OW19726   0.159   4.594   6.096 -0.3623 -0.1813 -0.2223
 2697SOL    HW119727   0.143   4.525   6.160  1.6557 -0.2287  0.2503
 2697SOL    HW219728   0.074   4.613   6.057  0.0757 -0.3841 -1.2528
 2698SOL     OW19729   2.757   1.353   6.865 -0.3432  0.2556 -0.0914
 2698SOL    HW119730   2.736   1.367   6.957  0.2231  0.3548  0.0174
 2698SOL    HW219731   2.829   1.291   6.878 -0.9868 -0.5201 -0.1731
 2699SOL     OW19732   1.802   1.183   1.522  0.1092  0.0603  0.2507
 2699SOL    HW119733   1.891   1.196   1.556  0.4384  0.9148 -0.9532
 2699SOL    HW219734   1.776   1.131   1.599  0.6711  0.3888  0.6657
 2700SOL     OW19735   0.826   4.015   0.944 -0.1249  0.9182  0.2452
 2700SOL    HW119736   0.789   4.089   0.896  0.7848  0.9068 -0.4656
 2700SOL    HW219737   0.857   4.060   1.023  0.7121  2.0688 -0.7439
 2701SOL     OW19738   4.687   0.280   0.023  0.2674 -0.3898 -0.0703
 2701SOL    HW119739   4.649   0.367   0.012 -3.1602 -2.1214 -1.9382
 2701SOL    HW219740   4.679   0.248  17.679  1.1715  2.0737 -1.0351
 2702SOL     OW19741   1.090   1.102   2.438 -0.0382 -0.3722  0.0060
 2702SOL    HW119742   1.125   1.166   2.377 -0.1917 -1.0914 -0.8352
 2702SOL    HW219743   0.995   1.107   2.438  0.0431  1.0250 -2.1101
 2703SOL     OW19744   1.281   4.686  10.724 -0.2403  0.1563 -0.1359
 2703SOL    HW119745   1.287   4.736  10.806  1.7783  0.1775 -0.2841
 2703SOL    HW219746   1.331   4.608  10.748  0.4536  0.3443 -0.9710
 2704SOL     OW19747   0.158   2.146   2.259 -0.1093  0.3256  0.4203
 2704SOL    HW119748   0.073   2.149   2.214  0.4182 -0.3538 -0.6184
 2704SOL    HW219749   0.172   2.240   2.248  1.0186  0.2346  1.1291
 2705SOL     OW19750   3.305   3.737  14.718 -0.1470 -0.2877  0.2009
 2705SOL    HW119751   3.250   3.813  14.699 -0.6593 -0.5389  0.6906
 2705SOL    HW219752   3.385   3.761  14.765  1.0089 -1.4793 -1.1816
 2706SOL     OW19753   2.673   4.127  10.452 -0.5665 -0.0985 -0.4650
 2706SOL    HW119754   2.766   4.107  10.458 -0.4469  1.1971  1.9053
 2706SOL    HW219755   2.666   4.177  10.370  1.7052  1.2201  0.1500
 2707SOL     OW19756   1.020   4.663   9.477  0.4893 -0.2678 -0.2344
 2707SOL    HW119757   1.039   4.656   9.383  0.5791 -1.6732 -0.0992
 2707SOL    HW219758   0.981   0.013   9.467 -1.0441 -0.8622  0.7037
 2708SOL     OW19759   0.529   4.172   4.387  0.5862 -0.5453 -0.2632
 2708SOL    HW119760   0.587   4.147   4.315 -2.3736 -2.4961 -1.9653
 2708SOL    HW219761   0.450   4.136   4.346  1.0252 -0.4688 -1.1611
 2709SOL     OW19762   1.548   2.562   0.929  0.4979 -0.4983  0.0049
 2709SOL    HW119763   1.490   2.487   0.944 -0.9116  0.2981 -1.4082
 2709SOL    HW219764   1.634   2.523   0.936  0.9650  0.5232 -0.0328
 2710SOL     OW19765   2.975   2.609   3.120 -0.0556  0.1452 -0.3242
 2710SOL    HW119766   2.960   2.587   3.212 -1.2892 -1.5507 -0.9276
 2710SOL    HW219767   3.014   2.696   3.129  0.1956 -0.0590  0.5628
 2711SOL     OW19768   0.423   3.587   7.446  0.2200 -0.5502 -0.3428
 2711SOL    HW119769   0.395   3.506   7.404  1.4992 -0.1639 -1.9337
 2711SOL    HW219770   0.432   3.543   7.531 -3.6508  0.4941  0.5904
 2712SOL     OW19771   3.482   2.228   3.485  0.2104 -0.2910 -0.0033
 2712SOL    HW119772   3.516   2.307   3.443  0.5457 -2.9111 -4.6876
 2712SOL    HW219773   3.570   2.200   3.511  0.5197  0.9297  0.2655
 2713SOL     OW19774   1.311   3.483  16.795 -0.0227 -0.0209 -0.1318
 2713SOL    HW119775   1.219   3.492  16.767 -0.8782 -0.2729  2.5674
 2713SOL    HW219776   1.361   3.458  16.717 -1.6777 -0.7507 -0.9777
 2714SOL     OW19777   0.953   0.788   4.002  0.0837 -0.4741  0.2345
 2714SOL    HW119778   1.029   0.780   3.945 -0.3761  1.8226 -0.7000
 2714SOL    HW219779   0.877   0.789   3.943  0.1312  0.0900  0.1846
 2715SOL     OW19780   3.129   3.231   4.463 -0.3674  0.4173 -0.0424
 2715SOL    HW119781   3.196   3.184   4.513  0.3098  0.8060 -0.6013
 2715SOL    HW219782   3.119   3.167   4.392  2.6971  1.7132 -1.5865
 2716SOL     OW19783   1.070   3.721   4.412  0.6827  0.6495 -0.8353
 2716SOL    HW119784   1.122   3.745   4.335  1.0098 -0.6384 -1.0157
 2716SOL    HW219785   1.020   3.642   4.388  0.9040  0.7094 -1.5098
 2717SOL     OW19786   0.107   0.609   6.479  0.0477  0.0860  0.4304
 2717SOL    HW119787   0.171   0.539   6.489 -1.8457 -1.5579  1.1680
 2717SOL    HW219788   0.097   0.645   6.567 -1.5955  0.5803  0.0535
 2718SOL     OW19789   1.971   1.580   8.956 -0.2413  0.1309 -0.1285
 2718SOL    HW119790   2.061   1.604   8.931 -0.0035  1.2952  1.8914
 2718SOL    HW219791   1.979   1.501   9.010  0.7677 -0.4233 -1.0843
 2719SOL     OW19792   4.629   2.782   1.298  0.4600 -0.1656 -0.6192
 2719SOL    HW119793   4.667   2.711   1.349 -1.0927 -1.7364 -1.6183
 2719SOL    HW219794   4.596   2.734   1.223  0.8837 -1.4766  0.0458
 2720SOL     OW19795   2.078   4.278   4.386 -0.1480  0.1345  0.1476
 2720SOL    HW119796   2.159   4.323   4.407  0.9259 -1.9187  0.3796
 2720SOL    HW219797   2.016   4.350   4.374  1.0025  0.8427 -1.5071
 2721SOL     OW19798   3.736   3.624   1.566  0.0749  0.1303 -0.0807
 2721SOL    HW119799   3.820   3.671   1.562 -0.1107  0.1365 -4.1717
 2721SOL    HW219800   3.680   3.696   1.538  0.6082  0.5911  0.0237
 2722SOL     OW19801   0.135   1.167  16.947  0.2971  0.5035  0.4319
 2722SOL    HW119802   0.123   1.078  16.981  1.0311  0.2273 -0.0224
 2722SOL    HW219803   0.222   1.165  16.908  0.0221  0.5579 -0.1823
 2723SOL     OW19804   2.599   1.573   2.845 -0.4643  0.3031 -0.2454
 2723SOL    HW119805   2.510   1.589   2.875 -0.3060  1.0589 -0.1594
 2723SOL    HW219806   2.638   1.660   2.858 -1.1293  0.3482  1.4246
 2724SOL     OW19807   0.154   4.199   4.268 -0.2348  0.0291  0.0200
 2724SOL    HW119808   0.190   4.252   4.197  0.4743 -0.7539 -0.2130
 2724SOL    HW219809   0.204   4.117   4.272 -1.6326 -0.9198 -1.8597
 2725SOL     OW19810   2.181   2.667   5.653 -0.2289  0.1295 -0.6929
 2725SOL    HW119811   2.212   2.660   5.563  2.3591 -2.4045  0.3736
 2725SOL    HW219812   2.240   2.733   5.690 -1.0991  0.2321  0.5115
 2726SOL     OW19813   1.181   0.579   5.255 -0.4250  0.2094 -0.1518
 2726SOL    HW119814   1.130   0.593   5.175 -0.8143  1.3345  0.3136
 2726SOL    HW219815   1.147   0.639   5.320 -0.3371  0.7424 -0.5962
 2727SOL     OW19816   4.719   1.532  17.621  0.1958 -0.5383  0.4085
 2727SOL    HW119817   4.652   1.493  17.564  2.2901 -2.2898 -0.8495
 2727SOL    HW219818   4.671   1.586  17.684 -1.5828 -2.3910  0.6377
 2728SOL     OW19819   2.410   0.623  14.501  0.2171  0.2465 -0.1279
 2728SOL    HW119820   2.338   0.659  14.553 -0.9359 -0.1031 -1.4835
 2728SOL    HW219821   2.486   0.673  14.531 -1.2820  0.4328  3.3162
 2729SOL     OW19822   2.974   2.905  10.550  0.1803 -0.4751  0.0358
 2729SOL    HW119823   2.981   2.838  10.619  1.0452 -0.1192  0.2913
 2729SOL    HW219824   3.015   2.857  10.478  1.1221  0.3324  0.0318
 2730SOL     OW19825   3.208   0.412   8.339  0.1653  0.4237  0.8006
 2730SOL    HW119826   3.156   0.332   8.332  0.5191  0.3391 -0.7488
 2730SOL    HW219827   3.139   0.477   8.354  0.6486  1.0869  0.1444
 2731SOL     OW19828   3.652   1.709   2.817 -0.1436  0.3551  0.4222
 2731SOL    HW119829   3.643   1.802   2.835 -0.0872  0.5475 -0.5395
 2731SOL    HW219830   3.672   1.680   2.907 -0.1343 -2.2038 -0.3995
 2732SOL     OW19831   1.580   1.903  12.228 -0.0270  0.1348  0.4517
 2732SOL    HW119832   1.641   1.958  12.180 -0.7317  0.3133 -0.2328
 2732SOL    HW219833   1.635   1.890  12.306 -1.7430 -3.0528  1.1359
 2733SOL     OW19834   1.103   1.357   5.590 -0.1205 -0.6430  0.5229
 2733SOL    HW119835   1.017   1.373   5.550 -0.9002 -0.9932  2.0613
 2733SOL    HW219836   1.127   1.444   5.620 -0.9559 -0.7820  1.5630
 2734SOL     OW19837   4.676   1.409   5.299 -0.3600  0.1957  0.3190
 2734SOL    HW119838   4.720   1.420   5.215 -0.1152  0.5131  0.4896
 2734SOL    HW219839   4.593   1.454   5.286  0.7452  1.8936 -0.8209
 2735SOL     OW19840   3.011   2.432   7.147 -0.2106 -0.6253  0.1477
 2735SOL    HW119841   2.921   2.408   7.127 -0.1179  0.2538 -1.4030
 2735SOL    HW219842   3.004   2.519   7.185 -1.4645 -0.6980  0.0894
 2736SOL     OW19843   3.842   3.219  16.451  0.0583  0.3165  0.1091
 2736SOL    HW119844   3.933   3.220  16.479  0.1847  0.0418 -0.2835
 2736SOL    HW219845   3.815   3.309  16.470  2.2210  1.3088 -1.5198
 2737SOL     OW19846   1.100   3.027  10.495 -0.1619 -0.6640 -0.4762
 2737SOL    HW119847   1.189   2.995  10.477  0.5236  2.1406 -2.1657
 2737SOL    HW219848   1.085   2.997  10.584  0.2750  0.5430 -0.0082
 2738SOL     OW19849   0.957   3.815   1.603 -0.0260 -0.5722 -0.3057
 2738SOL    HW119850   0.914   3.848   1.524  0.4709 -0.0330 -0.3488
 2738SOL    HW219851   1.002   3.895   1.630  2.2454 -2.3446  1.0970
 2739SOL     OW19852   1.050   1.349   9.266  0.1970  0.2127 -0.6070
 2739SOL    HW119853   1.012   1.261   9.277  1.8340 -0.4736 -0.5135
 2739SOL    HW219854   1.138   1.320   9.246 -0.2243 -0.7265 -1.0989
 2740SOL     OW19855   1.012   2.033   8.807 -0.3293  0.4138 -0.3084
 2740SOL    HW119856   0.954   1.957   8.806  1.5170 -0.9653 -0.0629
 2740SOL    HW219857   0.957   2.096   8.855 -2.8350  0.1155 -2.8188
 2741SOL     OW19858   3.672   0.220   6.786 -0.2816 -0.1660  0.4764
 2741SOL    HW119859   3.726   0.227   6.707 -1.1034 -3.2497 -0.3624
 2741SOL    HW219860   3.617   0.298   6.780  0.2985  0.0742 -1.5283
 2742SOL     OW19861   2.744   4.462   3.951 -0.2047 -0.2111 -0.0773
 2742SOL    HW119862   2.839   4.459   3.941  0.1996  0.6954  3.4696
 2742SOL    HW219863   2.728   4.395   4.018  1.8944 -0.2231  0.4071
 2743SOL     OW19864   2.412   0.534   8.583 -0.1235  0.3524  0.1875
 2743SOL    HW119865   2.473   0.607   8.577 -1.6170  1.5525 -0.3457
 2743SOL    HW219866   2.338   0.562   8.529  0.1233 -0.2554 -0.4800
 2744SOL     OW19867   0.179   1.561   4.794 -0.5283  0.2853  0.3696
 2744SOL    HW119868   0.142   1.649   4.799 -0.9024  0.0574  1.7077
 2744SOL    HW219869   0.117   1.499   4.834  0.6593 -0.4220  1.1424
 2745SOL     OW19870   2.257   0.439   1.855 -0.1823  0.1509 -0.1160
 2745SOL    HW119871   2.326   0.479   1.803 -0.4372 -1.6165 -1.8368
 2745SOL    HW219872   2.293   0.437   1.943 -2.2220  1.6266  0.7561
 2746SOL     OW19873   4.630   0.228  14.389 -0.7434 -0.0401 -0.0643
 2746SOL    HW119874   4.607   0.192  14.303 -1.2779 -2.5501  1.1422
 2746SOL    HW219875   4.679   0.309  14.375  0.0542 -0.7511 -1.4132
 2747SOL     OW19876   4.634   1.304  17.165 -0.8037  0.1177  0.0413
 2747SOL    HW119877   4.663   1.283  17.254 -0.7383  1.3638  0.3177
 2747SOL    HW219878   4.646   1.228  17.108  0.6480  0.1349  0.3147
 2748SOL     OW19879   4.370   3.467  10.294  0.8682 -0.6060  0.6773
 2748SOL    HW119880   4.452   3.422  10.274  0.9810  0.3236 -0.9134
 2748SOL    HW219881   4.390   3.508  10.378 -1.3153  1.8785 -0.0245
 2749SOL     OW19882   2.869   1.347   5.991  0.1594 -0.0144  0.5648
 2749SOL    HW119883   2.807   1.416   6.015  1.5690  1.5342 -0.2217
 2749SOL    HW219884   2.912   1.393   5.919 -1.3758 -0.9637 -0.9421
 2750SOL     OW19885   0.980   3.571   2.717 -0.2027  0.0454 -0.2910
 2750SOL    HW119886   1.023   3.600   2.636 -0.9484 -0.0587 -0.7276
 2750SOL    HW219887   0.890   3.568   2.684 -0.9654 -0.9039  1.8624
 2751SOL     OW19888   3.873   2.258   7.220  0.2229  0.0504 -0.1313
 2751SOL    HW119889   3.858   2.351   7.202 -1.0210 -0.1794 -0.3039
 2751SOL    HW219890   3.818   2.239   7.296  1.3139 -0.6035  0.4914
 2752SOL     OW19891   3.394   0.245   7.414  0.0998  0.1633 -0.1848
 2752SOL    HW119892   3.417   0.217   7.503  0.0880  0.7570  0.0045
 2752SOL    HW219893   3.433   0.332   7.407  1.7104 -0.7496 -2.6805
 2753SOL     OW19894   2.148   3.316   3.833 -0.1563 -0.8295 -0.0865
 2753SOL    HW119895   2.138   3.409   3.812 -1.0033 -1.1600 -1.0878
 2753SOL    HW219896   2.176   3.278   3.750 -0.1645 -1.8453  0.3809
 2754SOL     OW19897   3.269   0.561   0.534  0.1378  0.2594 -0.4408
 2754SOL    HW119898   3.239   0.470   0.545  3.5495 -0.7551  0.3964
 2754SOL    HW219899   3.347   0.565   0.589 -1.1337 -3.3693  1.6819
 2755SOL     OW19900   3.876   4.139   1.296 -0.2083 -0.1223 -0.0010
 2755SOL    HW119901   3.869   4.113   1.387 -0.2345  1.2041  0.3758
 2755SOL    HW219902   3.799   4.102   1.254  0.1465  0.4999 -1.2148
 2756SOL     OW19903   0.665   3.683   7.609  0.4197 -0.7968 -0.4561
 2756SOL    HW119904   0.649   3.649   7.521  1.0405 -1.8915 -0.1498
 2756SOL    HW219905   0.644   3.605   7.659 -2.6654  1.3927  1.6136
 2757SOL     OW19906   3.682   4.039   4.601  0.5079 -0.2600 -0.0148
 2757SOL    HW119907   3.701   4.049   4.508 -0.2335 -1.0344 -0.2381
 2757SOL    HW219908   3.765   4.068   4.640  0.9638 -1.6762  0.0651
 2758SOL     OW19909   3.448   0.186  12.508 -0.1353  0.0924 -0.3784
 2758SOL    HW119910   3.495   0.183  12.425 -1.3438  2.9767 -1.1319
 2758SOL    HW219911   3.388   0.260  12.499 -1.2611 -1.1967 -3.5280
 2759SOL     OW19912   2.529   0.267  12.448  0.1851 -0.0536 -0.2895
 2759SOL    HW119913   2.529   0.232  12.359 -0.3025 -0.5770 -0.0751
 2759SOL    HW219914   2.475   0.345  12.434 -0.3786 -0.3565  0.2518
 2760SOL     OW19915   4.352   1.425   7.940 -0.5135 -0.1697 -0.0767
 2760SOL    HW119916   4.275   1.419   7.884  0.7940 -3.4927 -1.5204
 2760SOL    HW219917   4.422   1.436   7.875  1.5469 -0.4514  2.0939
 2761SOL     OW19918   1.034   4.180  10.568 -0.0547  0.4080  0.6403
 2761SOL    HW119919   1.070   4.111  10.512  0.7722  1.8906 -0.6478
 2761SOL    HW219920   1.111   4.208  10.618  1.1895 -1.3888 -0.2683
 2762SOL     OW19921   4.047   0.175   2.610  0.2043 -0.3386 -0.3258
 2762SOL    HW119922   3.965   0.134   2.584 -0.0870 -0.3343  0.6099
 2762SOL    HW219923   4.052   0.231   2.532 -1.9473  0.2960 -0.0097
 2763SOL     OW19924   3.424   2.189   3.201  0.4255 -0.0486 -0.2058
 2763SOL    HW119925   3.435   2.165   3.294  0.5844 -0.2467 -0.2744
 2763SOL    HW219926   3.382   2.275   3.198 -0.6171 -0.5033  1.1216
 2764SOL     OW19927   3.632   4.377   9.071  0.3852 -0.0117 -0.0017
 2764SOL    HW119928   3.666   4.461   9.040 -0.4649  0.3490  0.0260
 2764SOL    HW219929   3.714   4.340   9.104  0.1789  0.7874  1.4087
 2765SOL     OW19930   4.596   3.141   4.866 -0.2754  0.2740 -0.4102
 2765SOL    HW119931   4.673   3.098   4.905 -1.1763 -0.4038  0.5988
 2765SOL    HW219932   4.592   3.225   4.912 -3.9955  0.1111 -0.4815
 2766SOL     OW19933   1.082   2.405   2.535 -0.3758 -0.7776  0.7713
 2766SOL    HW119934   1.149   2.380   2.471  0.3081  1.4516  0.6141
 2766SOL    HW219935   1.003   2.419   2.483 -0.1802 -1.3143  0.3254
 2767SOL     OW19936   3.135   0.686  12.036 -0.2270  0.5494 -0.2628
 2767SOL    HW119937   3.081   0.614  12.003  0.2918 -0.8808  2.0628
 2767SOL    HW219938   3.180   0.648  12.112 -0.3055  1.0345  0.0243
 2768SOL     OW19939   1.692   4.659   3.519  0.6207 -0.4243  0.3478
 2768SOL    HW119940   1.600   4.635   3.505  0.9563 -1.2153 -0.4288
 2768SOL    HW219941   1.700   4.628   3.609 -3.0448  0.5261  1.0073
 2769SOL     OW19942   2.933   1.254   8.605  0.2673 -0.2109 -0.6410
 2769SOL    HW119943   2.975   1.170   8.587  0.4543 -0.2477 -0.0357
 2769SOL    HW219944   3.004   1.303   8.647 -0.0944 -0.2077 -0.0338
 2770SOL     OW19945   4.441   2.202   8.096  0.2306  0.1017 -0.5039
 2770SOL    HW119946   4.398   2.117   8.103  1.9459 -0.6610  0.8713
 2770SOL    HW219947   4.413   2.234   8.010 -0.3545  1.2616  0.1119
 2771SOL     OW19948   2.602   3.015   4.221 -0.4548 -0.1466 -0.1020
 2771SOL    HW119949   2.547   3.078   4.175 -1.6271 -1.1662 -0.1195
 2771SOL    HW219950   2.542   2.981   4.288  0.2500 -2.2524 -0.5279
 2772SOL     OW19951   4.280   1.449   1.440 -0.5081  0.1941 -0.6010
 2772SOL    HW119952   4.284   1.399   1.358  0.6484  0.4043 -0.6699
 2772SOL    HW219953   4.252   1.379   1.498 -0.0225 -0.1579 -0.7923
 2773SOL     OW19954   4.388   3.247   3.453 -0.3641 -0.0466  0.4054
 2773SOL    HW119955   4.420   3.275   3.539 -1.3990 -0.3242  0.8835
 2773SOL    HW219956   4.419   3.156   3.449 -0.1755  0.1873 -3.8727
 2774SOL     OW19957   3.224   4.661   1.042  0.2662  0.2795  0.2057
 2774SOL    HW119958   3.152   4.667   0.979 -0.3315  0.9652  0.9608
 2774SOL    HW219959   3.216   0.017   1.064 -0.9222  0.2981 -0.3102
 2775SOL     OW19960   4.084   1.282  12.963 -0.6453 -0.1374 -0.4863
 2775SOL    HW119961   4.022   1.227  12.914 -1.2699 -1.4847  1.8058
 2775SOL    HW219962   4.112   1.353  12.906 -0.8209 -0.8095 -1.4084
 2776SOL     OW19963   4.450   2.259   9.657 -0.0392  0.5166 -0.0311
 2776SOL    HW119964   4.544   2.242   9.664 -0.1015  0.1439 -0.0810
 2776SOL    HW219965   4.412   2.172   9.647  1.7690 -0.1969 -0.6992
 2777SOL     OW19966   0.039   2.036  13.933 -0.4080 -0.3928 -0.5956
 2777SOL    HW119967   0.126   2.032  13.973  0.8039  0.6036 -3.1123
 2777SOL    HW219968   0.062   2.054  13.842 -0.4214 -0.6100 -0.6407
 2778SOL     OW19969   1.844   3.428   1.874  0.3208 -0.0703  0.1187
 2778SOL    HW119970   1.849   3.457   1.965  0.0042 -1.4267  0.5717
 2778SOL    HW219971   1.892   3.497   1.829  0.0873 -0.3082 -0.4977
 2779SOL     OW19972   2.645   0.028   6.100 -0.0482  0.1860  0.2754
 2779SOL    HW119973   2.690   0.106   6.069 -1.7143  1.4272  0.9552
 2779SOL    HW219974   2.571   0.063   6.150 -0.7789 -2.8699  1.3731
 2780SOL     OW19975   1.247   0.694   6.661 -0.4550 -0.1350 -0.2125
 2780SOL    HW119976   1.325   0.736   6.696  0.8979 -2.7874 -0.0088
 2780SOL    HW219977   1.174   0.738   6.705  0.3173 -0.6020  1.5446
 2781SOL     OW19978   1.719   1.894   0.025  0.0878 -0.1653 -0.3128
 2781SOL    HW119979   1.697   1.886  17.678 -0.6554 -0.4435 -0.1120
 2781SOL    HW219980   1.814   1.895   0.025  0.1136 -2.3354 -1.7021
 2782SOL     OW19981   2.197   0.754  10.795 -0.1760 -0.0213 -0.1231
 2782SOL    HW119982   2.180   0.719  10.708 -1.3990 -2.1777  0.9699
 2782SOL    HW219983   2.273   0.704  10.826 -0.3805 -0.1101  0.2398
 2783SOL     OW19984   0.647   4.724  12.090  0.0167  0.0780 -0.3640
 2783SOL    HW119985   0.555   0.011  12.078 -0.3752 -1.0438  0.4391
 2783SOL    HW219986   0.648   4.632  12.063  2.2951  0.2056 -0.7005
 2784SOL     OW19987   4.167   1.064  13.106 -0.0740 -0.1119  0.5368
 2784SOL    HW119988   4.116   1.011  13.044  2.5154 -0.4964 -1.2608
 2784SOL    HW219989   4.140   1.151  13.076  1.3873  0.6139  1.3116
 2785SOL     OW19990   0.187   0.591  16.888 -0.4149  0.6237  0.1765
 2785SOL    HW119991   0.279   0.601  16.863 -0.9270  1.3112 -1.4148
 2785SOL    HW219992   0.175   0.504  16.926  4.7401 -0.3307 -0.4004
 2786SOL     OW19993   4.530   3.362   6.738  0.1507  0.2691  0.4091
 2786SOL    HW119994   4.482   3.339   6.818 -2.7920 -1.4642 -1.8484
 2786SOL    HW219995   4.471   3.324   6.673 -2.8182  3.6428  1.1644
 2787SOL     OW19996   1.374   3.380   5.358  0.2984 -0.3100 -0.3244
 2787SOL    HW119997   1.302   3.406   5.300  0.5489 -0.6737 -0.7969
 2787SOL    HW219998   1.361   3.289   5.384  0.2589 -0.3744 -0.5746
 2788SOL     OW19999   1.596   0.090  15.341  0.2392  0.0697 -0.1955
 2788SOL    HW120000   1.577   0.066  15.251  3.1124  1.8410 -1.2957
 2788SOL    HW220001   1.512   0.128  15.364 -1.3309 -3.0582 -0.7939
 2789SOL     OW20002   1.759   1.268   4.872 -0.3078 -0.1361  0.3828
 2789SOL    HW120003   1.813   1.191   4.889  1.5054  1.4081  1.6001
 2789SOL    HW220004   1.687   1.250   4.933 -2.3230 -1.4573 -2.3896
 2790SOL     OW20005   2.306   4.059   3.242 -0.1500  0.0311  0.2274
 2790SOL    HW120006   2.243   4.021   3.181  1.8769 -1.2656 -1.0349
 2790SOL    HW220007   2.387   4.063   3.190  1.0851 -0.8078  2.1064
 2791SOL     OW20008   2.105   0.407   6.654 -0.5234 -0.3387 -0.5982
 2791SOL    HW120009   2.093   0.326   6.605 -1.9942 -0.2468 -0.3635
 2791SOL    HW220010   2.044   0.466   6.611  0.6402  1.2175 -0.1421
 2792SOL     OW20011   2.692   0.405   6.244 -0.0446  0.0330 -0.0790
 2792SOL    HW120012   2.716   0.497   6.229 -0.9366  0.2226 -0.3272
 2792SOL    HW220013   2.732   0.370   6.164 -1.4586 -1.6729 -0.0307
 2793SOL     OW20014   4.231   0.865  15.896  0.4544  0.0521  0.0485
 2793SOL    HW120015   4.321   0.879  15.868  0.9036  3.2267  3.1507
 2793SOL    HW220016   4.234   0.890  15.989  1.6674 -0.1090  0.0477
 2794SOL     OW20017   0.865   0.328   5.537  0.1422  0.2771  0.0371
 2794SOL    HW120018   0.881   0.261   5.604  0.3567 -1.4900 -1.7635
 2794SOL    HW220019   0.782   0.362   5.568  0.6554  1.1216  0.4617
 2795SOL     OW20020   2.373   2.645  16.008 -0.2820  0.2492  0.0213
 2795SOL    HW120021   2.352   2.677  16.095 -0.0675  1.4059 -0.3623
 2795SOL    HW220022   2.402   2.555  16.023 -0.2251  0.6245  2.0551
 2796SOL     OW20023   3.436   1.408   4.737 -0.2403  0.4318 -0.0624
 2796SOL    HW120024   3.428   1.328   4.685  0.4670 -0.2196  0.8346
 2796SOL    HW220025   3.504   1.375   4.796  0.0571  1.1134 -0.0219
 2797SOL     OW20026   0.641   2.914   4.759  0.4669 -0.1366  0.5410
 2797SOL    HW120027   0.605   2.986   4.810  2.3424  1.9360 -1.0973
 2797SOL    HW220028   0.605   2.840   4.808 -0.0005 -1.0180 -1.1089
 2798SOL     OW20029   1.983   2.206   4.660 -0.4385 -0.2825  0.3616
 2798SOL    HW120030   2.032   2.273   4.708  1.6907 -2.2547  0.9125
 2798SOL    HW220031   2.056   2.146   4.649 -0.7601 -0.0846 -2.8594
 2799SOL     OW20032   4.509   3.898  17.112  0.4962 -0.4670 -0.0436
 2799SOL    HW120033   4.444   3.949  17.160  0.9101  1.1731 -1.2391
 2799SOL    HW220034   4.536   3.969  17.054  2.3194 -0.4482  0.8545
 2800SOL     OW20035   4.719   1.620   7.319  0.1366 -0.3968  0.2007
 2800SOL    HW120036   4.690   1.535   7.351 -0.4444  0.1696  1.1673
 2800SOL    HW220037   4.634   1.652   7.288  0.8811  0.7984 -0.5829
 2801SOL     OW20038   1.231   2.299   9.581  0.4876  0.5840  0.3373
 2801SOL    HW120039   1.147   2.309   9.625  0.9471  2.0616  0.8686
 2801SOL    HW220040   1.218   2.222   9.525 -0.8302  2.2205 -1.6148
 2802SOL     OW20041   4.665   2.795   1.792 -0.5754 -0.0437  0.3547
 2802SOL    HW120042   4.727   2.766   1.859  0.3825  0.9761 -0.0975
 2802SOL    HW220043   4.724   2.834   1.728 -0.6633 -2.5830 -1.2607
 2803SOL     OW20044   0.788   2.400   5.435 -0.1444 -0.2575 -0.3468
 2803SOL    HW120045   0.722   2.464   5.408 -1.1667 -1.3716 -0.5028
 2803SOL    HW220046   0.785   2.408   5.530 -0.0949  1.0253 -0.4521
 2804SOL     OW20047   1.618   3.683   8.356  0.6568 -0.0627  0.3441
 2804SOL    HW120048   1.708   3.707   8.377  0.5544  0.2653  0.4038
 2804SOL    HW220049   1.581   3.696   8.443  1.3773  2.8432  0.2207
 2805SOL     OW20050   0.053   3.885   8.704  0.2300 -0.7049  0.1524
 2805SOL    HW120051   0.118   3.919   8.642 -3.7389  2.3067 -2.3226
 2805SOL    HW220052   4.714   3.871   8.648 -0.0011 -3.4271  1.1560
 2806SOL     OW20053   1.911   2.644   2.083 -0.3255 -0.1065 -0.2188
 2806SOL    HW120054   1.976   2.661   2.152  0.9735  0.0922 -1.5016
 2806SOL    HW220055   1.949   2.571   2.033  1.8346  1.2351 -0.5295
 2807SOL     OW20056   0.087   4.024  14.211  0.4950 -0.3916 -0.1767
 2807SOL    HW120057   0.122   4.097  14.263  1.0654 -0.3798 -0.5759
 2807SOL    HW220058   0.111   4.046  14.121  3.1025 -0.6891  0.4303
 2808SOL     OW20059   3.770   1.749  16.838 -0.1276 -0.3162  0.2415
 2808SOL    HW120060   3.795   1.778  16.750  1.1183 -1.0925  0.3275
 2808SOL    HW220061   3.854   1.766  16.881 -0.8348 -0.4992  1.7004
 2809SOL     OW20062   1.751   4.081  17.602 -0.0587  0.3603 -0.2273
 2809SOL    HW120063   1.803   4.154  17.568 -1.9275  1.3563 -0.9939
 2809SOL    HW220064   1.812   4.014  17.632  0.0820  0.0996 -1.0906
 2810SOL     OW20065   1.467   4.467   9.198  0.2782 -0.1682 -0.2152
 2810SOL    HW120066   1.500   4.477   9.109  2.8855  1.3248  0.9425
 2810SOL    HW220067   1.396   4.403   9.193 -0.1643  0.1999  1.2999
 2811SOL     OW20068   0.036   3.966   7.560  0.0311 -0.1428  0.1183
 2811SOL    HW120069   0.039   3.966   7.656 -0.4232  2.0392  0.1422
 2811SOL    HW220070   0.051   4.059   7.543 -1.2294 -0.0938 -0.7154
 2812SOL     OW20071   2.054   4.392  17.354  0.2095 -0.3389 -0.0050
 2812SOL    HW120072   2.075   4.332  17.282 -0.5152 -0.4714 -0.1055
 2812SOL    HW220073   2.135   4.413  17.400  0.6615  1.1903 -1.5099
 2813SOL     OW20074   4.468   1.307  13.672 -0.1825 -0.3449 -0.5925
 2813SOL    HW120075   4.531   1.245  13.708  0.9786  0.6452 -0.9073
 2813SOL    HW220076   4.486   1.386  13.723 -1.3871 -0.5067  0.0899
 2814SOL     OW20077   3.870   0.200   7.085  0.0313 -0.0108 -0.2067
 2814SOL    HW120078   3.910   0.286   7.072  1.1756 -0.5884 -0.5242
 2814SOL    HW220079   3.807   0.200   7.013  0.0490 -2.0044 -0.2385
 2815SOL     OW20080   4.567   1.598  10.506  0.1869 -0.0976  0.0539
 2815SOL    HW120081   4.523   1.565  10.585  1.9165 -2.1068  0.1807
 2815SOL    HW220082   4.648   1.548  10.514  1.7787  2.3275 -0.6745
 2816SOL     OW20083   0.902   1.288  12.933 -0.6298  0.5674  0.3086
 2816SOL    HW120084   0.892   1.380  12.956 -2.5095  0.0219  1.6396
 2816SOL    HW220085   0.991   1.273  12.964 -0.7250  1.6540  1.1129
 2817SOL     OW20086   3.299   3.350   9.365 -0.5125  0.9183  0.0136
 2817SOL    HW120087   3.361   3.421   9.350  0.8235 -0.4918 -1.2472
 2817SOL    HW220088   3.357   3.310   9.431 -2.8826 -1.7262  0.4989
 2818SOL     OW20089   2.413   0.807   5.802 -0.5470 -0.6170  0.9124
 2818SOL    HW120090   2.352   0.844   5.738  0.1839  2.0295  1.7178
 2818SOL    HW220091   2.372   0.721   5.804 -0.0480 -0.8739  0.3113
 2819SOL     OW20092   2.560   3.871   9.024  0.6985  0.0527 -0.1644
 2819SOL    HW120093   2.568   3.786   9.066 -1.7931 -1.6497 -3.1639
 2819SOL    HW220094   2.493   3.918   9.073  0.3198  1.1767 -1.7591
 2820SOL     OW20095   1.501   0.468   3.906 -0.9441 -0.5500 -0.4953
 2820SOL    HW120096   1.478   0.475   3.999 -2.2793 -1.8415 -0.7223
 2820SOL    HW220097   1.590   0.502   3.904 -1.0686 -0.1516  1.0723
 2821SOL     OW20098   2.944   4.412   5.114  0.1446  0.2148  0.2774
 2821SOL    HW120099   2.948   4.404   5.018  2.3859 -0.8568  0.4578
 2821SOL    HW220100   2.866   4.363   5.138  0.4924 -0.9451 -0.9543
 2822SOL     OW20101   1.332   1.420   4.730 -0.5446  0.2868 -0.0696
 2822SOL    HW120102   1.312   1.399   4.821  1.6939  0.7407  0.5339
 2822SOL    HW220103   1.322   1.332   4.694  0.3503  1.2511 -2.6742
 2823SOL     OW20104   3.116   0.280   5.667  0.3313 -0.2502  0.4924
 2823SOL    HW120105   3.182   0.264   5.600 -0.9824  0.2353 -0.9058
 2823SOL    HW220106   3.036   0.248   5.626 -0.2141  2.7799 -0.8257
 2824SOL     OW20107   3.223   0.634   5.007 -0.3478  0.0103  0.3567
 2824SOL    HW120108   3.160   0.685   5.058  0.8629  1.3975  0.4639
 2824SOL    HW220109   3.203   0.653   4.915  0.5134  1.8681  0.5480
 2825SOL     OW20110   1.339   0.415  13.089  0.8492 -0.0556 -0.0416
 2825SOL    HW120111   1.268   0.425  13.152  2.5061  4.0404  1.2045
 2825SOL    HW220112   1.350   0.509  13.073 -2.1060  0.3301  0.3278
 2826SOL     OW20113   0.534   0.938   6.855 -0.4406  0.1419  0.0091
 2826SOL    HW120114   0.609   0.996   6.860 -0.1790 -0.1570 -0.5364
 2826SOL    HW220115   0.493   0.954   6.770 -0.5388 -2.4080 -0.4228
 2827SOL     OW20116   3.055   4.144   4.673 -0.2356  0.2719 -1.0530
 2827SOL    HW120117   3.024   4.101   4.594  0.1365 -1.8340 -0.0725
 2827SOL    HW220118   3.133   4.090   4.685 -1.6826 -1.0259  2.7822
 2828SOL     OW20119   3.223   3.504  12.656  0.2364  0.2150  0.3683
 2828SOL    HW120120   3.153   3.460  12.608 -1.1489  1.1856  1.5261
 2828SOL    HW220121   3.203   3.460  12.738 -1.4814  1.0227  0.3625
 2829SOL     OW20122   1.121   3.107  17.718 -0.1163 -0.0867 -0.1593
 2829SOL    HW120123   1.057   3.169  17.683 -1.1763 -2.1278 -1.8246
 2829SOL    HW220124   1.094   3.118   0.063  0.5187 -1.5524  0.2077
 2830SOL     OW20125   0.024   2.078   3.382  0.5104  0.0287  0.0919
 2830SOL    HW120126   4.728   2.162   3.349  1.4649  0.9334  1.4835
 2830SOL    HW220127   4.690   2.057   3.443  0.9215  0.5643  0.7469
 2831SOL     OW20128   3.163   4.127   8.850 -0.7267  0.0780 -0.1820
 2831SOL    HW120129   3.157   4.044   8.897 -2.4823  0.5338  0.3989
 2831SOL    HW220130   3.242   4.155   8.898 -0.1859  1.3860 -1.8696
 2832SOL     OW20131   0.072   2.666   8.239  0.1177 -0.3038 -0.1932
 2832SOL    HW120132   0.159   2.675   8.200 -0.9213  0.0369 -2.4401
 2832SOL    HW220133   0.039   2.755   8.249 -0.1316 -0.3241 -0.8071
 2833SOL     OW20134   2.492   3.655   7.768 -0.6965  0.0324 -0.1044
 2833SOL    HW120135   2.542   3.728   7.731  1.3038 -1.7733 -0.9853
 2833SOL    HW220136   2.450   3.698   7.842  0.3718 -0.9215  1.0571
 2834SOL     OW20137   0.180   1.475   5.808 -0.3024 -0.0147 -0.3615
 2834SOL    HW120138   0.159   1.553   5.758 -0.9564 -0.5154 -0.8805
 2834SOL    HW220139   0.166   1.515   5.894  1.0191  1.3561 -0.7902
 2835SOL     OW20140   3.414   1.207   7.514 -0.3048 -0.0513 -0.0174
 2835SOL    HW120141   3.473   1.176   7.583  0.3956  2.5261  0.5251
 2835SOL    HW220142   3.379   1.118   7.507  2.9536 -1.5040  2.0189
 2836SOL     OW20143   0.590   3.548   8.033 -0.1964  0.5790  0.2193
 2836SOL    HW120144   0.539   3.609   7.980  0.8872 -0.0254 -1.5029
 2836SOL    HW220145   0.673   3.593   8.019 -0.2300  1.2621  2.2752
 2837SOL     OW20146   1.818   1.425   5.732 -0.1647 -0.3652  0.5619
 2837SOL    HW120147   1.861   1.417   5.818  1.4154  0.6693 -0.1386
 2837SOL    HW220148   1.735   1.464   5.760 -0.3887  0.4865 -1.2864
 2838SOL     OW20149   2.608   2.531   3.976 -0.1873 -0.3527  0.1977
 2838SOL    HW120150   2.514   2.538   3.991 -0.3206 -0.5030 -0.5709
 2838SOL    HW220151   2.632   2.619   4.007  0.7709 -0.3144 -0.6088
 2839SOL     OW20152   1.452   3.111   7.541  0.1725 -0.2373  0.4117
 2839SOL    HW120153   1.357   3.112   7.535  0.2708 -1.4193 -1.4631
 2839SOL    HW220154   1.478   3.183   7.483  1.3878 -1.3345 -0.4069
 2840SOL     OW20155   2.319   3.419   3.057 -0.3760  0.6269 -0.0922
 2840SOL    HW120156   2.305   3.492   3.118  0.7366 -0.0718  1.0022
 2840SOL    HW220157   2.285   3.349   3.112 -2.1951  0.8305 -0.9657
 2841SOL     OW20158   4.261   4.704  11.695  0.1179 -0.3036  0.1827
 2841SOL    HW120159   4.233   4.613  11.704  0.1342 -0.3465 -0.2007
 2841SOL    HW220160   4.224   4.723  11.608 -1.1717  0.1107  0.8308
 2842SOL     OW20161   4.528   1.808   9.431 -0.3816  0.1098  0.4129
 2842SOL    HW120162   4.558   1.881   9.485 -3.2807  0.6125  1.3585
 2842SOL    HW220163   4.592   1.806   9.360  1.1913 -0.9804  1.8605
 2843SOL     OW20164   1.496   4.145   4.054 -0.3151 -0.3779 -0.2958
 2843SOL    HW120165   1.540   4.110   4.132 -0.8455 -1.8960 -0.6703
 2843SOL    HW220166   1.533   4.232   4.063  0.4520 -0.4936 -2.1813
 2844SOL     OW20167   2.998   3.999  11.795 -0.0792 -0.3018 -0.2927
 2844SOL    HW120168   3.044   4.004  11.879  1.4898 -0.2361 -1.1718
 2844SOL    HW220169   3.025   3.917  11.754  0.2026 -0.1252 -0.4555
 2845SOL     OW20170   1.231   4.172   9.101  0.4637  1.3234  0.1344
 2845SOL    HW120171   1.257   4.211   9.185 -1.3676  0.3871  1.1401
 2845SOL    HW220172   1.320   4.154   9.070  0.5256  1.5177  0.1990
 2846SOL     OW20173   2.158   2.012  16.633 -0.5236  0.2020  0.1833
 2846SOL    HW120174   2.199   1.982  16.714 -0.6769  0.9084  0.5231
 2846SOL    HW220175   2.191   2.098  16.607 -0.8390 -0.2884 -1.8083
 2847SOL     OW20176   0.307   0.260   6.745  0.0562  0.1648 -0.0036
 2847SOL    HW120177   0.318   0.216   6.830 -0.4711 -1.1104 -0.5856
 2847SOL    HW220178   0.229   0.221   6.706 -0.3659  1.3813 -0.3527
 2848SOL     OW20179   0.340   4.015   4.262 -0.4889 -0.5235  0.3766
 2848SOL    HW120180   0.373   3.954   4.328 -0.2412  1.6099  2.2154
 2848SOL    HW220181   0.285   3.957   4.209  0.8350 -0.4945 -1.0352
 2849SOL     OW20182   2.221   1.360   3.014  0.6470  0.6359 -0.4167
 2849SOL    HW120183   2.253   1.291   2.956  1.7020 -0.4728  1.4707
 2849SOL    HW220184   2.128   1.338   3.018  0.8617 -0.3910 -1.1168
 2850SOL     OW20185   4.487   0.372   3.007 -0.4181 -0.1915 -0.2395
 2850SOL    HW120186   4.469   0.279   3.024 -2.0539 -0.1882 -1.9195
 2850SOL    HW220187   4.404   0.420   3.007 -1.4831 -2.0339 -2.2608
 2851SOL     OW20188   1.015   4.048   2.510  0.5564  0.3915 -0.0157
 2851SOL    HW120189   1.099   4.030   2.554 -0.2243 -0.8714  0.9539
 2851SOL    HW220190   1.033   4.013   2.423 -0.8240 -1.2078  0.3306
 2852SOL     OW20191   0.091   3.587   1.857  0.2234 -0.0736  0.2980
 2852SOL    HW120192   0.089   3.492   1.857  0.5522 -0.0806  1.0267
 2852SOL    HW220193   0.152   3.605   1.786 -0.5903 -1.9480 -0.8710
 2853SOL     OW20194   1.370   3.198   8.339  0.6012  0.1635 -0.5760
 2853SOL    HW120195   1.276   3.207   8.323  0.8153  0.9614 -1.3618
 2853SOL    HW220196   1.399   3.288   8.350  0.6359  0.0903 -0.0870
 2854SOL     OW20197   0.335   3.468  13.694  0.2051 -0.2671 -0.6105
 2854SOL    HW120198   0.323   3.446  13.601 -2.8058  1.8386 -0.7056
 2854SOL    HW220199   0.344   3.385  13.740 -1.4661 -0.6743 -1.0353
 2855SOL     OW20200   3.700   0.049   9.235  0.1794 -0.0669  0.6866
 2855SOL    HW120201   3.672   4.718   9.296 -1.3802  0.6066  0.6995
 2855SOL    HW220202   3.647   0.123   9.263 -2.2324 -2.6993  2.9445
 2856SOL     OW20203   3.243   4.398   6.680 -0.4963  0.0225  0.2462
 2856SOL    HW120204   3.235   4.330   6.746  1.4316 -0.9225 -0.5185
 2856SOL    HW220205   3.338   4.402   6.674 -0.3012 -2.6349  1.6676
 2857SOL     OW20206   0.021   3.513  13.477  0.0395  0.2232 -0.0113
 2857SOL    HW120207   4.690   3.469  13.425  0.3006 -1.9552  1.4946
 2857SOL    HW220208   0.011   3.478  13.566 -0.4493 -1.8086 -0.8576
 2858SOL     OW20209   2.136   1.227  15.725  0.5222 -0.5451  1.1810
 2858SOL    HW120210   2.187   1.185  15.794  2.2585 -1.2733 -0.5310
 2858SOL    HW220211   2.107   1.309  15.765  1.6334  0.1778  0.5036
 2859SOL     OW20212   2.625   3.989   4.829  0.0755 -0.5687 -0.6144
 2859SOL    HW120213   2.596   3.911   4.876  0.2218 -0.2349  0.0287
 2859SOL    HW220214   2.713   3.994   4.865 -0.4315  3.7738  0.0496
 2860SOL     OW20215   3.709   0.438  12.874  0.1252  0.3094 -0.1056
 2860SOL    HW120216   3.651   0.432  12.798 -0.5984 -2.7774  0.7051
 2860SOL    HW220217   3.684   0.528  12.893 -0.9698  0.0334 -0.2899
 2861SOL     OW20218   2.503   0.045   9.343 -0.5246  0.5277 -0.2708
 2861SOL    HW120219   2.468   4.694   9.328  0.6989  0.1925 -1.1567
 2861SOL    HW220220   2.548   0.065   9.261 -1.0247 -0.2918 -0.7460
 2862SOL     OW20221   3.740   3.613   4.654 -0.2991 -0.3177  0.1572
 2862SOL    HW120222   3.826   3.578   4.678  0.6392  3.9919  3.1065
 2862SOL    HW220223   3.716   3.555   4.581 -0.9601 -1.0091  0.9282
 2863SOL     OW20224   0.280   0.783   3.367  0.8143 -0.3514  0.4458
 2863SOL    HW120225   0.196   0.807   3.406 -0.0903 -2.0812 -0.4666
 2863SOL    HW220226   0.307   0.865   3.326  0.1501 -0.0081  0.7002
 2864SOL     OW20227   4.579   2.805   5.905 -0.3032 -0.4272 -0.0596
 2864SOL    HW120228   4.620   2.892   5.910 -0.3781 -0.5017  1.8543
 2864SOL    HW220229   4.628   2.765   5.976  0.8217 -0.9083 -1.1204
 2865SOL     OW20230   1.249   1.620  16.739  0.0747 -0.1056 -0.2061
 2865SOL    HW120231   1.159   1.598  16.717 -0.0854 -1.4743  1.8121
 2865SOL    HW220232   1.286   1.611  16.651 -1.9532 -0.8596 -0.9775
 2866SOL     OW20233   3.187   1.433   4.367  0.0679 -0.0638 -0.2380
 2866SOL    HW120234   3.204   1.527   4.365  1.0841 -0.3127 -2.4142
 2866SOL    HW220235   3.168   1.426   4.461 -1.6693  0.4543 -0.5378
 2867SOL     OW20236   1.884   2.804   5.855 -0.4224 -0.2837 -0.1545
 2867SOL    HW120237   1.843   2.721   5.830 -0.8136 -0.2884  0.4993
 2867SOL    HW220238   1.865   2.805   5.949 -0.1751  1.4631 -0.1252
 2868SOL     OW20239   4.299   3.385   7.482 -0.5899 -0.0917 -0.0186
 2868SOL    HW120240   4.330   3.296   7.499  1.3170  0.3765 -1.0386
 2868SOL    HW220241   4.364   3.443   7.523  0.2657 -0.6154 -0.6537
 2869SOL     OW20242   0.754   2.656  14.153 -0.7351  0.0859 -0.7500
 2869SOL    HW120243   0.774   2.664  14.059 -0.1665  1.3763 -0.5235
 2869SOL    HW220244   0.659   2.644  14.144 -0.7339 -0.1886 -0.3748
 2870SOL     OW20245   2.222   2.675   5.112  0.5092  0.0674  0.0542
 2870SOL    HW120246   2.243   2.584   5.089 -0.7282  0.4853 -2.7389
 2870SOL    HW220247   2.224   2.714   5.024 -0.8436 -0.7925 -0.3752
 2871SOL     OW20248   4.079   2.655   6.067  0.5632 -0.4716  0.6128
 2871SOL    HW120249   4.009   2.679   6.006  0.6106 -1.5877  0.1290
 2871SOL    HW220250   4.049   2.694   6.150  1.7875  2.0204 -0.1071
 2872SOL     OW20251   2.711   1.539  16.273  0.0592  0.3070 -0.0782
 2872SOL    HW120252   2.637   1.568  16.219 -0.0985 -0.7916 -0.4587
 2872SOL    HW220253   2.754   1.488  16.204  3.5306  0.1998  2.1806
 2873SOL     OW20254   4.258   3.176  13.897 -0.2315  0.6095  0.3411
 2873SOL    HW120255   4.255   3.140  13.986  2.0435 -0.0687  0.1421
 2873SOL    HW220256   4.257   3.097  13.843 -1.5186 -0.0184  1.2596
 2874SOL     OW20257   3.215   2.460  11.862  0.0584  0.3171  1.0497
 2874SOL    HW120258   3.121   2.444  11.858  0.1517  0.4634 -1.7337
 2874SOL    HW220259   3.237   2.438  11.771 -0.8437 -0.1821  0.9572
 2875SOL     OW20260   0.044   0.222   3.874  0.0638 -0.1717  0.0953
 2875SOL    HW120261   0.018   0.184   3.791 -1.7921 -0.0613  0.6169
 2875SOL    HW220262   0.079   0.307   3.846  2.2685 -1.6631 -1.5741
 2876SOL     OW20263   4.685   0.795   2.503 -0.1018  0.2638  0.2716
 2876SOL    HW120264   0.024   0.756   2.459 -0.4429 -1.0571  0.8361
 2876SOL    HW220265   4.723   0.882   2.516  1.4962 -0.7548  2.5274
 2877SOL     OW20266   2.372   2.613   0.596 -0.8895  0.3052  0.0484
 2877SOL    HW120267   2.352   2.628   0.503 -0.9289  1.8008  0.2884
 2877SOL    HW220268   2.285   2.619   0.636 -0.5027  0.1324  0.9142
 2878SOL     OW20269   1.996   1.691   1.879 -0.0662  0.3771  0.3318
 2878SOL    HW120270   2.007   1.697   1.974 -2.3234  2.1749  0.4762
 2878SOL    HW220271   2.081   1.727   1.854  0.9885 -1.3726  1.4473
 2879SOL     OW20272   1.736   4.458   9.856  0.0923 -0.0233 -0.3763
 2879SOL    HW120273   1.679   4.522   9.812 -1.0159 -1.0059 -0.3735
 2879SOL    HW220274   1.812   4.487   9.805 -0.3962 -0.2350 -1.2333
 2880SOL     OW20275   1.756   3.931   8.619  0.5150 -0.0836  0.1389
 2880SOL    HW120276   1.843   3.969   8.634  0.8328 -1.3665  1.6112
 2880SOL    HW220277   1.783   3.867   8.553 -0.3576  1.0672 -1.3315
 2881SOL     OW20278   2.745   4.115   4.461 -0.5918  0.1467 -0.2387
 2881SOL    HW120279   2.823   4.059   4.462  0.2346  1.2905 -0.7835
 2881SOL    HW220280   2.702   4.074   4.386  1.6937 -0.0268 -1.4716
 2882SOL     OW20281   3.050   1.875   4.130 -0.6847 -0.2699  0.6992
 2882SOL    HW120282   2.973   1.907   4.177 -0.4712  1.7476 -0.3528
 2882SOL    HW220283   2.997   1.815   4.077 -0.8424  1.0882 -0.6830
 2883SOL     OW20284   2.687   2.562  10.897 -0.2595 -0.0305 -0.1623
 2883SOL    HW120285   2.747   2.506  10.848 -1.1419 -0.5815 -0.6060
 2883SOL    HW220286   2.678   2.644  10.848 -0.0379  0.9651  1.4341
 2884SOL     OW20287   3.161   1.883   4.793 -0.1549  0.1601 -0.5264
 2884SOL    HW120288   3.095   1.858   4.728 -0.1087 -0.0060 -0.5090
 2884SOL    HW220289   3.229   1.928   4.743  0.6269  0.9167  1.2118
 2885SOL     OW20290   4.650   0.056   2.781  0.2001 -0.5193  0.1849
 2885SOL    HW120291   4.700   0.137   2.766  1.3958 -0.9247  1.8689
 2885SOL    HW220292   4.600   0.081   2.858  0.0122  0.3761 -0.2323
 2886SOL     OW20293   3.859   2.682   5.477  0.6693  0.9365  0.0613
 2886SOL    HW120294   3.806   2.762   5.472 -0.6064  0.0580 -0.3812
 2886SOL    HW220295   3.883   2.686   5.570 -0.2913  0.7280  0.3225
 2887SOL     OW20296   3.284   1.237   9.833 -0.2920 -0.3912 -0.0352
 2887SOL    HW120297   3.309   1.196   9.916 -0.6398  0.3986  0.4623
 2887SOL    HW220298   3.366   1.285   9.823 -0.1145 -1.0166 -1.5668
 2888SOL     OW20299   4.613   3.087   2.486  0.0640 -0.7060  0.2916
 2888SOL    HW120300   4.602   2.992   2.490  2.1902 -0.8879  1.9711
 2888SOL    HW220301   4.635   3.106   2.395 -0.5371 -1.4811 -0.0112
 2889SOL     OW20302   2.267   1.794   5.246  0.1323 -0.0628  0.5536
 2889SOL    HW120303   2.294   1.706   5.273  1.1395  0.2823  0.6813
 2889SOL    HW220304   2.339   1.854   5.267  0.0220 -0.6102  2.5048
 2890SOL     OW20305   1.927   0.043   6.326  0.3505 -0.6180  0.0909
 2890SOL    HW120306   1.850   4.734   6.359  1.1376 -1.6805  0.4461
 2890SOL    HW220307   1.951   4.721   6.255  1.0473  0.0735 -0.2515
 2891SOL     OW20308   0.616   3.984   6.735 -0.4024 -0.0934  0.4761
 2891SOL    HW120309   0.708   3.980   6.761  0.1172 -0.4049 -1.4397
 2891SOL    HW220310   0.608   4.074   6.702 -3.2329  0.0792  1.5849
 2892SOL     OW20311   1.860   1.081   8.256 -0.0110 -0.2105 -0.8943
 2892SOL    HW120312   1.912   1.008   8.288  1.0281  1.5642  1.4130
 2892SOL    HW220313   1.924   1.149   8.274 -1.2793  0.2561  1.7982
 2893SOL     OW20314   3.030   0.375  15.102  0.6628  0.6212  1.1206
 2893SOL    HW120315   3.087   0.413  15.168  1.1649  3.0044 -0.7124
 2893SOL    HW220316   2.945   0.413  15.125 -0.0432 -0.3857  0.2291
 2894SOL     OW20317   0.958   0.192   7.593 -0.1251  0.1947  0.2787
 2894SOL    HW120318   0.898   0.231   7.658 -3.0276 -1.5174 -1.3812
 2894SOL    HW220319   0.967   0.102   7.623 -1.7915  0.5253  1.7655
 2895SOL     OW20320   1.015   0.036   6.497 -0.1857 -0.0539  0.0047
 2895SOL    HW120321   0.980   0.079   6.575 -0.1360  1.5184 -0.8404
 2895SOL    HW220322   1.083   4.719   6.537 -1.6704 -1.3995  0.7310
 2896SOL     OW20323   3.519   1.367  15.775  0.0221 -0.1035  0.2564
 2896SOL    HW120324   3.555   1.342  15.860 -2.2886 -2.7601  0.4621
 2896SOL    HW220325   3.596   1.365  15.717  0.0104  0.8720  0.2180
 2897SOL     OW20326   4.295   1.170  14.946  0.5787 -0.4268  0.2519
 2897SOL    HW120327   4.356   1.219  14.890  0.2112  0.2134  0.4121
 2897SOL    HW220328   4.210   1.186  14.906  0.6571  1.6925  0.9386
 2898SOL     OW20329   4.208   0.787   6.906 -0.0354 -0.0268 -0.1008
 2898SOL    HW120330   4.117   0.808   6.931 -0.7331 -1.4621 -1.4588
 2898SOL    HW220331   4.207   0.692   6.897 -0.7212 -0.2272  1.9280
 2899SOL     OW20332   1.997   0.424   4.808 -0.0337 -0.7039 -0.2164
 2899SOL    HW120333   2.054   0.482   4.860  0.3580 -0.9908 -0.3279
 2899SOL    HW220334   1.981   0.477   4.730  0.7384 -0.2262 -0.0578
 2900SOL     OW20335   0.635   3.994   3.255 -0.0695 -0.3254  0.0372
 2900SOL    HW120336   0.727   3.972   3.244  0.0893  0.3105  0.1206
 2900SOL    HW220337   0.604   3.903   3.263  1.0948 -0.5835  1.6315
 2901SOL     OW20338   2.438   0.300  11.576 -0.0516 -0.4429 -0.9036
 2901SOL    HW120339   2.379   0.248  11.630 -0.9647  1.3864 -0.1239
 2901SOL    HW220340   2.521   0.302  11.624 -1.0360  3.4115  0.6470
 2902SOL     OW20341   2.861   4.489  16.797  0.1640 -0.2986 -0.1318
 2902SOL    HW120342   2.843   4.480  16.890 -0.7905  0.5594 -0.2282
 2902SOL    HW220343   2.873   4.584  16.800 -1.1730 -0.3117  4.6096
 2903SOL     OW20344   0.981   1.085   6.367  0.5967  0.1162  0.0620
 2903SOL    HW120345   1.032   1.082   6.286  0.9165  1.9713  0.1954
 2903SOL    HW220346   0.965   1.179   6.372  2.4740  0.3705  1.1157
 2904SOL     OW20347   1.295   0.917   9.391  0.1932  0.0217 -0.0256
 2904SOL    HW120348   1.267   0.935   9.480 -1.6898 -0.3234 -0.5340
 2904SOL    HW220349   1.358   0.846   9.402  0.2335  0.1451  0.5221
 2905SOL     OW20350   3.101   2.852   4.942 -0.1902 -0.2664 -0.3733
 2905SOL    HW120351   3.135   2.818   5.024 -1.2234  0.4287  0.3351
 2905SOL    HW220352   3.019   2.888   4.975 -0.3754 -1.3879  0.3836
 2906SOL     OW20353   3.398   0.974   4.257  0.4590  0.2367  0.0198
 2906SOL    HW120354   3.444   1.039   4.309 -0.5275  1.0743 -0.1707
 2906SOL    HW220355   3.377   1.031   4.183  3.7374 -1.8901 -2.5834
 2907SOL     OW20356   1.185   3.519   4.191 -0.0627  0.6859 -0.0415
 2907SOL    HW120357   1.126   3.445   4.177 -1.1637  1.6882 -0.6319
 2907SOL    HW220358   1.261   3.487   4.141  0.7085  0.1025  1.4826
 2908SOL     OW20359   4.419   0.127   8.073  0.2688 -0.3567 -0.2205
 2908SOL    HW120360   4.448   0.178   8.149  2.4148  0.2340 -1.4281
 2908SOL    HW220361   4.329   0.107   8.099  0.9899 -2.0546  0.9732
 2909SOL     OW20362   2.782   1.160   5.444 -0.0606  0.6560 -0.1312
 2909SOL    HW120363   2.800   1.188   5.534 -0.8560  0.6596  0.0246
 2909SOL    HW220364   2.735   1.078   5.456  1.4228 -0.1215  0.4015
 2910SOL     OW20365   0.825   3.632   9.811  0.7240  0.3214 -0.6304
 2910SOL    HW120366   0.878   3.625   9.731  0.0548  0.1178 -1.0512
 2910SOL    HW220367   0.742   3.673   9.786 -1.3661 -2.1493  2.2953
 2911SOL     OW20368   1.813   0.081   8.566  0.1288 -0.2972  0.3114
 2911SOL    HW120369   1.899   0.055   8.535  1.6153  1.6121  2.7542
 2911SOL    HW220370   1.766   0.041   8.493  1.0040 -2.4319  0.9218
 2912SOL     OW20371   4.596   0.248   4.984  0.0012  0.4444 -0.4693
 2912SOL    HW120372   4.651   0.327   4.980 -0.0768  0.5424  0.4720
 2912SOL    HW220373   4.660   0.184   5.014  0.0343  0.1277 -1.2311
 2913SOL     OW20374   3.530   0.975   3.087 -0.2621  0.2597  0.0185
 2913SOL    HW120375   3.540   0.978   2.992  0.4315  1.3746  0.1252
 2913SOL    HW220376   3.605   0.919   3.108  1.7326  2.9784  0.1509
 2914SOL     OW20377   2.073   0.865   2.140  0.2074 -0.3658  0.4989
 2914SOL    HW120378   2.106   0.888   2.227  0.5566 -1.6894  0.7290
 2914SOL    HW220379   2.119   0.929   2.086 -1.2185  0.5909  0.4277
 2915SOL     OW20380   3.948   1.446   4.884 -0.4203 -0.3327  0.1873
 2915SOL    HW120381   4.031   1.461   4.838 -1.2947 -0.6084 -1.5019
 2915SOL    HW220382   3.973   1.446   4.976  1.1641 -2.6856 -0.2163
 2916SOL     OW20383   0.861   2.008   2.950 -0.5411 -0.0516 -0.0366
 2916SOL    HW120384   0.847   2.038   2.861  0.0858 -0.4181 -0.2575
 2916SOL    HW220385   0.833   1.917   2.941 -1.2545  0.4494 -2.7602
 2917SOL     OW20386   1.451   1.905   4.141 -0.2702 -0.3152  0.5848
 2917SOL    HW120387   1.491   1.989   4.165 -0.7068  0.0979 -0.1101
 2917SOL    HW220388   1.431   1.854   4.219  1.0634 -1.5524  0.1194
 2918SOL     OW20389   2.270   4.567  14.966 -0.4318 -0.0950 -0.4048
 2918SOL    HW120390   2.305   4.585  15.053  0.9861  0.0071 -1.0038
 2918SOL    HW220391   2.296   4.639  14.908  1.5048 -1.5222 -1.2796
 2919SOL     OW20392   3.042   2.331   3.787 -0.1570 -0.2651  0.5182
 2919SOL    HW120393   2.984   2.321   3.712  0.0277 -2.5795  0.6720
 2919SOL    HW220394   3.096   2.253   3.773  0.8185  0.4622  0.3183
 2920SOL     OW20395   3.660   1.634   7.440 -0.7770 -0.2771  0.4871
 2920SOL    HW120396   3.605   1.700   7.398  0.4824  0.7367  0.4022
 2920SOL    HW220397   3.594   1.576   7.477  2.2463 -3.5163  0.8182
 2921SOL     OW20398   2.795   4.396   0.087  0.0859  0.2459  0.1896
 2921SOL    HW120399   2.760   4.452   0.018  1.1204  0.6956  0.0239
 2921SOL    HW220400   2.889   4.401   0.066 -0.0972 -0.3758 -0.7541
 2922SOL     OW20401   0.962   0.866  17.130 -0.9520  0.6972  0.3557
 2922SOL    HW120402   1.013   0.850  17.209  0.2004  2.8297  0.0620
 2922SOL    HW220403   0.887   0.905  17.175 -1.3031  1.9456 -1.2915
 2923SOL     OW20404   0.951   1.058   3.529 -0.1815  0.8843 -0.3467
 2923SOL    HW120405   1.035   1.034   3.493 -1.1446  0.2026 -2.1045
 2923SOL    HW220406   0.910   0.979   3.496 -0.3733  0.3312  1.2058
 2924SOL     OW20407   3.739   0.065   8.847  0.3980  0.0681  0.4954
 2924SOL    HW120408   3.646   0.046   8.859  0.7181 -1.1531  0.9542
 2924SOL    HW220409   3.715   0.149   8.808 -1.7613 -0.6751  0.2243
 2925SOL     OW20410   3.075   4.044   7.671  0.2412 -0.0125 -0.1265
 2925SOL    HW120411   3.044   4.071   7.585  1.5987  0.6148 -0.4196
 2925SOL    HW220412   3.072   4.130   7.714  0.8646 -1.2949  2.5203
 2926SOL     OW20413   1.356   1.119   5.101 -0.9622 -0.2803  0.1522
 2926SOL    HW120414   1.403   1.036   5.100  1.0794  0.8800 -0.5285
 2926SOL    HW220415   1.318   1.116   5.189  0.0418 -1.7158  0.5343
 2927SOL     OW20416   2.227   3.064   2.752 -0.2003  0.1714  0.5834
 2927SOL    HW120417   2.134   3.042   2.744 -0.5856  1.4872  1.3531
 2927SOL    HW220418   2.259   2.981   2.786 -0.7922 -0.4589 -0.3992
 2928SOL     OW20419   3.808   0.121   8.047  0.5293 -0.1330  0.2699
 2928SOL    HW120420   3.852   0.115   7.962  1.8773 -1.9211  1.0921
 2928SOL    HW220421   3.870   0.153   8.112  0.5186 -0.0852  0.2568
 2929SOL     OW20422   3.249   3.248  16.701  0.4206 -0.5212 -0.0712
 2929SOL    HW120423   3.222   3.333  16.736 -1.3295 -0.3173 -1.9364
 2929SOL    HW220424   3.331   3.268  16.657  0.4776 -0.3201  0.1242
 2930SOL     OW20425   1.175   3.501   6.166 -0.0282 -0.5321 -0.0376
 2930SOL    HW120426   1.083   3.476   6.167 -0.8025  2.3087  0.6058
 2930SOL    HW220427   1.187   3.507   6.071  0.0065  0.0477  0.0054
 2931SOL     OW20428   4.438   1.674   4.070  0.4472  1.0631  0.0843
 2931SOL    HW120429   4.380   1.602   4.095  1.4554 -0.6406 -2.5885
 2931SOL    HW220430   4.380   1.750   4.084  0.1704  0.4117  2.6094
 2932SOL     OW20431   0.555   2.489   3.152  0.4555  0.3090  0.5983
 2932SOL    HW120432   0.609   2.443   3.088  0.0594 -0.2361  0.6585
 2932SOL    HW220433   0.615   2.505   3.224  0.4347  3.4441 -0.0489
 2933SOL     OW20434   3.855   3.367  12.854  0.0620 -0.0815  0.5126
 2933SOL    HW120435   3.875   3.331  12.767  0.3340 -1.0454  0.9658
 2933SOL    HW220436   3.867   3.461  12.845 -4.8076  0.4668 -0.0052
 2934SOL     OW20437   4.710   3.769   9.544  0.3052  0.0195 -0.2365
 2934SOL    HW120438   4.677   3.858   9.530  0.3047  0.3861  2.0144
 2934SOL    HW220439   0.034   3.761   9.471 -0.6630  2.3719 -1.2875
 2935SOL     OW20440   2.853   4.735   3.940 -0.2011  0.2358  0.5174
 2935SOL    HW120441   2.802   4.675   3.995  0.8300 -2.3237 -1.3401
 2935SOL    HW220442   2.840   0.080   3.987 -0.3860  0.5200 -0.0330
 2936SOL     OW20443   4.151   2.531   5.145 -0.3722  0.5926 -0.3633
 2936SOL    HW120444   4.133   2.622   5.118  1.6129  1.0665 -0.0854
 2936SOL    HW220445   4.063   2.495   5.155 -0.2147  0.8191  1.8385
 2937SOL     OW20446   4.059   3.049   4.875 -0.2975  0.6014  0.1801
 2937SOL    HW120447   4.151   3.042   4.852 -0.1185  0.2860  0.9626
 2937SOL    HW220448   4.031   3.114   4.811 -0.0271  0.7587  0.2212
 2938SOL     OW20449   0.775   0.838   5.173  0.0491  0.6233  0.3678
 2938SOL    HW120450   0.838   0.771   5.147 -0.5918 -0.1937  0.9509
 2938SOL    HW220451   0.697   0.785   5.187  1.0824 -1.0138 -0.1128
 2939SOL     OW20452   3.096   2.242  11.463  0.0852 -1.0012  0.6660
 2939SOL    HW120453   3.145   2.237  11.381 -0.0702  3.1151  0.2930
 2939SOL    HW220454   3.160   2.289  11.517 -0.2717 -0.8013  0.9160
 2940SOL     OW20455   2.373   1.168  11.133 -0.6264 -0.0686  0.3938
 2940SOL    HW120456   2.427   1.107  11.183  0.8032  0.7037 -0.2208
 2940SOL    HW220457   2.368   1.242  11.193  0.4357  2.2906 -2.4764
 2941SOL     OW20458   0.426   3.115  15.000  0.4374  0.1233 -0.1099
 2941SOL    HW120459   0.386   3.029  14.993  0.3643  0.1597 -0.1391
 2941SOL    HW220460   0.494   3.114  14.933  0.8553  1.4137  0.2916
 2942SOL     OW20461   3.064   2.014   8.191 -0.1544  0.0370 -0.3232
 2942SOL    HW120462   3.155   2.038   8.210 -0.2999  0.7189 -0.4945
 2942SOL    HW220463   3.032   2.104   8.189 -3.0098 -1.0068 -1.0209
 2943SOL     OW20464   4.082   2.862   6.936 -0.3745 -0.9220 -0.0424
 2943SOL    HW120465   4.151   2.798   6.950  0.8871  0.9490  2.2822
 2943SOL    HW220466   4.072   2.866   6.841 -1.0988 -0.0530  0.0673
 2944SOL     OW20467   1.954   3.422   9.765 -0.7222 -0.3361 -0.3334
 2944SOL    HW120468   1.954   3.513   9.737  3.6430 -0.4280 -0.5453
 2944SOL    HW220469   1.860   3.409   9.779 -0.4489 -0.5354  1.3540
 2945SOL     OW20470   1.458   3.066   6.078  0.0950 -0.1207 -0.1424
 2945SOL    HW120471   1.382   3.059   6.136 -0.3488  2.0138 -0.4503
 2945SOL    HW220472   1.529   3.096   6.134  0.2702  0.4754 -0.6874
 2946SOL     OW20473   0.623   4.225   7.651 -0.3977 -0.1874  0.0845
 2946SOL    HW120474   0.553   4.238   7.587 -0.8774  0.0019  0.6430
 2946SOL    HW220475   0.669   4.146   7.622  2.8233  0.9947  1.9894
 2947SOL     OW20476   3.996   3.509   2.507  0.3174  0.0291 -0.2558
 2947SOL    HW120477   4.032   3.491   2.420  2.6858 -0.0949  0.7600
 2947SOL    HW220478   4.048   3.586   2.530 -1.6017  0.8731  1.2262
 2948SOL     OW20479   0.820   2.417   2.145 -0.5522  1.1114  0.2744
 2948SOL    HW120480   0.878   2.410   2.068 -0.7342 -1.6026  0.3845
 2948SOL    HW220481   0.778   2.331   2.142 -0.9591  1.3508 -0.7449
 2949SOL     OW20482   3.929   1.990   6.093 -0.3668 -0.0446  0.4136
 2949SOL    HW120483   3.900   1.997   6.003  0.2988 -1.8559  0.0613
 2949SOL    HW220484   3.961   1.901   6.083 -4.9213 -1.9252  2.7044
 2950SOL     OW20485   2.201   1.772  14.913  0.1168 -0.2439 -0.1252
 2950SOL    HW120486   2.159   1.829  14.848  1.2633  2.4089  1.4410
 2950SOL    HW220487   2.128   1.717  14.941 -1.4062  1.7826 -0.0727
 2951SOL     OW20488   4.168   0.777   2.726  0.5775 -0.8426 -0.5867
 2951SOL    HW120489   4.246   0.721   2.726 -0.4077 -2.2099 -0.5528
 2951SOL    HW220490   4.202   0.862   2.697  0.4642 -1.0438 -1.2897
 2952SOL     OW20491   2.035   0.507   1.706 -0.2419 -0.2838  0.2485
 2952SOL    HW120492   2.091   0.492   1.629  1.5496 -1.1666  1.7233
 2952SOL    HW220493   2.099   0.482   1.773  3.3746  3.9847 -1.5965
 2953SOL     OW20494   2.739   2.546   5.747 -0.1708 -0.1131 -0.4402
 2953SOL    HW120495   2.690   2.570   5.668  1.1112 -2.5592 -2.0140
 2953SOL    HW220496   2.670   2.502   5.797 -0.1942 -0.6494 -0.9377
 2954SOL     OW20497   3.204   0.952   4.806 -0.1412 -0.1401 -0.3131
 2954SOL    HW120498   3.119   0.992   4.822 -0.3513 -0.3404 -0.9175
 2954SOL    HW220499   3.180   0.861   4.793  0.3894 -0.3994  0.5692
 2955SOL     OW20500   4.343   1.130  17.531  0.0854 -0.0254 -0.3082
 2955SOL    HW120501   4.272   1.066  17.527 -0.9889  1.1456 -0.1532
 2955SOL    HW220502   4.380   1.107  17.446 -0.2851 -0.6159 -0.3087
 2956SOL     OW20503   2.907   3.229   7.435  0.1035 -0.1539 -0.0490
 2956SOL    HW120504   2.846   3.301   7.418  1.2813  0.5832 -1.1167
 2956SOL    HW220505   2.969   3.270   7.375 -0.1775  0.6398  0.1990
 2957SOL     OW20506   1.482   3.670   7.264  0.3886 -0.3882  0.0046
 2957SOL    HW120507   1.533   3.724   7.324 -1.5783  0.4721  0.9069
 2957SOL    HW220508   1.408   3.641   7.319  0.7549  2.0908  1.7788
 2958SOL     OW20509   1.140   4.522   9.778 -0.1529  0.0445  0.2250
 2958SOL    HW120510   1.052   4.484   9.769 -0.1306  0.0918 -0.2017
 2958SOL    HW220511   1.122   4.605   9.823 -1.9660 -0.6497  0.7582
 2959SOL     OW20512   2.428   0.917   8.433 -0.4426  0.3313  0.3429
 2959SOL    HW120513   2.368   0.977   8.477  0.6370  1.0296  0.8716
 2959SOL    HW220514   2.377   0.901   8.354 -0.8563  1.3958  0.3858
 2960SOL     OW20515   4.540   2.365   5.529  0.0518  0.1758  0.0014
 2960SOL    HW120516   4.516   2.287   5.479 -2.0147  0.7834  0.0726
 2960SOL    HW220517   4.615   2.404   5.485  0.3165  0.1843  0.4579
 2961SOL     OW20518   2.543   0.027  17.543  0.1483 -0.0011  0.5902
 2961SOL    HW120519   2.498   0.088  17.602 -1.0720 -0.8127  0.4766
 2961SOL    HW220520   2.576   0.089  17.478  1.5168 -0.9708  0.3689
 2962SOL     OW20521   2.298   1.545   5.714 -0.1499  0.0457 -0.0782
 2962SOL    HW120522   2.268   1.463   5.754 -2.9179  1.5296  0.8942
 2962SOL    HW220523   2.245   1.543   5.635 -0.6433 -2.2618  0.3125
 2963SOL     OW20524   4.352   1.687   9.911 -0.9047  0.3115 -0.3400
 2963SOL    HW120525   4.398   1.713   9.832  2.0265 -0.6967  1.0351
 2963SOL    HW220526   4.263   1.666   9.882 -0.7538  3.0615 -2.7897
 2964SOL     OW20527   0.881   0.946   1.655 -0.1816  0.2380 -0.0081
 2964SOL    HW120528   0.915   1.034   1.641  0.6371  0.0092  0.5224
 2964SOL    HW220529   0.795   0.962   1.695  0.2866 -0.8070  1.4218
 2965SOL     OW20530   0.564   0.666   3.635 -0.5001 -0.5095  0.5113
 2965SOL    HW120531   0.585   0.573   3.636  1.6361 -0.0145  1.9215
 2965SOL    HW220532   0.480   0.667   3.681 -0.0938 -0.1321  1.2529
 2966SOL     OW20533   0.591   2.413   3.713  0.0363 -0.2084  0.2545
 2966SOL    HW120534   0.559   2.466   3.786  0.0589 -0.9771  0.8119
 2966SOL    HW220535   0.642   2.479   3.665  1.9672 -0.3908  2.0485
 2967SOL     OW20536   4.412   1.391  10.390 -0.1085  0.7365 -0.2705
 2967SOL    HW120537   4.369   1.423  10.469  0.1533  0.0665  0.1493
 2967SOL    HW220538   4.423   1.476  10.348  1.0563  0.3934 -0.6810
 2968SOL     OW20539   1.107   1.995   1.647 -0.3069  0.2614 -0.4138
 2968SOL    HW120540   1.015   2.011   1.625 -0.8536  0.5267  2.0655
 2968SOL    HW220541   1.095   1.910   1.688 -2.0603  0.6339 -0.1653
 2969SOL     OW20542   1.184   3.136   7.577  0.0016 -0.4318  0.1015
 2969SOL    HW120543   1.142   3.071   7.521 -0.4289 -0.4572  0.4530
 2969SOL    HW220544   1.135   3.216   7.558  1.9048  0.2883 -1.7349
 2970SOL     OW20545   0.513   1.291  13.740 -0.2602 -0.4941  0.6229
 2970SOL    HW120546   0.491   1.228  13.671 -1.4636  0.5176  0.0862
 2970SOL    HW220547   0.503   1.373  13.692 -0.2856 -1.1333 -0.4619
 2971SOL     OW20548   1.850   2.787  12.428 -0.0295 -0.1288  0.0247
 2971SOL    HW120549   1.892   2.810  12.511 -1.1354  2.8321 -0.2352
 2971SOL    HW220550   1.842   2.869  12.379 -1.9097 -0.1757  0.2626
 2972SOL     OW20551   4.443   1.003   6.751 -0.0210  0.0607 -0.2533
 2972SOL    HW120552   4.467   0.913   6.771  2.4589  1.1704  1.7691
 2972SOL    HW220553   4.511   1.051   6.798  0.2121  0.0619 -0.5883
 2973SOL     OW20554   4.322   3.980   8.036  0.4284 -0.4438  0.1061
 2973SOL    HW120555   4.251   4.043   8.047  1.3235  0.4170  0.9235
 2973SOL    HW220556   4.276   3.896   8.042  0.7273 -0.4762  2.0097
 2974SOL     OW20557   4.156   4.189   8.541  0.5246 -0.2883  0.0088
 2974SOL    HW120558   4.246   4.165   8.522  0.7362 -0.0291  0.7028
 2974SOL    HW220559   4.134   4.140   8.620 -1.3420 -0.4099 -0.5813
 2975SOL     OW20560   1.999   1.952   2.706  0.0378 -0.5789  0.2090
 2975SOL    HW120561   1.946   1.940   2.785  0.1750 -0.0061  0.3876
 2975SOL    HW220562   1.992   2.046   2.690  1.0050 -0.5945 -0.2829
 2976SOL     OW20563   3.929   2.348   4.860 -0.2274 -0.2583 -0.3822
 2976SOL    HW120564   3.928   2.378   4.951  0.9718  0.8423 -0.7360
 2976SOL    HW220565   3.976   2.266   4.868 -2.4622 -1.2863  2.5184
 2977SOL     OW20566   1.697   0.458   5.510  0.0049  0.5956  0.1010
 2977SOL    HW120567   1.749   0.410   5.574  0.0054  0.5037  0.0302
 2977SOL    HW220568   1.688   0.394   5.440  0.3351  2.0538 -1.2843
 2978SOL     OW20569   4.414   0.001  10.585 -0.2589 -0.1503  0.2154
 2978SOL    HW120570   4.397   0.074  10.526  0.6919 -0.3616 -0.3213
 2978SOL    HW220571   4.505   4.711  10.575 -1.0873 -2.4935 -1.1804
 2979SOL     OW20572   1.584   3.139   7.117 -0.3487  0.1676  0.1628
 2979SOL    HW120573   1.666   3.185   7.137  0.0339 -0.2014 -0.5455
 2979SOL    HW220574   1.622   3.055   7.143  1.5588  0.9656 -0.0136
 2980SOL     OW20575   2.831   1.130   3.860 -0.3302  0.8721  0.1907
 2980SOL    HW120576   2.870   1.083   3.934  0.4609 -1.5694 -1.7812
 2980SOL    HW220577   2.908   1.121   3.804  0.7597 -1.8169  2.1281
 2981SOL     OW20578   3.607   4.111   3.305 -0.0957  0.7325  0.3275
 2981SOL    HW120579   3.628   4.097   3.212  1.5698 -1.9282  1.1053
 2981SOL    HW220580   3.580   4.202   3.315 -1.4047  0.3176  0.5405
 2982SOL     OW20581   0.010   3.189   3.916  0.3752  0.4831 -0.7663
 2982SOL    HW120582   0.074   3.260   3.912 -1.6375  2.2625 -1.2758
 2982SOL    HW220583   0.021   3.148   4.002 -2.6159  0.9867 -0.1681
 2983SOL     OW20584   4.478   2.464   2.572  0.2911 -0.3405 -0.3339
 2983SOL    HW120585   4.399   2.513   2.592  0.5959 -0.6515  1.6585
 2983SOL    HW220586   4.490   2.491   2.481 -1.8342 -1.8237 -1.0496
 2984SOL     OW20587   2.400   1.966   9.088  0.1578 -0.1316 -0.1464
 2984SOL    HW120588   2.416   2.060   9.081  0.1771 -0.1951 -0.9887
 2984SOL    HW220589   2.365   1.965   9.177  0.3633  0.8771 -0.0577
 2985SOL     OW20590   0.077   2.346   7.404 -0.1702  0.3304 -0.2441
 2985SOL    HW120591   0.038   2.345   7.491 -1.6760  3.9846 -0.8838
 2985SOL    HW220592   0.036   2.426   7.369 -1.7673 -0.3833  0.0108
 2986SOL     OW20593   1.843   4.074   1.837 -0.2861 -0.1100 -0.0213
 2986SOL    HW120594   1.880   4.040   1.919  1.0322 -0.0419 -0.5877
 2986SOL    HW220595   1.915   4.043   1.783 -0.0015 -0.5962  0.6273
 2987SOL     OW20596   2.824   3.994   6.993  0.5858 -0.2372 -0.3411
 2987SOL    HW120597   2.747   4.041   6.962 -0.0050 -0.9901 -0.0178
 2987SOL    HW220598   2.804   3.910   6.951 -1.1474  0.1135 -0.2016
 2988SOL     OW20599   1.134   0.112   3.727  0.0987 -0.1211  0.0985
 2988SOL    HW120600   1.115   0.040   3.667 -0.8215  2.7415 -3.0869
 2988SOL    HW220601   1.077   0.088   3.800  0.5461 -0.3101  0.3838
 2989SOL     OW20602   2.444   3.270   7.857  0.1145  0.4306  0.3873
 2989SOL    HW120603   2.397   3.294   7.778 -0.0126  1.2724  0.7092
 2989SOL    HW220604   2.473   3.183   7.831 -0.0747  1.1197 -2.0501
 2990SOL     OW20605   1.301   4.472   7.984 -0.3381  0.5610  0.5166
 2990SOL    HW120606   1.366   4.432   8.042 -1.5272 -2.4039 -0.1938
 2990SOL    HW220607   1.252   4.514   8.055  0.8249 -0.8173  2.1350
 2991SOL     OW20608   3.653   0.370  11.479 -0.3792  0.5833  0.0921
 2991SOL    HW120609   3.602   0.292  11.503 -0.2340  0.5173  0.1867
 2991SOL    HW220610   3.704   0.331  11.408  0.1135  0.4092  0.5380
 2992SOL     OW20611   0.426   3.806   4.416  0.6069 -0.1916  0.2331
 2992SOL    HW120612   0.513   3.775   4.391  0.6420  0.1564 -0.0711
 2992SOL    HW220613   0.382   3.721   4.426 -0.1061 -0.0316 -1.4664
 2993SOL     OW20614   1.981   4.429   3.417 -0.2051 -0.7118 -0.1033
 2993SOL    HW120615   1.961   4.493   3.486  1.7908  0.3087 -0.4894
 2993SOL    HW220616   2.047   4.377   3.461  1.0096  0.3968 -0.6177
 2994SOL     OW20617   1.768   4.335   6.299 -0.0402  0.2912 -0.3562
 2994SOL    HW120618   1.740   4.369   6.214  1.8562  2.6447 -0.0292
 2994SOL    HW220619   1.846   4.283   6.283 -0.6480 -0.6477 -0.2552
 2995SOL     OW20620   2.654   1.133   3.632  1.1171 -0.5966 -0.2489
 2995SOL    HW120621   2.707   1.135   3.712  1.2920 -2.2408 -0.3123
 2995SOL    HW220622   2.685   1.217   3.600 -2.8364  0.0388 -2.3620
 2996SOL     OW20623   3.165   1.417   5.266  0.4552 -0.5556 -0.6062
 2996SOL    HW120624   3.189   1.367   5.345  2.2743 -1.4454 -1.7486
 2996SOL    HW220625   3.228   1.488   5.273 -2.3074  1.9979 -2.0459
 2997SOL     OW20626   1.118   3.021   1.221  0.3766  0.0173  0.5792
 2997SOL    HW120627   1.095   2.971   1.299  1.0942 -1.2614 -0.0360
 2997SOL    HW220628   1.187   2.965   1.187  0.1144  0.7123 -1.1088
 2998SOL     OW20629   3.971   1.616   3.736  0.1785  0.5547  0.0413
 2998SOL    HW120630   3.887   1.653   3.711  1.6470  2.6492 -1.7735
 2998SOL    HW220631   3.992   1.654   3.821  0.4104 -1.4732  0.8858
 2999SOL     OW20632   1.557   0.212   6.129 -0.2174 -0.4115  0.3957
 2999SOL    HW120633   1.577   0.305   6.128 -0.5570 -0.3333  0.7535
 2999SOL    HW220634   1.462   0.209   6.142 -0.1033 -2.1257  0.9169
 3000SOL     OW20635   0.735   0.794   3.800 -0.7191 -0.1704 -0.4112
 3000SOL    HW120636   0.682   0.873   3.812  0.7119  0.7240  0.1116
 3000SOL    HW220637   0.686   0.747   3.733 -2.0800 -0.9959  1.1473
 3001SOL     OW20638   3.317   0.817   2.026 -0.3548  0.3806 -0.7827
 3001SOL    HW120639   3.234   0.838   1.983 -0.7497 -2.1014 -1.1939
 3001SOL    HW220640   3.381   0.794   1.958 -0.9361 -0.9654 -0.8774
 3002SOL     OW20641   1.110   0.837   8.357  0.4106 -0.3580 -0.2855
 3002SOL    HW120642   1.203   0.830   8.377  0.2592  3.3737  1.7945
 3002SOL    HW220643   1.099   0.762   8.299 -0.0966 -1.2087  0.9205
 3003SOL     OW20644   2.407   1.161  13.445  0.1359 -0.0012 -0.2878
 3003SOL    HW120645   2.477   1.096  13.453 -1.6575 -2.0113 -1.0269
 3003SOL    HW220646   2.345   1.120  13.505  0.2792  0.0275 -0.1169
 3004SOL     OW20647   4.337   1.243   5.498 -0.0751  0.1222 -0.1361
 3004SOL    HW120648   4.246   1.240   5.527  0.1589 -1.1720  0.4633
 3004SOL    HW220649   4.374   1.157   5.520  1.5538  1.3154  1.8741
 3005SOL     OW20650   0.559   4.686   8.867 -0.4809  0.1368  0.0311
 3005SOL    HW120651   0.636   4.646   8.826 -0.3510  0.3767  0.0412
 3005SOL    HW220652   0.490   4.628   8.836  2.7122 -3.9840  0.6062
 3006SOL     OW20653   0.574   0.814   3.120 -0.1520 -0.0566  0.7395
 3006SOL    HW120654   0.563   0.775   3.206  0.2045  0.4134  0.9994
 3006SOL    HW220655   0.497   0.871   3.118 -2.3797 -3.0203  2.6864
 3007SOL     OW20656   1.719   0.043  12.292 -0.0593  0.3855 -0.1258
 3007SOL    HW120657   1.737   0.038  12.385  2.9753  1.6670 -0.6436
 3007SOL    HW220658   1.629   0.013  12.303 -0.2456  0.8113 -0.5006
 3008SOL     OW20659   1.401   1.329   3.307 -0.3368  0.6771  0.2741
 3008SOL    HW120660   1.445   1.303   3.389  0.3332  2.3976  0.4532
 3008SOL    HW220661   1.460   1.400   3.283 -1.7955  1.8888  0.2878
 3009SOL     OW20662   1.838   4.608   0.970  0.3103 -0.7858 -0.4370
 3009SOL    HW120663   1.871   4.542   1.032 -1.7630 -0.4348  1.0411
 3009SOL    HW220664   1.746   4.583   0.967 -0.6327  2.4843  1.1049
 3010SOL     OW20665   4.036   1.725   6.086  0.2266 -0.2152  0.3369
 3010SOL    HW120666   4.082   1.646   6.060  0.0292 -0.3134  0.2854
 3010SOL    HW220667   4.067   1.721   6.177  2.8351 -2.2386 -0.6314
 3011SOL     OW20668   4.619   2.648   7.816  0.6163  0.1458  0.0450
 3011SOL    HW120669   4.579   2.705   7.882  1.0555 -0.2005  0.6109
 3011SOL    HW220670   4.584   2.690   7.737 -0.5640  2.8964  2.0336
 3012SOL     OW20671   0.063   2.857   3.847 -0.5638  0.2731  0.1936
 3012SOL    HW120672   0.125   2.795   3.887  1.2423  3.2727  1.9849
 3012SOL    HW220673   0.117   2.895   3.778 -0.1670 -0.8729 -0.1314
 3013SOL     OW20674   3.355   4.203   2.531  0.3840 -0.0010  0.4958
 3013SOL    HW120675   3.266   4.234   2.521  0.4790  0.8930  2.3851
 3013SOL    HW220676   3.344   4.112   2.502  0.2513 -0.3781  1.7162
 3014SOL     OW20677   4.669   1.070   8.401  0.6953  0.6458  0.0296
 3014SOL    HW120678   4.729   1.003   8.435 -2.0527  0.4414  4.4160
 3014SOL    HW220679   4.688   1.075   8.307 -0.1616  1.3204 -0.1033
 3015SOL     OW20680   0.798   3.455   2.148 -0.0952  0.3417 -0.3772
 3015SOL    HW120681   0.717   3.418   2.182  0.0403 -2.7094 -3.4516
 3015SOL    HW220682   0.807   3.534   2.203  1.1536  0.0423 -0.1541
 3016SOL     OW20683   2.824   1.750  10.019 -0.0183  0.1086  0.5880
 3016SOL    HW120684   2.810   1.670   9.967  1.2541 -0.1711  0.6858
 3016SOL    HW220685   2.743   1.750  10.070  0.8227 -0.1045  1.8959
 3017SOL     OW20686   2.992   0.907   2.241  0.1346 -0.5019 -0.0813
 3017SOL    HW120687   3.038   0.824   2.251  0.0144 -0.5792 -0.1629
 3017SOL    HW220688   3.070   0.959   2.223  0.3008 -0.8307 -0.3186
 3018SOL     OW20689   4.181   3.417  16.889  0.6111  0.0964 -0.0760
 3018SOL    HW120690   4.239   3.364  16.833 -4.5142 -4.6375 -0.8554
 3018SOL    HW220691   4.122   3.460  16.827  0.9214  0.8180  0.1172
 3019SOL     OW20692   4.134   0.459   5.395 -0.5028  0.0054 -0.3240
 3019SOL    HW120693   4.069   0.405   5.440  0.5044  0.2195  1.3833
 3019SOL    HW220694   4.219   0.428   5.427 -0.9955 -0.8187  0.1988
 3020SOL     OW20695   1.328   3.630   9.491  0.1403 -0.3683 -0.1953
 3020SOL    HW120696   1.337   3.711   9.541 -0.0517  0.2353 -1.1435
 3020SOL    HW220697   1.415   3.590   9.495 -1.4307 -3.7064  0.6429
 3021SOL     OW20698   1.944   3.857   5.847  0.2876 -0.2008  0.1445
 3021SOL    HW120699   1.955   3.765   5.823  0.2383 -0.0071 -0.6405
 3021SOL    HW220700   1.967   3.845   5.939 -1.2539  0.4522  0.6095
 3022SOL     OW20701   0.290   0.405   6.503 -0.0136  0.3004 -0.4809
 3022SOL    HW120702   0.381   0.430   6.493  0.4516 -1.0228  0.3920
 3022SOL    HW220703   0.299   0.339   6.572 -0.3769 -0.3685 -1.0578
 3023SOL     OW20704   3.088   2.177  13.694  0.3815  0.0159 -0.4223
 3023SOL    HW120705   3.059   2.259  13.655  1.0445 -0.8701 -2.8203
 3023SOL    HW220706   3.100   2.115  13.622 -0.9626 -0.9149  0.1691
 3024SOL     OW20707   3.350   3.820  15.827 -0.0800 -0.0449  0.5176
 3024SOL    HW120708   3.397   3.747  15.867 -0.1830 -0.1089  0.5208
 3024SOL    HW220709   3.383   3.817  15.737  0.0452 -2.9581  0.6538
 3025SOL     OW20710   2.756   1.874   1.166 -0.1590  0.2067  0.1601
 3025SOL    HW120711   2.763   1.967   1.146  1.6614  0.1610  0.5176
 3025SOL    HW220712   2.845   1.864   1.200  0.2834  0.2114 -1.0044
 3026SOL     OW20713   2.893   0.003   8.955 -0.5948 -0.2280  0.7645
 3026SOL    HW120714   2.850   0.052   8.885  1.8080  0.6813 -0.0747
 3026SOL    HW220715   2.959   4.689   8.907 -0.4267 -2.2262  3.0900
 3027SOL     OW20716   0.923   2.484   5.127  0.0448 -0.2656  0.7102
 3027SOL    HW120717   0.849   2.468   5.185 -0.3684  2.1682  0.8259
 3027SOL    HW220718   0.956   2.569   5.156  0.6375 -0.8993  1.9010
 3028SOL     OW20719   0.846   1.559   3.881  0.6802 -0.4161 -0.3428
 3028SOL    HW120720   0.884   1.502   3.814  2.5750  0.3585  0.0719
 3028SOL    HW220721   0.926   1.577   3.931  2.3880  1.1518 -3.6291
 3029SOL     OW20722   4.219   2.438   5.859 -0.6395  0.2073  0.4457
 3029SOL    HW120723   4.216   2.508   5.923  0.5027  0.7777 -0.1223
 3029SOL    HW220724   4.175   2.363   5.900 -2.8645  0.2244 -1.8664
 3030SOL     OW20725   3.611   4.364   8.769  0.2719 -0.1319 -0.6292
 3030SOL    HW120726   3.538   4.427   8.775  1.4961  1.1965  0.3169
 3030SOL    HW220727   3.636   4.365   8.861 -1.6224  1.8360 -0.1338
 3031SOL     OW20728   4.698   1.124   6.054  0.2866  0.4805  0.5345
 3031SOL    HW120729   4.632   1.063   6.085  1.4648 -2.5487 -2.8298
 3031SOL    HW220730   4.656   1.210   6.056  1.1937  0.9750 -0.7727
 3032SOL     OW20731   2.089   3.915  12.774 -0.2725 -1.2705 -0.0380
 3032SOL    HW120732   2.014   3.912  12.834 -0.5433 -0.8313 -0.3468
 3032SOL    HW220733   2.036   3.952  12.703 -1.2311 -2.4197  0.0753
 3033SOL     OW20734   2.569   2.901   2.066  0.1304  0.3266 -0.2400
 3033SOL    HW120735   2.480   2.872   2.045 -0.4160  0.3525  2.1390
 3033SOL    HW220736   2.604   2.826   2.113  2.9762  0.7741 -1.6312
 3034SOL     OW20737   2.895   4.653   8.564  0.9272  0.2412  0.3646
 3034SOL    HW120738   2.924   4.579   8.510 -0.7016  1.4396 -2.1877
 3034SOL    HW220739   2.956   4.722   8.536  3.8798 -0.8606  4.0876
 3035SOL     OW20740   2.105   2.301   4.065 -0.0509 -0.1644  0.3915
 3035SOL    HW120741   2.024   2.260   4.096  0.9365 -1.2224  1.5889
 3035SOL    HW220742   2.140   2.323   4.151  1.4270 -0.1904 -0.2124
 3036SOL     OW20743   4.499   3.702   4.319  0.0395 -0.1132 -0.1997
 3036SOL    HW120744   4.453   3.747   4.390  0.2425 -1.5362  0.8315
 3036SOL    HW220745   4.457   3.617   4.311  0.9498 -0.7079  1.3756
 3037SOL     OW20746   4.629   2.533  16.117 -0.2905 -0.1622 -0.1245
 3037SOL    HW120747   4.723   2.547  16.126 -0.3610 -0.7213  1.6112
 3037SOL    HW220748   4.598   2.619  16.091  2.6973  0.6950 -0.7654
 3038SOL     OW20749   1.609   3.507  16.316 -0.3225  0.3398  0.0520
 3038SOL    HW120750   1.692   3.462  16.332 -1.1116 -1.1899 -0.2712
 3038SOL    HW220751   1.613   3.573  16.386  3.4557 -0.4052  0.5384
 3039SOL     OW20752   1.826   3.272   4.981  0.5908 -0.7339 -0.3038
 3039SOL    HW120753   1.749   3.217   4.965  0.3295 -0.6690  0.7715
 3039SOL    HW220754   1.818   3.346   4.920 -0.4005 -0.7124 -0.1499
 3040SOL     OW20755   0.639   1.187   7.618 -0.1540  0.4185  0.2400
 3040SOL    HW120756   0.572   1.166   7.554  0.9864 -2.0201 -0.1659
 3040SOL    HW220757   0.594   1.252   7.672  1.3837  1.7731 -0.0957
 3041SOL     OW20758   0.381   0.900  17.297  0.0534 -0.1335 -0.3792
 3041SOL    HW120759   0.296   0.944  17.292  0.0953  0.0779  0.7239
 3041SOL    HW220760   0.408   0.949  17.375  0.9710 -1.0275 -0.1186
 3042SOL     OW20761   1.280   1.983   5.709 -0.1294  0.4674 -0.6652
 3042SOL    HW120762   1.221   1.982   5.784 -0.3559  1.0865 -0.8349
 3042SOL    HW220763   1.358   1.960   5.760  0.5421  2.9817 -0.5560
 3043SOL     OW20764   2.879   0.614   6.364 -0.2168  0.0194  0.5851
 3043SOL    HW120765   2.877   0.599   6.458  0.1206  0.4341  0.6581
 3043SOL    HW220766   2.931   0.539   6.334 -1.9894 -0.8897 -0.2207
 3044SOL     OW20767   3.771   4.326   3.619  0.6200 -0.1231  0.0080
 3044SOL    HW120768   3.843   4.363   3.569  1.1763  0.3664  1.1860
 3044SOL    HW220769   3.805   4.332   3.708  0.3578  1.3901  0.0026
 3045SOL     OW20770   1.706   3.311   5.544 -0.7208  0.3314  0.1533
 3045SOL    HW120771   1.721   3.216   5.547 -1.7154  0.1346 -1.6188
 3045SOL    HW220772   1.668   3.315   5.456  1.0773  0.8929 -0.5811
 3046SOL     OW20773   2.695   0.057   4.200 -0.2622  0.4056  0.1222
 3046SOL    HW120774   2.704   4.725   4.266 -0.4502  2.2599  2.0643
 3046SOL    HW220775   2.620   0.023   4.152 -0.9630  0.3795  1.2326
 3047SOL     OW20776   1.938   1.344   2.112 -0.0718  0.3629 -0.5598
 3047SOL    HW120777   1.903   1.300   2.190  1.1896  0.1273 -0.1218
 3047SOL    HW220778   1.863   1.329   2.054 -1.7349  1.8375  1.2129
 3048SOL     OW20779   2.948   4.402  10.731 -0.3772  0.2836  0.3594
 3048SOL    HW120780   2.928   4.463  10.802 -0.5857  0.5155  0.0996
 3048SOL    HW220781   2.860   4.368  10.712  0.0980 -0.2355 -0.9158
 3049SOL     OW20782   3.166   4.437   7.451 -0.5198 -0.1293 -0.2185
 3049SOL    HW120783   3.098   4.467   7.391  0.6586 -1.3781 -2.1682
 3049SOL    HW220784   3.121   4.368   7.500  0.0755 -1.0085 -0.9064
 3050SOL     OW20785   1.495   4.434   2.446 -0.5283  0.1692  0.0083
 3050SOL    HW120786   1.432   4.365   2.467 -1.2266  1.2539  1.4535
 3050SOL    HW220787   1.455   4.475   2.370 -0.9818 -0.8894 -0.3330
 3051SOL     OW20788   4.096   1.380   0.071 -0.2287  0.4152  0.0386
 3051SOL    HW120789   4.108   1.306   0.012  0.2349  1.6295 -1.3842
 3051SOL    HW220790   4.095   1.339   0.157 -3.0695 -1.9322 -1.1060
 3052SOL     OW20791   4.290   3.314   8.447 -0.2965  0.1739  0.3605
 3052SOL    HW120792   4.228   3.267   8.391 -1.5560  1.5588  0.6029
 3052SOL    HW220793   4.367   3.258   8.435  0.4151  0.6841  2.6834
 3053SOL     OW20794   2.289   0.124   5.170  0.0040 -0.2994  0.5935
 3053SOL    HW120795   2.383   0.123   5.184  0.2665  1.3203 -1.1103
 3053SOL    HW220796   2.299   0.133   5.075  0.9246 -2.8369  0.4363
 3054SOL     OW20797   4.119   0.847   1.676 -0.5292 -0.0160  0.4144
 3054SOL    HW120798   4.075   0.932   1.685 -0.7126 -0.1276  0.5889
 3054SOL    HW220799   4.197   0.873   1.725 -0.3683 -1.0030  0.6735
 3055SOL     OW20800   2.755   0.792   6.188  0.3787  0.1188  0.2926
 3055SOL    HW120801   2.806   0.722   6.148  0.3897  0.7327 -0.7612
 3055SOL    HW220802   2.756   0.769   6.281 -1.0782  2.8280  0.9588
 3056SOL     OW20803   0.814   1.604  13.925 -0.3472  0.2712 -0.5121
 3056SOL    HW120804   0.765   1.627  14.004 -0.9030 -1.9896 -0.1881
 3056SOL    HW220805   0.749   1.541  13.893 -1.8767  2.0908 -1.0102
 3057SOL     OW20806   4.088   3.403   7.688  0.3821  0.2912  0.2701
 3057SOL    HW120807   4.010   3.357   7.659 -0.3899  0.8966  1.3980
 3057SOL    HW220808   4.127   3.422   7.602  0.8074 -2.1835 -0.0797
 3058SOL     OW20809   3.987   2.597  10.016 -0.4908 -0.2016  0.0558
 3058SOL    HW120810   3.932   2.576  10.091  1.2628  0.1785  1.4596
 3058SOL    HW220811   3.921   2.583   9.948  0.7648 -1.7458 -0.8563
 3059SOL     OW20812   2.021   2.099   9.554 -0.1071  0.2627  0.1438
 3059SOL    HW120813   1.992   2.159   9.623  0.3362  0.2714  0.3247
 3059SOL    HW220814   2.086   2.149   9.504  0.3932  0.8795  1.4125
 3060SOL     OW20815   4.289   2.658   4.012  0.1462  0.6140 -0.2973
 3060SOL    HW120816   4.207   2.706   3.998  0.6111  1.0601 -1.4971
 3060SOL    HW220817   4.305   2.701   4.096  2.5781 -1.2635  0.1986
 3061SOL     OW20818   1.094   2.720   5.262 -0.0735  0.5247  0.3967
 3061SOL    HW120819   1.168   2.776   5.285 -1.3270  1.6072  1.7261
 3061SOL    HW220820   1.070   2.761   5.179  1.9397  0.0003 -0.4394
 3062SOL     OW20821   0.233   0.325  16.958  0.9732  0.8785 -0.2197
 3062SOL    HW120822   0.212   0.232  16.945  3.0636 -0.0750  3.1092
 3062SOL    HW220823   0.328   0.315  16.967  0.5738 -3.5323 -0.7532
 3063SOL     OW20824   0.170   1.295   6.154  0.2243  0.0787 -0.0140
 3063SOL    HW120825   0.260   1.263   6.161 -0.4648 -1.9486 -0.3370
 3063SOL    HW220826   0.121   1.220   6.121 -0.9382  0.6808  0.3558
 3064SOL     OW20827   3.249   2.133   3.596  0.0451  0.1436  0.0513
 3064SOL    HW120828   3.262   2.046   3.635 -1.1252 -0.1507 -0.2154
 3064SOL    HW220829   3.335   2.155   3.561 -0.3616 -1.1402 -1.7752
 3065SOL     OW20830   3.742   0.758   7.662  0.3125  0.2819  0.3712
 3065SOL    HW120831   3.664   0.797   7.624  0.3934 -0.1380 -0.2285
 3065SOL    HW220832   3.748   0.803   7.746  3.1618 -1.2208  0.9767
 3066SOL     OW20833   3.047   4.395   6.029  0.1934 -0.0406 -0.8886
 3066SOL    HW120834   3.005   4.481   6.037 -0.1263 -0.1609 -1.2531
 3066SOL    HW220835   3.019   4.347   6.107  1.7167 -1.7453 -1.3883
 3067SOL     OW20836   3.496   1.486   4.161 -0.4342  0.1458 -0.1286
 3067SOL    HW120837   3.518   1.495   4.068 -1.0218 -0.6511 -0.3447
 3067SOL    HW220838   3.539   1.559   4.205 -1.0230  0.2964  0.1980
 3068SOL     OW20839   4.312   0.047   1.217 -0.5108  0.2960  1.0043
 3068SOL    HW120840   4.225   0.026   1.183  0.3692 -1.4133 -0.1857
 3068SOL    HW220841   4.302   0.039   1.311  3.0467 -4.5396  0.9621
 3069SOL     OW20842   1.324   3.453   4.695 -0.0394 -0.6582  0.2118
 3069SOL    HW120843   1.246   3.507   4.681  1.5725  0.5637 -3.9192
 3069SOL    HW220844   1.329   3.409   4.610  1.0683  1.6733 -0.9535
 3070SOL     OW20845   1.146   1.916   8.355 -0.3491  0.4827  0.0471
 3070SOL    HW120846   1.159   1.985   8.290 -0.2420  1.6762  1.3187
 3070SOL    HW220847   1.050   1.912   8.359 -0.4028  1.5145 -0.2953
 3071SOL     OW20848   1.058   2.900   1.691  0.5114 -0.6470 -0.1625
 3071SOL    HW120849   1.092   2.911   1.603 -2.2997 -1.7931 -1.4089
 3071SOL    HW220850   1.091   2.813   1.716  1.3576 -0.4900 -0.7634
 3072SOL     OW20851   1.149   3.212   3.643  0.3295 -0.5629 -0.1724
 3072SOL    HW120852   1.065   3.251   3.617  0.1190 -2.4707 -2.3740
 3072SOL    HW220853   1.164   3.256   3.726 -4.2766  0.5273  0.0732
 3073SOL     OW20854   1.884   4.160   3.869 -0.4081  0.4720  0.1237
 3073SOL    HW120855   1.859   4.143   3.778  0.6217 -1.6324  0.2489
 3073SOL    HW220856   1.827   4.232   3.896 -0.1524  0.7691 -0.1125
 3074SOL     OW20857   2.098   1.831   4.957 -0.3575 -0.1068  0.0472
 3074SOL    HW120858   2.062   1.742   4.965  0.8173 -0.6587 -0.7909
 3074SOL    HW220859   2.179   1.822   5.007 -0.8768  1.1731  1.1119
 3075SOL     OW20860   3.974   0.406   8.950  0.2349  0.1473 -0.0428
 3075SOL    HW120861   4.026   0.472   8.903  0.1541 -0.0483 -0.4101
 3075SOL    HW220862   3.886   0.425   8.919 -1.2915 -2.6034  2.6266
 3076SOL     OW20863   0.826   3.922   4.444  0.2225 -0.1283 -0.1232
 3076SOL    HW120864   0.746   3.873   4.423  0.4664 -0.1519 -0.9864
 3076SOL    HW220865   0.892   3.854   4.438  1.8715  1.2486  2.2378
 3077SOL     OW20866   0.495   1.531   0.527  0.0822  0.1807  0.8341
 3077SOL    HW120867   0.472   1.471   0.456 -0.6180  0.4768  0.8112
 3077SOL    HW220868   0.488   1.459   0.590  0.5387 -0.4358  0.1757
 3078SOL     OW20869   3.582   2.329   8.413 -0.3372 -0.1010 -0.7294
 3078SOL    HW120870   3.488   2.347   8.409 -0.1651  1.0895  0.5489
 3078SOL    HW220871   3.576   2.280   8.495 -0.0631  0.0190 -0.6372
 3079SOL     OW20872   1.238   4.438  15.963  0.1004  0.2719  0.1844
 3079SOL    HW120873   1.231   4.534  15.970 -0.7865  0.1885  0.5469
 3079SOL    HW220874   1.210   4.435  16.055 -3.0036  1.5980 -0.6888
 3080SOL     OW20875   1.455   0.227  15.023  0.0560 -0.4410 -0.0353
 3080SOL    HW120876   1.469   0.132  15.029 -1.1875 -0.6355 -0.1569
 3080SOL    HW220877   1.540   0.259  15.052 -1.2200  0.9872  2.1877
 3081SOL     OW20878   1.873   3.400   3.550  0.0253 -0.0878 -0.0606
 3081SOL    HW120879   1.786   3.375   3.518 -0.6946  0.1268  1.7679
 3081SOL    HW220880   1.878   3.344   3.628  2.4285  1.0942  0.6486
 3082SOL     OW20881   2.391   0.190   9.798  0.0407 -0.0284  0.0146
 3082SOL    HW120882   2.414   0.222   9.886 -1.6046  0.1865  0.3835
 3082SOL    HW220883   2.474   0.179   9.753  0.0450 -2.0162  0.5102
 3083SOL     OW20884   4.239   1.043   7.448 -0.1038  0.4540  0.5516
 3083SOL    HW120885   4.245   0.949   7.434 -0.7322  0.6409 -0.9941
 3083SOL    HW220886   4.153   1.051   7.406  0.3211  2.8815  0.0916
 3084SOL     OW20887   2.737   0.682   4.850  0.6342  0.6179  0.1199
 3084SOL    HW120888   2.737   0.607   4.908  1.7305 -1.1513 -2.1753
 3084SOL    HW220889   2.667   0.727   4.897  1.8890  1.1022  1.5142
 3085SOL     OW20890   4.537   2.769   7.130  0.1369  0.3081  0.1002
 3085SOL    HW120891   4.477   2.700   7.102  0.5264 -0.7509  1.9226
 3085SOL    HW220892   4.500   2.842   7.080 -3.2857 -1.5855 -0.0942
 3086SOL     OW20893   2.368   3.299   8.748 -0.0001 -0.8395  0.3921
 3086SOL    HW120894   2.424   3.245   8.692 -1.7046 -1.1565 -0.9806
 3086SOL    HW220895   2.331   3.235   8.809 -1.1267 -1.1040 -0.5736
 3087SOL     OW20896   3.962   4.150  10.487  0.0601  0.0722  0.3732
 3087SOL    HW120897   3.945   4.243  10.498  1.3319  0.6329 -2.4638
 3087SOL    HW220898   4.058   4.145  10.483  0.0075 -2.2670  1.7418
 3088SOL     OW20899   4.278   4.461   3.891  0.0135  0.4649 -0.3248
 3088SOL    HW120900   4.320   4.437   3.809  1.2216  0.0740  0.3941
 3088SOL    HW220901   4.333   4.537   3.909  1.3586 -0.8533  1.1954
 3089SOL     OW20902   1.542   2.704  17.556  0.3035  0.6250 -0.4875
 3089SOL    HW120903   1.482   2.770  17.522 -0.0806  0.8544  0.6222
 3089SOL    HW220904   1.593   2.695  17.476  1.0076  1.7703 -0.1876
 3090SOL     OW20905   0.762   2.055   7.385 -0.4153 -0.0369 -0.0905
 3090SOL    HW120906   0.718   2.021   7.463 -1.5446 -1.1656 -1.2160
 3090SOL    HW220907   0.752   1.976   7.332  0.9986  0.3834 -0.9761
 3091SOL     OW20908   0.420   4.454   8.040  0.6714 -0.2803 -0.3641
 3091SOL    HW120909   0.391   4.542   8.065  1.8809 -0.4758  1.7359
 3091SOL    HW220910   0.397   4.406   8.119  0.9209 -0.8423 -0.6338
 3092SOL     OW20911   0.811   0.248   4.362 -0.1397  0.4920  0.0896
 3092SOL    HW120912   0.773   0.202   4.287 -0.9832 -2.0243  2.0893
 3092SOL    HW220913   0.757   0.221   4.436 -0.1315  2.7187  0.9179
 3093SOL     OW20914   3.279   3.930   6.110 -0.1488  0.6818  0.5376
 3093SOL    HW120915   3.214   3.885   6.163 -0.6405 -0.6785 -1.1957
 3093SOL    HW220916   3.235   4.010   6.080  0.3726  0.8455  0.2118
 3094SOL     OW20917   0.177   0.119   4.759  0.3441  0.0923 -0.7215
 3094SOL    HW120918   0.210   0.178   4.826  0.1676 -0.0671 -0.4955
 3094SOL    HW220919   0.134   0.048   4.805 -1.5166 -0.1826 -2.8502
 3095SOL     OW20920   0.163   1.585   2.910 -0.4052  0.3814  0.1061
 3095SOL    HW120921   0.115   1.524   2.966  1.7765 -1.4157  0.0179
 3095SOL    HW220922   0.251   1.590   2.947 -0.6555 -0.8808  0.8699
 3096SOL     OW20923   0.512   1.078  15.922  0.1165  0.0505  0.1263
 3096SOL    HW120924   0.576   1.135  15.964  0.2155  0.6433 -0.8484
 3096SOL    HW220925   0.429   1.125  15.931  0.8521  1.4000 -0.2627
 3097SOL     OW20926   2.824   0.092   8.179  0.5201 -0.1902  0.3544
 3097SOL    HW120927   2.806   0.134   8.263 -1.4412  3.7037 -2.0148
 3097SOL    HW220928   2.750   0.127   8.130  1.2944  0.5329 -0.2922
 3098SOL     OW20929   1.702   3.432   1.424 -0.0500 -0.3872  0.4117
 3098SOL    HW120930   1.709   3.517   1.468  0.8161 -0.9979  1.4453
 3098SOL    HW220931   1.740   3.448   1.338 -0.1794 -1.0954  0.2214
 3099SOL     OW20932   1.984   0.661   5.655 -0.0263  0.4548  0.0112
 3099SOL    HW120933   1.942   0.642   5.571 -1.3942  0.5781  0.6675
 3099SOL    HW220934   1.910   0.666   5.716 -0.1844 -0.4916 -0.1063
 3100SOL     OW20935   3.494   2.825  12.958  0.5579 -0.9210 -0.9432
 3100SOL    HW120936   3.495   2.847  12.865 -1.6460 -0.4312 -0.8657
 3100SOL    HW220937   3.407   2.788  12.976  0.9144 -1.6072 -0.6537
 3101SOL     OW20938   2.690   3.756   7.180  0.1744  0.2430  0.1635
 3101SOL    HW120939   2.763   3.811   7.210 -0.0734 -0.8354  2.8107
 3101SOL    HW220940   2.631   3.756   7.256 -2.0319  0.6764 -1.5546
 3102SOL     OW20941   2.970   2.263  12.597 -0.1411 -0.0278  0.0357
 3102SOL    HW120942   3.008   2.339  12.639 -0.3661 -1.7915  3.3841
 3102SOL    HW220943   2.886   2.266  12.642 -0.0872  2.0025 -0.0117
 3103SOL     OW20944   1.933   2.801   7.832  0.5612  0.7486 -0.7602
 3103SOL    HW120945   2.027   2.784   7.833  0.6133  1.2173  2.6112
 3103SOL    HW220946   1.941   2.896   7.835 -4.0919  1.1306  0.5792
 3104SOL     OW20947   4.351   0.839  12.773 -0.4314 -0.1895 -0.0466
 3104SOL    HW120948   4.380   0.910  12.716  3.0735  0.3731  2.4393
 3104SOL    HW220949   4.259   0.841  12.745 -0.6279 -1.4334  0.5073
 3105SOL     OW20950   1.018   3.216  12.891  0.1939 -0.2747  0.0088
 3105SOL    HW120951   1.103   3.252  12.917  0.3593 -0.8164  0.2014
 3105SOL    HW220952   1.007   3.276  12.817  0.4745  0.6351  0.6950
 3106SOL     OW20953   0.662   1.770   3.415  0.0832 -0.2640  0.1392
 3106SOL    HW120954   0.733   1.718   3.453 -0.2385 -0.7075  0.1462
 3106SOL    HW220955   0.592   1.756   3.479  0.9721 -1.1212  0.9274
 3107SOL     OW20956   0.780   1.268   3.749 -0.2241 -1.2233  0.1162
 3107SOL    HW120957   0.794   1.298   3.660 -0.3569  0.3097  0.6207
 3107SOL    HW220958   0.864   1.226   3.768 -1.9184 -3.9797  1.6202
 3108SOL     OW20959   2.621   1.569   6.724 -0.6750 -0.8501  0.0152
 3108SOL    HW120960   2.558   1.562   6.796 -0.7183  0.4996  0.1037
 3108SOL    HW220961   2.688   1.513   6.765 -3.7318 -3.9868  0.7168
 3109SOL     OW20962   3.702   1.529   6.204 -0.1494 -0.1720  0.8253
 3109SOL    HW120963   3.774   1.581   6.168 -0.1459  0.0504  1.1642
 3109SOL    HW220964   3.738   1.441   6.195  5.2509  1.8907  2.1673
 3110SOL     OW20965   4.177   0.868  12.228 -0.1451 -0.7777 -0.3536
 3110SOL    HW120966   4.133   0.833  12.151  1.3102 -0.8821 -1.1539
 3110SOL    HW220967   4.166   0.800  12.294  1.6725 -1.6850 -0.9758
 3111SOL     OW20968   0.963   2.247  11.954  0.0605 -0.6580 -0.1459
 3111SOL    HW120969   1.020   2.185  11.909  1.1909 -1.8610  2.8834
 3111SOL    HW220970   0.917   2.191  12.016  0.3021  0.3373  0.9295
 3112SOL     OW20971   2.678   3.835  13.964 -0.2867  0.1490  0.0466
 3112SOL    HW120972   2.601   3.788  13.931  1.4507 -1.3582 -1.7917
 3112SOL    HW220973   2.659   3.816  14.056 -0.1355  2.0499  0.4781
 3113SOL     OW20974   1.081   0.619   8.164 -0.3672 -0.4648  0.8392
 3113SOL    HW120975   0.998   0.571   8.160 -1.4462  1.5220 -0.7966
 3113SOL    HW220976   1.136   0.558   8.212  3.3349  0.8395 -1.7645
 3114SOL     OW20977   0.722   4.350   4.890 -0.5133 -0.1169 -0.1725
 3114SOL    HW120978   0.776   4.416   4.932  1.2686 -1.7095  0.0432
 3114SOL    HW220979   0.792   4.292   4.858 -2.0962 -1.5272 -1.0734
 3115SOL     OW20980   0.073   3.542   4.704  0.5128 -0.1991 -0.3152
 3115SOL    HW120981   0.051   3.453   4.677  0.1806 -0.2068 -0.0295
 3115SOL    HW220982   4.722   3.580   4.715  1.0947  1.3024 -0.9446
 3116SOL     OW20983   2.763   3.601  14.947 -0.6389 -0.1735 -0.6485
 3116SOL    HW120984   2.788   3.512  14.924 -0.8011 -0.2432 -0.5553
 3116SOL    HW220985   2.795   3.608  15.037 -1.5217 -0.9965 -0.2713
 3117SOL     OW20986   2.759   0.545   9.270  0.1426  0.4481 -0.3900
 3117SOL    HW120987   2.784   0.609   9.337  1.1935 -1.6237  1.1946
 3117SOL    HW220988   2.686   0.496   9.308  0.5871  0.5675  0.6120
 3118SOL     OW20989   1.773   3.695   1.490  0.1836  0.4216  0.3041
 3118SOL    HW120990   1.767   3.715   1.584  2.4088 -0.1968  0.5647
 3118SOL    HW220991   1.747   3.775   1.444  0.1067 -0.6486 -1.5059
 3119SOL     OW20992   1.061   0.875   8.017 -0.0896  0.3166  0.0589
 3119SOL    HW120993   1.097   0.876   7.928  0.2981 -0.6567  0.2126
 3119SOL    HW220994   1.095   0.794   8.055  1.6118  1.3831  0.8193
 3120SOL     OW20995   2.333   1.609   2.919 -0.0074 -0.2202  0.0314
 3120SOL    HW120996   2.266   1.547   2.890 -1.8330  1.1582  1.2760
 3120SOL    HW220997   2.368   1.561   2.994 -2.4074  1.3507  2.1678
 3121SOL     OW20998   0.432   0.770   2.712  0.6282 -0.1878 -0.4191
 3121SOL    HW120999   0.381   0.848   2.689 -0.3051 -0.2134  1.5568
 3121SOL    HW221000   0.403   0.756   2.802  1.2577  2.5797  0.2264
 3122SOL     OW21001   3.117   0.491   3.419 -0.3498  0.7422  0.5352
 3122SOL    HW121002   3.047   0.427   3.408  1.4244 -1.3088  1.2257
 3122SOL    HW221003   3.192   0.434   3.404 -0.7491  0.4983 -0.5350
 3123SOL     OW21004   1.943   2.008   8.180  0.7494 -0.3386  0.4038
 3123SOL    HW121005   1.854   2.019   8.147  1.0783 -0.0281 -0.3781
 3123SOL    HW221006   1.960   1.915   8.165 -1.6347 -0.7119  0.0173
 3124SOL     OW21007   4.010   2.096  11.914 -0.2767 -0.1469 -0.3488
 3124SOL    HW121008   3.983   2.019  11.964  1.0553 -0.8210 -0.6713
 3124SOL    HW221009   4.074   2.065  11.850  0.0687  1.0624 -0.5962
 3125SOL     OW21010   3.743   0.847   3.220 -0.7055  0.2733 -0.0362
 3125SOL    HW121011   3.697   0.854   3.303 -1.0595  0.2497 -0.2299
 3125SOL    HW221012   3.780   0.936   3.220  2.6406 -1.1273 -0.0541
 3126SOL     OW21013   2.395   1.376  10.844  0.0043  0.2068  0.4036
 3126SOL    HW121014   2.323   1.342  10.896 -0.4376 -0.9035 -0.9702
 3126SOL    HW221015   2.348   1.431  10.781  1.6153  3.0459  1.6391
 3127SOL     OW21016   0.458   2.904   2.279 -0.2345  0.7345 -0.2040
 3127SOL    HW121017   0.455   2.997   2.259 -1.9232  1.3355  2.9236
 3127SOL    HW221018   0.447   2.898   2.373 -1.0574 -0.5529 -0.3758
 3128SOL     OW21019   3.549   3.545   3.007  0.4094 -0.0491  0.1717
 3128SOL    HW121020   3.594   3.559   3.091  1.8342 -2.0642 -0.2555
 3128SOL    HW221021   3.597   3.466   2.981 -0.3807 -0.8507  1.1155
 3129SOL     OW21022   3.364   0.787   6.891 -0.3952  0.6468  0.3601
 3129SOL    HW121023   3.348   0.728   6.965  1.9981  0.2650  0.6018
 3129SOL    HW221024   3.459   0.801   6.895 -0.7505  2.5052  2.1053
 3130SOL     OW21025   2.403   1.225   4.977  0.0563 -0.1594  0.6354
 3130SOL    HW121026   2.440   1.263   4.897  0.0110  0.2002  0.7829
 3130SOL    HW221027   2.483   1.183   5.006  0.2941  1.1960  1.9482
 3131SOL     OW21028   0.086   0.502  10.939  0.3179  0.6676 -0.1062
 3131SOL    HW121029   0.064   0.410  10.920 -1.9908  0.8635  1.6344
 3131SOL    HW221030   0.145   0.479  11.011  0.4558  0.5936 -0.2428
 3132SOL     OW21031   3.381   4.020  15.613 -0.3809 -0.2318  0.2595
 3132SOL    HW121032   3.290   4.007  15.640 -0.1900 -2.2884 -0.1089
 3132SOL    HW221033   3.416   4.088  15.671 -0.6167  0.1898 -0.0988
 3133SOL     OW21034   4.392   0.159   3.755  0.1896 -0.2603 -0.3955
 3133SOL    HW121035   4.425   0.242   3.719 -0.8743  1.3852  2.3995
 3133SOL    HW221036   4.401   0.179   3.848 -1.3660 -2.3715  0.2022
 3134SOL     OW21037   0.979   2.782   3.345  0.4883 -0.3549 -0.3117
 3134SOL    HW121038   0.914   2.851   3.329  1.0484  0.5857  1.3978
 3134SOL    HW221039   1.062   2.812   3.307  0.6972 -0.6203 -0.0645
 3135SOL     OW21040   3.423   0.403   8.586  0.3428 -0.2047 -0.4464
 3135SOL    HW121041   3.381   0.426   8.504  1.5713  1.0643 -0.7246
 3135SOL    HW221042   3.370   0.327   8.611 -0.2524  0.1875 -0.5274
 3136SOL     OW21043   2.051   0.144   2.422  0.4305 -0.3273  0.5016
 3136SOL    HW121044   2.074   0.212   2.485 -0.3165  2.3000 -2.0551
 3136SOL    HW221045   2.093   0.179   2.344  0.6061 -0.6075  0.4700
 3137SOL     OW21046   2.533   1.488  16.631  0.3500 -0.5624  0.1070
 3137SOL    HW121047   2.510   1.574  16.666 -1.0257 -0.7006 -0.4569
 3137SOL    HW221048   2.504   1.508  16.542 -3.3391 -0.2881  1.3680
 3138SOL     OW21049   0.031   1.403   3.051  0.2376 -0.7156 -0.2021
 3138SOL    HW121050   0.084   1.323   3.055  0.3494 -0.5456  2.2246
 3138SOL    HW221051   4.706   1.373   3.118  0.0315  0.9774  0.3756
 3139SOL     OW21052   0.429   1.226   6.149  1.1645 -0.5144 -0.4993
 3139SOL    HW121053   0.493   1.265   6.090  2.7961 -1.7282  0.4636
 3139SOL    HW221054   0.415   1.146   6.098 -0.6066 -0.8543  0.5089
 3140SOL     OW21055   1.034   2.957   3.626  0.2368 -0.7123  0.3157
 3140SOL    HW121056   1.088   3.033   3.646 -0.7498  0.2215 -0.5751
 3140SOL    HW221057   0.956   2.996   3.586  0.1062  0.0438  1.2909
 3141SOL     OW21058   2.284   2.175   2.693  0.6854 -0.0159 -0.0524
 3141SOL    HW121059   2.340   2.238   2.649  1.4066 -0.3879  0.3436
 3141SOL    HW221060   2.237   2.141   2.617 -0.9961 -1.5254  1.6643
 3142SOL     OW21061   0.777   4.419   1.546 -0.0380  0.0695  0.0226
 3142SOL    HW121062   0.805   4.441   1.635 -1.7418  2.0344  0.0595
 3142SOL    HW221063   0.841   4.358   1.509  0.5290  1.4720 -1.3341
 3143SOL     OW21064   3.791   1.289  11.337 -0.1218 -0.2823 -0.3401
 3143SOL    HW121065   3.747   1.347  11.399  0.4222 -0.7932  0.5126
 3143SOL    HW221066   3.717   1.254  11.287  0.3822 -0.3461 -1.0478
 3144SOL     OW21067   3.226   4.645  16.742  0.0996  0.3763  0.3153
 3144SOL    HW121068   3.318   4.633  16.717 -0.6681  0.5608 -2.5888
 3144SOL    HW221069   3.238   4.650  16.836 -0.8088 -0.3344  0.4670
 3145SOL     OW21070   4.042   2.417  13.576 -0.3084 -0.8380 -0.2991
 3145SOL    HW121071   4.128   2.459  13.583 -0.6637 -0.1010 -0.2507
 3145SOL    HW221072   4.067   2.328  13.553  1.6739 -0.2603 -0.3982
 3146SOL     OW21073   0.556   3.838  12.987 -0.5732  0.3101 -0.3646
 3146SOL    HW121074   0.508   3.835  13.070 -1.6598 -0.1390 -1.0133
 3146SOL    HW221075   0.631   3.790  13.022  1.2925  1.9456 -2.1549
 3147SOL     OW21076   0.340   1.083  12.820  0.7259  0.4098  0.1880
 3147SOL    HW121077   0.343   1.047  12.909  0.0170 -0.3849 -0.1106
 3147SOL    HW221078   0.248   1.101  12.804  0.8306  1.6115  0.9721
 3148SOL     OW21079   3.039   1.851  10.577  0.2896 -0.4336 -0.2616
 3148SOL    HW121080   3.028   1.765  10.538 -0.7266 -0.2617 -0.3604
 3148SOL    HW221081   3.131   1.867  10.560  0.5477  1.2429  2.7169
 3149SOL     OW21082   2.148   1.201   7.156 -0.4702  0.0005 -0.1123
 3149SOL    HW121083   2.069   1.254   7.150 -0.9754 -0.6484  0.7952
 3149SOL    HW221084   2.121   1.136   7.091  0.2956  1.2933 -1.7249
 3150SOL     OW21085   4.522   0.778  17.229  0.2192 -0.0251  0.1015
 3150SOL    HW121086   4.569   0.806  17.308  0.7080 -0.2128 -0.1206
 3150SOL    HW221087   4.576   0.702  17.208 -1.5132 -0.9051 -1.1234
 3151SOL     OW21088   2.212   2.566   9.275  0.5980  1.0114 -0.0115
 3151SOL    HW121089   2.222   2.610   9.190 -1.9974  1.9070  0.1483
 3151SOL    HW221090   2.117   2.553   9.277  0.8910 -0.8042  2.5346
 3152SOL     OW21091   0.480   4.460  14.881  0.3631  0.2650  0.0571
 3152SOL    HW121092   0.535   4.507  14.819  0.3626 -0.4927 -0.5266
 3152SOL    HW221093   0.490   4.511  14.961  5.4543  0.5146 -0.7955
 3153SOL     OW21094   1.574   4.605   9.686 -0.5863 -0.0952 -0.7954
 3153SOL    HW121095   1.601   4.688   9.647  0.7024  0.0663  0.4472
 3153SOL    HW221096   1.582   4.549   9.608  2.3595  0.0505 -0.6024
 3154SOL     OW21097   0.199   2.944   6.186 -0.1542 -0.3907 -0.2604
 3154SOL    HW121098   0.160   2.989   6.260  0.1385  0.3026 -0.5269
 3154SOL    HW221099   0.262   2.891   6.234  0.7203 -0.0770 -1.0538
 3155SOL     OW21100   2.586   0.859  15.929  0.3857  0.4983  0.1030
 3155SOL    HW121101   2.621   0.931  15.981 -1.1430  1.8272 -0.7061
 3155SOL    HW221102   2.669   0.821  15.899  0.1656 -0.9870  1.4179
 3156SOL     OW21103   0.445   4.642   3.760 -0.5591  0.4056  0.5710
 3156SOL    HW121104   0.459   4.737   3.763  0.5430  0.2623 -0.3410
 3156SOL    HW221105   0.470   4.628   3.669 -0.8672 -1.3926  0.7606
 3157SOL     OW21106   1.500   4.079  11.720 -0.2657 -0.4407 -0.5343
 3157SOL    HW121107   1.577   4.067  11.664 -1.1086 -0.4765 -1.6812
 3157SOL    HW221108   1.505   4.024  11.798 -0.8713 -0.4276 -0.4927
 3158SOL     OW21109   0.733   3.765   7.323 -0.3721  1.0140  0.0383
 3158SOL    HW121110   0.775   3.851   7.314  0.2064  0.6457 -0.8066
 3158SOL    HW221111   0.638   3.772   7.314 -0.2868  0.4685 -1.4078
 3159SOL     OW21112   1.190   1.895  17.215 -0.4568  0.0499 -0.6245
 3159SOL    HW121113   1.232   1.810  17.224 -0.8816 -0.1658 -0.6775
 3159SOL    HW221114   1.264   1.938  17.171 -0.3656  1.0388  0.5038
 3160SOL     OW21115   0.639   3.878  14.825 -0.4301  0.2127  0.1387
 3160SOL    HW121116   0.621   3.947  14.889  1.1348  0.2011  0.5918
 3160SOL    HW221117   0.726   3.897  14.789 -0.4949 -0.4966 -0.3937
 3161SOL     OW21118   0.811   0.382   3.216  0.2610 -0.0357 -0.1003
 3161SOL    HW121119   0.866   0.446   3.262  0.3038  0.2342 -0.5291
 3161SOL    HW221120   0.726   0.411   3.249  1.7472  2.2976  1.7422
 3162SOL     OW21121   3.330   0.205   4.561 -0.3317 -0.4143  0.3529
 3162SOL    HW121122   3.391   0.156   4.506  1.0205  0.3067  1.2228
 3162SOL    HW221123   3.290   0.123   4.590  1.9807 -1.5155  0.4796
 3163SOL     OW21124   3.172   1.629   7.550  0.3341  0.1603 -0.2121
 3163SOL    HW121125   3.238   1.559   7.546 -1.1688 -1.1919 -1.0759
 3163SOL    HW221126   3.090   1.581   7.563  0.2007 -0.1900 -2.3394
 3164SOL     OW21127   4.730   3.887  11.533 -0.5996 -0.0891 -0.2368
 3164SOL    HW121128   0.065   3.841  11.490  0.2877  0.1593  0.9782
 3164SOL    HW221129   4.706   3.961  11.476  0.4143  0.9687  0.6851
 3165SOL     OW21130   1.291   2.331  11.488 -0.3079  0.0960  0.0647
 3165SOL    HW121131   1.372   2.281  11.498  0.8084  2.1387  1.2841
 3165SOL    HW221132   1.307   2.359  11.398 -0.6362  2.0313  0.6167
 3166SOL     OW21133   2.228   2.980   6.953  0.6651 -0.0169  0.2242
 3166SOL    HW121134   2.255   2.893   6.924  0.0566  0.1091 -0.7180
 3166SOL    HW221135   2.317   3.013   6.967 -0.0498  1.6956  0.8595
 3167SOL     OW21136   0.624   0.373   7.486 -0.2078 -0.1621  0.0368
 3167SOL    HW121137   0.565   0.377   7.561 -0.5511  1.4312 -0.3098
 3167SOL    HW221138   0.601   0.290   7.444 -0.0459 -1.3537  2.2959
 3168SOL     OW21139   3.573   4.256   4.739  0.1814  0.2990  0.8264
 3168SOL    HW121140   3.558   4.207   4.820  3.3074 -1.5977  0.2834
 3168SOL    HW221141   3.579   4.185   4.674  0.4961  0.5278  0.6017
 3169SOL     OW21142   3.667   0.623   8.018 -0.1513 -0.5085  0.6175
 3169SOL    HW121143   3.640   0.542   7.975 -0.7669 -0.6037  1.1782
 3169SOL    HW221144   3.755   0.631   7.981  0.3584 -0.9003  1.7422
 3170SOL     OW21145   4.113   3.404  10.936 -0.2329 -0.6567  0.3166
 3170SOL    HW121146   4.108   3.323  10.885  1.7306 -1.1923  0.9469
 3170SOL    HW221147   4.180   3.376  10.999  2.0527  0.4599 -1.6235
 3171SOL     OW21148   0.513   3.933   5.075  0.1166  0.1023 -0.0004
 3171SOL    HW121149   0.421   3.943   5.101 -0.1172  2.0316 -1.5503
 3171SOL    HW221150   0.508   3.980   4.992 -1.5248  0.8839  0.5253
 3172SOL     OW21151   0.269   2.001  10.913  0.1421  0.1632 -0.4166
 3172SOL    HW121152   0.272   2.058  10.990 -0.2704 -3.0131  1.9755
 3172SOL    HW221153   0.205   1.938  10.946 -0.0973  0.6763  0.0966
 3173SOL     OW21154   0.388   3.067   6.753 -0.0442  0.0040  0.5188
 3173SOL    HW121155   0.363   3.128   6.684 -2.8067  1.7656  3.0858
 3173SOL    HW221156   0.306   3.068   6.803 -0.7716 -1.0072 -0.6654
 3174SOL     OW21157   2.527   3.052   5.911 -0.4044 -0.2077 -0.0354
 3174SOL    HW121158   2.543   3.075   5.819  3.8779 -0.4501  0.6461
 3174SOL    HW221159   2.507   2.960   5.893  1.9559 -0.9294  0.9864
 3175SOL     OW21160   1.814   3.788  10.351 -0.2992 -0.7634 -0.1317
 3175SOL    HW121161   1.793   3.881  10.341  1.6857 -0.2072  0.7223
 3175SOL    HW221162   1.907   3.803  10.370  0.0823 -2.4232 -0.6380
 3176SOL     OW21163   4.482   3.878   2.123 -0.2630  0.0684 -0.0038
 3176SOL    HW121164   4.523   3.946   2.175 -2.1543  0.2162  1.3097
 3176SOL    HW221165   4.536   3.878   2.044 -1.0005 -2.9971 -0.5016
 3177SOL     OW21166   3.523   0.672  12.861  0.0551  0.1979 -0.7231
 3177SOL    HW121167   3.484   0.731  12.925  0.3641 -1.3048  0.8647
 3177SOL    HW221168   3.459   0.601  12.855  0.0246  0.2363 -0.8564
 3178SOL     OW21169   3.172   4.661   3.678 -0.8240  0.2241  0.2226
 3178SOL    HW121170   3.127   4.616   3.607 -0.9943  2.0191 -0.7961
 3178SOL    HW221171   3.265   4.646   3.657 -0.8407  0.2851  0.1063
 3179SOL     OW21172   2.407   0.728   3.857  0.4489  0.8459 -0.7096
 3179SOL    HW121173   2.361   0.653   3.896 -1.1262  2.2165  0.0816
 3179SOL    HW221174   2.497   0.704   3.876  0.0114 -1.7051 -1.8383
 3180SOL     OW21175   0.616   1.200   1.512 -0.1901  0.0767  0.3140
 3180SOL    HW121176   0.650   1.258   1.444 -0.2071 -1.6482 -1.1564
 3180SOL    HW221177   0.522   1.196   1.499 -0.2855  2.4801  0.2896
 3181SOL     OW21178   1.657   3.486  12.270 -0.6722 -0.0859  0.0838
 3181SOL    HW121179   1.670   3.524  12.357  0.9249  0.6080 -0.4668
 3181SOL    HW221180   1.644   3.395  12.296  1.1459 -0.1637  0.6902
 3182SOL     OW21181   1.668   4.373   3.985 -0.6066  0.1728 -0.0503
 3182SOL    HW121182   1.744   4.390   4.039 -0.4326 -0.6161 -0.0417
 3182SOL    HW221183   1.612   4.448   4.003 -0.9081  0.2162 -1.1345
 3183SOL     OW21184   1.614   4.530  17.322  0.2962  0.0724  0.2579
 3183SOL    HW121185   1.583   4.449  17.361 -0.0636 -0.2052 -0.6007
 3183SOL    HW221186   1.702   4.551  17.352  0.9655 -0.4217 -1.3389
 3184SOL     OW21187   0.658   2.633   2.554  0.0435  0.3477  0.0617
 3184SOL    HW121188   0.586   2.575   2.529 -0.4091 -0.1405  2.5014
 3184SOL    HW221189   0.626   2.681   2.630 -1.2466 -1.7499  0.8549
 3185SOL     OW21190   2.729   3.092   9.546 -0.1038  0.2195 -0.3598
 3185SOL    HW121191   2.679   3.038   9.608 -0.2161  1.1843  0.3868
 3185SOL    HW221192   2.801   3.110   9.606 -1.0043  1.1201  0.4468
 3186SOL     OW21193   2.083   1.741   2.148  0.0493 -0.3145  0.2735
 3186SOL    HW121194   2.106   1.783   2.230  0.7971 -0.1971 -0.0010
 3186SOL    HW221195   2.126   1.658   2.169  4.4540  1.1299 -3.1284
 3187SOL     OW21196   0.040   4.577   5.218 -0.1838 -0.4630  0.3093
 3187SOL    HW121197   4.693   4.539   5.194 -0.1369 -2.1724  2.8280
 3187SOL    HW221198   0.106   4.516   5.184 -0.1715  0.7123 -1.7692
 3188SOL     OW21199   3.399   4.700   6.112 -0.4024 -0.2409 -0.5521
 3188SOL    HW121200   3.315   4.689   6.067 -1.0833  0.0946  0.6620
 3188SOL    HW221201   3.445   4.623   6.079 -1.3808 -0.2552 -1.9163
 3189SOL     OW21202   3.764   3.826   2.924 -0.0367 -0.1017  0.1277
 3189SOL    HW121203   3.700   3.840   2.994  0.0468  0.8729  0.0022
 3189SOL    HW221204   3.803   3.913   2.911  0.5349 -0.0792  1.9944
 3190SOL     OW21205   2.515   1.216  16.109 -0.3403 -0.7268  0.1024
 3190SOL    HW121206   2.553   1.128  16.118  0.9982 -0.0604  0.9297
 3190SOL    HW221207   2.441   1.227  16.168 -0.4326 -0.7657 -0.0066
 3191SOL     OW21208   4.426   0.703  13.588  0.3999  0.6854 -0.1768
 3191SOL    HW121209   4.439   0.792  13.556 -0.4365  1.6887  2.2742
 3191SOL    HW221210   4.428   0.659  13.503  1.9871 -0.5435  0.4930
 3192SOL     OW21211   3.258   4.007  16.022  0.2997  0.3204 -0.6537
 3192SOL    HW121212   3.311   4.083  15.995  1.4959 -0.2419  0.1407
 3192SOL    HW221213   3.274   3.942  15.953 -1.0925  0.1178 -0.7728
 3193SOL     OW21214   3.497   0.575  13.940 -0.0555 -0.0478 -0.4512
 3193SOL    HW121215   3.542   0.629  14.005  1.4638 -1.0400 -0.6763
 3193SOL    HW221216   3.439   0.645  13.908  0.9954  1.2087  0.3925
 3194SOL     OW21217   3.605   3.618   3.255 -0.1843  0.4822 -0.4082
 3194SOL    HW121218   3.696   3.605   3.281 -0.3432  0.2794  0.0379
 3194SOL    HW221219   3.568   3.690   3.307 -0.9535  1.0489 -1.7172
 3195SOL     OW21220   3.584   1.385   5.541 -0.5401 -1.0232 -0.1003
 3195SOL    HW121221   3.534   1.410   5.618 -0.0438 -1.0725  0.2393
 3195SOL    HW221222   3.552   1.442   5.471 -1.7018 -0.1154  1.1770
 3196SOL     OW21223   2.556   3.091  16.501 -0.9110 -0.2753  0.0171
 3196SOL    HW121224   2.602   3.174  16.518 -1.3919  0.4474 -2.2020
 3196SOL    HW221225   2.556   3.081  16.406  0.1449  0.4391 -0.0633
 3197SOL     OW21226   0.741   1.551  12.544  0.0915  0.4632  0.0363
 3197SOL    HW121227   0.705   1.475  12.591 -0.0877  0.9238  0.6391
 3197SOL    HW221228   0.749   1.608  12.620  1.0052 -0.2559  0.4756
 3198SOL     OW21229   2.711   4.260   5.133  0.6528  0.2202  0.3152
 3198SOL    HW121230   2.664   4.264   5.216  0.5262 -1.9365  0.3525
 3198SOL    HW221231   2.737   4.168   5.139  0.6173  0.2961  1.7399
 3199SOL     OW21232   3.727   3.712  14.447 -0.0710  0.5977  0.2236
 3199SOL    HW121233   3.692   3.791  14.490 -2.3212  1.9421 -4.0374
 3199SOL    HW221234   3.677   3.721  14.366 -2.3361  0.6991  1.6209
 3200SOL     OW21235   4.423   1.013  12.592 -0.1772 -0.1029  0.0140
 3200SOL    HW121236   4.363   0.988  12.521 -1.0110 -1.2027  1.1022
 3200SOL    HW221237   4.469   1.079  12.541  1.4987 -1.0884  0.2458
 3201SOL     OW21238   2.431   0.735  16.106  0.4425 -0.1380  0.1912
 3201SOL    HW121239   2.441   0.798  16.178 -1.6928 -2.1374  2.2455
 3201SOL    HW221240   2.474   0.768  16.028  0.2619  0.3436  0.2981
 3202SOL     OW21241   1.538   3.056   8.152 -0.0830 -0.1052  0.0397
 3202SOL    HW121242   1.536   2.969   8.191 -0.0537  0.0795  0.4512
 3202SOL    HW221243   1.474   3.096   8.212  0.0706  2.9296 -1.8289
 3203SOL     OW21244   1.718   1.249  12.319  0.4249  0.0806  0.6725
 3203SOL    HW121245   1.652   1.309  12.285  1.6128  0.2512 -1.3207
 3203SOL    HW221246   1.656   1.195  12.368  1.9429 -3.6681 -1.4499
 3204SOL     OW21247   0.288   2.150   3.361 -0.1871  0.1186  0.1933
 3204SOL    HW121248   0.276   2.167   3.267  1.9840 -0.1912 -0.1446
 3204SOL    HW221249   0.199   2.128   3.387 -0.1799  0.6363  0.6437
 3205SOL     OW21250   4.019   1.360  13.536  0.3306  0.0729 -0.2852
 3205SOL    HW121251   4.079   1.298  13.576  2.1855 -0.7294 -4.2867
 3205SOL    HW221252   3.996   1.324  13.450 -3.4956 -0.1091  0.7989
 3206SOL     OW21253   1.428   4.143   2.753 -0.1680  0.1389  0.8525
 3206SOL    HW121254   1.468   4.183   2.831 -0.5775  0.4418  0.9080
 3206SOL    HW221255   1.500   4.083   2.734 -1.4073 -0.7043 -1.1301
 3207SOL     OW21256   1.567   4.625   0.979 -0.4325  0.2201  0.2166
 3207SOL    HW121257   1.495   4.634   1.042  0.4378 -1.9876  1.5365
 3207SOL    HW221258   1.584   4.709   0.938  0.4189 -0.4004 -0.6976
 3208SOL     OW21259   3.572   0.364   9.096 -0.3548  0.6416  0.2445
 3208SOL    HW121260   3.556   0.286   9.149  3.2187 -1.0623 -1.1509
 3208SOL    HW221261   3.503   0.420   9.131 -1.8367 -2.1614  1.8406
 3209SOL     OW21262   3.948   0.618   7.890  0.4515 -0.2144 -0.4495
 3209SOL    HW121263   3.979   0.549   7.948 -0.6459  0.9572  1.5723
 3209SOL    HW221264   3.962   0.697   7.943 -2.9169 -0.4484  0.7853
 3210SOL     OW21265   1.685   2.319   3.988 -0.0292  0.0825  0.4588
 3210SOL    HW121266   1.704   2.409   3.959 -0.1635 -0.6412 -1.8810
 3210SOL    HW221267   1.619   2.299   3.922  2.2803 -1.4100 -1.3963
 3211SOL     OW21268   3.555   2.975   2.348 -0.2829 -0.3473 -0.2236
 3211SOL    HW121269   3.620   2.928   2.401  0.5034  0.9748 -0.0006
 3211SOL    HW221270   3.543   2.907   2.282  0.0082 -0.5039 -0.1183
 3212SOL     OW21271   3.159   0.678   4.749 -0.2284 -0.1614 -0.0115
 3212SOL    HW121272   3.177   0.595   4.706  0.2961  0.2516 -0.5930
 3212SOL    HW221273   3.064   0.680   4.739 -0.3590  0.9351  1.3838
 3213SOL     OW21274   2.205   3.873   6.335 -0.0559  0.4588 -0.4376
 3213SOL    HW121275   2.297   3.877   6.363 -0.2264 -0.7148  0.2712
 3213SOL    HW221276   2.160   3.885   6.418 -0.0773  0.4171 -0.4430
 3214SOL     OW21277   2.679   0.990  16.163 -0.4629 -0.4623  0.4820
 3214SOL    HW121278   2.758   1.015  16.114  0.7841 -4.0898  0.6140
 3214SOL    HW221279   2.705   0.986  16.255  0.0144  0.4508  0.3964
 3215SOL     OW21280   3.088   4.530   1.899 -0.0908  0.4835 -0.6415
 3215SOL    HW121281   3.118   4.574   1.979 -2.3721  2.7878 -1.0869
 3215SOL    HW221282   3.168   4.476   1.896 -1.7385 -2.2126  3.0839
 3216SOL     OW21283   0.291   1.904   2.596 -0.1094  0.2678 -0.3500
 3216SOL    HW121284   0.278   1.810   2.607  2.5874 -0.0582 -0.1371
 3216SOL    HW221285   0.203   1.929   2.625 -0.0052  0.1674  0.0661
 3217SOL     OW21286   1.331   1.258   3.052  0.0994 -0.0966  0.5971
 3217SOL    HW121287   1.343   1.274   3.145  0.1554  0.1375  0.5475
 3217SOL    HW221288   1.293   1.170   3.052  2.0118 -0.9236 -0.1831
 3218SOL     OW21289   1.031   4.179   3.372  0.4546 -0.1973  0.4019
 3218SOL    HW121290   0.960   4.231   3.333 -0.9670 -1.2835  1.5257
 3218SOL    HW221291   1.092   4.182   3.299 -0.8820 -0.8155 -0.7559
 3219SOL     OW21292   1.858   2.163   2.990 -0.0592 -0.8111 -0.0087
 3219SOL    HW121293   1.902   2.246   2.968 -0.4188  0.0547  2.6044
 3219SOL    HW221294   1.918   2.116   3.048  1.2189  0.0305 -0.6303
 3220SOL     OW21295   2.893   4.396   3.154  0.3646 -0.2535 -0.3679
 3220SOL    HW121296   2.806   4.402   3.116  0.0667 -0.5726  0.2660
 3220SOL    HW221297   2.877   4.374   3.246  0.4697  2.3322  0.2481
 3221SOL     OW21298   2.578   1.101   2.991 -0.1485  0.0285  0.8717
 3221SOL    HW121299   2.550   1.134   3.077 -3.6573 -0.7658 -0.0001
 3221SOL    HW221300   2.502   1.045   2.977  0.8933 -0.3996 -3.0646
 3222SOL     OW21301   1.331   3.657   4.904 -0.5219 -0.2932 -0.5244
 3222SOL    HW121302   1.416   3.695   4.925 -0.9286  0.1360  0.3424
 3222SOL    HW221303   1.335   3.637   4.811  0.7663  0.0099 -0.5263
 3223SOL     OW21304   3.156   4.130   5.177  0.0232  0.6048 -0.7423
 3223SOL    HW121305   3.164   4.226   5.175  1.5664  0.4632 -1.5069
 3223SOL    HW221306   3.227   4.100   5.121  1.5430  2.3419  0.2425
 3224SOL     OW21307   3.741   4.498  15.366 -0.1583  0.6716 -0.3719
 3224SOL    HW121308   3.821   4.477  15.414  0.4961 -0.7750 -2.0940
 3224SOL    HW221309   3.666   4.449  15.400  0.0410  0.2713 -0.5014
 3225SOL     OW21310   0.461   1.562   6.703 -0.4260 -0.4108 -0.1282
 3225SOL    HW121311   0.456   1.598   6.791 -1.1385 -1.8561  0.4289
 3225SOL    HW221312   0.512   1.633   6.663 -3.2875  0.5395 -2.0629
 3226SOL     OW21313   2.047   1.320   9.070  0.3780  0.2922  0.3368
 3226SOL    HW121314   2.097   1.279   9.140 -1.0257 -0.2568  1.0142
 3226SOL    HW221315   1.966   1.270   9.076  0.8660 -0.4036  0.9997
 3227SOL     OW21316   4.094   1.866   5.320  0.3212 -0.7188  0.0814
 3227SOL    HW121317   4.093   1.941   5.260  0.6522 -0.1645  0.7750
 3227SOL    HW221318   3.998   1.867   5.327  0.3152  0.3509 -0.1915
 3228SOL     OW21319   1.585   3.581   9.619  0.5508  0.1100 -0.3075
 3228SOL    HW121320   1.558   3.642   9.687  0.9029  0.1438 -0.1953
 3228SOL    HW221321   1.624   3.505   9.664  0.5910  1.0916  1.3228
 3229SOL     OW21322   2.748   4.467   6.823  0.3053 -0.4477 -0.2155
 3229SOL    HW121323   2.769   4.481   6.730  3.6719 -2.0200  0.3004
 3229SOL    HW221324   2.784   4.550   6.855  1.4817 -0.7715 -0.6858
 3230SOL     OW21325   3.437   1.724   3.972  0.6521  0.1021  0.5078
 3230SOL    HW121326   3.443   1.641   3.924  0.4243  0.0678  0.5395
 3230SOL    HW221327   3.382   1.698   4.046 -1.5703  0.8754 -0.8763
 3231SOL     OW21328   2.920   0.395   2.650  1.0157  0.3600 -0.2062
 3231SOL    HW121329   2.829   0.366   2.658  1.1836  0.0578  0.5616
 3231SOL    HW221330   2.912   0.487   2.623  0.7331  0.3345 -0.2140
 3232SOL     OW21331   1.603   0.550  14.165 -0.5995  0.2241  0.5148
 3232SOL    HW121332   1.629   0.551  14.258  0.1526 -1.1026  0.3139
 3232SOL    HW221333   1.509   0.535  14.177 -1.2228  3.3603 -0.2367
 3233SOL     OW21334   4.325   3.348  10.676  0.4629  0.2571 -0.1285
 3233SOL    HW121335   4.265   3.293  10.725  0.3425  1.1154  0.6977
 3233SOL    HW221336   4.290   3.436  10.691 -1.2538 -0.6869  1.2939
 3234SOL     OW21337   2.246   1.894   4.342 -0.3908 -0.3996  0.0004
 3234SOL    HW121338   2.327   1.875   4.390 -0.8765 -0.2692  0.8832
 3234SOL    HW221339   2.269   1.980   4.309  0.4243 -0.5155  0.2548
 3235SOL     OW21340   2.977   3.368  10.403 -0.2153  0.6896 -0.0585
 3235SOL    HW121341   2.988   3.455  10.442 -2.1989  0.3747  1.1863
 3235SOL    HW221342   2.929   3.319  10.470 -1.8651  0.0014 -1.7598
 3236SOL     OW21343   1.739   1.160   2.898 -0.6198  0.1140 -0.0283
 3236SOL    HW121344   1.682   1.154   2.822 -0.9032 -2.9373  0.4398
 3236SOL    HW221345   1.818   1.123   2.859 -0.2125  0.6407  0.2855
 3237SOL     OW21346   3.436   4.401   2.725 -0.1322  0.7688  0.4422
 3237SOL    HW121347   3.475   4.485   2.703  2.2664  0.1232  2.3434
 3237SOL    HW221348   3.441   4.349   2.645  2.4245 -0.6002  1.5136
 3238SOL     OW21349   4.251   3.897   5.883 -0.3690  0.0679 -0.3838
 3238SOL    HW121350   4.320   3.840   5.918  1.3248  2.2464 -0.1604
 3238SOL    HW221351   4.259   3.861   5.795  0.6389  0.7187 -0.5545
 3239SOL     OW21352   4.063   4.337   1.237 -0.5882 -0.1827  0.8208
 3239SOL    HW121353   4.011   4.385   1.172 -0.6923 -0.6244  0.5824
 3239SOL    HW221354   4.004   4.263   1.251 -1.2152  0.6448  2.4915
 3240SOL     OW21355   2.326   3.749   6.872  0.1987  0.3134  0.0608
 3240SOL    HW121356   2.257   3.697   6.830  0.2440  1.2907 -1.2353
 3240SOL    HW221357   2.318   3.836   6.833  0.0586 -0.2477 -1.1721
 3241SOL     OW21358   4.087   4.636  15.828  0.3723  0.1490  0.5473
 3241SOL    HW121359   4.024   4.664  15.762  1.5029 -0.0225 -0.6054
 3241SOL    HW221360   4.121   4.718  15.863  0.2519  1.4507 -2.3244
 3242SOL     OW21361   2.211   1.734  12.520 -0.0426 -0.2778 -0.0207
 3242SOL    HW121362   2.214   1.830  12.513 -0.6279 -0.2576 -0.0445
 3242SOL    HW221363   2.270   1.726  12.594  2.3508  0.7606 -1.8246
 3243SOL     OW21364   2.215   0.758   7.776 -0.4879  0.0633 -0.0752
 3243SOL    HW121365   2.283   0.763   7.842  1.3711  0.2580 -2.0254
 3243SOL    HW221366   2.243   0.683   7.723  0.5658 -1.1934  2.2749
 3244SOL     OW21367   0.852   3.886  16.241 -0.0123  1.0637 -0.8195
 3244SOL    HW121368   0.827   3.870  16.150 -1.6641  1.0895 -0.3668
 3244SOL    HW221369   0.902   3.967  16.235 -0.8534  1.4746 -2.3064
 3245SOL     OW21370   2.831   2.181   3.643 -0.1265  0.5076 -0.0541
 3245SOL    HW121371   2.817   2.187   3.738  0.2288  0.6787 -0.0105
 3245SOL    HW221372   2.897   2.111   3.641 -1.3216 -0.5946 -0.2605
 3246SOL     OW21373   0.795   3.994  10.415 -0.1455  0.0131 -0.0796
 3246SOL    HW121374   0.718   4.004  10.471 -0.1433  1.5292 -0.3642
 3246SOL    HW221375   0.773   3.924  10.353 -1.2966  2.1198 -2.0395
 3247SOL     OW21376   4.316   1.220   4.326  0.0336  0.2402  0.4786
 3247SOL    HW121377   4.226   1.201   4.300  0.0380  0.1728  0.5127
 3247SOL    HW221378   4.350   1.144   4.278 -4.3372 -2.0865  1.0912
 3248SOL     OW21379   1.903   1.242   4.235  0.0945  0.2240 -0.2693
 3248SOL    HW121380   1.982   1.225   4.285  0.1934  1.3883 -0.0332
 3248SOL    HW221381   1.926   1.210   4.148  0.7959  0.5888 -0.2171
 3249SOL     OW21382   0.254   3.075   3.019  0.8322 -0.1135 -0.1578
 3249SOL    HW121383   0.240   2.999   3.076 -0.0480 -0.6539 -1.0919
 3249SOL    HW221384   0.246   3.028   2.936 -0.2347  1.2830 -0.8524
 3250SOL     OW21385   1.782   2.195   4.455 -0.1749  0.0254  0.1338
 3250SOL    HW121386   1.863   2.200   4.506 -0.4488  0.8651  0.4885
 3250SOL    HW221387   1.805   2.210   4.363 -0.0462  4.3829  0.8885
 3251SOL     OW21388   0.041   2.042   5.598  0.5407 -0.0315 -0.0554
 3251SOL    HW121389   0.070   2.085   5.678  0.0458  2.2273 -1.0965
 3251SOL    HW221390   4.701   1.994   5.627 -0.2189  1.3292  0.1810
 3252SOL     OW21391   2.161   1.075   7.544 -0.4099 -0.5674  0.0029
 3252SOL    HW121392   2.189   1.049   7.631  0.7002  1.5441  0.2920
 3252SOL    HW221393   2.211   1.154   7.524  1.3726 -2.3676 -2.6228
 3253SOL     OW21394   1.608   3.135   0.156  0.3482  0.4200  0.1436
 3253SOL    HW121395   1.669   3.166   0.089 -0.1028 -0.8882 -0.8683
 3253SOL    HW221396   1.536   3.192   0.130 -1.6377 -2.0349  0.2736
 3254SOL     OW21397   2.454   4.063  14.105  0.0730  0.2261 -0.3933
 3254SOL    HW121398   2.417   4.111  14.031  0.7465  0.0422 -0.8546
 3254SOL    HW221399   2.450   3.977  14.062  1.9290  0.3200 -0.7693
 3255SOL     OW21400   1.145   1.717   8.059 -0.5484  0.1039 -0.2027
 3255SOL    HW121401   1.104   1.670   8.132  0.3142 -3.5260 -2.0360
 3255SOL    HW221402   1.240   1.707   8.065 -0.7368 -1.4612  0.2267
 3256SOL     OW21403   2.579   0.854   8.145 -0.6828  0.1197  0.5061
 3256SOL    HW121404   2.547   0.873   8.233  1.7892 -0.7067  1.6058
 3256SOL    HW221405   2.560   0.760   8.149  2.2943 -0.5205 -0.2338
 3257SOL     OW21406   1.814   3.984  12.846 -0.1111  0.0004  0.1483
 3257SOL    HW121407   1.765   3.978  12.928 -3.3354 -2.7851 -1.9887
 3257SOL    HW221408   1.790   4.071  12.815 -1.3227 -0.9119 -1.4807
 3258SOL     OW21409   3.508   3.446   7.525 -0.6979 -0.4171 -0.6096
 3258SOL    HW121410   3.517   3.447   7.430  0.1660  0.0167 -0.5286
 3258SOL    HW221411   3.444   3.375   7.529 -0.2356 -0.9495 -3.0608
 3259SOL     OW21412   4.035   2.095   4.560 -0.0567  0.0482  0.3767
 3259SOL    HW121413   3.996   2.138   4.483  0.5230  0.5900  0.3927
 3259SOL    HW221414   4.056   2.008   4.525  1.5271  1.3936 -2.0106
 3260SOL     OW21415   0.793   3.296   5.055 -0.3320  0.2671  0.4176
 3260SOL    HW121416   0.824   3.269   5.142  1.3244 -0.3200 -0.3442
 3260SOL    HW221417   0.866   3.272   4.998 -1.2368 -1.4617 -0.0117
 3261SOL     OW21418   3.518   2.152   4.776 -0.3980  0.0800  0.1360
 3261SOL    HW121419   3.454   2.105   4.723  1.1232 -0.9355 -0.7918
 3261SOL    HW221420   3.539   2.082   4.838  0.7158  1.7461  1.6453
 3262SOL     OW21421   1.758   3.477   9.038  0.1310  0.0992  0.1139
 3262SOL    HW121422   1.698   3.428   8.981  0.2067  1.0801 -0.8064
 3262SOL    HW221423   1.795   3.408   9.094  0.3219  0.2153  0.1312
 3263SOL     OW21424   2.566   1.798   0.749 -0.2238  0.1222  0.1508
 3263SOL    HW121425   2.595   1.745   0.674  2.3567  1.7423  0.0120
 3263SOL    HW221426   2.621   1.752   0.813  1.9405  0.3955 -1.5015
 3264SOL     OW21427   3.096   2.801   5.801 -0.1533 -0.1460 -0.3027
 3264SOL    HW121428   3.178   2.777   5.842  0.5423  0.9523 -1.0610
 3264SOL    HW221429   3.069   2.714   5.771  0.5701 -1.5766  3.2261
 3265SOL     OW21430   3.320   4.366   2.221 -0.3569 -0.3854 -0.2673
 3265SOL    HW121431   3.246   4.397   2.273  0.0900  0.1083  0.0795
 3265SOL    HW221432   3.271   4.301   2.171 -0.8603  0.4363 -0.8528
 3266SOL     OW21433   0.308   2.456   6.866 -0.1162  0.3904 -0.1387
 3266SOL    HW121434   0.283   2.386   6.805 -1.8444 -0.4362  1.5340
 3266SOL    HW221435   0.219   2.477   6.896 -0.5844 -0.1161 -1.1817
 3267SOL     OW21436   0.881   4.072   5.396  0.0808  0.8474 -0.4978
 3267SOL    HW121437   0.829   4.138   5.349  1.0710  1.7422 -0.3113
 3267SOL    HW221438   0.904   3.999   5.339  0.4426  0.2260  0.4533
 3268SOL     OW21439   4.509   2.394   6.070 -0.3732 -0.1508 -0.7242
 3268SOL    HW121440   4.472   2.480   6.093  2.4902  0.5289  1.4031
 3268SOL    HW221441   4.539   2.402   5.980  2.6315  2.7904  0.5223
 3269SOL     OW21442   3.991   1.256   2.354 -0.4077  0.1555  0.2988
 3269SOL    HW121443   4.066   1.217   2.309  0.6289  1.0579  1.2740
 3269SOL    HW221444   4.003   1.218   2.441 -1.9484  0.8057  0.7994
 3270SOL     OW21445   2.043   2.492   6.150 -0.1290 -0.4230 -0.4601
 3270SOL    HW121446   1.950   2.498   6.169 -0.4301 -0.8543 -1.7989
 3270SOL    HW221447   2.048   2.502   6.055 -0.1126 -2.0842 -0.6358
 3271SOL     OW21448   3.105   0.283   5.956  0.0213  0.3739  0.1286
 3271SOL    HW121449   3.129   0.282   5.864  0.2847  0.0085  0.2012
 3271SOL    HW221450   3.126   0.192   5.976 -0.1827  0.5509  1.1559
 3272SOL     OW21451   4.409   2.984  11.469  0.1838 -0.5498  0.6299
 3272SOL    HW121452   4.453   3.068  11.457 -1.2671  0.1259 -0.0175
 3272SOL    HW221453   4.403   2.949  11.381 -0.6718  0.4417  0.2852
 3273SOL     OW21454   0.930   1.725   5.887 -0.1958  0.4541 -0.2709
 3273SOL    HW121455   0.903   1.786   5.956 -3.0787 -2.1285  0.8604
 3273SOL    HW221456   0.880   1.650   5.919  0.0689  0.6892  0.6894
 3274SOL     OW21457   3.191   0.761   2.522 -0.2320  0.2096  0.5343
 3274SOL    HW121458   3.276   0.803   2.537  0.1531 -0.2375 -0.3880
 3274SOL    HW221459   3.183   0.737   2.429  0.7880 -0.4251  0.6075
 3275SOL     OW21460   3.415   1.194  10.974 -0.3802  0.1547  0.0045
 3275SOL    HW121461   3.321   1.196  10.989 -0.4546 -0.5182 -0.3374
 3275SOL    HW221462   3.433   1.106  10.939 -1.9368 -0.5200  0.8964
 3276SOL     OW21463   3.555   2.198   2.636 -0.1461  0.4658 -0.3349
 3276SOL    HW121464   3.493   2.233   2.700  1.8237  1.3926  1.0921
 3276SOL    HW221465   3.622   2.172   2.700 -2.3402 -3.0507  0.5258
 3277SOL     OW21466   4.337   0.684   8.462 -0.5103  0.0183 -0.0058
 3277SOL    HW121467   4.351   0.603   8.510  3.5460  1.6443  1.5643
 3277SOL    HW221468   4.379   0.743   8.525  0.5065 -1.4077  0.6524
 3278SOL     OW21469   2.210   0.582  16.171  0.1145  0.5347  0.1383
 3278SOL    HW121470   2.245   0.509  16.221  0.4839  0.6735  0.0814
 3278SOL    HW221471   2.293   0.629  16.159  0.0490  0.8707  0.9693
 3279SOL     OW21472   4.607   0.679  14.542 -0.4564  0.5036  0.0527
 3279SOL    HW121473   4.581   0.606  14.599 -0.5493  0.1519 -0.4367
 3279SOL    HW221474   4.528   0.671  14.488  0.1678 -0.3946 -0.7304
 3280SOL     OW21475   1.531   3.210  14.648 -0.8894  0.1308  0.3476
 3280SOL    HW121476   1.604   3.171  14.600 -1.0077 -2.1807  2.0722
 3280SOL    HW221477   1.471   3.135  14.644  0.6406 -1.2155  2.6891
 3281SOL     OW21478   3.887   0.806   2.009 -0.0652 -0.1182  0.0393
 3281SOL    HW121479   3.980   0.784   2.020 -0.3261 -1.7753 -1.0303
 3281SOL    HW221480   3.856   0.715   2.004 -0.3593 -0.0554  0.6996
 3282SOL     OW21481   1.077   0.311   4.363  0.1368  0.6762  0.1444
 3282SOL    HW121482   0.984   0.295   4.349  0.4856 -0.1999 -1.2240
 3282SOL    HW221483   1.117   0.260   4.292 -1.7847  0.1478 -0.5346
 3283SOL     OW21484   0.510   1.514   0.134  0.1797 -0.2757 -0.3369
 3283SOL    HW121485   0.447   1.586   0.128  0.7093  0.2236  0.1900
 3283SOL    HW221486   0.589   1.551   0.094  0.0379 -0.4553 -0.7804
 3284SOL     OW21487   4.344   1.750  10.359 -0.4301  0.5101 -0.5028
 3284SOL    HW121488   4.408   1.737  10.428 -0.3455  0.3330 -0.6148
 3284SOL    HW221489   4.400   1.710  10.293 -2.0261 -1.4569 -0.6520
 3285SOL     OW21490   2.863   3.411   1.492 -0.3627  0.0963  0.6730
 3285SOL    HW121491   2.813   3.489   1.515 -0.4710 -0.3090  1.8358
 3285SOL    HW221492   2.828   3.355   1.561  0.3705 -0.8861  0.2554
 3286SOL     OW21493   1.088   2.745  10.366  0.2125 -0.6005  0.4615
 3286SOL    HW121494   1.061   2.657  10.390  0.9934 -0.9094  0.2233
 3286SOL    HW221495   1.003   2.782  10.343  0.6588 -0.3946 -0.9188
 3287SOL     OW21496   3.079   1.712   6.753  0.8063  0.1290 -0.6780
 3287SOL    HW121497   3.018   1.661   6.807  1.0776 -1.4662 -1.8633
 3287SOL    HW221498   3.073   1.800   6.789 -0.5615 -0.6279  0.9577
 3288SOL     OW21499   1.648   2.521   9.421 -0.0368  0.4119  0.3854
 3288SOL    HW121500   1.658   2.462   9.347 -1.1864  1.3379 -0.5157
 3288SOL    HW221501   1.562   2.493   9.453  0.3427 -2.7333 -1.4220
 3289SOL     OW21502   3.449   2.516  17.195 -0.3897  0.1309  0.0030
 3289SOL    HW121503   3.420   2.454  17.128 -1.7975  1.1687 -0.3495
 3289SOL    HW221504   3.422   2.602  17.161  0.5433  0.4954  0.1916
 3290SOL     OW21505   0.241   2.846   3.134  0.1430  0.2577  0.0861
 3290SOL    HW121506   0.333   2.853   3.161 -0.3318 -0.3922  1.8710
 3290SOL    HW221507   0.241   2.759   3.093 -0.1546  0.4146 -0.2393
 3291SOL     OW21508   3.494   0.080  10.904  0.5926 -0.1572  0.3399
 3291SOL    HW121509   3.579   0.038  10.893 -0.8645 -2.4417 -2.4191
 3291SOL    HW221510   3.513   0.173  10.913 -0.4849  0.1577 -0.5920
 3292SOL     OW21511   3.531   0.318   2.558  0.9472 -0.2446  0.1210
 3292SOL    HW121512   3.484   0.272   2.628  1.3179 -0.9258 -0.0790
 3292SOL    HW221513   3.603   0.366   2.599  0.0499  0.6904  0.5833
 3293SOL     OW21514   2.571   4.406   1.468 -0.2295 -0.2741  0.7056
 3293SOL    HW121515   2.608   4.317   1.469  3.2055  1.1394  1.9254
 3293SOL    HW221516   2.634   4.450   1.525  1.1349  1.1132 -1.8391
 3294SOL     OW21517   0.193   4.297  15.790  0.5481 -0.6344  0.1786
 3294SOL    HW121518   0.141   4.332  15.862 -0.5706  1.6436 -1.7167
 3294SOL    HW221519   0.182   4.202  15.795 -0.9692 -0.3337  2.4965
 3295SOL     OW21520   3.240   0.178  15.225  0.2915  0.1759 -0.2694
 3295SOL    HW121521   3.219   0.098  15.177 -1.1915 -0.6771  1.7584
 3295SOL    HW221522   3.217   0.249  15.165 -0.5076  1.1572  1.1743
 3296SOL     OW21523   1.235   0.355   4.577 -0.3176 -1.2151  0.5412
 3296SOL    HW121524   1.299   0.285   4.564  1.3244  0.6047 -1.2256
 3296SOL    HW221525   1.184   0.357   4.496 -1.7158  1.8883  1.4735
 3297SOL     OW21526   3.163   1.380   6.862  0.2179 -0.4886 -0.0207
 3297SOL    HW121527   3.107   1.448   6.900  2.1943  1.2888 -0.2551
 3297SOL    HW221528   3.222   1.435   6.810 -0.4959 -1.5110 -1.8815
 3298SOL     OW21529   3.567   3.423   2.509  0.0213 -0.2287 -0.6481
 3298SOL    HW121530   3.533   3.361   2.573 -0.3408  0.9348  0.2940
 3298SOL    HW221531   3.625   3.475   2.565 -1.3751  0.5797  0.0338
 3299SOL     OW21532   3.045   1.876   8.444 -0.0323 -0.5979  0.1854
 3299SOL    HW121533   3.036   1.935   8.519  1.5238 -1.4907  1.0704
 3299SOL    HW221534   3.036   1.936   8.370 -1.9958  1.8388  2.4148
 3300SOL     OW21535   2.642   3.448   6.903 -0.5750  0.0178 -0.5815
 3300SOL    HW121536   2.607   3.525   6.859  1.8595  0.7857 -1.1569
 3300SOL    HW221537   2.636   3.388   6.828 -2.2005  0.7285 -1.0287
 3301SOL     OW21538   0.996   4.108  15.442  0.0250 -0.0280  0.6752
 3301SOL    HW121539   0.964   4.101  15.532 -1.0226  0.8085  0.3626
 3301SOL    HW221540   1.054   4.032  15.442  0.3074  0.1832 -0.2151
 3302SOL     OW21541   2.310   4.225   8.683 -0.0627 -0.0206 -0.3782
 3302SOL    HW121542   2.323   4.144   8.634  0.9142  0.3686 -0.7612
 3302SOL    HW221543   2.403   4.244   8.695  0.4472 -3.3338  0.8723
 3303SOL     OW21544   4.094   4.501   7.500 -0.8569  0.1719 -0.2709
 3303SOL    HW121545   4.188   4.509   7.485 -0.4888  1.0312  2.6242
 3303SOL    HW221546   4.083   4.562   7.573  1.4438 -0.0710  0.2771
 3304SOL     OW21547   2.416   2.066   3.834  0.1359 -0.1082 -0.0461
 3304SOL    HW121548   2.477   2.131   3.869 -1.2282  0.3799  1.4371
 3304SOL    HW221549   2.409   2.010   3.912 -1.0822 -1.2957 -1.0050
 3305SOL     OW21550   0.923   2.589   3.826  0.1731  0.3310  0.5313
 3305SOL    HW121551   0.950   2.604   3.735  4.9999 -2.9011  1.4272
 3305SOL    HW221552   0.932   2.496   3.848  0.8729  0.1245 -0.5913
 3306SOL     OW21553   3.720   2.430  11.430 -0.4962 -0.1294 -0.1447
 3306SOL    HW121554   3.791   2.491  11.452  0.2586 -1.4564  1.1125
 3306SOL    HW221555   3.713   2.394  11.518  1.6858 -1.1778 -0.3811
 3307SOL     OW21556   3.765   3.837  16.596  0.2833  0.4864 -0.1552
 3307SOL    HW121557   3.673   3.844  16.570 -0.1493 -3.0953  0.4427
 3307SOL    HW221558   3.750   3.849  16.689  0.4115  1.0056 -0.2005
 3308SOL     OW21559   0.313   0.422   9.278  0.3595  0.5770 -0.3029
 3308SOL    HW121560   0.243   0.360   9.264  0.3923  0.4107  0.2598
 3308SOL    HW221561   0.383   0.383   9.225  0.4772  0.2489  0.0959
 3309SOL     OW21562   0.468   2.885   7.980  0.1453  0.3674 -0.0880
 3309SOL    HW121563   0.509   2.957   8.028  1.1615 -1.5278  1.8819
 3309SOL    HW221564   0.523   2.876   7.902 -0.9775 -4.0026 -0.3787
 3310SOL     OW21565   4.147   0.697  12.403 -0.8663  0.3893  0.2024
 3310SOL    HW121566   4.077   0.639  12.434  0.9756 -1.9813 -0.0164
 3310SOL    HW221567   4.209   0.635  12.363  0.4738  0.0945  2.6976
 3311SOL     OW21568   2.523   3.165   2.047  0.1007  0.6265 -0.3166
 3311SOL    HW121569   2.560   3.079   2.067 -0.8701  0.8276  2.4213
 3311SOL    HW221570   2.474   3.152   1.966 -0.3093  0.4250 -0.0326
 3312SOL     OW21571   3.368   2.122  13.008 -0.0361 -0.1571 -0.5045
 3312SOL    HW121572   3.382   2.100  13.101 -1.5735 -0.3187 -0.3146
 3312SOL    HW221573   3.357   2.037  12.966 -1.4302 -0.6495  0.8337
 3313SOL     OW21574   2.327   3.090   6.094 -0.7205  0.7165 -0.0148
 3313SOL    HW121575   2.280   3.018   6.052 -0.2411  0.7606 -0.6346
 3313SOL    HW221576   2.402   3.093   6.035 -0.4989  0.0085  0.2235
 3314SOL     OW21577   3.532   2.577  10.244  0.0612  0.4455 -0.9380
 3314SOL    HW121578   3.439   2.568  10.263  0.3831 -2.1444 -0.4820
 3314SOL    HW221579   3.555   2.491  10.280 -2.9123 -0.5206 -1.3959
 3315SOL     OW21580   0.541   4.248  11.938  0.3835  0.1993 -0.0233
 3315SOL    HW121581   0.481   4.247  12.013  1.0733 -2.6216  0.4965
 3315SOL    HW221582   0.597   4.177  11.970  1.7726  2.2358  1.9989
 3316SOL     OW21583   0.774   3.939  15.198  0.4352 -0.7423  0.1920
 3316SOL    HW121584   0.870   3.944  15.195  0.3784  1.0896  1.9507
 3316SOL    HW221585   0.756   3.848  15.175  1.9684 -0.4186 -2.2476
 3317SOL     OW21586   0.209   0.949   5.604  0.2598 -0.1854  0.3668
 3317SOL    HW121587   0.141   0.945   5.537  0.5439  0.0847  0.0615
 3317SOL    HW221588   0.161   0.992   5.675  2.2341  1.9877  0.3794
 3318SOL     OW21589   4.083   3.793   7.062  0.2195 -0.0584  0.5754
 3318SOL    HW121590   4.047   3.820   7.146  0.9870 -1.5401  1.3864
 3318SOL    HW221591   4.109   3.704   7.088  0.7620  0.0636  0.4491
 3319SOL     OW21592   2.316   1.680   9.265 -0.2158  0.1301 -0.7707
 3319SOL    HW121593   2.250   1.739   9.228  0.6551  2.1827  0.9385
 3319SOL    HW221594   2.335   1.733   9.343  0.2386  0.8421 -1.3608
 3320SOL     OW21595   1.537   1.992   5.825 -0.1175 -0.4784  0.4797
 3320SOL    HW121596   1.529   2.052   5.899  2.3006  2.6238 -1.7621
 3320SOL    HW221597   1.629   1.966   5.827  0.2908  0.7908 -1.6606
 3321SOL     OW21598   1.433   2.824   7.500 -0.2444  0.3821  0.1103
 3321SOL    HW121599   1.521   2.798   7.474  0.6343  1.8689  1.6092
 3321SOL    HW221600   1.434   2.920   7.491 -3.1221  0.3413 -0.8157
 3322SOL     OW21601   4.591   1.632  15.355  0.4156  0.5708 -0.1702
 3322SOL    HW121602   4.685   1.647  15.369  0.5598 -2.8572  2.5126
 3322SOL    HW221603   4.540   1.642  15.436  2.5712 -0.2142  1.3068
 3323SOL     OW21604   3.637   2.222  12.072  0.2788 -0.0723 -0.7082
 3323SOL    HW121605   3.683   2.276  12.137  0.5785  0.7501 -1.6017
 3323SOL    HW221606   3.628   2.286  12.002 -1.6060 -1.0698 -1.3573
 3324SOL     OW21607   1.766   3.480   6.906 -0.0602 -0.5007 -0.6190
 3324SOL    HW121608   1.794   3.443   6.822 -1.2282 -0.6483 -0.9462
 3324SOL    HW221609   1.827   3.553   6.911 -1.0666  0.3694 -0.9998
 3325SOL     OW21610   3.822   3.847  11.161  0.3217  0.3521 -0.0349
 3325SOL    HW121611   3.913   3.821  11.147  0.5925  0.1627  2.1539
 3325SOL    HW221612   3.800   3.908  11.090  0.0398  0.3519  0.0524
 3326SOL     OW21613   1.459   2.285   5.810  0.2890 -1.0247 -0.7459
 3326SOL    HW121614   1.466   2.379   5.793  0.6042 -0.7651  0.8025
 3326SOL    HW221615   1.550   2.258   5.802  0.4637 -0.6823  0.1472
 3327SOL     OW21616   3.196   3.471   4.534  0.2918 -0.1108  0.3009
 3327SOL    HW121617   3.281   3.479   4.491  1.4766 -0.9104  2.4797
 3327SOL    HW221618   3.160   3.391   4.496 -0.2522  0.0152  0.5505
 3328SOL     OW21619   1.169   1.015   0.808 -0.0977  0.1005 -0.6186
 3328SOL    HW121620   1.244   0.956   0.805 -0.9288 -1.1114  2.2526
 3328SOL    HW221621   1.162   1.038   0.715  0.4745  1.7538 -0.2549
 3329SOL     OW21622   2.784   0.111  11.287 -0.0743  0.1984  0.0250
 3329SOL    HW121623   2.779   0.194  11.240  1.4531 -0.7907 -1.8915
 3329SOL    HW221624   2.865   0.072  11.253  0.5457 -0.2441  2.0249
 3330SOL     OW21625   3.521   0.967   2.107 -0.3853 -0.3066 -0.0808
 3330SOL    HW121626   3.524   0.974   2.202  1.0398  0.6720 -0.1905
 3330SOL    HW221627   3.455   0.898   2.098  0.7359 -1.2993 -0.8070
 3331SOL     OW21628   0.064   1.642   4.516 -0.0084  0.2325 -0.2850
 3331SOL    HW121629   0.104   1.559   4.488 -1.0891 -0.0534 -0.9622
 3331SOL    HW221630   0.119   1.706   4.471  0.8701  0.2047  0.7367
 3332SOL     OW21631   1.090   0.012   8.722 -0.2894 -0.1615  0.2703
 3332SOL    HW121632   1.052   4.664   8.743 -1.1672  1.0143  3.5082
 3332SOL    HW221633   1.103   0.040   8.813  2.6282 -1.7049  0.3183
 3333SOL     OW21634   4.305   1.946   5.499 -0.6348 -0.0807 -0.0760
 3333SOL    HW121635   4.252   1.986   5.568  0.9631 -0.6604  1.4704
 3333SOL    HW221636   4.243   1.890   5.452 -1.0611 -0.1393  0.5634
 3334SOL     OW21637   2.103   4.669  10.650 -0.6247  0.3290  0.5253
 3334SOL    HW121638   2.091   4.734  10.581 -1.1944 -1.2350 -0.8452
 3334SOL    HW221639   2.154   4.718  10.714 -0.7171  1.6152 -0.4008
 3335SOL     OW21640   3.167   0.959  15.689 -0.5933 -0.6117 -0.0876
 3335SOL    HW121641   3.151   0.866  15.704  1.4602 -0.6891  1.6627
 3335SOL    HW221642   3.257   0.949  15.656  0.2035  0.6059  1.6557
 3336SOL     OW21643   0.272   0.133   7.809 -0.1543 -0.1871 -0.1748
 3336SOL    HW121644   0.192   0.157   7.762 -0.1367 -0.9725 -0.6023
 3336SOL    HW221645   0.239   0.083   7.884  0.1408 -2.1485 -1.3574
 3337SOL     OW21646   1.333   4.202   6.286 -0.3198  0.5271 -0.3194
 3337SOL    HW121647   1.353   4.255   6.210  2.3317 -1.9739 -1.3561
 3337SOL    HW221648   1.243   4.187   6.257  0.0199  1.6118 -1.8921
 3338SOL     OW21649   2.838   0.536   7.575  0.4341 -0.0596 -0.8141
 3338SOL    HW121650   2.752   0.538   7.533  1.4343  3.2067 -2.6710
 3338SOL    HW221651   2.830   0.579   7.660 -0.4678 -4.3531  1.2800
 3339SOL     OW21652   2.828   3.487   4.527 -0.0386 -0.7768 -0.6760
 3339SOL    HW121653   2.838   3.396   4.556 -1.3507 -0.4623  0.7901
 3339SOL    HW221654   2.825   3.480   4.431 -0.3709 -0.6352 -0.6766
 3340SOL     OW21655   3.271   3.700   1.505  0.0112 -0.3845  0.2658
 3340SOL    HW121656   3.311   3.661   1.582 -1.0696 -0.3781  0.8332
 3340SOL    HW221657   3.333   3.692   1.432  0.4562  0.0226  0.5993
 3341SOL     OW21658   2.649   0.975  11.177  0.1332  0.0590 -0.0100
 3341SOL    HW121659   2.690   1.048  11.223 -1.5953  0.5273  0.7755
 3341SOL    HW221660   2.730   0.924  11.168  0.2297 -0.2735  2.6310
 3342SOL     OW21661   4.455   2.909   2.158 -0.2962 -0.3566  0.0904
 3342SOL    HW121662   4.479   2.976   2.094  2.3735 -1.9599 -0.5921
 3342SOL    HW221663   4.395   2.952   2.219  0.3516 -1.8682  1.7908
 3343SOL     OW21664   1.591   2.079   6.094 -0.0344 -0.1053  0.4080
 3343SOL    HW121665   1.661   2.134   6.130  0.7011 -0.5628 -0.3377
 3343SOL    HW221666   1.517   2.128   6.130  0.5470 -1.1149  2.9750
 3344SOL     OW21667   3.838   2.779   2.038  0.3925  1.0209  0.1336
 3344SOL    HW121668   3.798   2.861   2.008 -1.2818  0.1615  0.0208
 3344SOL    HW221669   3.805   2.717   1.973 -0.3059  0.9389  0.5698
 3345SOL     OW21670   0.505   2.341   4.043  0.3912 -0.4836  0.2339
 3345SOL    HW121671   0.423   2.293   4.027 -0.0971 -0.1564  1.7208
 3345SOL    HW221672   0.533   2.318   4.131  0.6461 -1.0825 -0.0018
 3346SOL     OW21673   4.222   1.497  12.834  0.1090 -0.3209  0.6426
 3346SOL    HW121674   4.316   1.481  12.827 -0.3537 -2.5687 -0.4741
 3346SOL    HW221675   4.198   1.461  12.749  1.6563  0.5906 -0.1723
 3347SOL     OW21676   2.868   2.316   7.680  0.4136 -0.3491  0.0048
 3347SOL    HW121677   2.804   2.330   7.610 -1.1273  0.0338  1.4895
 3347SOL    HW221678   2.915   2.246   7.635 -1.6430 -1.5009 -0.3495
 3348SOL     OW21679   3.938   1.120  17.313 -0.5851  0.4467 -0.2604
 3348SOL    HW121680   3.929   1.031  17.346 -3.3021  1.3335  1.3975
 3348SOL    HW221681   3.850   1.156  17.306 -1.0815 -0.5649  0.8931
 3349SOL     OW21682   1.336   3.841   9.256 -0.1497 -0.7251 -0.4535
 3349SOL    HW121683   1.370   3.884   9.334  0.1509  0.5599 -1.2943
 3349SOL    HW221684   1.408   3.786   9.228 -0.4803 -1.2979 -0.1694
 3350SOL     OW21685   4.103   3.465   2.184 -0.4140 -0.5792 -0.3172
 3350SOL    HW121686   4.087   3.559   2.174  2.6339 -0.4501 -4.1381
 3350SOL    HW221687   4.121   3.452   2.091 -1.7557 -2.0809 -0.3637
 3351SOL     OW21688   1.799   3.704  13.056 -1.0225  0.2877  0.5906
 3351SOL    HW121689   1.746   3.778  13.085 -0.8870 -0.2325  2.1819
 3351SOL    HW221690   1.805   3.718  12.962 -1.0945  3.8134  1.1326
 3352SOL     OW21691   1.693   1.548  14.239 -0.2818  0.8487  0.1348
 3352SOL    HW121692   1.691   1.566  14.145 -2.2362 -2.1072 -0.3999
 3352SOL    HW221693   1.756   1.477  14.242 -1.4178 -0.1984 -0.3573
 3353SOL     OW21694   0.226   1.305  17.203 -0.1974 -0.1087 -0.0221
 3353SOL    HW121695   0.162   1.298  17.275  0.1374  2.2481  0.5233
 3353SOL    HW221696   0.185   1.239  17.148 -0.9938  0.5099 -0.1670
 3354SOL     OW21697   2.493   0.062  11.906 -0.5608 -0.0177 -0.0432
 3354SOL    HW121698   2.551   0.049  11.831  1.1482  0.9017  1.1314
 3354SOL    HW221699   2.406   0.052  11.867 -0.8003 -1.1086  0.7398
 3355SOL     OW21700   1.901   2.681   1.781 -0.2212  0.0333  0.1746
 3355SOL    HW121701   1.923   2.737   1.708 -1.4518  0.7015  0.3199
 3355SOL    HW221702   1.810   2.707   1.797 -0.3291 -0.1815 -0.0954
 3356SOL     OW21703   0.376   2.147   7.657  0.1195  0.3380 -0.0425
 3356SOL    HW121704   0.327   2.075   7.697 -0.5181 -0.2888 -1.9532
 3356SOL    HW221705   0.316   2.221   7.655 -0.7806 -0.4321 -1.7045
 3357SOL     OW21706   2.364   3.609   5.166 -0.2037 -0.1447 -0.4235
 3357SOL    HW121707   2.371   3.534   5.225  0.1316 -0.0025 -0.2782
 3357SOL    HW221708   2.427   3.671   5.203  0.5458 -0.8990 -0.4012
 3358SOL     OW21709   2.054   2.168   5.718  0.0434  0.2267 -0.0973
 3358SOL    HW121710   2.044   2.181   5.623  1.6587  1.6502 -0.0687
 3358SOL    HW221711   2.011   2.083   5.725  1.5552 -0.2829  2.6512
 3359SOL     OW21712   2.404   1.167   8.295 -0.0647 -0.4753  0.2818
 3359SOL    HW121713   2.456   1.220   8.355  0.6933 -0.9938  0.0773
 3359SOL    HW221714   2.388   1.085   8.342 -0.9184  0.3928  1.5207
 3360SOL     OW21715   3.760   0.080   2.626  0.0715  0.1917 -0.0833
 3360SOL    HW121716   3.716   0.134   2.561  0.7920 -0.8597 -1.4360
 3360SOL    HW221717   3.748   4.731   2.586 -0.9714  0.6082 -0.6632
 3361SOL     OW21718   3.132   1.180  10.900  0.0207 -0.3817  0.4495
 3361SOL    HW121719   3.194   1.110  10.878 -3.4180 -3.4259  0.4095
 3361SOL    HW221720   3.105   1.147  10.986 -0.9888 -0.1628  0.2154
 3362SOL     OW21721   0.554   1.370   7.822  0.1845  0.0672  0.3837
 3362SOL    HW121722   0.504   1.408   7.894 -0.2076  1.6650 -0.7535
 3362SOL    HW221723   0.592   1.450   7.786  2.6289 -1.5388 -0.6286
 3363SOL     OW21724   3.230   3.220  11.242  0.4630 -0.1213  0.2140
 3363SOL    HW121725   3.274   3.161  11.303 -1.1318 -1.0787  0.4399
 3363SOL    HW221726   3.235   3.187  11.153  0.3411  3.5137 -1.1304
 3364SOL     OW21727   3.801   2.912   0.761  0.1339 -0.4035  0.0733
 3364SOL    HW121728   3.852   2.974   0.710  2.7582 -1.0422  1.9168
 3364SOL    HW221729   3.711   2.934   0.736  0.3803  0.2216 -0.2523
 3365SOL     OW21730   2.316   2.932   6.325 -0.4011 -0.1070  0.0805
 3365SOL    HW121731   2.253   2.867   6.291  0.1904 -0.9804  0.6641
 3365SOL    HW221732   2.311   2.989   6.248  0.8206 -0.6575 -0.4043
 3366SOL     OW21733   1.103   0.565   3.039  0.0341 -0.0017 -0.3297
 3366SOL    HW121734   1.099   0.583   2.945  3.1349  0.6609 -0.3367
 3366SOL    HW221735   1.170   0.497   3.031 -1.0396 -1.2350  1.3136
 3367SOL     OW21736   0.562   1.283  10.979 -0.3050 -0.2894 -0.4148
 3367SOL    HW121737   0.579   1.376  10.993 -1.9607 -0.6475  4.2499
 3367SOL    HW221738   0.626   1.256  10.914 -1.0963 -1.3273 -0.7709
 3368SOL     OW21739   3.925   1.978   5.805  0.1089 -0.0030  0.2096
 3368SOL    HW121740   3.912   2.048   5.740  1.3468 -0.9182 -1.0288
 3368SOL    HW221741   4.017   1.951   5.796 -0.5203 -2.0843  0.0527
 3369SOL     OW21742   2.467   2.412  13.573  0.3866 -0.2587 -0.3139
 3369SOL    HW121743   2.544   2.379  13.619  0.6636  0.2371 -0.4215
 3369SOL    HW221744   2.513   2.441  13.494  1.9561 -0.3335  0.5757
 3370SOL     OW21745   3.485   1.494   8.954 -0.1891  0.2241  0.0243
 3370SOL    HW121746   3.570   1.457   8.976  0.4208 -0.2458 -3.1338
 3370SOL    HW221747   3.427   1.427   8.989 -2.5096  1.6268 -1.0768
 3371SOL     OW21748   0.464   2.613   6.378  0.6747  0.1986 -0.1009
 3371SOL    HW121749   0.514   2.621   6.297 -0.5927 -0.2691 -0.9425
 3371SOL    HW221750   0.521   2.552   6.425 -1.1686  0.5986  2.6888
 3372SOL     OW21751   1.803   0.699   5.422  0.2102  0.0128 -0.3468
 3372SOL    HW121752   1.740   0.629   5.437 -0.8181  1.2126  0.8938
 3372SOL    HW221753   1.752   0.779   5.435 -3.2852 -1.9628 -1.7717
 3373SOL     OW21754   4.415   1.816  12.398  0.5385 -0.3391  0.1330
 3373SOL    HW121755   4.503   1.829  12.360  1.0365 -0.5678  1.2229
 3373SOL    HW221756   4.425   1.722  12.411  0.9105 -0.0719  1.7142
 3374SOL     OW21757   1.812   3.917   9.540 -0.0137  0.4206  0.0015
 3374SOL    HW121758   1.791   3.887   9.628  0.0944 -1.1598 -0.4995
 3374SOL    HW221759   1.769   3.845   9.494 -0.6667  1.5139 -1.1068
 3375SOL     OW21760   2.030   0.385   8.516  0.2644 -0.5598 -0.6314
 3375SOL    HW121761   1.991   0.472   8.508 -0.0787 -0.6561  0.0021
 3375SOL    HW221762   2.057   0.402   8.606  0.8038 -1.5248 -0.6104
 3376SOL     OW21763   3.127   0.098   2.657 -0.4010 -0.8359 -0.0268
 3376SOL    HW121764   3.082   0.014   2.647 -1.1203 -0.1414 -2.4719
 3376SOL    HW221765   3.117   0.135   2.570  1.6078  0.3313  0.2405
 3377SOL     OW21766   0.790   1.936  11.253  0.3746 -0.3818  0.1472
 3377SOL    HW121767   0.782   2.030  11.267 -0.4220 -0.4124 -0.0909
 3377SOL    HW221768   0.831   1.908  11.335  0.7677 -0.8862 -0.2261
 3378SOL     OW21769   0.248   1.711   7.660 -0.2017  0.8094 -0.1952
 3378SOL    HW121770   0.157   1.710   7.631  0.3867 -1.1058 -1.9869
 3378SOL    HW221771   0.259   1.798   7.699  1.1121  0.1464  0.9240
 3379SOL     OW21772   2.232   0.682   8.424 -0.0953 -0.5207  0.0067
 3379SOL    HW121773   2.225   0.650   8.334 -1.8948  0.2875 -0.1445
 3379SOL    HW221774   2.140   0.679   8.451  0.3997 -3.8190  1.2286
 3380SOL     OW21775   1.851   1.747  13.284  0.4206 -0.8527 -0.1229
 3380SOL    HW121776   1.909   1.804  13.335 -0.6477  0.5232 -0.4262
 3380SOL    HW221777   1.827   1.804  13.211 -0.8132 -0.3181  0.7130
 3381SOL     OW21778   0.303   2.056  17.212 -0.2660 -0.3437  0.6411
 3381SOL    HW121779   0.398   2.051  17.219 -0.2935 -2.9208 -0.7794
 3381SOL    HW221780   0.282   2.094  17.127  0.7451 -1.2124  0.0038
 3382SOL     OW21781   0.860   1.901  12.016 -0.1175  0.5131  0.1226
 3382SOL    HW121782   0.951   1.886  11.991 -0.7069 -1.6858 -0.6530
 3382SOL    HW221783   0.856   1.991  12.050  3.0242  0.3538  0.9540
 3383SOL     OW21784   0.767   4.503   9.189  0.0281  0.6637  0.2689
 3383SOL    HW121785   0.797   4.418   9.219  0.3174  0.5772 -0.2693
 3383SOL    HW221786   0.757   4.481   9.096 -1.3760  0.4854  0.4620
 3384SOL     OW21787   1.967   4.153   5.851 -0.2178  0.7464 -0.2633
 3384SOL    HW121788   1.897   4.129   5.913  0.2234 -2.1960 -0.8714
 3384SOL    HW221789   1.983   4.066   5.814 -1.5864 -0.4463  1.9467
 3385SOL     OW21790   1.669   2.108  17.560 -0.0077 -0.0468  0.2529
 3385SOL    HW121791   1.690   2.103  17.466  0.6088 -0.7371  0.4260
 3385SOL    HW221792   1.575   2.096  17.545 -0.3345  0.6071  1.8450
 3386SOL     OW21793   1.403   1.109  14.908  0.3774 -0.1328 -0.0809
 3386SOL    HW121794   1.379   1.046  14.977 -1.1416 -0.4722 -0.9222
 3386SOL    HW221795   1.492   1.078  14.891  0.1452 -1.5206  1.2205
 3387SOL     OW21796   3.282   0.783   8.208 -0.3586  0.6572 -0.0374
 3387SOL    HW121797   3.276   0.783   8.303  2.1471 -1.7463  0.1055
 3387SOL    HW221798   3.191   0.768   8.181 -0.5215  0.0213  0.8954
 3388SOL     OW21799   2.953   3.832  16.378  0.5427  0.0914 -0.6862
 3388SOL    HW121800   3.034   3.865  16.338  0.3587 -0.1355 -1.2372
 3388SOL    HW221801   2.936   3.889  16.453 -1.7295 -0.1837 -1.0075
 3389SOL     OW21802   3.350   2.410   1.673 -0.7720 -0.1663  0.3151
 3389SOL    HW121803   3.416   2.454   1.619  1.3593  0.1148  3.1805
 3389SOL    HW221804   3.278   2.473   1.678 -2.7150 -2.2016 -1.9072
 3390SOL     OW21805   2.403   1.709  10.962 -0.1873 -0.1456 -0.1252
 3390SOL    HW121806   2.311   1.693  10.980 -0.0064 -1.3018 -0.2522
 3390SOL    HW221807   2.415   1.723  10.868 -0.7525 -2.1576 -0.4904
 3391SOL     OW21808   3.445   1.847   9.269 -0.1422  0.1907 -0.2051
 3391SOL    HW121809   3.390   1.863   9.193  0.5283 -1.7030 -1.0969
 3391SOL    HW221810   3.428   1.753   9.281  2.9204 -0.2610  0.6119
 3392SOL     OW21811   4.432   0.179  10.377 -0.1198 -0.5148 -0.0075
 3392SOL    HW121812   4.471   0.260  10.410 -2.2556  0.7705 -0.6435
 3392SOL    HW221813   4.402   0.208  10.291 -1.2562 -0.4838  0.3880
 3393SOL     OW21814   2.393   0.690   2.930 -0.2268 -0.0372  0.2595
 3393SOL    HW121815   2.450   0.750   2.882 -1.4218  0.4892 -0.5001
 3393SOL    HW221816   2.414   0.714   3.020 -0.1989 -1.1181  0.5400
 3394SOL     OW21817   0.010   3.772   8.394 -0.7544 -0.0007  0.1038
 3394SOL    HW121818   4.694   3.695   8.375 -1.6514  0.7467 -0.3894
 3394SOL    HW221819   0.099   3.742   8.415 -0.5622  0.0951 -0.5724
 3395SOL     OW21820   1.394   0.176   8.040 -0.6191 -0.1494  0.3070
 3395SOL    HW121821   1.357   0.239   7.979 -2.2342  0.4523  1.9319
 3395SOL    HW221822   1.412   0.098   7.987 -3.7292 -0.5949 -0.0695
 3396SOL     OW21823   3.659   2.785   7.700  0.5425  0.2672 -0.2896
 3396SOL    HW121824   3.584   2.835   7.733 -1.2669 -3.2228  0.9321
 3396SOL    HW221825   3.656   2.808   7.607 -0.6606 -1.2764 -0.6343
 3397SOL     OW21826   2.984   4.227   6.276 -0.0148 -0.5339  0.4709
 3397SOL    HW121827   3.026   4.299   6.323  0.0056 -0.7472  0.7809
 3397SOL    HW221828   2.939   4.181   6.347  1.0305 -0.4922  1.1587
 3398SOL     OW21829   1.766   1.973  16.020 -0.4963  0.2627  0.6921
 3398SOL    HW121830   1.725   1.888  16.006  2.0380 -1.0375  1.3352
 3398SOL    HW221831   1.748   2.020  15.938 -2.1692  1.1752  1.5877
 3399SOL     OW21832   2.332   0.881   4.358 -0.2830 -0.5634 -0.2342
 3399SOL    HW121833   2.368   0.907   4.273  0.6537 -1.0133  0.0246
 3399SOL    HW221834   2.405   0.827   4.390  0.2538  0.1237 -0.3092
 3400SOL     OW21835   0.807   3.064   3.465 -0.7289 -0.8849  0.4744
 3400SOL    HW121836   0.866   3.092   3.395 -3.0845  0.0147 -1.1855
 3400SOL    HW221837   0.739   3.017   3.417 -1.0344  0.9388 -0.9178
 3401SOL     OW21838   0.522   1.462   8.806  0.3303 -0.5157  0.0380
 3401SOL    HW121839   0.469   1.534   8.771 -0.3724 -0.8210  0.4992
 3401SOL    HW221840   0.467   1.429   8.877 -1.3166  1.7270 -0.1786
 3402SOL     OW21841   0.365   1.276   2.396 -0.2916  0.3224 -0.0182
 3402SOL    HW121842   0.402   1.359   2.367 -1.4731 -0.0942 -2.6925
 3402SOL    HW221843   0.439   1.216   2.389 -1.1812 -0.7823  0.0308
 3403SOL     OW21844   2.624   0.788  12.242 -0.0877  0.5272 -0.6147
 3403SOL    HW121845   2.625   0.869  12.293 -1.9182 -0.1034  0.4374
 3403SOL    HW221846   2.533   0.784  12.213  0.2258 -2.3289 -1.2481
 3404SOL     OW21847   2.139   2.744   1.895  0.1370 -0.0553  0.5852
 3404SOL    HW121848   2.187   2.717   1.817  0.7515  3.2125 -0.1663
 3404SOL    HW221849   2.047   2.744   1.868  0.4419 -0.5716 -0.4497
 3405SOL     OW21850   2.069   3.323   2.397 -0.0726 -0.5886 -0.6285
 3405SOL    HW121851   2.017   3.335   2.476 -1.5188  0.3307 -1.7027
 3405SOL    HW221852   2.117   3.245   2.423  0.3538 -0.6153 -1.4717
 3406SOL     OW21853   3.819   1.296   9.813  0.0169  0.2722  0.3070
 3406SOL    HW121854   3.894   1.277   9.870 -0.0020 -1.1593 -0.1462
 3406SOL    HW221855   3.856   1.338   9.736  0.2674 -0.4325  0.0378
 3407SOL     OW21856   0.880   3.527   5.182  0.0232  0.1817 -0.4825
 3407SOL    HW121857   0.832   3.606   5.155  2.2036  1.9597  0.8311
 3407SOL    HW221858   0.838   3.457   5.132  0.4121 -2.4748  2.9093
 3408SOL     OW21859   2.784   1.417   8.109  0.4376 -0.2966  0.1116
 3408SOL    HW121860   2.765   1.503   8.147 -2.0457 -1.4814  1.5431
 3408SOL    HW221861   2.796   1.370   8.192  0.8941  0.1850  0.3137
 3409SOL     OW21862   4.196   3.055   1.530  0.2646 -1.1227  0.0599
 3409SOL    HW121863   4.250   3.012   1.463  0.0400 -1.2452 -0.0431
 3409SOL    HW221864   4.110   3.058   1.488  0.0422  1.4196  0.7197
 3410SOL     OW21865   3.556   4.631  13.715 -0.4576  0.6632 -0.5461
 3410SOL    HW121866   3.587   4.658  13.802 -1.4654 -0.7243  0.2434
 3410SOL    HW221867   3.462   4.623  13.730 -0.1011  1.0304  2.0131
 3411SOL     OW21868   2.990   2.888   2.877  0.8580  0.0974 -0.0802
 3411SOL    HW121869   2.906   2.934   2.882  1.4401  0.7628  3.4186
 3411SOL    HW221870   3.024   2.914   2.791  1.3904 -0.6746 -0.1054
 3412SOL     OW21871   0.444   2.023   4.581  0.2303  0.0920  0.6003
 3412SOL    HW121872   0.411   2.099   4.533 -0.5865 -0.7325 -0.1539
 3412SOL    HW221873   0.467   1.972   4.504  0.6953 -0.1188  0.8805
 3413SOL     OW21874   3.285   3.199  15.553 -0.0549  0.1834  0.6136
 3413SOL    HW121875   3.324   3.150  15.625  0.3471  1.1400  1.0415
 3413SOL    HW221876   3.288   3.290  15.581 -0.7516  1.0096 -1.9626
 3414SOL     OW21877   1.658   2.558   3.321 -0.2395 -0.3082 -0.3688
 3414SOL    HW121878   1.564   2.546   3.318 -0.2955 -0.0564  0.3213
 3414SOL    HW221879   1.686   2.489   3.261  0.6501 -0.4412  0.1967
 3415SOL     OW21880   1.633   4.119   5.801  0.7349 -0.0284  0.3369
 3415SOL    HW121881   1.684   4.077   5.731  2.5192  2.0434  0.3669
 3415SOL    HW221882   1.620   4.208   5.766  0.2140 -0.1795  0.1512
 3416SOL     OW21883   3.630   2.409   4.839 -0.1179 -0.6364 -0.7962
 3416SOL    HW121884   3.717   2.377   4.819  0.0711 -1.2286  1.0187
 3416SOL    HW221885   3.577   2.331   4.820 -2.7795  1.1745 -0.7790
 3417SOL     OW21886   2.965   4.539   9.693  0.2237  0.3238  0.5652
 3417SOL    HW121887   2.974   4.498   9.778  0.4921  2.0917  1.3879
 3417SOL    HW221888   3.057   4.551   9.672  0.4741  0.6968  1.8755
 3418SOL     OW21889   0.457   0.228   8.802 -0.2367 -0.3777 -0.2419
 3418SOL    HW121890   0.382   0.173   8.782  0.0640 -0.8374 -0.1021
 3418SOL    HW221891   0.487   0.186   8.883 -1.9702  1.4639  1.3795
 3419SOL     OW21892   1.673   0.102   9.591  0.1455  0.1789  0.1508
 3419SOL    HW121893   1.761   0.111   9.628 -0.9860 -0.0358  2.8257
 3419SOL    HW221894   1.662   0.194   9.566 -2.0736 -0.4361 -1.1468
 3420SOL     OW21895   1.389   3.462   3.991 -0.3567 -0.7279  0.5515
 3420SOL    HW121896   1.443   3.540   3.982 -1.1827 -0.2239 -0.0054
 3420SOL    HW221897   1.451   3.415   4.048 -1.4358 -2.6807  0.1200
 3421SOL     OW21898   1.615   3.587  13.497  0.5323  0.5209 -0.0544
 3421SOL    HW121899   1.624   3.619  13.586  1.4675  0.2937 -0.0684
 3421SOL    HW221900   1.698   3.624  13.469  0.7925 -0.9415 -1.2197
 3422SOL     OW21901   2.978   0.621   5.737  0.1050 -0.2527  0.4754
 3422SOL    HW121902   2.917   0.683   5.698  0.9045 -0.1840 -0.6613
 3422SOL    HW221903   2.966   0.652   5.827  1.5975  1.1454  0.1833
 3423SOL     OW21904   4.650   1.952   7.985  0.7275 -0.2173 -0.0595
 3423SOL    HW121905   4.602   1.913   8.057 -0.4662 -1.1369 -1.3651
 3423SOL    HW221906   4.675   1.868   7.947 -0.4333  1.0844 -3.7531
 3424SOL     OW21907   0.387   0.877   6.349  0.1370  0.6955 -0.1092
 3424SOL    HW121908   0.354   0.792   6.320 -1.0520  0.5956  1.5461
 3424SOL    HW221909   0.352   0.926   6.275 -0.3436 -0.9818 -1.0058
 3425SOL     OW21910   4.560   2.064  11.345 -0.2968  0.4610 -0.1725
 3425SOL    HW121911   4.565   2.159  11.359 -0.6282  0.4556 -0.0215
 3425SOL    HW221912   4.645   2.049  11.303 -1.8427 -3.1137 -1.9478
 3426SOL     OW21913   2.162   4.014   3.642 -0.0325 -0.2859  0.6492
 3426SOL    HW121914   2.255   3.991   3.654 -0.0256 -0.8660 -0.5072
 3426SOL    HW221915   2.159   4.079   3.572 -0.6514  0.8112  1.6982
 3427SOL     OW21916   0.730   4.163   8.774  0.1787  0.3458 -0.1433
 3427SOL    HW121917   0.816   4.159   8.814 -0.1667 -0.0640  0.5540
 3427SOL    HW221918   0.745   4.094   8.710  1.0201  0.9418 -0.5859
 3428SOL     OW21919   3.404   4.190   1.662  0.2478  0.6538 -0.1380
 3428SOL    HW121920   3.480   4.175   1.718  0.0256 -0.1830 -0.0658
 3428SOL    HW221921   3.336   4.124   1.672 -0.1327  1.1342  0.3770
 3429SOL     OW21922   2.844   4.014   9.748  0.1595 -0.0576  0.1533
 3429SOL    HW121923   2.891   3.990   9.668  0.6604  2.4422 -0.2967
 3429SOL    HW221924   2.922   4.027   9.802  1.1065 -0.0977 -1.2167
 3430SOL     OW21925   0.685   0.919   4.398 -0.2170 -0.4105 -0.6132
 3430SOL    HW121926   0.707   0.876   4.481 -0.1436  0.4686 -0.1654
 3430SOL    HW221927   0.718   1.006   4.421 -2.5387  0.5688 -0.9887
 3431SOL     OW21928   2.291   0.903   8.186 -0.0949 -0.2827  0.1162
 3431SOL    HW121929   2.257   0.823   8.146 -0.4101 -0.1958  0.2122
 3431SOL    HW221930   2.241   0.967   8.136 -0.7105 -1.9788 -1.4440
 3432SOL     OW21931   2.889   0.838  12.186  0.1046  0.1614 -0.4051
 3432SOL    HW121932   2.911   0.836  12.093  0.5751  0.4025 -0.3011
 3432SOL    HW221933   2.795   0.825  12.186  0.1054  0.1377  0.3388
 3433SOL     OW21934   1.058   2.116  17.185 -0.4572  0.4890 -0.1232
 3433SOL    HW121935   1.099   2.032  17.207 -0.9060  0.3805  0.2854
 3433SOL    HW221936   1.123   2.185  17.202 -0.3398  0.9092 -2.2449
 3434SOL     OW21937   2.488   4.058   8.348 -0.0973 -0.0101  0.1647
 3434SOL    HW121938   2.544   3.985   8.319  1.2701  0.6084  1.2820
 3434SOL    HW221939   2.490   4.037   8.442 -0.0624 -1.0888 -0.0762
 3435SOL     OW21940   1.603   1.537   5.809 -0.3621  0.1652  0.3402
 3435SOL    HW121941   1.529   1.477   5.794 -0.0132 -0.2029  0.0989
 3435SOL    HW221942   1.566   1.613   5.764 -0.2850 -0.2723 -0.4672
 3436SOL     OW21943   1.683   4.346   5.550 -0.3565  0.7163 -0.1635
 3436SOL    HW121944   1.751   4.321   5.487 -0.6443 -1.7252  0.4810
 3436SOL    HW221945   1.597   4.334   5.509 -0.6843 -2.3542  1.4433
 3437SOL     OW21946   2.088   3.363   7.039  0.8201  0.6451  0.6828
 3437SOL    HW121947   2.105   3.407   6.956  0.6350 -1.0675 -0.2524
 3437SOL    HW221948   2.156   3.296   7.030  0.2520  0.4286 -2.0696
 3438SOL     OW21949   0.882   2.564   6.580  0.0769  0.0932 -0.4768
 3438SOL    HW121950   0.880   2.557   6.676  0.0327 -0.4006 -0.5182
 3438SOL    HW221951   0.967   2.591   6.548  0.2433 -0.2769 -0.3447
 3439SOL     OW21952   2.492   3.350  17.148  0.0417  0.4152 -0.7228
 3439SOL    HW121953   2.492   3.288  17.220 -1.0159  0.6091 -0.5521
 3439SOL    HW221954   2.399   3.374  17.147  0.0736  0.5416 -0.7261
 3440SOL     OW21955   2.870   3.382  13.297  0.2906 -0.5231  0.1972
 3440SOL    HW121956   2.901   3.468  13.267  0.5843  0.1418  2.3875
 3440SOL    HW221957   2.893   3.366  13.388  1.1691  1.1226  0.2740
 3441SOL     OW21958   2.513   1.480   9.236  0.2710 -0.4052 -0.4127
 3441SOL    HW121959   2.435   1.424   9.232  0.6595 -0.9894  0.2410
 3441SOL    HW221960   2.471   1.564   9.221  0.0427 -0.2763  0.9662
 3442SOL     OW21961   2.600   3.888   1.793  0.3819  0.1084 -0.0768
 3442SOL    HW121962   2.567   3.854   1.710  1.1334 -3.5732  1.0999
 3442SOL    HW221963   2.687   3.852   1.774 -0.2014 -1.5761  0.4651
 3443SOL     OW21964   0.278   1.869  16.092 -0.0965 -0.2899  0.4054
 3443SOL    HW121965   0.265   1.876  16.186  1.0661 -2.7832  0.7359
 3443SOL    HW221966   0.189   1.855  16.059  0.3552 -1.1158 -0.4512
 3444SOL     OW21967   4.218   1.868  14.950 -0.2393 -0.0172  0.4081
 3444SOL    HW121968   4.272   1.819  15.012 -0.5691 -2.0792 -0.9171
 3444SOL    HW221969   4.262   1.846  14.868  0.0663 -0.6191  0.7352
 3445SOL     OW21970   1.622   2.331   5.482  0.3723 -0.3829  0.3468
 3445SOL    HW121971   1.554   2.276   5.522  1.2728  0.4877  3.0298
 3445SOL    HW221972   1.693   2.290   5.531  0.2059  0.7140  1.5007
 3446SOL     OW21973   3.158   2.724   7.014  0.0475 -0.1989 -0.1428
 3446SOL    HW121974   3.209   2.673   7.078  0.1552 -0.1068 -0.1551
 3446SOL    HW221975   3.198   2.811   7.021 -0.5815  0.2091 -1.6418
 3447SOL     OW21976   4.662   0.329   4.718  0.1747  0.6687 -0.3896
 3447SOL    HW121977   0.020   0.328   4.735 -0.1561 -1.6515  1.2912
 3447SOL    HW221978   4.645   0.256   4.778 -2.7332  1.8515  0.1672
 3448SOL     OW21979   0.713   1.551  11.771  0.0715  0.1180  0.2563
 3448SOL    HW121980   0.746   1.480  11.716 -0.9487 -1.5098  1.7600
 3448SOL    HW221981   0.623   1.548  11.739  1.0052 -1.6848 -2.1992
 3449SOL     OW21982   2.607   1.384  11.052 -0.2477 -0.0880 -0.1359
 3449SOL    HW121983   2.610   1.480  11.046  0.8220 -0.0777  0.4163
 3449SOL    HW221984   2.525   1.363  11.008 -1.0462  0.1847  1.2229
 3450SOL     OW21985   2.613   2.827  16.044 -0.6930 -0.1387  0.0802
 3450SOL    HW121986   2.634   2.743  16.003 -1.2497  0.3736 -1.2666
 3450SOL    HW221987   2.653   2.889  15.983 -0.0572 -1.6083 -1.0148
 3451SOL     OW21988   2.424   1.516   6.920  0.4123  0.0427 -0.5594
 3451SOL    HW121989   2.328   1.511   6.915  0.4582 -2.8831  1.6900
 3451SOL    HW221990   2.435   1.503   7.014 -0.5663  2.6286 -0.0960
 3452SOL     OW21991   3.101   3.970   8.047 -0.2038  0.2377 -0.2019
 3452SOL    HW121992   3.159   3.919   7.991 -0.1933 -2.4235  2.2581
 3452SOL    HW221993   3.077   3.905   8.112 -0.2060  0.1280 -0.3127
 3453SOL     OW21994   2.311   3.052   4.791 -0.0917  0.2901  0.6917
 3453SOL    HW121995   2.333   3.109   4.865  1.5531 -0.0688  0.4860
 3453SOL    HW221996   2.233   3.090   4.751  0.0074  1.5285  1.6813
 3454SOL     OW21997   0.375   2.789   3.520  0.2259 -0.1224 -0.2563
 3454SOL    HW121998   0.289   2.780   3.479 -0.2801 -1.5077  1.1503
 3454SOL    HW221999   0.365   2.751   3.607 -1.3749  1.0372  0.0770
 3455SOL     OW22000   3.469   1.596   6.353 -0.6500  0.0627  0.1867
 3455SOL    HW122001   3.535   1.547   6.304  0.1927 -0.0107  1.3891
 3455SOL    HW222002   3.389   1.573   6.307  0.4555  0.5465 -1.9875
 3456SOL     OW22003   0.345   2.795  14.423  0.1065 -0.7042 -0.2866
 3456SOL    HW122004   0.387   2.756  14.347 -3.0014 -1.1459 -1.7536
 3456SOL    HW222005   0.255   2.767  14.404 -0.4459  0.8354  0.0934
 3457SOL     OW22006   0.247   0.427  11.126  0.3777 -0.5763  0.5074
 3457SOL    HW122007   0.288   0.485  11.190 -1.4176  0.6079  0.5911
 3457SOL    HW222008   0.315   0.361  11.115 -1.9002 -2.7787 -0.0948
 3458SOL     OW22009   0.027   0.654   8.539 -0.4055 -0.0172 -0.2226
 3458SOL    HW122010   0.037   0.716   8.611 -0.0546  1.5470 -1.6525
 3458SOL    HW222011   0.043   0.577   8.595 -0.7396  0.3990  0.4532
 3459SOL     OW22012   0.019   2.475   6.909 -0.2420  0.1844  0.0775
 3459SOL    HW122013   4.711   2.416   6.849  0.4135 -2.5615  2.2943
 3459SOL    HW222014   0.031   2.436   6.996 -0.5547 -1.6066 -0.6874
 3460SOL     OW22015   0.697   4.207   5.192 -0.6306 -0.5225 -0.3281
 3460SOL    HW122016   0.668   4.168   5.109 -0.8945 -0.9037 -0.0538
 3460SOL    HW222017   0.613   4.220   5.237  0.0500 -0.4066  0.8946
 3461SOL     OW22018   3.798   0.190   1.891  0.1582 -0.1968  0.3380
 3461SOL    HW122019   3.815   0.267   1.836  0.7025  0.4729  1.4349
 3461SOL    HW222020   3.867   0.194   1.957  0.6401  1.8610 -0.2805
 3462SOL     OW22021   0.308   3.501   6.771  0.2550  0.0650 -0.0082
 3462SOL    HW122022   0.303   3.470   6.861  0.6699 -3.1455 -1.0709
 3462SOL    HW222023   0.383   3.560   6.766 -0.5666  1.2318  1.3976
 3463SOL     OW22024   3.960   0.996   5.920  0.2916  0.6600 -0.9932
 3463SOL    HW122025   4.013   1.073   5.938  0.0083  0.2484  1.6419
 3463SOL    HW222026   3.933   1.008   5.829 -1.3136  0.4502 -0.5433
 3464SOL     OW22027   0.893   1.616   3.466  0.2400 -0.2893 -0.0288
 3464SOL    HW122028   0.910   1.523   3.454  1.1735 -0.1066 -0.1348
 3464SOL    HW222029   0.957   1.639   3.533  0.1773  0.0733 -0.0938
 3465SOL     OW22030   4.201   3.070   2.253 -0.0515  0.0134 -0.1519
 3465SOL    HW122031   4.116   3.055   2.294  0.9377  1.2076  2.3076
 3465SOL    HW222032   4.181   3.040   2.164 -1.1776 -2.1453  0.8348
 3466SOL     OW22033   0.432   3.142   3.727 -0.4523  0.3417 -0.0126
 3466SOL    HW122034   0.447   3.065   3.782  0.4766  0.2532 -0.3913
 3466SOL    HW222035   0.480   3.117   3.649  1.1112  1.0077  0.7414
 3467SOL     OW22036   0.712   1.105   6.512 -0.0685  0.4679 -0.0161
 3467SOL    HW122037   0.788   1.136   6.561 -2.1287  1.1315  2.7925
 3467SOL    HW222038   0.661   1.054   6.575 -0.8191 -1.2126 -1.9874
 3468SOL     OW22039   2.840   1.253   7.362 -0.0368  0.3297  0.5756
 3468SOL    HW122040   2.843   1.314   7.436 -0.4476 -0.4299  1.2160
 3468SOL    HW222041   2.785   1.185   7.401 -0.2816 -0.8687 -1.8784
 3469SOL     OW22042   3.815   1.095   3.260  0.6163  0.0814  0.5228
 3469SOL    HW122043   3.896   1.122   3.303  1.6510  0.0777 -1.4221
 3469SOL    HW222044   3.836   1.133   3.175  0.4942  1.9560  1.3364
 3470SOL     OW22045   3.229   4.575   8.524  0.2301 -0.0888  0.3391
 3470SOL    HW122046   3.306   4.519   8.535  1.3153  0.8551 -2.6911
 3470SOL    HW222047   3.169   4.506   8.551  0.9531 -0.5640  0.7322
 3471SOL     OW22048   4.687   4.460   2.002 -0.6968 -0.1100 -0.2399
 3471SOL    HW122049   4.626   4.530   1.980 -0.9459 -0.2565 -0.0187
 3471SOL    HW222050   4.655   4.443   2.091  0.7357 -0.7258  0.1567
 3472SOL     OW22051   2.771   2.684   8.172  0.1826  0.5240 -0.5590
 3472SOL    HW122052   2.691   2.709   8.218  0.1828 -0.9302  0.2226
 3472SOL    HW222053   2.809   2.611   8.220 -0.7545  1.9562  2.3613
 3473SOL     OW22054   0.335   3.158   2.227  0.0780  0.5067 -0.2499
 3473SOL    HW122055   0.375   3.143   2.141 -3.3864 -1.2511 -1.5898
 3473SOL    HW222056   0.249   3.119   2.212 -0.1991  0.8356  0.5314
 3474SOL     OW22057   2.716   0.616   2.820  0.3813 -0.3460  0.3762
 3474SOL    HW122058   2.704   0.703   2.781  1.6114 -1.0227 -1.5106
 3474SOL    HW222059   2.808   0.618   2.846  0.0353 -0.0513  1.6026
 3475SOL     OW22060   2.345   4.553  15.231 -0.0737 -0.1161 -0.3958
 3475SOL    HW122061   2.432   4.549  15.272  0.0119  0.6463 -0.4874
 3475SOL    HW222062   2.318   4.469  15.267 -1.8287  0.4783 -0.3420
 3476SOL     OW22063   1.755   0.476   3.015 -0.8144 -0.1730  0.0117
 3476SOL    HW122064   1.747   0.567   3.043  0.4105  0.6877 -2.4556
 3476SOL    HW222065   1.801   0.484   2.931 -0.8007  1.0620  0.1452
 3477SOL     OW22066   1.746   2.921   9.276 -0.0006  0.0176 -0.1855
 3477SOL    HW122067   1.697   2.933   9.357 -3.1978  0.1678 -2.1322
 3477SOL    HW222068   1.834   2.899   9.307  0.4507  0.0026 -1.4922
 3478SOL     OW22069   3.687   3.364  17.333  0.3058  0.1198  0.1767
 3478SOL    HW122070   3.778   3.338  17.318  0.4543  1.3815 -1.1100
 3478SOL    HW222071   3.673   3.428  17.264 -0.8652 -1.2239 -0.8416
 3479SOL     OW22072   0.695   3.364   8.568 -0.0632  0.0631 -0.6995
 3479SOL    HW122073   0.690   3.433   8.501  1.5351  0.4582 -0.4238
 3479SOL    HW222074   0.630   3.300   8.540  1.6028 -1.4433 -1.0624
 3480SOL     OW22075   1.176   1.480   0.667  0.4834 -0.2655  0.3273
 3480SOL    HW122076   1.252   1.537   0.650  0.8960 -0.8404  0.2549
 3480SOL    HW222077   1.104   1.532   0.632  0.3262  0.3286  1.5530
 3481SOL     OW22078   0.800   3.136   7.049  0.3470  0.2837  0.1157
 3481SOL    HW122079   0.823   3.215   7.001 -0.2295 -0.0211 -0.6632
 3481SOL    HW222080   0.826   3.068   6.986  1.8917  2.1575 -1.2529
 3482SOL     OW22081   1.321   4.278   2.021 -0.0687 -0.5713  0.0991
 3482SOL    HW122082   1.285   4.284   2.110  3.0391 -1.4121  1.4214
 3482SOL    HW222083   1.413   4.257   2.037  0.1795  1.2635  1.1047
 3483SOL     OW22084   4.199   0.778   7.442 -0.9824  0.0258  0.2209
 3483SOL    HW122085   4.173   0.717   7.512 -0.8161  0.2725  0.4981
 3483SOL    HW222086   4.158   0.748   7.361 -2.9828 -0.8979  1.5727
 3484SOL     OW22087   4.059   1.790  12.450 -0.1919 -0.0673  0.3939
 3484SOL    HW122088   4.054   1.699  12.477 -0.5044 -0.0810  0.2843
 3484SOL    HW222089   4.059   1.786  12.354 -0.5453  1.8079  0.3177
 3485SOL     OW22090   2.648   0.830  16.782 -0.4536 -0.8579  0.6298
 3485SOL    HW122091   2.622   0.894  16.849 -0.9693  1.5905 -1.9179
 3485SOL    HW222092   2.743   0.835  16.792 -0.4073  0.6678 -0.5303
 3486SOL     OW22093   3.534   0.575   8.900  0.7123  0.0568  0.3964
 3486SOL    HW122094   3.544   0.484   8.928 -0.8020 -0.2062  0.0997
 3486SOL    HW222095   3.609   0.580   8.841 -0.0671  0.5178 -0.5688
 3487SOL     OW22096   2.640   2.614   6.621  0.5748 -0.0466 -0.8591
 3487SOL    HW122097   2.575   2.621   6.551 -1.5811 -0.7533  1.0561
 3487SOL    HW222098   2.602   2.621   6.709 -0.3866 -0.7071 -1.2202
 3488SOL     OW22099   1.969   2.071   3.644 -0.6053 -0.1239 -0.3269
 3488SOL    HW122100   2.025   2.073   3.722 -0.6668 -2.2550 -0.2337
 3488SOL    HW222101   2.027   2.057   3.570  0.1916  3.7434 -0.4423
 3489SOL     OW22102   3.415   1.107   9.184 -0.1486 -0.2684  0.3131
 3489SOL    HW122103   3.340   1.156   9.216 -0.6089 -0.8869  0.1734
 3489SOL    HW222104   3.384   1.016   9.184  3.6303 -1.5739  1.8747
 3490SOL     OW22105   2.844   2.596   2.645 -0.0693  0.0767  0.0990
 3490SOL    HW122106   2.825   2.509   2.610  2.2102  0.1455 -1.3167
 3490SOL    HW222107   2.826   2.600   2.739 -0.3413 -0.2530  0.0604
 3491SOL     OW22108   4.016   4.366  15.841 -0.2271 -0.0882  0.4305
 3491SOL    HW122109   4.064   4.448  15.852  0.9135 -0.7711  0.5808
 3491SOL    HW222110   3.989   4.375  15.750 -1.1031  1.6556  0.8584
 3492SOL     OW22111   4.536   3.045  16.752  0.2285 -0.4297  0.2527
 3492SOL    HW122112   4.479   2.972  16.778 -1.0012 -0.2417 -1.9198
 3492SOL    HW222113   4.585   3.019  16.674  0.1014 -0.5882  0.2269
 3493SOL     OW22114   1.172   3.700   0.468 -0.2390  0.1052  0.7994
 3493SOL    HW122115   1.082   3.711   0.498 -1.0586 -1.3117 -1.1335
 3493SOL    HW222116   1.198   3.625   0.522 -1.9781 -2.3135 -1.6814
 3494SOL     OW22117   3.080   1.932   3.343  0.0100  0.1431 -0.5138
 3494SOL    HW122118   3.014   1.939   3.412  1.3178 -2.8015  1.0228
 3494SOL    HW222119   3.106   1.841   3.355  0.2842  0.3100  0.2111
 3495SOL     OW22120   4.164   3.490   4.084  0.1166 -0.2485 -0.2091
 3495SOL    HW122121   4.154   3.484   4.179 -0.6961 -0.4083 -0.3035
 3495SOL    HW222122   4.259   3.489   4.079  0.1321 -0.5336  0.1834
 3496SOL     OW22123   1.162   3.896  14.875  0.1445  0.1339  0.1172
 3496SOL    HW122124   1.077   3.917  14.837 -0.4808 -1.4918  0.6151
 3496SOL    HW222125   1.215   3.939  14.809  1.4636  1.4040  2.0017
 3497SOL     OW22126   3.717   3.924   7.348  0.0792  0.4172 -0.3433
 3497SOL    HW122127   3.694   3.947   7.258 -0.3385 -1.3657 -0.6996
 3497SOL    HW222128   3.645   3.871   7.382  0.8330  0.7177  1.7511
 3498SOL     OW22129   0.192   1.234   0.120 -0.1465 -0.7684 -0.1633
 3498SOL    HW122130   0.105   1.261   0.150  0.8576  0.2057  1.8790
 3498SOL    HW222131   0.209   1.305   0.058 -0.0751  1.2122  2.1273
 3499SOL     OW22132   1.139   1.277   7.079  0.7610  0.0249 -0.1280
 3499SOL    HW122133   1.226   1.315   7.075  1.1382 -0.7231  1.0108
 3499SOL    HW222134   1.123   1.266   6.985  0.8716 -0.3927 -0.0986
 3500SOL     OW22135   3.229   3.219   2.969 -0.2473  1.1131 -0.4828
 3500SOL    HW122136   3.188   3.268   3.041 -0.3210  1.5934 -0.8528
 3500SOL    HW222137   3.152   3.221   2.912 -1.4764 -0.4006  1.1431
 3501SOL     OW22138   3.294   0.057  13.750 -0.5035 -0.1207  0.0550
 3501SOL    HW122139   3.345   0.131  13.718  1.5175 -1.1191  0.9891
 3501SOL    HW222140   3.214   0.070  13.698  0.2104  1.4875 -0.6251
 3502SOL     OW22141   4.516   3.229   5.308  0.1013  0.2394  0.9237
 3502SOL    HW122142   4.522   3.146   5.261  2.4075  0.7138  0.3473
 3502SOL    HW222143   4.434   3.231   5.357 -0.2455 -0.0632  0.3465
 3503SOL     OW22144   2.626   0.559   3.631  0.2662  0.2780  0.0269
 3503SOL    HW122145   2.689   0.579   3.562 -0.4050 -3.5508 -1.7302
 3503SOL    HW222146   2.608   0.467   3.610  2.3707  0.0463 -0.7935
 3504SOL     OW22147   2.957   4.683   7.883 -0.4732 -0.4479 -0.2077
 3504SOL    HW122148   2.977   4.718   7.969 -0.8786 -1.1734  0.1775
 3504SOL    HW222149   3.012   4.605   7.884 -1.4340 -1.1128  0.7977
 3505SOL     OW22150   2.418   1.551   7.470  0.0554 -0.1438 -0.2508
 3505SOL    HW122151   2.492   1.498   7.440 -0.6565 -0.2843 -1.7423
 3505SOL    HW222152   2.388   1.589   7.388  1.1340 -0.5844 -0.8477
 3506SOL     OW22153   4.387   2.355   4.082 -0.1398 -0.4893  0.6099
 3506SOL    HW122154   4.449   2.427   4.093 -0.1970 -0.1254 -1.3804
 3506SOL    HW222155   4.371   2.344   4.175 -1.1383 -1.0452  0.3660
 3507SOL     OW22156   1.514   3.646   4.561  0.4605 -0.0171 -0.8263
 3507SOL    HW122157   1.469   3.717   4.605  1.4088  0.3313 -0.4168
 3507SOL    HW222158   1.465   3.569   4.589  1.8134 -0.8230 -0.6692
 3508SOL     OW22159   2.670   3.837   7.664 -0.4791  0.2840  0.2603
 3508SOL    HW122160   2.684   3.931   7.668 -2.0308  0.6421 -3.1555
 3508SOL    HW222161   2.720   3.798   7.736 -0.7615  0.5257  0.5898
 3509SOL     OW22162   2.762   0.113   5.721  0.6792  0.0610  0.0097
 3509SOL    HW122163   2.787   0.024   5.695  1.7658  0.6372 -0.9110
 3509SOL    HW222164   2.824   0.158   5.664 -1.3189  1.0811 -1.3471
 3510SOL     OW22165   2.248   0.484  12.079  0.2923  0.3185  0.6963
 3510SOL    HW122166   2.278   0.567  12.117  0.7178 -0.0411  1.1591
 3510SOL    HW222167   2.329   0.459  12.034 -0.1274 -1.6835  1.0641
 3511SOL     OW22168   2.194   0.634   4.014 -0.7258 -0.0734  0.5160
 3511SOL    HW122169   2.186   0.563   3.950  1.1995 -0.6871  0.9556
 3511SOL    HW222170   2.178   0.587   4.096 -2.3495  1.8438  1.2761
 3512SOL     OW22171   4.481   2.542   8.523  0.1897 -0.2326 -0.3025
 3512SOL    HW122172   4.484   2.539   8.619  0.6554  2.7675 -0.2195
 3512SOL    HW222173   4.401   2.591   8.507  0.8098  1.0124  0.3615
 3513SOL     OW22174   1.607   0.406   7.781 -0.8443  0.6346  0.0404
 3513SOL    HW122175   1.539   0.350   7.743  0.0983 -0.5331  0.0869
 3513SOL    HW222176   1.622   0.372   7.869 -2.4873  0.5718  0.2886
 3514SOL     OW22177   3.093   3.104   6.816  0.0279 -0.5856 -0.0976
 3514SOL    HW122178   3.177   3.130   6.779 -0.0184  1.7907  1.4671
 3514SOL    HW222179   3.128   3.029   6.865  1.5669  2.0881  2.9217
 3515SOL     OW22180   3.106   3.816   3.662 -0.3515 -0.0655 -0.2155
 3515SOL    HW122181   3.053   3.778   3.592 -1.4024 -0.2942  0.7031
 3515SOL    HW222182   3.068   3.792   3.746 -2.4770 -1.0488 -1.4397
 3516SOL     OW22183   4.684   0.900   4.477 -0.2259  0.2675 -0.0720
 3516SOL    HW122184   4.624   0.844   4.427  0.2426 -0.6103  0.3452
 3516SOL    HW222185   4.653   0.881   4.566 -1.1469  2.7029  0.1229
 3517SOL     OW22186   2.967   1.930   6.889  0.2199  0.1675 -0.2076
 3517SOL    HW122187   2.890   1.903   6.940  0.8032  0.1293  0.6551
 3517SOL    HW222188   2.930   2.002   6.839  0.2926 -0.0437 -0.5630
 3518SOL     OW22189   2.992   3.497   9.975 -0.9137  0.3819  0.3368
 3518SOL    HW122190   2.904   3.460   9.975 -0.4836 -0.6434  0.9717
 3518SOL    HW222191   3.015   3.507  10.067 -0.7360  2.3173  0.0917
 3519SOL     OW22192   1.506   0.774   2.772  0.0128  0.2024  0.2202
 3519SOL    HW122193   1.479   0.683   2.774 -0.6666  0.4353  2.3739
 3519SOL    HW222194   1.437   0.802   2.711  0.0955  0.6673  0.3368
 3520SOL     OW22195   2.954   4.648  11.437  0.7800 -0.0098  0.0639
 3520SOL    HW122196   3.049   4.656  11.446  0.6497 -1.2376  2.3271
 3520SOL    HW222197   2.913   4.712  11.495 -1.7734 -1.6046  0.0081
 3521SOL     OW22198   0.132   0.037   9.413  0.7932  0.3163  0.0837
 3521SOL    HW122199   0.113   0.127   9.386  1.5095  0.1890 -0.8732
 3521SOL    HW222200   0.179   4.736   9.338  0.7387 -0.1110  0.2661
 3522SOL     OW22201   3.253   0.549   5.772  0.0364  0.3882  0.6660
 3522SOL    HW122202   3.167   0.589   5.787 -1.2841 -2.0895 -0.1993
 3522SOL    HW222203   3.229   0.466   5.731  0.2959 -1.7619  4.7807
 3523SOL     OW22204   4.267   2.678   7.121 -0.7104 -0.3652  0.5588
 3523SOL    HW122205   4.188   2.646   7.164  0.5399 -2.7623  1.0976
 3523SOL    HW222206   4.258   2.628   7.040  1.4308 -1.1581  0.8203
 3524SOL     OW22207   3.051   3.480   7.701  0.1500  0.1778 -0.0873
 3524SOL    HW122208   3.086   3.569   7.703 -0.6960  0.4510  2.0256
 3524SOL    HW222209   3.116   3.434   7.755 -2.6716 -2.4138  1.1074
 3525SOL     OW22210   4.686   3.303   2.256 -0.6189  0.0979  0.0324
 3525SOL    HW122211   4.627   3.333   2.325 -0.0349 -0.6615  0.8588
 3525SOL    HW222212   4.656   3.368   2.192  1.6483  1.0012 -0.1298
 3526SOL     OW22213   0.117   0.288   5.918  0.2451 -0.1996 -0.6477
 3526SOL    HW122214   0.209   0.277   5.941  0.3546 -2.2632 -2.0840
 3526SOL    HW222215   0.069   0.265   5.997  1.8956  2.3835  1.1427
 3527SOL     OW22216   3.908   1.623   1.210 -0.2945  0.0668  0.6254
 3527SOL    HW122217   3.921   1.701   1.155 -0.5462  1.4322  2.5003
 3527SOL    HW222218   3.814   1.633   1.226 -0.5754 -0.0882 -0.9749
 3528SOL     OW22219   2.329   1.195  16.332 -0.4071  0.3977  0.2469
 3528SOL    HW122220   2.397   1.177  16.397 -0.1143 -2.3170 -0.7966
 3528SOL    HW222221   2.270   1.127  16.362  0.8623 -0.8085  0.0278
 3529SOL     OW22222   3.366   4.019   3.458  0.6289  0.2156 -1.0107
 3529SOL    HW122223   3.399   4.083   3.522 -0.0018  0.1125 -0.5858
 3529SOL    HW222224   3.272   4.021   3.472  0.7059 -2.6964 -0.2095
 3530SOL     OW22225   3.473   4.133   4.956  0.1148  0.4252 -0.3911
 3530SOL    HW122226   3.514   4.063   5.007 -1.7417 -0.4003 -0.0302
 3530SOL    HW222227   3.474   4.204   5.020  0.6513 -0.0433  0.1213
 3531SOL     OW22228   3.700   1.210   1.023  0.0250  0.1625 -0.0641
 3531SOL    HW122229   3.742   1.254   1.097  0.1898  1.0764 -0.7032
 3531SOL    HW222230   3.745   1.235   0.942  0.7157  0.1331  0.3151
 3532SOL     OW22231   1.094   0.678   1.213  0.2527  0.3434  0.1097
 3532SOL    HW122232   1.146   0.644   1.139  2.1335 -1.8525  2.4337
 3532SOL    HW222233   1.154   0.703   1.283  0.7451 -0.3808 -0.0500
 3533SOL     OW22234   1.273   2.959   3.979 -0.2396 -0.8246  0.1117
 3533SOL    HW122235   1.332   2.963   3.904 -1.1766 -3.4526 -0.7530
 3533SOL    HW222236   1.212   2.893   3.947 -0.2720 -1.0723  0.6887
 3534SOL     OW22237   1.997   3.154  16.474  0.4635 -0.0494 -0.5086
 3534SOL    HW122238   1.986   3.061  16.496  1.4928 -0.0732 -0.0975
 3534SOL    HW222239   2.029   3.177  16.561  1.7015  2.2333 -1.5600
 3535SOL     OW22240   1.805   2.404  14.939 -0.9527  0.0609  0.2242
 3535SOL    HW122241   1.839   2.486  14.974 -0.4181 -0.8103  1.7532
 3535SOL    HW222242   1.727   2.440  14.897 -2.3820  0.1457  2.9376
 3536SOL     OW22243   4.164   4.190   4.609  0.3348  0.0551  0.3661
 3536SOL    HW122244   4.207   4.194   4.694 -0.8936 -2.0090  1.0903
 3536SOL    HW222245   4.217   4.254   4.561 -3.4561  0.6002 -3.1938
 3537SOL     OW22246   3.721   3.329   1.584 -0.7160  0.4626 -0.4100
 3537SOL    HW122247   3.635   3.325   1.544 -0.4336  0.6523 -1.0471
 3537SOL    HW222248   3.730   3.424   1.571  0.4493  0.6483  1.7613
 3538SOL     OW22249   0.642   4.705   8.339  0.5239  0.0760 -1.0440
 3538SOL    HW122250   0.615   0.042   8.394  0.0064 -0.0881 -1.0722
 3538SOL    HW222251   0.601   4.636   8.392  0.3830  1.2204  0.3256
 3539SOL     OW22252   0.615   3.010   9.055 -0.1230 -0.1809  0.6475
 3539SOL    HW122253   0.709   3.006   9.042 -0.2765 -3.1781  0.5834
 3539SOL    HW222254   0.579   2.950   8.989  2.1046 -0.4119 -0.3472
 3540SOL     OW22255   1.915   0.735   3.813  0.1873 -0.1823 -0.0827
 3540SOL    HW122256   1.971   0.797   3.766 -0.3277  0.0873 -0.3309
 3540SOL    HW222257   1.949   0.653   3.776 -1.7895 -0.2428 -1.7220
 3541SOL     OW22258   2.942   1.423   8.965 -0.0313 -0.4775  0.3920
 3541SOL    HW122259   2.908   1.334   8.963  0.8738 -0.8832  2.9708
 3541SOL    HW222260   2.992   1.433   8.884 -2.6239 -0.1000 -1.1564
 3542SOL     OW22261   3.973   2.863   4.301  0.3244 -0.1687 -0.2092
 3542SOL    HW122262   3.884   2.827   4.304  0.5829 -0.7580  0.5975
 3542SOL    HW222263   4.018   2.810   4.367 -0.1356  0.0627  0.2837
 3543SOL     OW22264   4.327   0.057   2.425  0.2056  0.2549  0.0510
 3543SOL    HW122265   4.370   4.730   2.482 -1.0252  1.7857  2.7001
 3543SOL    HW222266   4.240   0.052   2.466  0.4159 -1.3974  0.2807
 3544SOL     OW22267   4.084   3.787  11.255  0.2669  0.1027  0.3172
 3544SOL    HW122268   4.174   3.757  11.262 -0.0525 -0.6088  1.4168
 3544SOL    HW222269   4.044   3.738  11.183 -0.1101 -0.7772  1.1246
 3545SOL     OW22270   0.561   3.197   2.864 -0.2932 -0.0159 -0.2133
 3545SOL    HW122271   0.500   3.240   2.804 -0.1664  0.2472 -0.1555
 3545SOL    HW222272   0.492   3.142   2.901  0.1367 -0.1718  0.3555
 3546SOL     OW22273   1.188   3.815   6.858 -0.0149 -0.0378  0.1272
 3546SOL    HW122274   1.217   3.728   6.829 -0.8820 -0.0093 -0.8158
 3546SOL    HW222275   1.269   3.844   6.901  0.9983 -0.6424 -1.3801
 3547SOL     OW22276   1.324   2.650   7.336 -0.2614 -0.5374 -0.2522
 3547SOL    HW122277   1.364   2.575   7.381  3.4203  0.3831 -2.0390
 3547SOL    HW222278   1.372   2.716   7.387  0.7200 -0.3871 -1.3645
 3548SOL     OW22279   3.091   0.708   7.816 -0.1587  0.2456 -0.2829
 3548SOL    HW122280   3.169   0.754   7.786  0.8032 -0.6230  0.8750
 3548SOL    HW222281   3.113   0.672   7.902  1.1169  1.0709 -0.2751
 3549SOL     OW22282   4.162   0.958   8.130 -0.1542 -0.4767 -0.3509
 3549SOL    HW122283   4.217   0.882   8.108  0.1365  0.3989 -2.6178
 3549SOL    HW222284   4.197   0.986   8.214  0.4647  0.4124 -0.9019
 3550SOL     OW22285   1.041   3.260  11.126  0.1798  0.3544 -0.6853
 3550SOL    HW122286   1.084   3.279  11.210  0.6715 -1.6398 -0.4759
 3550SOL    HW222287   1.093   3.323  11.077  1.0597 -0.3282 -0.6344
 3551SOL     OW22288   3.996   3.646  11.036  0.6817 -0.5837 -0.1879
 3551SOL    HW122289   4.033   3.565  11.000  2.2145  0.1801 -0.3241
 3551SOL    HW222290   3.926   3.668  10.974  1.0708 -1.0609 -0.7900
 3552SOL     OW22291   1.399   1.453   7.369 -0.2544 -0.3443  0.2017
 3552SOL    HW122292   1.445   1.520   7.420 -0.2004 -0.5075  0.3665
 3552SOL    HW222293   1.396   1.391   7.441  3.8187  1.3457  1.8251
 3553SOL     OW22294   0.772   2.700  16.056  0.1436 -0.3166  0.2457
 3553SOL    HW122295   0.771   2.793  16.077  0.4636 -0.2755  0.0707
 3553SOL    HW222296   0.678   2.679  16.049  0.4592 -2.0536  1.2169
 3554SOL     OW22297   0.555   0.541   2.357 -0.3433  0.3820  0.3814
 3554SOL    HW122298   0.593   0.610   2.412 -0.7941  0.3382  0.7534
 3554SOL    HW222299   0.488   0.497   2.409 -0.5411  0.8542  0.5251
 3555SOL     OW22300   1.707   3.042   6.592  0.9314  0.2765 -0.2092
 3555SOL    HW122301   1.768   2.979   6.551 -1.1538 -1.9400  0.0758
 3555SOL    HW222302   1.639   2.982   6.622  0.6850 -0.3078 -1.8835
 3556SOL     OW22303   3.949   0.859  15.366 -0.0043 -0.6016 -0.2605
 3556SOL    HW122304   4.019   0.821  15.419 -1.4999 -1.1572  1.3152
 3556SOL    HW222305   3.875   0.800  15.380 -0.9172 -0.2081 -3.3565
 3557SOL     OW22306   0.851   4.723   2.065 -0.3852 -0.3082  0.3396
 3557SOL    HW122307   0.860   0.076   2.034  0.7190 -1.7703 -3.5384
 3557SOL    HW222308   0.755   4.720   2.074 -0.2401  0.5047  2.1388
 3558SOL     OW22309   2.004   3.617   7.133 -0.0753 -0.1512 -0.3064
 3558SOL    HW122310   1.994   3.572   7.217 -0.9471 -1.3638 -1.0599
 3558SOL    HW222311   2.021   3.545   7.073 -2.4460 -2.9526  2.4057
 3559SOL     OW22312   3.160   2.903  17.046  0.4759  0.0122 -0.7353
 3559SOL    HW122313   3.089   2.951  17.005  0.2151  1.1341  1.0335
 3559SOL    HW222314   3.190   2.970  17.107 -2.1884  0.8690 -0.3890
 3560SOL     OW22315   4.107   3.024  11.617  0.1303  0.1218  0.3086
 3560SOL    HW122316   4.193   3.023  11.575 -0.6569  0.6687 -1.3426
 3560SOL    HW222317   4.118   3.072  11.699  0.0850  1.0515 -0.2348
 3561SOL     OW22318   0.244   4.278   9.591  0.9712  0.0809 -0.3138
 3561SOL    HW122319   0.299   4.265   9.668  0.7209 -0.1519 -0.1742
 3561SOL    HW222320   0.186   4.343   9.630  1.4864 -0.9817  2.1853
 3562SOL     OW22321   0.028   1.966   2.667 -0.4909  0.3911 -0.2770
 3562SOL    HW122322   4.718   1.909   2.728 -0.5209  0.7525  0.0429
 3562SOL    HW222323   0.043   2.040   2.727 -0.3770 -0.5270  0.8354
 3563SOL     OW22324   3.839   1.956   4.947  0.0792 -0.1169  0.5088
 3563SOL    HW122325   3.759   2.003   4.921  0.4642 -0.2336 -0.8947
 3563SOL    HW222326   3.791   1.880   4.979 -1.9261  1.0093  0.2397
 3564SOL     OW22327   4.048   1.164   7.997  0.7686  0.0495 -0.2365
 3564SOL    HW122328   4.055   1.139   7.905  0.0026 -0.2166 -0.2236
 3564SOL    HW222329   4.103   1.091   8.025 -1.1751 -2.2352 -2.4304
 3565SOL     OW22330   0.817   3.811   3.778 -0.5910  0.4939 -0.2491
 3565SOL    HW122331   0.801   3.757   3.855 -1.2305  0.8663 -0.1162
 3565SOL    HW222332   0.892   3.866   3.799 -1.8469  1.3039  2.0908
 3566SOL     OW22333   3.678   4.582   6.254  0.1958 -0.5633  0.4497
 3566SOL    HW122334   3.611   4.553   6.192 -1.6157  1.7252  1.3603
 3566SOL    HW222335   3.736   4.506   6.256 -1.3269 -1.7797 -1.9072
 3567SOL     OW22336   0.049   0.980   1.698 -0.1091  0.8160  0.2222
 3567SOL    HW122337   4.712   0.923   1.677  0.3193  1.2064 -2.2647
 3567SOL    HW222338   0.070   0.941   1.783  0.7623 -3.5722 -1.9988
 3568SOL     OW22339   0.354   2.114   8.375  0.6374 -0.2165 -0.0592
 3568SOL    HW122340   0.313   2.201   8.376 -1.8358 -1.3929  0.7577
 3568SOL    HW222341   0.277   2.057   8.369 -0.2483  1.3018 -3.1813
 3569SOL     OW22342   3.288   2.970   6.969 -0.0312  0.1272  0.1960
 3569SOL    HW122343   3.379   2.942   6.962  1.1806  3.8079  0.9785
 3569SOL    HW222344   3.298   3.034   7.039 -3.6839  0.7472  0.1499
 3570SOL     OW22345   1.754   2.368   7.625 -0.1105 -0.1728 -0.3080
 3570SOL    HW122346   1.770   2.460   7.605  2.2023 -0.2854  1.0420
 3570SOL    HW222347   1.682   2.387   7.686 -0.1349  0.3502 -0.5024
 3571SOL     OW22348   1.888   3.007  13.439 -0.5487  0.2225 -0.7056
 3571SOL    HW122349   1.977   3.008  13.474 -0.9851 -1.7738  0.4607
 3571SOL    HW222350   1.830   3.039  13.508 -0.6480 -2.0537  0.2930
 3572SOL     OW22351   2.368   4.684  12.308  0.1184  0.6363  0.6062
 3572SOL    HW122352   2.276   4.680  12.333 -0.4807 -0.8290 -1.8518
 3572SOL    HW222353   2.360   0.032  12.265  2.2518 -0.4181 -1.8629
 3573SOL     OW22354   0.088   3.633   9.760  0.1087 -0.4254 -0.2057
 3573SOL    HW122355   0.014   3.599   9.810 -1.2250  0.7982 -1.3567
 3573SOL    HW222356   0.046   3.669   9.682 -0.5709 -2.8076 -0.9526
 3574SOL     OW22357   0.914   1.290  11.874  0.2586  0.2156  0.3349
 3574SOL    HW122358   0.835   1.314  11.921 -0.9567 -0.5358 -1.3146
 3574SOL    HW222359   0.971   1.349  11.924 -1.5487  0.5959  1.9339
 3575SOL     OW22360   2.775   0.448   5.520 -0.2439  0.0254  0.0179
 3575SOL    HW122361   2.719   0.404   5.584  2.4376  1.1427  3.1312
 3575SOL    HW222362   2.786   0.536   5.556 -0.7091  0.0409  0.1292
 3576SOL     OW22363   1.724   4.565   7.311 -0.6379 -0.4623 -0.2189
 3576SOL    HW122364   1.712   4.652   7.349  0.3904 -0.5340  0.2921
 3576SOL    HW222365   1.685   4.506   7.376  1.5480  0.7198  2.1776
 3577SOL     OW22366   3.114   4.171   3.000  0.0358 -0.2047  0.3264
 3577SOL    HW122367   3.192   4.130   3.038  1.0588  1.0024 -0.4744
 3577SOL    HW222368   3.158   4.255   2.990 -0.2839  0.1272  1.7032
 3578SOL     OW22369   4.570   4.699  11.061  0.0246 -0.0444  0.3394
 3578SOL    HW122370   4.636   4.671  10.999  0.4642 -0.9152  1.1985
 3578SOL    HW222371   4.506   0.008  11.007 -0.5784 -1.9280 -0.5215
 3579SOL     OW22372   2.104   4.231   3.039 -0.3739 -0.5326 -0.5321
 3579SOL    HW122373   2.017   4.261   3.012 -0.5687 -0.7444 -0.1404
 3579SOL    HW222374   2.111   4.142   3.006 -1.1116 -0.4686 -0.8527
 3580SOL     OW22375   0.725   4.336  14.733 -0.1526  0.0358 -0.0976
 3580SOL    HW122376   0.660   4.320  14.801 -0.1342 -0.6071 -0.2321
 3580SOL    HW222377   0.680   4.289  14.663  1.3369 -0.9634 -0.3937
 3581SOL     OW22378   3.143   4.699  10.673 -0.4871 -0.0161  0.1391
 3581SOL    HW122379   3.104   4.712  10.587 -1.2920  0.1849  0.5377
 3581SOL    HW222380   3.198   0.041  10.677 -1.1456  0.3884  1.2723
 3582SOL     OW22381   1.784   4.711  13.954  0.7663 -0.2372 -0.2831
 3582SOL    HW122382   1.874   4.736  13.930  0.3390  2.4993  1.0411
 3582SOL    HW222383   1.775   0.030  14.031  0.7298 -1.2826  0.4735
 3583SOL     OW22384   1.767   0.363   6.598  0.3020 -0.0521 -0.3324
 3583SOL    HW122385   1.855   0.376   6.563  1.8278  0.8936  3.8346
 3583SOL    HW222386   1.741   0.455   6.590  0.1612  0.0212  0.9477
 3584SOL     OW22387   4.389   0.371   5.477  0.7809 -0.9874  0.7901
 3584SOL    HW122388   4.477   0.380   5.514  0.0657 -1.4725  2.6373
 3584SOL    HW222389   4.370   0.278   5.491  0.1078 -1.0283 -0.4179
 3585SOL     OW22390   0.342   4.558   2.570  0.0381  0.1788 -0.1766
 3585SOL    HW122391   0.416   4.617   2.557  0.1397  0.3354  1.1550
 3585SOL    HW222392   0.271   4.606   2.612 -0.2957 -1.1738  0.8088
 3586SOL     OW22393   4.051   2.953   7.419 -0.2073  0.0144  0.5985
 3586SOL    HW122394   4.010   2.964   7.333  3.0104 -0.1315 -0.9505
 3586SOL    HW222395   4.128   2.902   7.392 -0.5458  0.2159 -0.7575
 3587SOL     OW22396   4.452   3.281   6.988  0.7004 -0.2126 -0.7634
 3587SOL    HW122397   4.360   3.304   6.992  0.7348  0.0805 -1.6057
 3587SOL    HW222398   4.487   3.298   7.076 -0.1061 -0.6410 -0.3567
 3588SOL     OW22399   0.694   0.434   3.924 -0.1433 -0.1963 -0.2782
 3588SOL    HW122400   0.710   0.345   3.956  1.0325 -0.0519 -0.4338
 3588SOL    HW222401   0.663   0.426   3.833 -0.8179  0.9110 -0.1329
 3589SOL     OW22402   2.572   4.452   9.577 -0.2923 -0.6374 -0.1944
 3589SOL    HW122403   2.546   4.394   9.648  0.4201 -0.5804  0.1125
 3589SOL    HW222404   2.500   4.516   9.575 -0.0346 -0.3285  0.4011
 3590SOL     OW22405   3.774   2.886   6.839 -0.3673  0.4148 -0.0844
 3590SOL    HW122406   3.842   2.870   6.774 -0.6586 -2.0707  0.2155
 3590SOL    HW222407   3.725   2.953   6.790  1.3541  1.4058 -0.4711
 3591SOL     OW22408   3.664   2.636  14.980  0.2009 -0.0748  0.6810
 3591SOL    HW122409   3.735   2.665  15.036  1.2484 -2.7796  0.7952
 3591SOL    HW222410   3.722   2.596  14.914  2.1491  0.9965  1.7353
 3592SOL     OW22411   2.905   3.392  16.967  0.4125 -0.8632  0.2725
 3592SOL    HW122412   3.000   3.379  16.962  0.3965  0.3565 -3.0878
 3592SOL    HW222413   2.895   3.442  16.886 -2.1449  0.0147  1.1321
 3593SOL     OW22414   2.704   4.453   2.684  0.3443 -0.4669 -0.1542
 3593SOL    HW122415   2.645   4.434   2.611 -0.3369 -0.3294  0.3620
 3593SOL    HW222416   2.643   4.500   2.741  0.8744 -1.5312  1.2700
 3594SOL     OW22417   3.733   0.570   6.839 -0.2230  0.2649 -0.6189
 3594SOL    HW122418   3.721   0.654   6.883 -0.8114 -0.7674  1.1987
 3594SOL    HW222419   3.825   0.582   6.814 -0.1096 -1.1259 -0.8681
 3595SOL     OW22420   1.972   0.867   7.791  0.0698 -0.0064  0.1435
 3595SOL    HW122421   1.980   0.956   7.827  0.7921 -0.8568  2.0488
 3595SOL    HW222422   2.066   0.851   7.787  0.0945  0.2561 -0.3506
 3596SOL     OW22423   3.071   1.169   5.231  0.2678  0.3653  0.1269
 3596SOL    HW122424   2.991   1.168   5.177 -1.1316  0.2578  2.1808
 3596SOL    HW222425   3.101   1.259   5.219  1.5620  0.2781  2.8597
 3597SOL     OW22426   0.793   2.949   0.045 -0.1918  0.4687 -0.5286
 3597SOL    HW122427   0.819   2.879  17.732  1.0038 -2.0239  2.9430
 3597SOL    HW222428   0.870   2.967   0.099 -1.7529 -1.1599  2.2734
 3598SOL     OW22429   4.480   0.735   4.398  0.0097 -0.4962  0.4401
 3598SOL    HW122430   4.521   0.649   4.388  2.9128  0.8205  1.2707
 3598SOL    HW222431   4.399   0.724   4.347  0.1584  0.1928  0.0629
 3599SOL     OW22432   2.289   4.187   9.100  0.1467  0.3320 -0.1278
 3599SOL    HW122433   2.235   4.112   9.075  0.9571 -0.6415  1.0027
 3599SOL    HW222434   2.232   4.222   9.169 -0.6299  0.4438 -0.8280
 3600SOL     OW22435   3.450   2.528   6.288  0.1560  0.1282 -0.0062
 3600SOL    HW122436   3.398   2.508   6.366  0.5833  2.5616  0.9012
 3600SOL    HW222437   3.528   2.476   6.305 -1.2940 -1.3404  2.1323
 3601SOL     OW22438   4.164   1.099  13.382 -0.0969 -0.0844  0.3522
 3601SOL    HW122439   4.191   1.088  13.291 -0.8858  0.2810  0.0750
 3601SOL    HW222440   4.070   1.086  13.371  0.0582 -0.4748 -0.4784
 3602SOL     OW22441   4.282   0.767  11.800  0.2041  0.1408 -0.4483
 3602SOL    HW122442   4.190   0.795  11.797  0.4129  1.0600  1.9810
 3602SOL    HW222443   4.283   0.704  11.873 -2.7186 -0.1830 -0.6683
 3603SOL     OW22444   2.956   3.270  15.997 -0.4485  0.6961 -0.3157
 3603SOL    HW122445   2.908   3.306  15.922  0.8271 -0.7996 -1.8416
 3603SOL    HW222446   3.023   3.210  15.965  0.3265  2.5401 -2.1448
 3604SOL     OW22447   1.049   2.964   7.334  0.2511  1.0367  0.1972
 3604SOL    HW122448   1.094   2.896   7.384 -2.5544 -0.0977  1.1339
 3604SOL    HW222449   0.981   2.909   7.297  1.7611 -0.8064  0.1527
 3605SOL     OW22450   3.915   2.272   2.480 -0.2923  0.1784 -0.2640
 3605SOL    HW122451   4.005   2.262   2.512  0.0123  0.1564 -1.1235
 3605SOL    HW222452   3.883   2.185   2.504  2.6088 -0.8590 -0.1494
 3606SOL     OW22453   4.273   3.710   4.571  0.1080 -0.2888  0.2068
 3606SOL    HW122454   4.305   3.653   4.641  0.8990  0.3167  0.3390
 3606SOL    HW222455   4.198   3.748   4.616 -1.4189 -1.8458 -1.0036
 3607SOL     OW22456   3.842   2.082   7.016  0.2230  0.1416  0.1629
 3607SOL    HW122457   3.856   2.151   7.081 -1.4676 -0.3355  1.0299
 3607SOL    HW222458   3.750   2.065   7.036  0.6640  1.1725  3.1150
 3608SOL     OW22459   0.197   1.924   8.705  0.2465 -0.1728  0.4306
 3608SOL    HW122460   0.108   1.960   8.703 -0.0193 -1.0138 -2.0463
 3608SOL    HW222461   0.237   2.010   8.692 -0.2731  0.3359  2.1797
 3609SOL     OW22462   0.848   2.438   3.095 -0.0544  0.7417 -0.3569
 3609SOL    HW122463   0.851   2.439   2.999  3.7134 -0.2491 -0.2385
 3609SOL    HW222464   0.876   2.349   3.114 -0.2164  0.4732 -1.3804
 3610SOL     OW22465   1.321   1.592   2.188  0.0954 -0.0361  0.0299
 3610SOL    HW122466   1.356   1.614   2.274  0.4343 -0.6980  0.0622
 3610SOL    HW222467   1.399   1.570   2.138  0.5023  0.7312  0.3333
 3611SOL     OW22468   0.684   3.731   8.306  0.3842  0.1038 -0.7991
 3611SOL    HW122469   0.624   3.658   8.291 -0.5260  0.5765  0.5383
 3611SOL    HW222470   0.674   3.754   8.399  1.4305 -0.6793 -0.4914
 3612SOL     OW22471   2.571   1.730   3.260  0.0708 -0.2708  0.2744
 3612SOL    HW122472   2.665   1.723   3.275 -0.4194 -0.0730  3.3352
 3612SOL    HW222473   2.551   1.641   3.231  1.0425 -0.8722  1.4592
 3613SOL     OW22474   1.571   2.587   6.692 -0.4353 -0.0416 -0.3382
 3613SOL    HW122475   1.537   2.537   6.617  2.9955 -3.0677  0.1517
 3613SOL    HW222476   1.647   2.541   6.727 -1.7688 -1.6128  0.4993
 3614SOL     OW22477   3.530   2.950  13.463 -0.6582 -0.2996 -0.3966
 3614SOL    HW122478   3.512   2.863  13.498  0.0442 -0.4751 -0.4568
 3614SOL    HW222479   3.544   2.999  13.544 -0.8938  0.0814 -0.5884
 3615SOL     OW22480   3.939   2.895   6.624 -0.0920  0.0911  0.6254
 3615SOL    HW122481   4.015   2.926   6.574 -1.4925 -1.1352 -2.2619
 3615SOL    HW222482   3.892   2.978   6.635 -0.9566 -0.1590 -1.1112
 3616SOL     OW22483   3.676   2.270  10.062  0.4772  0.0392 -0.7734
 3616SOL    HW122484   3.719   2.218  10.130 -0.4769 -1.2578 -1.1520
 3616SOL    HW222485   3.632   2.198  10.016 -1.9680  0.6639  0.5716
 3617SOL     OW22486   4.314   0.256   6.708 -0.1928  0.9727 -0.3333
 3617SOL    HW122487   4.359   0.260   6.793 -0.0762  3.0079 -0.4954
 3617SOL    HW222488   4.223   0.255   6.738 -0.1628 -1.2150 -0.3284
 3618SOL     OW22489   3.387   4.437   1.792  0.0972  0.4108  0.0890
 3618SOL    HW122490   3.477   4.445   1.760 -0.2766 -1.1252 -1.3521
 3618SOL    HW222491   3.363   4.355   1.749  0.1234  1.0093 -1.0526
 3619SOL     OW22492   1.067   0.527   7.132  0.1807 -0.3664  0.0999
 3619SOL    HW122493   0.972   0.529   7.123  0.1530 -2.2691 -0.0215
 3619SOL    HW222494   1.085   0.549   7.223  0.5685 -1.9387  0.4146
 3620SOL     OW22495   2.906   3.915   5.778  0.0003  0.0910 -0.2506
 3620SOL    HW122496   2.937   3.826   5.764 -0.8213  0.0528 -1.7562
 3620SOL    HW222497   2.818   3.905   5.814  0.1770 -2.1196 -0.4585
 3621SOL     OW22498   1.905   2.191   9.122 -0.5606  0.4149 -0.0096
 3621SOL    HW122499   1.950   2.246   9.058 -1.0706  1.7376  0.7508
 3621SOL    HW222500   1.853   2.129   9.070 -1.2521  0.5611  0.4961
 3622SOL     OW22501   1.950   0.166   8.228  0.2535  0.0622  0.2938
 3622SOL    HW122502   1.932   0.226   8.300 -0.0635  0.8135 -0.4076
 3622SOL    HW222503   1.997   0.093   8.269 -1.1960 -0.7933  0.4110
 3623SOL     OW22504   0.500   3.683   6.304  0.1009  0.0081  0.0150
 3623SOL    HW122505   0.547   3.647   6.380 -0.4339 -0.8495 -0.0677
 3623SOL    HW222506   0.417   3.710   6.342  0.6129  0.7300  0.6340
 3624SOL     OW22507   4.137   3.237   3.132  0.3369  0.5950 -0.2459
 3624SOL    HW122508   4.135   3.272   3.221  1.1387 -0.5708  0.2386
 3624SOL    HW222509   4.203   3.167   3.131 -1.6676 -1.2934  0.3811
 3625SOL     OW22510   0.162   4.237  17.701  0.5708  0.4619  0.1149
 3625SOL    HW122511   0.157   4.315   0.011 -3.1761  0.2362  0.1391
 3625SOL    HW222512   0.206   4.180   0.017  0.2087  0.5203  0.4284
 3626SOL     OW22513   0.877   0.580   4.414 -0.6346  0.5949  0.6220
 3626SOL    HW122514   0.802   0.639   4.410  1.8323  3.6569 -0.6825
 3626SOL    HW222515   0.902   0.574   4.321 -0.6169 -0.4398  0.6894
 3627SOL     OW22516   2.862   1.733   5.855  0.1453  0.8345 -0.3546
 3627SOL    HW122517   2.871   1.679   5.777 -1.0477 -0.5601  0.4776
 3627SOL    HW222518   2.791   1.686   5.898 -1.6503  2.2099 -1.8251
 3628SOL     OW22519   2.154   2.213   3.819  0.6057 -0.2218 -0.2669
 3628SOL    HW122520   2.147   2.240   3.911 -1.8338 -0.0748 -0.4882
 3628SOL    HW222521   2.225   2.149   3.822  3.1454  2.6461  0.6131
 3629SOL     OW22522   3.678   1.200   3.513 -0.2342 -0.1996 -0.4674
 3629SOL    HW122523   3.751   1.176   3.456  0.1256 -0.9477  0.3031
 3629SOL    HW222524   3.624   1.123   3.495 -1.5858  0.9159 -1.1824
 3630SOL     OW22525   1.623   4.135   8.512 -0.3167  0.6531 -0.2840
 3630SOL    HW122526   1.681   4.210   8.499  0.4714  0.3955  1.7668
 3630SOL    HW222527   1.679   4.076   8.563 -2.6123 -0.1499  1.3189
 3631SOL     OW22528   0.374   4.551  11.192  0.2768  0.5601  0.2020
 3631SOL    HW122529   0.461   4.567  11.154 -0.5235 -0.1232 -1.9448
 3631SOL    HW222530   0.390   4.566  11.285 -1.6291  1.2147  0.4148
 3632SOL     OW22531   4.285   0.641  13.122 -0.0682  0.4929  0.3948
 3632SOL    HW122532   4.308   0.725  13.163  0.0776  0.6614 -0.0314
 3632SOL    HW222533   4.297   0.594  13.205 -0.1906  1.3162  0.8883
 3633SOL     OW22534   2.496   1.839   4.451  0.2109 -0.1602  0.2329
 3633SOL    HW122535   2.561   1.904   4.476  0.6284 -0.2106 -0.7017
 3633SOL    HW222536   2.444   1.824   4.530  2.1990 -0.6142  1.4398
 3634SOL     OW22537   4.153   2.894   3.797 -0.5319  0.0159  0.0285
 3634SOL    HW122538   4.082   2.912   3.734  0.4461  0.2152 -1.0291
 3634SOL    HW222539   4.110   2.828   3.851 -1.6902  0.1772 -0.6694
 3635SOL     OW22540   1.268   1.061   6.192 -0.4091  0.0793 -0.3301
 3635SOL    HW122541   1.313   1.129   6.140 -0.4972  2.0097  2.1218
 3635SOL    HW222542   1.181   1.062   6.151  0.4565 -0.8062 -2.2220
 3636SOL     OW22543   2.253   3.722  16.510 -0.1071  0.1532 -0.1675
 3636SOL    HW122544   2.200   3.743  16.433  0.0579 -1.3667 -0.6905
 3636SOL    HW222545   2.254   3.627  16.520 -3.3670  0.1845  0.5589
 3637SOL     OW22546   0.214   3.201   2.729 -0.0077 -0.0207 -0.1311
 3637SOL    HW122547   0.171   3.174   2.649 -1.6458  0.9589  0.4104
 3637SOL    HW222548   0.296   3.226   2.686 -0.4410  1.0069 -0.3761
 3638SOL     OW22549   1.347   2.821   2.295 -0.5121  0.7151  0.1439
 3638SOL    HW122550   1.357   2.790   2.205 -2.7551  3.1595 -0.9510
 3638SOL    HW222551   1.427   2.786   2.334 -1.1590  0.0947  0.9190
 3639SOL     OW22552   1.353   0.874   6.374 -0.2182 -0.0496 -0.0625
 3639SOL    HW122553   1.274   0.822   6.359 -0.6005 -0.2815  2.6191
 3639SOL    HW222554   1.338   0.945   6.312 -0.0720 -0.7505 -0.8894
 3640SOL     OW22555   0.448   2.865   9.496  0.2877  0.0996  0.4984
 3640SOL    HW122556   0.385   2.885   9.428 -1.1580  0.6187  1.9840
 3640SOL    HW222557   0.522   2.917   9.464 -2.1526  0.9375 -3.6563
 3641SOL     OW22558   0.136   2.495   5.742 -0.8085 -0.0274  0.0780
 3641SOL    HW122559   0.179   2.577   5.765 -0.4569 -0.8597  2.3012
 3641SOL    HW222560   0.134   2.510   5.647 -0.2711  0.6496  0.1766
 3642SOL     OW22561   4.573   1.401   4.690  0.0616  0.0783  0.0946
 3642SOL    HW122562   4.538   1.463   4.626 -2.0910 -0.8272  0.3804
 3642SOL    HW222563   4.563   1.320   4.640  1.2721 -0.1913  0.3010
 3643SOL     OW22564   1.507   1.748   5.688 -0.5585  0.2837 -0.0526
 3643SOL    HW122565   1.532   1.838   5.709 -0.5527  0.0362  0.9956
 3643SOL    HW222566   1.506   1.763   5.593 -1.4066  0.5371  0.0008
 3644SOL     OW22567   0.085   1.991   5.185 -0.5753  0.0018  0.0278
 3644SOL    HW122568   0.029   1.930   5.137 -0.8175  0.7669 -0.6503
 3644SOL    HW222569   0.022   2.046   5.232 -1.8833 -1.8728  0.5078
 3645SOL     OW22570   0.143   3.811   8.074 -0.6216  0.2160 -0.2239
 3645SOL    HW122571   0.234   3.785   8.085 -0.3841  0.3764 -1.8390
 3645SOL    HW222572   0.132   3.901   8.104  1.1535  1.4615 -3.3010
 3646SOL     OW22573   4.488   4.241   0.260 -0.3015  0.1292 -0.0321
 3646SOL    HW122574   4.497   4.255   0.166  0.7622  1.0634  0.2198
 3646SOL    HW222575   4.506   4.321   0.309 -0.7748 -0.0592  0.4502
 3647SOL     OW22576   2.121   2.519   4.676 -0.1703 -0.7998 -0.0571
 3647SOL    HW122577   2.128   2.609   4.644 -1.0011 -1.4212 -1.9779
 3647SOL    HW222578   2.033   2.496   4.646  0.1283  0.8052 -2.1480
 3648SOL     OW22579   1.310   3.645  15.950 -0.5496  0.0146 -0.4200
 3648SOL    HW122580   1.330   3.642  16.043 -2.7359 -1.0907  0.0113
 3648SOL    HW222581   1.389   3.693  15.926  0.0547 -1.5137 -1.4989
 3649SOL     OW22582   2.926   0.127   3.704 -0.6929  0.4830  0.3125
 3649SOL    HW122583   2.897   0.075   3.779 -0.1789  0.3420  0.4118
 3649SOL    HW222584   2.844   0.109   3.657 -0.3113 -1.2610  0.2951
 3650SOL     OW22585   2.940   1.896   4.569  0.3313  0.0038 -0.3731
 3650SOL    HW122586   2.991   1.931   4.496  0.0929 -2.0391 -1.5356
 3650SOL    HW222587   2.857   1.930   4.538 -1.5837 -3.4919  0.8729
 3651SOL     OW22588   0.113   4.502  16.050  0.2125  0.1701  0.0959
 3651SOL    HW122589   0.109   4.575  16.112 -1.3242 -0.2675  0.5085
 3651SOL    HW222590   0.180   4.541  15.994  2.1715 -3.9502 -0.4537
 3652SOL     OW22591   3.964   0.372   1.461  0.7246 -0.7661  0.0030
 3652SOL    HW122592   3.967   0.372   1.366 -0.8942  1.2104 -0.0646
 3652SOL    HW222593   4.041   0.428   1.474  0.9729 -1.6206  2.1708
 3653SOL     OW22594   4.720   3.061   0.632  0.3055  0.3220  0.5095
 3653SOL    HW122595   4.687   3.030   0.716  0.9942  0.5562  0.8627
 3653SOL    HW222596   4.663   3.013   0.572 -2.1346 -1.7549  4.4930
 3654SOL     OW22597   3.191   3.971   1.594 -0.4752  0.3115 -0.3150
 3654SOL    HW122598   3.143   3.990   1.514 -1.8053  0.3897  0.4868
 3654SOL    HW222599   3.250   3.900   1.568  0.0643  0.2039  1.2007
 3655SOL     OW22600   0.834   3.938   1.834 -0.0978 -0.2365  0.5701
 3655SOL    HW122601   0.859   3.891   1.754 -0.9066  3.0685 -1.6385
 3655SOL    HW222602   0.741   3.957   1.820  0.1016 -1.4383 -2.4704
 3656SOL     OW22603   2.466   1.188  11.445  0.8238 -0.1280 -0.3280
 3656SOL    HW122604   2.495   1.262  11.499  1.1008  1.3658 -2.5423
 3656SOL    HW222605   2.544   1.135  11.460  1.4092  1.4056  2.1695
 3657SOL     OW22606   2.418   2.250   8.362 -0.2329 -0.0880 -0.0098
 3657SOL    HW122607   2.354   2.309   8.401 -0.8615 -1.5616  1.1804
 3657SOL    HW222608   2.452   2.315   8.300  3.8276 -0.3780  1.9544
 3658SOL     OW22609   4.465   4.548   5.495 -0.4187  0.3323 -0.1203
 3658SOL    HW122610   4.445   4.480   5.430 -1.7805  0.2456  0.3859
 3658SOL    HW222611   4.530   4.511   5.554 -0.2216 -0.1457 -0.6393
 3659SOL     OW22612   2.395   1.416  15.954  0.4027  0.2140 -0.5983
 3659SOL    HW122613   2.453   1.351  15.992  0.0691  0.5988  0.5661
 3659SOL    HW222614   2.312   1.387  15.991  2.0447 -2.1320  1.1980
 3660SOL     OW22615   0.896   3.033   8.294 -0.4592  0.0431 -0.0413
 3660SOL    HW122616   0.929   2.943   8.286 -0.1570 -0.0081  1.8401
 3660SOL    HW222617   0.924   3.064   8.208 -1.2477 -0.2578 -0.4039
 3661SOL     OW22618   1.157   1.763   9.818  0.4160  0.3251 -0.6387
 3661SOL    HW122619   1.200   1.834   9.770  1.2827 -0.8046 -1.5689
 3661SOL    HW222620   1.223   1.694   9.823  0.2123  0.2910  1.3122
 3662SOL     OW22621   0.184   1.937  17.445 -0.4945 -0.0832  0.4595
 3662SOL    HW122622   0.167   1.857  17.395  2.4372 -1.2462  1.3084
 3662SOL    HW222623   0.190   1.990  17.365  0.1888 -0.2788  0.3804
 3663SOL     OW22624   4.578   2.755  13.877 -0.2293  0.5917 -0.3120
 3663SOL    HW122625   4.503   2.786  13.928  0.7977  2.0082  0.3664
 3663SOL    HW222626   4.606   2.680  13.929 -1.7695  1.0436  1.1595
 3664SOL     OW22627   3.150   2.138   7.038  0.5129 -0.1355  0.3955
 3664SOL    HW122628   3.167   2.232   7.031 -0.2200  0.0756  1.4335
 3664SOL    HW222629   3.167   2.129   7.132  0.4058  0.3162  0.4621
 3665SOL     OW22630   1.516   1.111  12.453 -0.6681 -0.2864  0.3253
 3665SOL    HW122631   1.459   1.182  12.422 -0.2467  0.1349  0.5268
 3665SOL    HW222632   1.454   1.068  12.511 -2.7814  0.4131 -1.4016
 3666SOL     OW22633   3.063   4.068   5.953 -0.1219  0.1715 -0.2053
 3666SOL    HW122634   3.005   4.022   5.892 -0.7121  2.3123 -1.2621
 3666SOL    HW222635   3.003   4.118   6.008 -3.1797 -1.2825 -2.2306
 3667SOL     OW22636   3.149   0.433  14.385  0.8187 -0.0376  0.8851
 3667SOL    HW122637   3.154   0.338  14.398 -0.3085 -0.0504  1.2628
 3667SOL    HW222638   3.084   0.470  14.444  0.8951 -0.6057  1.3167
 3668SOL     OW22639   3.027   1.423   3.026  0.1064  0.0385  0.1271
 3668SOL    HW122640   2.946   1.401   3.073  0.7658  0.7452  1.6151
 3668SOL    HW222641   3.009   1.508   2.986 -0.1601  0.1738  0.5245
 3669SOL     OW22642   4.633   1.062   3.838 -0.4231  0.0293  0.2013
 3669SOL    HW122643   4.675   0.986   3.798 -0.6804  0.9007 -1.7245
 3669SOL    HW222644   4.639   1.120   3.762  1.8949 -0.8421 -0.2797
 3670SOL     OW22645   2.320   4.175   8.144  0.2562  0.1808  0.5907
 3670SOL    HW122646   2.360   4.136   8.222  2.2471  1.2697  0.1250
 3670SOL    HW222647   2.396   4.208   8.096  0.5759 -2.5044 -0.7444
 3671SOL     OW22648   4.310   2.344   1.892  0.4707  0.1739  0.1196
 3671SOL    HW122649   4.392   2.343   1.942  0.0195  4.3060  0.9459
 3671SOL    HW222650   4.265   2.409   1.947 -1.1022 -0.0621 -0.8989
 3672SOL     OW22651   2.682   3.534   8.463  0.5277 -0.1712  0.3892
 3672SOL    HW122652   2.630   3.528   8.383 -0.6265 -1.0901  1.2031
 3672SOL    HW222653   2.654   3.619   8.497  3.5362  0.8085  0.4109
 3673SOL     OW22654   1.851   3.316   5.787  0.1269 -0.2407 -0.0585
 3673SOL    HW122655   1.811   3.323   5.700 -0.5401  0.6549  0.3196
 3673SOL    HW222656   1.790   3.272   5.846  1.1897 -2.2169 -0.4472
 3674SOL     OW22657   0.232   3.379   4.338  0.8093 -0.4757  0.3700
 3674SOL    HW122658   0.308   3.396   4.281  0.3031  0.3234 -0.0562
 3674SOL    HW222659   0.246   3.450   4.400 -2.0717  0.4621 -0.0559
 3675SOL     OW22660   4.078   1.173   4.222  0.4839  0.6313  0.0890
 3675SOL    HW122661   3.994   1.180   4.268  0.3209  2.4972 -0.4771
 3675SOL    HW222662   4.054   1.106   4.158  2.7596  1.4184 -1.6023
 3676SOL     OW22663   0.848   0.381  11.698  0.9048  1.1149  0.3229
 3676SOL    HW122664   0.813   0.337  11.776  0.1042 -1.2174 -1.3388
 3676SOL    HW222665   0.943   0.371  11.705  0.9054 -0.4810 -1.8832
 3677SOL     OW22666   0.528   0.422   7.749 -0.3761  0.2210 -0.9573
 3677SOL    HW122667   0.450   0.413   7.804 -0.5756 -1.2788 -1.4750
 3677SOL    HW222668   0.502   0.498   7.698 -4.0451  0.4398  1.2078
 3678SOL     OW22669   3.061   3.597   1.080  0.2038 -0.2688  0.1655
 3678SOL    HW122670   3.144   3.605   1.032  0.4453  1.6947  0.9202
 3678SOL    HW222671   3.080   3.531   1.146  0.8168 -0.1846  0.0735
 3679SOL     OW22672   2.169   0.640   4.880 -0.2823  0.0433  0.0146
 3679SOL    HW122673   2.144   0.661   4.970  0.4322  1.4017 -0.1007
 3679SOL    HW222674   2.136   0.715   4.830  2.8470  1.0945 -0.4944
 3680SOL     OW22675   0.043   3.234   6.750  0.0449 -0.0343  0.0717
 3680SOL    HW122676   4.693   3.271   6.735 -0.9865 -1.6326  2.1054
 3680SOL    HW222677   0.028   3.141   6.766  0.5093  0.0581  1.0742
 3681SOL     OW22678   0.781   1.516   6.785 -0.0941 -0.0729 -0.2008
 3681SOL    HW122679   0.714   1.584   6.777 -0.0685 -0.2233 -1.7319
 3681SOL    HW222680   0.768   1.487   6.875  0.5077  1.5878  0.4167
 3682SOL     OW22681   0.330   1.986   3.851  0.0158  0.4872 -0.5578
 3682SOL    HW122682   0.300   2.067   3.809 -0.4587  0.2488 -0.6779
 3682SOL    HW222683   0.317   2.008   3.943  0.7440  0.1276 -0.3743
 3683SOL     OW22684   3.722   4.611  13.468  0.1611 -0.0114  0.2602
 3683SOL    HW122685   3.666   4.589  13.393 -1.4784 -0.1201  1.5167
 3683SOL    HW222686   3.657   4.632  13.535  0.1396  1.3744 -0.1792
 3684SOL     OW22687   1.600   1.635   2.230  0.1453  0.1524  0.1329
 3684SOL    HW122688   1.623   1.623   2.322  0.3418  0.5969  0.1440
 3684SOL    HW222689   1.660   1.709   2.215 -0.9904  1.0087 -0.1578
 3685SOL     OW22690   0.204   0.512   5.318  0.6441 -0.7304  0.2547
 3685SOL    HW122691   0.284   0.547   5.278  0.2217 -0.3876 -0.2911
 3685SOL    HW222692   0.134   0.567   5.282  1.9297 -1.2439 -3.0137
 3686SOL     OW22693   3.313   4.333   6.100 -0.0011 -0.7381 -0.0371
 3686SOL    HW122694   3.309   4.265   6.033  0.5201 -1.5657  0.7566
 3686SOL    HW222695   3.237   4.385   6.076  2.0357  0.6849 -3.3453
 3687SOL     OW22696   2.097   1.080  16.806 -0.3327  0.4162 -0.2728
 3687SOL    HW122697   2.192   1.067  16.807  0.0025  2.8458 -0.4591
 3687SOL    HW222698   2.076   1.048  16.893 -0.3465  2.4108  0.4662
 3688SOL     OW22699   0.068   0.050   6.288  0.2279 -0.5963  0.3327
 3688SOL    HW122700   0.136   4.734   6.247 -1.6340 -2.4886 -0.2765
 3688SOL    HW222701   0.119   0.130   6.302 -2.5442  0.9016  1.7946
 3689SOL     OW22702   2.671   1.210   9.537  0.2382  0.0775 -0.6458
 3689SOL    HW122703   2.697   1.302   9.525 -1.1466  0.5867  0.3102
 3689SOL    HW222704   2.577   1.218   9.518 -0.1491 -0.1370  1.2581
 3690SOL     OW22705   1.905   0.548  14.319 -0.6238  0.1827 -0.2880
 3690SOL    HW122706   1.920   0.642  14.314  0.8804 -0.0909 -0.7879
 3690SOL    HW222707   1.864   0.545  14.405 -0.0042 -0.0345 -0.0047
 3691SOL     OW22708   0.814   2.499   8.532  0.2614  0.1750 -0.4732
 3691SOL    HW122709   0.796   2.433   8.599 -0.4456  1.5326  0.6639
 3691SOL    HW222710   0.819   2.451   8.449  2.0029 -0.8911  0.2386
 3692SOL     OW22711   3.354   1.203   3.582 -0.4293 -0.3077 -0.7686
 3692SOL    HW122712   3.385   1.292   3.568 -1.0554 -0.1153 -0.9591
 3692SOL    HW222713   3.388   1.147   3.512  0.5920  0.2178 -0.6850
 3693SOL     OW22714   3.535   3.486  12.936 -0.2841 -0.5969  0.4551
 3693SOL    HW122715   3.627   3.461  12.927  0.0873  1.3028 -1.0920
 3693SOL    HW222716   3.493   3.425  12.875 -0.2654 -0.5737  0.4185
 3694SOL     OW22717   0.164   4.641   8.907 -0.0613  0.2789  0.1753
 3694SOL    HW122718   0.095   4.579   8.932 -0.8439  1.2670  0.4622
 3694SOL    HW222719   0.226   4.584   8.860 -0.1825 -0.0165  0.3698
 3695SOL     OW22720   1.470   2.569   5.780  0.4132 -0.9479  0.1275
 3695SOL    HW122721   1.390   2.618   5.764 -0.8183 -2.1634  2.7192
 3695SOL    HW222722   1.527   2.632   5.734  0.9234 -0.4555  1.4256
 3696SOL     OW22723   0.454   0.712  14.350  0.1312 -0.5833  0.2388
 3696SOL    HW122724   0.370   0.747  14.378 -0.1889 -1.4228  0.3255
 3696SOL    HW222725   0.508   0.738  14.425  0.9636 -0.2373 -0.4785
 3697SOL     OW22726   1.444   3.295  17.148  0.0644 -0.1814  0.2010
 3697SOL    HW122727   1.467   3.387  17.154 -0.5406  0.0440 -0.9041
 3697SOL    HW222728   1.362   3.301  17.099 -0.7518 -0.6383  1.5023
 3698SOL     OW22729   3.452   3.304   2.741 -0.2183 -0.0413 -0.2387
 3698SOL    HW122730   3.534   3.293   2.788 -0.3356 -0.7210 -0.2012
 3698SOL    HW222731   3.390   3.267   2.805 -0.9520  1.9726  0.2413
 3699SOL     OW22732   3.463   1.672   4.810  0.4275  0.2211 -0.6482
 3699SOL    HW122733   3.449   1.582   4.780  0.5492 -0.5231  1.5680
 3699SOL    HW222734   3.394   1.676   4.875 -0.0359  1.1888 -1.1896
 3700SOL     OW22735   0.208   3.666  14.810  0.1502  0.1192  0.1419
 3700SOL    HW122736   0.147   3.694  14.878 -0.1903 -0.3054  0.0116
 3700SOL    HW222737   0.144   3.667  14.739  0.4808 -2.0579 -0.1875
 3701SOL     OW22738   2.901   0.827  15.803  0.0721 -0.6788 -0.1480
 3701SOL    HW122739   2.993   0.853  15.812 -0.3983  0.2442  1.9051
 3701SOL    HW222740   2.885   0.767  15.876 -1.5833 -0.5192 -0.3780
 3702SOL     OW22741   4.424   4.621   6.863  0.3935  0.3071  0.2579
 3702SOL    HW122742   4.446   4.574   6.944  1.8833 -2.2407 -1.6584
 3702SOL    HW222743   4.354   4.558   6.846 -0.1844  0.8997  0.4347
 3703SOL     OW22744   3.092   0.004   6.941 -0.3962  0.4176 -0.6539
 3703SOL    HW122745   3.099   4.684   6.865  0.8995 -2.3856  1.5641
 3703SOL    HW222746   3.058   0.087   6.908 -1.0418  0.0082 -1.0097
 3704SOL     OW22747   1.320   1.696  16.983 -0.3845 -0.7010  0.1989
 3704SOL    HW122748   1.295   1.665  16.896  0.9190 -0.1568 -0.3669
 3704SOL    HW222749   1.391   1.753  16.954  0.2246 -1.2984  0.5205
 3705SOL     OW22750   3.424   3.654   0.361  0.0499  0.0242 -0.2740
 3705SOL    HW122751   3.451   3.743   0.339  2.2596 -0.0095  2.3392
 3705SOL    HW222752   3.408   3.612   0.277  0.0107 -1.1568  0.3276
 3706SOL     OW22753   2.255   2.552   1.370 -0.4040  0.1430 -0.1672
 3706SOL    HW122754   2.213   2.516   1.292  0.5432 -1.7156  0.1792
 3706SOL    HW222755   2.282   2.641   1.347 -0.3738  0.4340  0.9989
 3707SOL     OW22756   3.300   3.786   4.518  0.8960  0.2331  0.2097
 3707SOL    HW122757   3.308   3.867   4.568  2.0746  0.8958 -1.0274
 3707SOL    HW222758   3.387   3.752   4.540  0.7156 -1.0434 -1.0787
 3708SOL     OW22759   2.432   2.140  11.606 -0.3038  0.1481  0.0142
 3708SOL    HW122760   2.523   2.108  11.604 -0.3621 -0.1644  1.7922
 3708SOL    HW222761   2.451   2.217  11.659  0.2523  0.8125 -1.1385
 3709SOL     OW22762   2.103   3.564   8.892  0.0767 -0.2489 -0.2878
 3709SOL    HW122763   2.150   3.640   8.927  1.0472 -1.1763  0.4114
 3709SOL    HW222764   2.076   3.517   8.971 -2.0731  3.2121  1.0631
 3710SOL     OW22765   3.521   3.370  16.615 -0.4235 -0.2754  0.0677
 3710SOL    HW122766   3.616   3.357  16.619 -0.3152  0.0869 -1.1680
 3710SOL    HW222767   3.519   3.456  16.658 -0.8116 -0.5483  0.5930
 3711SOL     OW22768   3.245   0.726   8.748  0.0222  0.3194 -0.1225
 3711SOL    HW122769   3.288   0.787   8.808  2.3323 -1.4950  0.0924
 3711SOL    HW222770   3.288   0.644   8.773 -0.5019  0.6284  1.7730
 3712SOL     OW22771   1.793   3.705   4.629 -0.3276 -0.1126  0.4513
 3712SOL    HW122772   1.705   3.669   4.617 -0.7137 -0.0191  3.0123
 3712SOL    HW222773   1.782   3.783   4.574  1.1686 -0.5064 -0.4108
 3713SOL     OW22774   3.852   0.880   8.763 -0.0774 -0.0675  0.8848
 3713SOL    HW122775   3.789   0.928   8.710  0.0369 -0.2114  0.6155
 3713SOL    HW222776   3.858   0.944   8.834 -1.0474 -0.4722  1.3257
 3714SOL     OW22777   3.306   0.684   6.213 -0.1333  0.1402 -0.3401
 3714SOL    HW122778   3.360   0.746   6.164  0.5131 -0.4544 -0.3805
 3714SOL    HW222779   3.236   0.731   6.259  0.8060 -0.3637  1.6000
 3715SOL     OW22780   1.599   4.635  11.005 -0.0363  0.1334  0.3893
 3715SOL    HW122781   1.601   4.567  11.073  0.3883  1.2863  1.5327
 3715SOL    HW222782   1.675   4.625  10.948 -0.2312  2.1670 -0.2226
 3716SOL     OW22783   2.643   2.160   8.520 -0.0808 -0.1968 -0.1511
 3716SOL    HW122784   2.557   2.199   8.505  0.5946  0.8197 -1.3467
 3716SOL    HW222785   2.633   2.115   8.603 -1.1680  0.0207 -0.1606
 3717SOL     OW22786   0.354   1.200   7.183  0.2336  0.1211 -0.0412
 3717SOL    HW122787   0.310   1.191   7.098  2.3453 -1.0948 -1.0102
 3717SOL    HW222788   0.318   1.285   7.208  0.2959  0.9341 -2.7493
 3718SOL     OW22789   3.740   3.802  16.883 -0.6747  0.4392 -0.1126
 3718SOL    HW122790   3.658   3.851  16.889 -0.3788  0.9310 -0.0772
 3718SOL    HW222791   3.757   3.821  16.975  1.0157  1.5131 -0.6511
 3719SOL     OW22792   2.475   3.410   1.692  0.4805  0.5734 -0.1666
 3719SOL    HW122793   2.389   3.443   1.717 -0.1826 -2.2944  1.2717
 3719SOL    HW222794   2.459   3.318   1.712  1.9833  0.5087  0.7951
 3720SOL     OW22795   2.344   3.263   4.028  0.0598 -0.0197 -0.7793
 3720SOL    HW122796   2.291   3.295   4.101  0.1721 -0.8873 -0.3143
 3720SOL    HW222797   2.283   3.271   3.956 -1.7594 -2.5542  0.4914
 3721SOL     OW22798   4.366   3.359  15.630 -0.4039  0.7690 -0.0375
 3721SOL    HW122799   4.314   3.319  15.560  0.3181  0.8621 -0.6248
 3721SOL    HW222800   4.352   3.299  15.703  0.9190 -0.5532 -0.8733
 3722SOL     OW22801   0.658   2.227   2.003  0.0716 -0.1003  0.0337
 3722SOL    HW122802   0.609   2.161   2.052 -1.4042  1.1247  0.2164
 3722SOL    HW222803   0.585   2.275   1.963  0.9336 -0.3839 -1.8930
 3723SOL     OW22804   0.376   1.332   3.998  0.3137 -0.2392 -0.2270
 3723SOL    HW122805   0.452   1.380   3.965  2.0371 -0.6726  3.1231
 3723SOL    HW222806   0.400   1.240   3.989 -0.9570 -0.8478  2.5130
 3724SOL     OW22807   3.875   0.236  12.991  0.1950  0.6235 -0.2992
 3724SOL    HW122808   3.831   0.246  13.075  1.5172  2.0682  0.2263
 3724SOL    HW222809   3.827   0.301  12.939  0.8343  0.9399 -0.4915
 3725SOL     OW22810   3.551   1.542   1.415  0.0159 -0.5487 -0.0711
 3725SOL    HW122811   3.608   1.590   1.355 -1.1636 -0.0918 -0.8176
 3725SOL    HW222812   3.611   1.470   1.436  1.9930  0.9738 -0.5079
 3726SOL     OW22813   2.928   1.296   4.653  0.2129 -0.0700  0.5849
 3726SOL    HW122814   2.965   1.238   4.586 -0.4152 -0.6320  0.7206
 3726SOL    HW222815   2.844   1.323   4.618  0.9273  0.6438 -0.5622
 3727SOL     OW22816   0.218   2.079   4.797 -0.2504  0.1584 -0.0529
 3727SOL    HW122817   0.292   2.089   4.737 -0.9039  1.0747 -0.6966
 3727SOL    HW222818   0.146   2.133   4.765 -0.4219  0.2539  0.4990
 3728SOL     OW22819   2.176   3.738   3.782 -0.3368 -0.4527  0.2294
 3728SOL    HW122820   2.120   3.676   3.736 -0.1265  0.0133 -0.6563
 3728SOL    HW222821   2.214   3.791   3.712 -0.5161  1.4452  1.5768
 3729SOL     OW22822   0.385   1.432   9.030  0.3916 -0.0377  0.1552
 3729SOL    HW122823   0.408   1.404   9.119 -1.9539 -0.1722  0.7300
 3729SOL    HW222824   0.377   1.526   9.045  0.3572  0.3092 -2.0462
 3730SOL     OW22825   2.326   3.551  13.730 -0.4073  0.7723 -0.1978
 3730SOL    HW122826   2.234   3.573  13.743 -0.2391  2.0492 -1.1747
 3730SOL    HW222827   2.316   3.510  13.645 -1.2496 -0.3296  0.4450
 3731SOL     OW22828   4.613   3.959  10.012  0.1345 -0.0530 -0.1803
 3731SOL    HW122829   4.659   3.888  10.056  0.3646 -0.9271 -1.8528
 3731SOL    HW222830   4.550   3.906   9.963  0.4350  1.0591 -1.7603
 3732SOL     OW22831   0.465   0.614   8.046  0.7079 -0.5744 -0.0047
 3732SOL    HW122832   0.440   0.685   8.105  0.3581 -0.0981 -0.7202
 3732SOL    HW222833   0.457   0.547   8.113 -0.9400 -0.9541 -0.5984
 3733SOL     OW22834   3.300   2.135   8.260 -0.5506  0.5739  0.1909
 3733SOL    HW122835   3.345   2.067   8.311  0.9349  1.8491  0.5967
 3733SOL    HW222836   3.361   2.164   8.192  0.2030  0.9038  1.0103
 3734SOL     OW22837   0.215   0.972   4.495 -0.2436  0.2675  0.0040
 3734SOL    HW122838   0.191   1.010   4.580  0.1492  1.6318 -0.4963
 3734SOL    HW222839   0.129   0.939   4.468  0.6142 -0.5979 -1.6542
 3735SOL     OW22840   4.091   4.707  14.004  0.4514  0.1698 -0.4551
 3735SOL    HW122841   4.156   4.644  14.035 -1.7691 -1.5037  0.8040
 3735SOL    HW222842   4.108   4.724  13.912 -1.6667  0.2119 -0.8374
 3736SOL     OW22843   4.330   2.263   2.335  0.3073 -0.2943 -0.1670
 3736SOL    HW122844   4.305   2.203   2.405 -2.3709  1.0177 -0.0292
 3736SOL    HW222845   4.260   2.327   2.345  1.0617  0.7872 -1.7874
 3737SOL     OW22846   2.804   1.186   5.714  0.0773 -0.5392  0.4556
 3737SOL    HW122847   2.721   1.148   5.741  0.1033 -1.9003 -1.3626
 3737SOL    HW222848   2.815   1.231   5.798 -0.1384  2.4936 -1.1474
 3738SOL     OW22849   0.527   3.200   8.405 -0.1843 -0.5042 -0.5785
 3738SOL    HW122850   0.527   3.273   8.343  0.3792 -1.0204 -1.1777
 3738SOL    HW222851   0.493   3.130   8.348  0.5346 -1.2824 -0.0452
 3739SOL     OW22852   0.655   2.376  12.581  0.7514  0.7181  0.4912
 3739SOL    HW122853   0.696   2.302  12.535  0.7395  0.3044  1.1513
 3739SOL    HW222854   0.655   2.337  12.669  0.8984 -1.8893 -0.6492
 3740SOL     OW22855   2.081   1.520   2.791 -0.3451  0.2709  0.0812
 3740SOL    HW122856   2.021   1.460   2.747  0.1805  0.1832 -0.5198
 3740SOL    HW222857   2.024   1.545   2.863  0.4657 -0.9879  1.1586
 3741SOL     OW22858   3.784   0.163  10.801  0.2524 -0.4930 -0.0693
 3741SOL    HW122859   3.870   0.204  10.815  0.3316 -0.0080 -1.9653
 3741SOL    HW222860   3.722   0.226  10.837 -1.1233 -0.5401 -2.4017
 3742SOL     OW22861   3.991   4.473   2.353  0.4303 -0.0235  0.2398
 3742SOL    HW122862   4.001   4.474   2.448 -1.8710 -1.4067  0.5230
 3742SOL    HW222863   3.898   4.494   2.343  0.7909  1.0763 -0.7164
 3743SOL     OW22864   2.291   0.122   8.559 -0.3112  1.1025 -0.2197
 3743SOL    HW122865   2.362   0.064   8.532  0.5814  1.8092  0.5795
 3743SOL    HW222866   2.216   0.067   8.538  0.5249 -0.0448 -0.1824
 3744SOL     OW22867   3.487   3.012   4.244 -0.3563  0.3466 -0.4709
 3744SOL    HW122868   3.502   3.056   4.327  1.8719 -0.8724 -0.2322
 3744SOL    HW222869   3.412   2.953   4.254  1.0067 -1.1945  0.5461
 3745SOL     OW22870   2.770   4.359  13.779 -0.2258  0.1163 -0.2485
 3745SOL    HW122871   2.851   4.393  13.741  0.8424 -1.5557  0.5048
 3745SOL    HW222872   2.800   4.277  13.818  0.9916  1.3781  1.4433
 3746SOL     OW22873   0.879   1.924  12.587 -0.1599 -0.2595  0.4314
 3746SOL    HW122874   0.868   1.885  12.500 -1.2600 -2.1556  1.4095
 3746SOL    HW222875   0.837   1.854  12.638  0.1034  1.1829  2.6311
 3747SOL     OW22876   0.322   0.040   4.544 -0.4002  0.2519 -0.1219
 3747SOL    HW122877   0.270   0.070   4.619 -1.4470  0.3084 -0.8649
 3747SOL    HW222878   0.410   0.050   4.580 -0.8169  3.8924 -0.1163
 3748SOL     OW22879   2.554   0.863   7.876  0.1089 -0.2662 -0.5434
 3748SOL    HW122880   2.600   0.943   7.850  0.7416 -0.4442  0.0121
 3748SOL    HW222881   2.567   0.869   7.971  0.1809  2.4374 -0.7306
 3749SOL     OW22882   4.260   1.830  17.617  0.2968  0.9211  0.0150
 3749SOL    HW122883   4.349   1.822  17.582  1.1641 -0.3226  2.4987
 3749SOL    HW222884   4.212   1.761  17.572 -0.8830 -0.4378  3.3871
 3750SOL     OW22885   1.721   1.056   5.331  0.1654  0.2631  0.2615
 3750SOL    HW122886   1.660   1.031   5.400  0.3694 -2.0550 -0.3889
 3750SOL    HW222887   1.766   1.130   5.371  0.0053  0.1106  0.7254
 3751SOL     OW22888   2.327   4.365   3.105  0.1854  0.5278  0.3163
 3751SOL    HW122889   2.239   4.327   3.115  0.2211  0.4086  0.1659
 3751SOL    HW222890   2.346   4.342   3.015  0.7029  0.2802  0.4922
 3752SOL     OW22891   3.951   1.662   6.753 -0.2547  0.2914 -0.1079
 3752SOL    HW122892   3.942   1.648   6.847  0.3617 -3.7857 -0.6634
 3752SOL    HW222893   3.869   1.621   6.726  0.6315 -1.7518  0.2851
 3753SOL     OW22894   3.977   3.880  13.869  0.3483 -0.3056 -0.0440
 3753SOL    HW122895   3.890   3.920  13.868 -1.2851 -3.7919  1.9814
 3753SOL    HW222896   4.013   3.899  13.956  1.1991  1.4341 -0.7887
 3754SOL     OW22897   4.551   1.739   0.186  0.8524 -0.0750  0.4203
 3754SOL    HW122898   4.495   1.766   0.260 -2.2256 -1.6423 -1.3201
 3754SOL    HW222899   4.566   1.815   0.129 -1.7446  1.1169  1.3150
 3755SOL     OW22900   1.629   4.419   2.828 -0.5867  0.0128 -0.3164
 3755SOL    HW122901   1.618   4.500   2.878 -1.1975  0.1343 -0.6396
 3755SOL    HW222902   1.654   4.449   2.741  0.1098  1.1979  0.3067
 3756SOL     OW22903   3.669   2.540   2.601 -0.5384  0.2731  0.7669
 3756SOL    HW122904   3.596   2.479   2.611  0.3309 -1.1410 -1.3227
 3756SOL    HW222905   3.735   2.495   2.655  1.2861  2.3880  0.3010
 3757SOL     OW22906   4.518   1.288   8.290  0.5394  0.1435 -0.2536
 3757SOL    HW122907   4.528   1.285   8.194  4.2570  0.9037  0.0941
 3757SOL    HW222908   4.480   1.204   8.313 -1.0300  0.8425 -0.3315
 3758SOL     OW22909   0.624   2.094   2.260 -0.1007 -0.2368  0.5471
 3758SOL    HW122910   0.565   2.120   2.331 -2.3099 -0.1029 -1.3455
 3758SOL    HW222911   0.584   2.010   2.236  0.2985 -0.4589  0.6670
 3759SOL     OW22912   3.836   1.676   7.652 -0.6581 -0.4359  0.5462
 3759SOL    HW122913   3.847   1.583   7.675  0.5428 -0.1561  1.0773
 3759SOL    HW222914   3.781   1.673   7.573 -0.4798  0.0900  0.4037
 3760SOL     OW22915   1.570   3.283   7.855 -0.1883 -0.3739  0.3102
 3760SOL    HW122916   1.490   3.296   7.906  0.4140 -1.0840  1.4390
 3760SOL    HW222917   1.638   3.271   7.921  1.3236 -1.3375 -1.4213
 3761SOL     OW22918   3.832   0.867   1.271 -0.1634 -0.4444  0.6654
 3761SOL    HW122919   3.894   0.939   1.258 -0.9157 -0.2111 -1.5589
 3761SOL    HW222920   3.873   0.809   1.335  0.2719  0.3890  1.1563
 3762SOL     OW22921   1.620   0.713   5.777  0.4897  0.3691 -0.6256
 3762SOL    HW122922   1.611   0.650   5.705  1.7805 -0.1644 -0.3262
 3762SOL    HW222923   1.712   0.718   5.806  0.6803 -0.3163 -1.1195
 3763SOL     OW22924   3.243   1.737  11.600  0.7120 -0.0101  0.3162
 3763SOL    HW122925   3.154   1.771  11.592  1.1367  0.7120 -1.2885
 3763SOL    HW222926   3.263   1.714  11.509  1.7494  2.0496  0.0350
 3764SOL     OW22927   1.972   4.591   6.169  0.5447  0.1557 -0.2722
 3764SOL    HW122928   2.042   4.639   6.125 -1.2615  0.7489 -2.5091
 3764SOL    HW222929   1.963   4.516   6.110 -3.0404 -2.2254  3.2303
 3765SOL     OW22930   4.166   0.406   3.799  0.0927 -0.0750  0.3124
 3765SOL    HW122931   4.153   0.313   3.780  0.8603  0.3601 -2.2540
 3765SOL    HW222932   4.134   0.418   3.889  1.3100 -0.5347  0.8101
 3766SOL     OW22933   1.795   0.949  12.985  0.1783  0.4151 -0.5127
 3766SOL    HW122934   1.876   0.958  13.034 -0.7920  1.3146  0.9390
 3766SOL    HW222935   1.794   1.033  12.939  0.8587  0.7410  0.0699
 3767SOL     OW22936   3.862   1.046  13.641  0.0410  0.0095 -0.0134
 3767SOL    HW122937   3.844   0.969  13.694 -2.9072  0.7603  0.0605
 3767SOL    HW222938   3.948   1.023  13.605 -0.3769 -1.8431  0.2050
 3768SOL     OW22939   0.917   3.065  13.284 -0.1571  0.7882  0.1712
 3768SOL    HW122940   0.978   3.033  13.217 -0.8893 -2.1321  0.8996
 3768SOL    HW222941   0.971   3.127  13.333  0.0258  0.3687  0.4973
 3769SOL     OW22942   3.984   2.224   3.765  1.2265 -0.6276  0.1068
 3769SOL    HW122943   3.946   2.306   3.734 -2.4177 -2.3406  0.0463
 3769SOL    HW222944   4.079   2.239   3.767  1.4111 -1.8057  1.2541
 3770SOL     OW22945   0.598   0.958   8.651 -0.2066 -0.6154 -0.3046
 3770SOL    HW122946   0.656   0.995   8.584  1.9919 -1.1095  1.3100
 3770SOL    HW222947   0.538   1.031   8.667 -0.4271 -0.9834  0.5604
 3771SOL     OW22948   2.927   4.252   1.658 -0.7392 -0.1518 -0.4263
 3771SOL    HW122949   2.838   4.247   1.622 -1.5046  1.5843  1.2432
 3771SOL    HW222950   2.952   4.309   1.585 -0.1409 -0.7235 -0.6683
 3772SOL     OW22951   3.552   0.907   0.654  0.0694 -0.0051  0.0975
 3772SOL    HW122952   3.550   0.938   0.745  1.7797 -1.3636  0.5910
 3772SOL    HW222953   3.546   0.983   0.597  0.3211 -0.5150 -0.6059
 3773SOL     OW22954   4.051   1.140  17.709  0.1111 -0.9538  0.2012
 3773SOL    HW122955   4.063   1.087   0.042 -0.5916  0.0129  0.9496
 3773SOL    HW222956   4.058   1.069  17.646  1.6694 -3.1505  2.8336
 3774SOL     OW22957   4.318   3.288  14.748 -0.5449  0.3007 -0.5167
 3774SOL    HW122958   4.312   3.382  14.761 -0.7722  0.3291 -0.8316
 3774SOL    HW222959   4.390   3.277  14.686 -1.8985 -0.2794 -1.9761
 3775SOL     OW22960   2.433   1.068   0.881 -0.2473 -0.2304 -0.4959
 3775SOL    HW122961   2.397   1.140   0.830 -3.7471 -1.7549 -0.1344
 3775SOL    HW222962   2.359   1.027   0.925  0.9614 -1.3250  0.5025
 3776SOL     OW22963   1.909   1.053   9.356 -0.4712 -0.0924 -0.7784
 3776SOL    HW122964   1.857   0.999   9.295 -2.4225  0.7646  0.1387
 3776SOL    HW222965   1.877   1.139   9.330  0.4083  0.4578 -0.0028
 3777SOL     OW22966   1.619   4.135   4.308 -0.3396 -0.3630 -0.0609
 3777SOL    HW122967   1.574   4.160   4.388 -0.4435  1.7676 -0.7938
 3777SOL    HW222968   1.651   4.049   4.336 -0.1337 -0.7472 -1.4368
 3778SOL     OW22969   1.829   0.743  13.197 -0.0840 -0.8446  0.3793
 3778SOL    HW122970   1.783   0.802  13.258  1.3495 -1.0378  1.6590
 3778SOL    HW222971   1.818   0.792  13.116  0.6660  1.5936  1.7671
 3779SOL     OW22972   2.545   2.578   4.760  0.4580  0.1171 -0.0159
 3779SOL    HW122973   2.493   2.631   4.821 -1.3835 -0.2758 -1.2536
 3779SOL    HW222974   2.489   2.505   4.736 -0.1993  0.9959 -1.1446
 3780SOL     OW22975   3.128   0.354   3.092  0.2824  0.1245 -0.6246
 3780SOL    HW122976   3.208   0.337   3.141  0.4099 -1.9223 -1.5391
 3780SOL    HW222977   3.159   0.350   3.001  0.8238 -1.0842 -0.3963
 3781SOL     OW22978   4.445   0.511  13.344  0.3338 -0.5538 -0.0968
 3781SOL    HW122979   4.536   0.528  13.368 -0.3806  0.7480  1.6761
 3781SOL    HW222980   4.462   0.455  13.268 -2.8300 -0.5429 -0.8079
 3782SOL     OW22981   2.529   4.465   0.732  0.1799  0.7355  0.2431
 3782SOL    HW122982   2.612   4.488   0.773 -0.0210  1.6157  0.1492
 3782SOL    HW222983   2.510   4.539   0.674  0.2963  1.4838  1.1703
 3783SOL     OW22984   3.924   4.322   3.845  0.4258  0.2847 -0.1157
 3783SOL    HW122985   3.858   4.296   3.909 -0.5692  2.4745 -0.2670
 3783SOL    HW222986   3.992   4.255   3.857  0.9032  0.6563 -0.7167
 3784SOL     OW22987   2.251   1.536   3.245 -0.0030  0.4888 -0.0034
 3784SOL    HW122988   2.186   1.577   3.188  0.4426 -0.0406 -0.9032
 3784SOL    HW222989   2.245   1.443   3.222 -1.2842  0.9571 -1.5559
 3785SOL     OW22990   1.885   3.889   3.178 -0.1441  0.1664  0.1553
 3785SOL    HW122991   1.807   3.926   3.135  0.1296  0.6233  0.0474
 3785SOL    HW222992   1.853   3.799   3.185 -0.2663  0.3071  1.3280
 3786SOL     OW22993   2.359   3.735  10.625  0.1036 -0.0652  0.2281
 3786SOL    HW122994   2.347   3.640  10.626  0.6502 -0.1525 -1.1177
 3786SOL    HW222995   2.268   3.756  10.643  0.7396  1.7407  1.3640
 3787SOL     OW22996   3.507   1.045   2.372 -0.4537  0.1154 -0.0626
 3787SOL    HW122997   3.595   1.081   2.384 -0.9166  0.9172  0.9730
 3787SOL    HW222998   3.465   1.067   2.455  0.9781 -0.5751  0.8384
 3788SOL     OW22999   1.590   2.804   8.800  0.1769 -0.1269 -0.2113
 3788SOL    HW123000   1.612   2.760   8.882 -2.4151  2.5598  1.9531
 3788SOL    HW223001   1.504   2.765   8.783  0.0041  0.1318  0.0594
 3789SOL     OW23002   0.097   3.478  12.399  0.3016 -0.3824 -0.0446
 3789SOL    HW123003   0.149   3.402  12.374 -1.4340 -1.8132  0.7732
 3789SOL    HW223004   0.172   3.533  12.422  1.4531 -3.0523  2.5126
 3790SOL     OW23005   0.820   1.946   6.031 -0.1316 -0.2576  0.2280
 3790SOL    HW123006   0.740   1.965   5.981  0.6328  0.6867 -0.6256
 3790SOL    HW223007   0.805   1.986   6.117 -3.0943 -2.6452  0.8416
 3791SOL     OW23008   1.545   1.850   7.366  0.1179  0.2015 -0.0761
 3791SOL    HW123009   1.551   1.761   7.400 -0.8909  0.4179  0.6633
 3791SOL    HW223010   1.508   1.828   7.280  1.2142 -1.9099 -0.0152
 3792SOL     OW23011   4.368   1.898   7.419  0.2916  0.3363 -0.3078
 3792SOL    HW123012   4.273   1.902   7.408 -0.2324 -2.7520  3.2146
 3792SOL    HW223013   4.391   1.990   7.406 -1.2221  0.7998  0.3731
 3793SOL     OW23014   0.128   4.129   7.347  0.2405 -0.2813 -0.1043
 3793SOL    HW123015   0.141   4.034   7.352 -1.5021 -0.6725 -2.5530
 3793SOL    HW223016   0.091   4.132   7.259 -1.2775  1.6562  0.5991
 3794SOL     OW23017   0.929   0.389   8.796  0.3455 -0.0449 -0.0578
 3794SOL    HW123018   0.887   0.360   8.877  4.0529 -0.4577  1.7361
 3794SOL    HW223019   0.902   0.481   8.797 -1.2219 -0.5372  1.7999
 3795SOL     OW23020   3.384   4.723  11.317  0.0659 -0.5129 -0.2454
 3795SOL    HW123021   3.335   4.657  11.366 -2.0900 -0.4605 -2.3338
 3795SOL    HW223022   3.447   0.012  11.384  1.6409 -0.7976 -1.5906
 3796SOL     OW23023   3.174   1.741   5.515 -0.2927  0.2745 -0.2128
 3796SOL    HW123024   3.099   1.778   5.561  0.0088 -0.1675  0.6282
 3796SOL    HW223025   3.132   1.738   5.429 -1.3635 -1.1280  0.3706
 3797SOL     OW23026   4.146   0.708   2.085  0.3550  0.2519 -0.8111
 3797SOL    HW123027   4.204   0.705   2.009 -1.0977 -0.4788 -1.8755
 3797SOL    HW223028   4.126   0.615   2.091  0.8633  0.2078  0.1915
 3798SOL     OW23029   3.904   0.281   3.607 -0.3605 -0.0396  0.3065
 3798SOL    HW123030   3.837   0.216   3.627  1.1817 -1.4293  0.9808
 3798SOL    HW223031   3.976   0.242   3.657 -0.3217 -1.6116 -0.9976
 3799SOL     OW23032   4.695   2.056   6.629  0.0019  0.3078 -0.3431
 3799SOL    HW123033   4.614   2.101   6.653 -1.5340 -2.3418 -0.6352
 3799SOL    HW223034   4.682   1.971   6.671 -1.4709  0.8725  0.3478
 3800SOL     OW23035   2.101   0.794   6.753 -0.4088  0.8097 -0.0244
 3800SOL    HW123036   2.185   0.837   6.766 -1.3940  2.6016  0.3488
 3800SOL    HW223037   2.130   0.702   6.750 -0.3247  0.9437 -2.8470
 3801SOL     OW23038   1.053   3.663  12.957  0.0461 -0.7471  0.5775
 3801SOL    HW123039   1.142   3.631  12.970 -0.2080 -1.9118 -0.4424
 3801SOL    HW223040   1.066   3.746  13.002  0.3154  0.8684 -2.4683
 3802SOL     OW23041   1.993   3.670   5.033 -0.4503 -0.3237 -0.3243
 3802SOL    HW123042   2.071   3.725   5.035  0.1400 -1.0308 -2.8755
 3802SOL    HW223043   1.990   3.648   5.126  1.3570  1.5607  0.1567
 3803SOL     OW23044   0.110   4.209   7.054  0.5231  0.3561 -0.0853
 3803SOL    HW123045   0.037   4.178   7.001 -0.8481 -0.5144  2.3249
 3803SOL    HW223046   0.104   4.303   7.036 -0.2426  0.1144 -1.0847
 3804SOL     OW23047   4.147   3.952  17.292 -0.0604  0.1476 -0.0528
 3804SOL    HW123048   4.078   3.909  17.343  1.1292 -2.2171 -0.4277
 3804SOL    HW223049   4.223   3.931  17.346  0.3581 -0.9430 -1.0598
 3805SOL     OW23050   3.274   2.868   2.699  0.2418  0.2247  0.1243
 3805SOL    HW123051   3.367   2.849   2.710  0.8806  1.9787 -2.2040
 3805SOL    HW223052   3.285   2.958   2.670  2.0935  0.5083  1.7495
 3806SOL     OW23053   0.438   3.831   1.894  0.1794 -0.5735 -0.3659
 3806SOL    HW123054   0.459   3.827   1.800  1.8568  0.1536 -0.0250
 3806SOL    HW223055   0.377   3.904   1.884  2.1159  1.0882  0.0960
 3807SOL     OW23056   0.336   4.576   4.352  0.0726  0.5142 -0.2218
 3807SOL    HW123057   0.301   4.640   4.414  1.0209  0.4676  0.3655
 3807SOL    HW223058   0.414   4.537   4.391  1.0585  2.2500 -0.4646
 3808SOL     OW23059   2.529   3.110   5.562  0.3949  0.4525  0.0361
 3808SOL    HW123060   2.451   3.061   5.537  0.5043 -0.8116  2.1321
 3808SOL    HW223061   2.598   3.056   5.522 -1.0854 -0.2283 -1.5739
 3809SOL     OW23062   0.690   1.774   2.390 -0.3973  0.1469 -0.3577
 3809SOL    HW123063   0.646   1.829   2.325  0.9081  1.6587  0.0357
 3809SOL    HW223064   0.717   1.699   2.338  0.7216 -0.5045  1.1839
 3810SOL     OW23065   2.408   3.728  12.183  0.5163 -0.2410  0.4090
 3810SOL    HW123066   2.501   3.710  12.171  0.4629 -0.5191  0.4014
 3810SOL    HW223067   2.393   3.671  12.258 -1.5481  0.6613  0.6815
 3811SOL     OW23068   1.338   2.142   4.900  0.0996  0.2799  0.2408
 3811SOL    HW123069   1.278   2.096   4.957 -2.8585  2.6479 -0.9687
 3811SOL    HW223070   1.285   2.206   4.852 -0.1491  0.1147  0.2999
 3812SOL     OW23071   1.054   2.624   8.639  0.3072  0.0687  0.1428
 3812SOL    HW123072   1.129   2.639   8.581 -0.8183  0.9360 -1.1036
 3812SOL    HW223073   0.988   2.575   8.590 -0.4288  1.3646 -0.1577
 3813SOL     OW23074   2.879   2.362   0.892 -0.5884 -0.8393 -0.4423
 3813SOL    HW123075   2.785   2.353   0.877 -0.8445 -1.5777  1.5574
 3813SOL    HW223076   2.888   2.444   0.942 -0.5531 -0.3756 -1.2130
 3814SOL     OW23077   2.686   1.838   2.865  0.3646 -0.0388 -0.2440
 3814SOL    HW123078   2.613   1.885   2.826  0.1655 -2.7458 -3.1196
 3814SOL    HW223079   2.678   1.881   2.951  0.8734  0.8585 -0.6516
 3815SOL     OW23080   4.489   3.337   2.906  0.0077  0.0062 -0.2239
 3815SOL    HW123081   4.521   3.323   2.817 -1.0423 -3.0268 -0.1100
 3815SOL    HW223082   4.539   3.273   2.956  2.7269  1.8155 -0.5730
 3816SOL     OW23083   0.286   3.336   2.960 -0.1424 -0.1064  0.1779
 3816SOL    HW123084   0.252   3.340   2.871  0.8404  1.4221 -0.1305
 3816SOL    HW223085   0.262   3.246   2.982 -1.3734  0.6130  1.7848
 3817SOL     OW23086   2.940   3.915   9.089 -0.5670  0.3753 -0.3819
 3817SOL    HW123087   2.884   3.989   9.068  0.0162  0.7847 -0.4786
 3817SOL    HW223088   2.898   3.869   9.162  0.6452 -1.0193 -0.5495
 3818SOL     OW23089   3.512   2.772   2.742  0.1179 -0.6873  0.2048
 3818SOL    HW123090   3.540   2.710   2.675 -0.1493 -2.0820  1.3885
 3818SOL    HW223091   3.593   2.820   2.760 -0.0202 -0.3399 -0.0895
 3819SOL     OW23092   3.116   2.776   7.538 -0.3129 -0.3574  0.0419
 3819SOL    HW123093   3.071   2.785   7.454  1.8479  0.7773 -0.9758
 3819SOL    HW223094   3.206   2.758   7.512 -0.3918  0.1436 -0.5781
 3820SOL     OW23095   1.154   1.573  12.223  0.0968  0.1562 -0.5311
 3820SOL    HW123096   1.105   1.527  12.291 -0.1666  2.0560  0.5658
 3820SOL    HW223097   1.214   1.633  12.266 -1.1115  0.1317  1.1579
 3821SOL     OW23098   4.483   1.642  10.151  0.2685  0.1791 -1.0304
 3821SOL    HW123099   4.420   1.651  10.080  0.0588 -1.1217 -1.0054
 3821SOL    HW223100   4.532   1.561  10.135  0.3993  0.0642 -0.0204
 3822SOL     OW23101   1.797   0.887  17.061 -0.2170  0.0896  0.0485
 3822SOL    HW123102   1.850   0.962  17.088 -0.3372 -0.2919  1.3287
 3822SOL    HW223103   1.849   0.852  16.989 -0.1264  0.5878 -0.1318
 3823SOL     OW23104   2.488   1.004   0.034  0.4807  0.3437  0.5109
 3823SOL    HW123105   2.412   1.056   0.062  0.7676  1.7279 -1.2847
 3823SOL    HW223106   2.565   1.060   0.026  0.7602 -0.0629  0.3825
 3824SOL     OW23107   3.558   3.235   2.264 -0.0554 -0.2433  0.0746
 3824SOL    HW123108   3.536   3.284   2.344 -1.4200  1.8112 -1.5557
 3824SOL    HW223109   3.555   3.143   2.291 -1.2286 -0.5123 -0.9721
 3825SOL     OW23110   3.960   4.421   0.148  0.0241 -0.1507  0.2068
 3825SOL    HW123111   3.993   4.507   0.122  1.6615 -1.0647 -0.7533
 3825SOL    HW223112   3.877   4.424   0.102  0.1030  0.8495  0.1285
 3826SOL     OW23113   0.753   4.622   7.412  0.5669 -0.3033 -0.1903
 3826SOL    HW123114   0.844   4.634   7.383  1.2711 -3.0455  0.8023
 3826SOL    HW223115   0.755   4.554   7.480  1.1798 -1.8918 -1.7753
 3827SOL     OW23116   0.232   3.298  12.246  0.3269 -0.4851  0.3059
 3827SOL    HW123117   0.207   3.284  12.155 -1.3561  1.2442  0.4922
 3827SOL    HW223118   0.327   3.304  12.236  0.0873  0.9977 -1.2210
 3828SOL     OW23119   2.525   4.619   4.733 -0.5228 -0.0832  0.3800
 3828SOL    HW123120   2.501   4.552   4.669 -0.1002  1.4008 -1.3196
 3828SOL    HW223121   2.610   4.589   4.766 -0.2502 -0.3973 -0.6171
 3829SOL     OW23122   2.755   1.682   9.286 -0.6277  0.4161  0.3665
 3829SOL    HW123123   2.705   1.719   9.213  1.4178 -1.2369 -1.8597
 3829SOL    HW223124   2.844   1.682   9.250 -1.5601  0.5632 -1.9036
 3830SOL     OW23125   4.402   0.033  10.868 -0.0373 -0.1064 -0.4060
 3830SOL    HW123126   4.321   0.084  10.874  0.9030  1.4371 -0.7344
 3830SOL    HW223127   4.415   0.037  10.773 -0.9890  2.1929 -0.4505
 3831SOL     OW23128   2.592   4.120   6.934  0.1503 -0.3034 -0.6330
 3831SOL    HW123129   2.521   4.076   6.980 -0.7935  0.6636 -1.1861
 3831SOL    HW223130   2.552   4.188   6.881 -0.6310 -1.3392 -1.3606
 3832SOL     OW23131   4.671   0.630   7.568 -0.2276 -0.7856 -0.7513
 3832SOL    HW123132   4.659   0.561   7.633 -1.9556 -0.2435 -0.4783
 3832SOL    HW223133   0.027   0.625   7.548 -0.6751  0.8749 -3.2781
 3833SOL     OW23134   2.577   3.435   4.903  0.6966 -0.0987  0.1693
 3833SOL    HW123135   2.612   3.480   4.826  0.5512 -1.7261 -0.8491
 3833SOL    HW223136   2.504   3.490   4.929 -0.6398 -0.8586 -1.9930
 3834SOL     OW23137   0.837   0.691   9.043 -0.3355  0.0936 -0.0350
 3834SOL    HW123138   0.837   0.695   8.947 -1.1924 -0.1195 -0.0385
 3834SOL    HW223139   0.915   0.640   9.063  0.8215  1.2226 -1.6451
 3835SOL     OW23140   2.335   2.739   6.861  0.2255  0.4516  0.5964
 3835SOL    HW123141   2.312   2.684   6.787  2.6007 -0.2185  0.3356
 3835SOL    HW223142   2.326   2.682   6.937 -2.1142  1.9797  1.4652
 3836SOL     OW23143   2.723   0.612   3.120 -0.0447 -0.3675 -0.1354
 3836SOL    HW123144   2.768   0.612   3.036 -1.7966 -0.3609 -1.0863
 3836SOL    HW223145   2.690   0.700   3.141 -0.8082 -0.9955  1.2668
 3837SOL     OW23146   4.654   0.833  15.684  0.3088  0.3016 -0.2715
 3837SOL    HW123147   4.685   0.749  15.652 -0.9740  0.0713 -0.8902
 3837SOL    HW223148   4.702   0.888  15.622  3.4476  0.2677  2.1372
 3838SOL     OW23149   1.010   1.608   5.516  0.0073 -0.2478  0.0364
 3838SOL    HW123150   1.070   1.675   5.550  1.5231 -1.3818 -0.4132
 3838SOL    HW223151   1.040   1.585   5.428 -0.3963  1.0341 -0.4459
 3839SOL     OW23152   0.416   1.257  14.721 -0.2663 -1.0686  0.0207
 3839SOL    HW123153   0.381   1.169  14.735 -0.4816 -1.3055 -2.0370
 3839SOL    HW223154   0.504   1.242  14.756  0.6606 -0.3934 -2.0102
 3840SOL     OW23155   1.643   1.586  11.823 -0.2293  0.0404 -0.7871
 3840SOL    HW123156   1.589   1.545  11.756 -0.1773 -0.8199 -0.3010
 3840SOL    HW223157   1.677   1.655  11.766 -1.3064  0.4261 -0.9596
 3841SOL     OW23158   2.722   1.385   3.496 -0.2611 -0.3242 -0.2128
 3841SOL    HW123159   2.714   1.447   3.568 -1.5948  2.1616 -2.5176
 3841SOL    HW223160   2.806   1.413   3.460  0.0440 -1.4245 -0.3665
 3842SOL     OW23161   1.581   1.346  12.104 -0.9057  0.4137 -0.3286
 3842SOL    HW123162   1.650   1.315  12.045 -1.4396 -0.0292 -0.7209
 3842SOL    HW223163   1.604   1.435  12.131  0.3067  0.3654 -1.2081
 3843SOL     OW23164   1.912   0.987  15.326 -0.1252  0.2086  0.4125
 3843SOL    HW123165   1.866   0.998  15.242  0.3010 -0.2759  0.1159
 3843SOL    HW223166   2.000   1.011  15.299  0.3445 -1.6108  0.3389
 3844SOL     OW23167   0.151   1.476   4.128  0.0345  0.7348 -0.6183
 3844SOL    HW123168   0.213   1.427   4.074 -1.1600 -0.3029 -1.0649
 3844SOL    HW223169   0.193   1.559   4.151 -0.5901  0.8181  0.2041
 3845SOL     OW23170   4.207   2.491   2.321 -0.5825  0.2883  0.0733
 3845SOL    HW123171   4.150   2.545   2.376 -2.0815 -2.7469  1.4731
 3845SOL    HW223172   4.297   2.511   2.345 -0.9274  1.7847  0.1230
 3846SOL     OW23173   1.885   0.627  17.511 -0.1427 -0.1499  0.3733
 3846SOL    HW123174   1.889   0.604  17.419 -0.2696  1.3841 -0.0227
 3846SOL    HW223175   1.979   0.634  17.531 -0.0727 -1.3692  0.4881
 3847SOL     OW23176   2.245   0.566   5.773 -0.5573 -0.2905  0.3462
 3847SOL    HW123177   2.166   0.615   5.749  0.6306  0.7881 -1.3608
 3847SOL    HW223178   2.218   0.483   5.813 -1.3950 -0.1267  0.1204
 3848SOL     OW23179   2.497   1.147  15.586 -0.2718 -0.0183 -0.2361
 3848SOL    HW123180   2.481   1.234  15.622  1.5491 -0.1287  0.8141
 3848SOL    HW223181   2.567   1.153  15.521  0.2380 -1.2142  0.2023
 3849SOL     OW23182   4.416   0.969  13.536  0.0150 -0.1733 -0.3276
 3849SOL    HW123183   4.440   1.044  13.482  1.5909  0.7990  1.7196
 3849SOL    HW223184   4.320   0.962  13.533 -0.1065  0.2539  2.1727
 3850SOL     OW23185   4.351   0.314   9.050  0.2389  0.1109 -0.4505
 3850SOL    HW123186   4.289   0.385   9.033  1.7608  1.4882 -0.2905
 3850SOL    HW223187   4.293   0.250   9.090  0.6024 -0.6846 -1.2114
 3851SOL     OW23188   1.532   3.780   8.587 -0.6735 -0.2872 -0.4916
 3851SOL    HW123189   1.468   3.802   8.655  0.3182  0.4393  0.2105
 3851SOL    HW223190   1.596   3.851   8.589 -1.1506  0.1186  0.6772
 3852SOL     OW23191   3.522   1.152   1.920 -0.3074 -0.2294  0.0308
 3852SOL    HW123192   3.570   1.219   1.970  0.8705 -1.8411  1.0645
 3852SOL    HW223193   3.529   1.077   1.979  2.5746  2.0500  2.5810
 3853SOL     OW23194   3.356   1.697   4.477  0.6832 -0.2013 -0.4109
 3853SOL    HW123195   3.446   1.664   4.474  1.1960  1.0025  1.2308
 3853SOL    HW223196   3.316   1.647   4.548  3.4252 -2.2181 -0.2918
 3854SOL     OW23197   0.067   3.612   5.917  0.0105 -0.3683 -0.5729
 3854SOL    HW123198   0.161   3.628   5.909 -0.0150 -1.0662 -2.3592
 3854SOL    HW223199   0.051   3.584   5.827  0.1620  1.7298 -1.2777
 3855SOL     OW23200   3.791   4.575   8.683 -0.1793  0.0041 -0.2893
 3855SOL    HW123201   3.791   4.646   8.748  2.9980  0.8751 -1.2464
 3855SOL    HW223202   3.700   4.548   8.687 -0.1139  0.4707  4.5785
 3856SOL     OW23203   0.847   2.406   3.573 -0.0292 -0.0698 -0.2163
 3856SOL    HW123204   0.934   2.402   3.613 -0.2851 -1.0902  0.2291
 3856SOL    HW223205   0.835   2.501   3.563  0.4724  0.0793  0.6396
 3857SOL     OW23206   3.253   0.530  12.237 -0.5162 -0.2456  0.1721
 3857SOL    HW123207   3.190   0.483  12.291 -1.8104  0.9492 -0.2640
 3857SOL    HW223208   3.226   0.615  12.274 -3.2774 -1.2227  0.4022
 3858SOL     OW23209   1.764   2.743   2.344 -0.0858  0.0662  0.0080
 3858SOL    HW123210   1.706   2.719   2.272 -2.1366 -1.3446  2.1245
 3858SOL    HW223211   1.723   2.824   2.375 -2.6015 -1.1582 -0.1307
 3859SOL     OW23212   0.222   4.602   1.684  0.1004 -0.3614  0.3813
 3859SOL    HW123213   0.212   4.696   1.695  1.8131 -0.1052 -0.4303
 3859SOL    HW223214   0.190   4.599   1.594 -0.4266 -2.0657  0.6194
 3860SOL     OW23215   2.062   1.045   2.828  0.1664  0.1364 -0.3496
 3860SOL    HW123216   2.147   1.088   2.832 -0.5692  1.3796  2.3549
 3860SOL    HW223217   2.053   1.046   2.733 -0.0074 -0.0743 -0.3349
 3861SOL     OW23218   1.990   0.413   7.186 -0.2744  0.0820  0.3228
 3861SOL    HW123219   2.027   0.403   7.098 -0.7151  0.8149  0.0556
 3861SOL    HW223220   2.014   0.503   7.208 -1.1424  0.1339  1.0353
 3862SOL     OW23221   1.325   0.784   3.519 -0.2698  0.1022  0.2886
 3862SOL    HW123222   1.317   0.697   3.481  0.1684 -0.8558  2.3883
 3862SOL    HW223223   1.344   0.760   3.610  4.1617 -0.6766 -0.8637
 3863SOL     OW23224   4.273   0.122   8.358 -0.2367 -0.3405 -0.0896
 3863SOL    HW123225   4.239   0.039   8.323  1.7814 -1.1411 -0.1672
 3863SOL    HW223226   4.330   0.083   8.424 -0.0995 -1.4342 -0.8478
 3864SOL     OW23227   1.428   3.084   9.573  0.4453 -0.2654 -0.6202
 3864SOL    HW123228   1.418   3.134   9.654 -0.8413 -0.7607 -0.4840
 3864SOL    HW223229   1.365   3.013   9.584 -1.0969  1.2402  0.3388
 3865SOL     OW23230   3.167   3.192   8.863  0.5538 -0.2426 -0.2210
 3865SOL    HW123231   3.130   3.227   8.944 -1.3039 -0.4214 -0.9837
 3865SOL    HW223232   3.135   3.259   8.802 -2.5523 -2.9936 -1.6223
 3866SOL     OW23233   1.231   2.495   7.865 -0.4531 -0.0961  0.3044
 3866SOL    HW123234   1.297   2.540   7.813 -1.0088  1.7217  1.1901
 3866SOL    HW223235   1.166   2.564   7.854  0.2289  0.6976  1.3329
 3867SOL     OW23236   3.572   3.284   6.811  0.2413 -0.4567  0.5372
 3867SOL    HW123237   3.612   3.371   6.809  1.2055 -0.9133  0.0137
 3867SOL    HW223238   3.584   3.265   6.904  1.0806  3.7644  1.3066
 3868SOL     OW23239   2.268   0.085   6.277 -0.4292  0.0264 -0.3856
 3868SOL    HW123240   2.228   0.065   6.193 -1.0635  1.6497 -0.4652
 3868SOL    HW223241   2.334   0.143   6.241  0.9900 -1.1717  0.3047
 3869SOL     OW23242   3.240   0.890  11.906  0.1001  0.2068  0.4195
 3869SOL    HW123243   3.197   0.814  11.946 -0.0213 -0.8366 -1.6654
 3869SOL    HW223244   3.177   0.945  11.860  1.5385  1.0884 -0.4794
 3870SOL     OW23245   2.353   1.897   7.070  0.5970  0.3083  0.0357
 3870SOL    HW123246   2.403   1.912   6.990  0.4192  0.0461 -0.1243
 3870SOL    HW223247   2.398   1.963   7.122 -0.7633  1.4878 -0.3005
 3871SOL     OW23248   2.331   2.376   4.802 -0.1707 -0.0766 -0.3211
 3871SOL    HW123249   2.280   2.424   4.737 -0.4756  1.8796  1.3811
 3871SOL    HW223250   2.269   2.379   4.874  1.0939  1.3042  0.7185
 3872SOL     OW23251   3.583   0.064   5.421 -0.1062 -0.7797 -0.0626
 3872SOL    HW123252   3.512   0.105   5.470  1.2407 -1.5828  2.5480
 3872SOL    HW223253   3.654   0.126   5.436  0.6619 -0.8233 -3.4360
 3873SOL     OW23254   4.214   4.035  17.046 -0.1358  0.5976  0.1894
 3873SOL    HW123255   4.204   3.987  17.129  0.0875 -0.6127 -0.4771
 3873SOL    HW223256   4.203   4.118  17.092  2.3325  3.0738 -3.7578
 3874SOL     OW23257   0.220   1.069   2.275 -0.0625 -0.2315  0.4922
 3874SOL    HW123258   0.260   1.119   2.204 -0.2112 -2.5518 -1.2143
 3874SOL    HW223259   0.230   1.123   2.353  0.9039  0.8383 -0.3718
 3875SOL     OW23260   3.470   3.848   5.899  0.4940 -0.1383 -0.0633
 3875SOL    HW123261   3.388   3.871   5.941  0.6784 -1.4846  1.0380
 3875SOL    HW223262   3.482   3.915   5.832 -0.8261  1.0713  0.9318
 3876SOL     OW23263   1.494   4.675   9.364 -0.3669 -0.3340 -0.3796
 3876SOL    HW123264   1.558   4.608   9.387 -2.9654 -4.1057 -4.1018
 3876SOL    HW223265   1.448   4.621   9.300 -1.0796  0.8055 -0.8219
 3877SOL     OW23266   1.682   4.432  12.577 -0.2694 -0.2352 -0.1024
 3877SOL    HW123267   1.614   4.365  12.583 -1.9949  1.2204 -3.7575
 3877SOL    HW223268   1.720   4.407  12.493 -0.0694  0.5088 -0.2338
 3878SOL     OW23269   4.047   1.352   5.395 -0.6717  0.6089 -0.3984
 3878SOL    HW123270   4.042   1.284   5.462 -0.3383  0.0015 -0.9934
 3878SOL    HW223271   4.053   1.427   5.454 -0.7483  0.8435 -0.6913
 3879SOL     OW23272   1.375   1.292   6.727 -0.8512  0.2779 -0.1503
 3879SOL    HW123273   1.377   1.215   6.784 -1.0721 -0.3101 -0.9278
 3879SOL    HW223274   1.365   1.252   6.640 -1.0522  1.7098 -0.7761
 3880SOL     OW23275   0.680   4.508   8.690 -0.0966 -0.2014  0.5904
 3880SOL    HW123276   0.612   4.488   8.625  1.8693  1.4172 -1.9314
 3880SOL    HW223277   0.752   4.514   8.628  0.5437  0.7349  1.4302
 3881SOL     OW23278   2.388   1.865   6.542  0.0176 -0.0782  0.5379
 3881SOL    HW123279   2.363   1.905   6.459 -0.3421 -1.7447 -0.1437
 3881SOL    HW223280   2.468   1.817   6.520  0.0274  0.4550 -0.6018
 3882SOL     OW23281   1.762   3.048   6.190  0.4216  0.4218  0.1092
 3882SOL    HW123282   1.851   3.070   6.163 -0.6336  0.7670 -3.0061
 3882SOL    HW223283   1.750   3.108   6.264 -1.7371 -0.7558  0.6980
 3883SOL     OW23284   0.984   4.724   7.293  0.1439  0.2117  0.2907
 3883SOL    HW123285   1.017   0.040   7.366  0.5877  2.0284 -1.2430
 3883SOL    HW223286   0.945   0.049   7.232  0.6279  0.0562 -0.1831
 3884SOL     OW23287   3.581   0.407   7.894 -0.1719 -0.2227 -0.2011
 3884SOL    HW123288   3.621   0.334   7.847  0.1700  0.3651 -0.8169
 3884SOL    HW223289   3.511   0.358   7.937  1.7136 -1.9264  0.9152
 3885SOL     OW23290   2.240   3.257   6.287 -0.0014 -0.3333  0.5405
 3885SOL    HW123291   2.263   3.192   6.221  0.7327  0.7344 -0.2635
 3885SOL    HW223292   2.231   3.327   6.222 -0.3868 -1.2504 -0.3966
 3886SOL     OW23293   0.862   0.484   7.616 -0.4164 -0.2162  0.0620
 3886SOL    HW123294   0.795   0.552   7.623 -0.1108  0.1043 -0.0991
 3886SOL    HW223295   0.810   0.416   7.574  1.4218 -1.2833 -0.4818
 3887SOL     OW23296   1.442   1.986  10.666 -0.1209 -0.0955  0.1151
 3887SOL    HW123297   1.448   2.018  10.756 -3.0982 -0.0523  0.2933
 3887SOL    HW223298   1.441   1.891  10.679 -1.5892 -0.1724 -0.4770
 3888SOL     OW23299   0.655   2.686   0.049  0.5045 -0.1647 -0.0709
 3888SOL    HW123300   0.731   2.630   0.065 -1.3372 -2.9251 -0.9146
 3888SOL    HW223301   0.664   2.752   0.117  1.4863  0.1081 -0.4738
 3889SOL     OW23302   2.316   0.677   8.880 -0.1038  1.0498 -0.2001
 3889SOL    HW123303   2.272   0.755   8.844  1.3569  1.5444 -0.9114
 3889SOL    HW223304   2.400   0.694   8.837  1.1077 -0.0485  1.7415
 3890SOL     OW23305   1.258   4.029  10.975 -0.5413 -0.1663  0.2764
 3890SOL    HW123306   1.209   4.080  11.038 -0.1051 -1.6064  1.7923
 3890SOL    HW223307   1.326   4.093  10.955 -1.0867  0.5966  0.8934
 3891SOL     OW23308   2.599   4.379   9.302 -0.1668 -0.5080  0.1556
 3891SOL    HW123309   2.657   4.442   9.346  1.1142  0.3133 -2.6759
 3891SOL    HW223310   2.514   4.425   9.301 -0.4099 -1.0674 -3.6063
 3892SOL     OW23311   3.372   3.239   4.040 -0.2073  0.3123 -0.6254
 3892SOL    HW123312   3.406   3.252   3.952 -1.4475  5.7412 -0.3020
 3892SOL    HW223313   3.442   3.186   4.077 -1.6837 -2.1657 -1.3483
 3893SOL     OW23314   2.207   0.931   1.385 -0.4281 -0.0570  0.5557
 3893SOL    HW123315   2.213   0.972   1.471 -0.9700 -0.7168  0.9107
 3893SOL    HW223316   2.191   1.005   1.326 -0.9428 -0.4415  0.2102
 3894SOL     OW23317   2.624   3.523   9.722 -0.0341 -0.3813  0.3147
 3894SOL    HW123318   2.679   3.448   9.745 -0.8609 -1.3395 -0.7906
 3894SOL    HW223319   2.695   3.586   9.708 -0.9895  0.9420  1.3874
 3895SOL     OW23320   1.771   3.757   4.918 -0.0539 -0.4542 -0.0926
 3895SOL    HW123321   1.794   3.732   4.829  0.1456 -0.8915  0.0819
 3895SOL    HW223322   1.856   3.731   4.954 -0.7656 -3.0306 -0.3245
 3896SOL     OW23323   2.815   3.818   2.752 -0.2562 -0.2220  0.2515
 3896SOL    HW123324   2.741   3.784   2.803 -1.3477  1.4826 -0.1697
 3896SOL    HW223325   2.863   3.851   2.828  0.5553 -1.8423  0.4341
 3897SOL     OW23326   1.576   4.434  10.104  0.0490 -0.0652 -0.2989
 3897SOL    HW123327   1.628   4.356  10.084  0.2215 -0.5526  2.0161
 3897SOL    HW223328   1.518   4.437  10.028  0.1627  2.8410 -0.2613
 3898SOL     OW23329   0.360   1.595   6.229 -0.3382 -0.1849 -0.0447
 3898SOL    HW123330   0.398   1.669   6.276  0.3611 -2.8194  3.5762
 3898SOL    HW223331   0.413   1.524   6.266  1.5534  0.8995 -0.6510
 3899SOL     OW23332   1.316   1.992   3.649  0.3956  0.3547 -0.4163
 3899SOL    HW123333   1.339   2.076   3.688  2.9585  0.0264 -1.2071
 3899SOL    HW223334   1.396   1.942   3.666  1.1901  1.8340  0.1372
 3900SOL     OW23335   0.963   1.064  14.121 -0.1411 -0.2280  0.0255
 3900SOL    HW123336   1.058   1.072  14.128 -0.0435 -0.7990 -0.5986
 3900SOL    HW223337   0.942   1.143  14.072  1.7191 -0.0328 -0.4648
 3901SOL     OW23338   1.535   0.924   5.067 -0.4632 -0.1574 -0.1396
 3901SOL    HW123339   1.556   0.916   4.974  3.9247  0.6715  0.7794
 3901SOL    HW223340   1.606   0.870   5.102 -1.1189 -0.1356  1.2179
 3902SOL     OW23341   0.548   1.958   7.134 -0.3463  0.2010 -0.2063
 3902SOL    HW123342   0.592   2.042   7.123 -0.2078  0.1253 -0.2226
 3902SOL    HW223343   0.609   1.906   7.186 -0.2823  1.1426  0.6343
 3903SOL     OW23344   3.555   0.771   2.887 -0.0744  0.1843 -0.3270
 3903SOL    HW123345   3.503   0.744   2.963  0.8915 -0.5977  0.0542
 3903SOL    HW223346   3.597   0.686   2.874  3.7784  2.0607  0.1370
 3904SOL     OW23347   3.834   3.094  12.993 -0.7284  0.3134  0.2145
 3904SOL    HW123348   3.856   3.134  12.909  2.5585  0.9255  1.3503
 3904SOL    HW223349   3.815   3.169  13.050  0.9100 -2.0744  3.9080
 3905SOL     OW23350   2.476   1.601  16.138  0.4788  0.2283  0.0065
 3905SOL    HW123351   2.445   1.535  16.075  1.8364  0.4173 -0.8520
 3905SOL    HW223352   2.432   1.677  16.101 -1.1159 -0.3369  0.7142
 3906SOL     OW23353   3.726   0.517   3.494 -0.2688 -0.0548 -0.1694
 3906SOL    HW123354   3.786   0.443   3.480 -1.8695 -1.8456  2.5657
 3906SOL    HW223355   3.721   0.522   3.589  2.0815 -2.3403  0.0960
 3907SOL     OW23356   1.498   3.011   2.906 -0.2294 -0.0597 -0.5087
 3907SOL    HW123357   1.460   2.935   2.951  1.8538 -0.8445 -0.0552
 3907SOL    HW223358   1.451   3.016   2.823  0.7551  1.0092 -0.9907
 3908SOL     OW23359   1.491   3.545   8.809 -0.2406 -0.3312 -0.7286
 3908SOL    HW123360   1.459   3.635   8.809  2.0254  0.4710  0.7579
 3908SOL    HW223361   1.507   3.525   8.717  1.2136  2.5222 -1.0954
 3909SOL     OW23362   3.524   3.897   8.651  0.5665 -0.0997 -0.3743
 3909SOL    HW123363   3.619   3.911   8.658  0.2810  1.5900  0.2107
 3909SOL    HW223364   3.501   3.838   8.722 -0.0713 -0.6970 -1.0784
 3910SOL     OW23365   3.071   2.115   2.943 -0.7114 -0.4024  0.3970
 3910SOL    HW123366   3.149   2.069   2.913  0.4704  0.8990  1.4668
 3910SOL    HW223367   3.102   2.200   2.974  0.2477 -0.3137 -0.8100
 3911SOL     OW23368   2.398   1.553   3.556  0.0860  0.2121  0.0016
 3911SOL    HW123369   2.378   1.623   3.493 -0.2162  0.0292 -0.1076
 3911SOL    HW223370   2.356   1.478   3.512 -1.1739  0.3462  0.9774
 3912SOL     OW23371   1.918   0.093   8.914  0.1936 -0.7893  0.3206
 3912SOL    HW123372   1.905   0.173   8.964 -0.4858 -0.8265  0.2017
 3912SOL    HW223373   1.999   0.109   8.867  0.4663 -1.3837  0.5891
 3913SOL     OW23374   2.104   0.203   4.722 -0.2168 -0.4379 -0.4594
 3913SOL    HW123375   2.092   0.284   4.772  2.7361 -0.4531  0.2604
 3913SOL    HW223376   2.080   0.249   4.642 -2.5443 -1.7352 -0.5092
 3914SOL     OW23377   0.142   0.633  14.676  0.6829  0.4828 -0.0738
 3914SOL    HW123378   0.159   0.541  14.695  0.4601  0.3206 -0.6576
 3914SOL    HW223379   0.054   0.630  14.638  0.3999 -0.4839  0.6611
 3915SOL     OW23380   1.130   3.930  13.026 -0.1386 -0.1784 -0.3877
 3915SOL    HW123381   1.150   4.008  12.974 -2.1812  0.5146 -0.1420
 3915SOL    HW223382   1.050   3.951  13.074 -0.1697 -3.4635  1.0527
 3916SOL     OW23383   1.843   1.552   5.224  0.6066  0.2899 -0.4603
 3916SOL    HW123384   1.893   1.632   5.208 -0.0172  1.2861  2.6256
 3916SOL    HW223385   1.878   1.524   5.308 -3.0252  0.4228  1.0746
 3917SOL     OW23386   0.522   3.447  12.352  0.1797 -0.2671 -0.1829
 3917SOL    HW123387   0.470   3.400  12.417 -0.0260  1.5518  0.9647
 3917SOL    HW223388   0.611   3.439  12.386  0.1679 -0.5301 -0.2128
 3918SOL     OW23389   4.121   0.854  12.616  0.7971 -0.6505 -0.0953
 3918SOL    HW123390   4.120   0.948  12.598  1.7345 -0.2802  1.7418
 3918SOL    HW223391   4.132   0.815  12.529 -0.1370  3.1112 -1.9289
 3919SOL     OW23392   2.369   4.650   9.595 -0.1696  0.0169 -0.3456
 3919SOL    HW123393   2.394   4.734   9.635 -0.9032 -0.7505  1.7115
 3919SOL    HW223394   2.284   4.668   9.555  0.7483 -0.7975 -2.6665
 3920SOL     OW23395   0.360   3.095  16.428  0.0600 -0.3331 -0.4450
 3920SOL    HW123396   0.325   3.140  16.505 -0.0825 -1.5368  0.2060
 3920SOL    HW223397   0.285   3.113  16.372 -0.5438  0.7383  0.7020
 3921SOL     OW23398   2.854   2.341   1.312 -0.3507 -0.3857 -0.1819
 3921SOL    HW123399   2.772   2.313   1.353 -1.0053  0.6095 -0.8219
 3921SOL    HW223400   2.904   2.357   1.391 -0.0000 -0.4228 -0.3985
 3922SOL     OW23401   2.577   0.812   4.605 -0.3330 -0.3292  0.2910
 3922SOL    HW123402   2.584   0.753   4.530 -0.8371  0.3333 -0.2651
 3922SOL    HW223403   2.632   0.888   4.588 -0.3265  0.0094  1.8467
 3923SOL     OW23404   4.131   3.346   3.378 -0.2423 -0.2917  0.0562
 3923SOL    HW123405   4.208   3.296   3.404  0.1308 -0.5581 -1.5257
 3923SOL    HW223406   4.077   3.356   3.456  0.6756  0.3420  0.6063
 3924SOL     OW23407   2.434   2.874   3.827  0.2104 -0.1750  0.8408
 3924SOL    HW123408   2.433   2.778   3.823  0.8060 -0.1765  0.7761
 3924SOL    HW223409   2.342   2.899   3.827  0.3488  0.2811 -1.0023
 3925SOL     OW23410   4.247   1.851   2.682  0.5737  0.0977 -0.3672
 3925SOL    HW123411   4.313   1.809   2.626  0.3936  1.0809 -1.3119
 3925SOL    HW223412   4.229   1.922   2.620  0.1336 -0.8760 -1.3552
 3926SOL     OW23413   3.415   3.667   1.290  0.5651 -0.2280  0.1853
 3926SOL    HW123414   3.499   3.711   1.275  0.5141  0.3106  1.4466
 3926SOL    HW223415   3.364   3.696   1.214  0.7297  0.7002  0.4269
 3927SOL     OW23416   0.456   1.600   6.970 -0.3895  0.1581  0.6633
 3927SOL    HW123417   0.509   1.526   7.000  1.9118  1.6154  0.1785
 3927SOL    HW223418   0.469   1.668   7.035  1.1199  1.0991 -0.6242
 3928SOL     OW23419   4.235   0.243   1.938  0.2087 -0.1664  0.4110
 3928SOL    HW123420   4.321   0.208   1.958  0.7209  1.7907  1.5962
 3928SOL    HW223421   4.242   0.252   1.842  1.4484 -0.9687  0.4366
 3929SOL     OW23422   1.698   1.754   6.360 -0.0686 -0.3994 -0.3116
 3929SOL    HW123423   1.698   1.722   6.270  0.0016  0.5355 -0.6453
 3929SOL    HW223424   1.618   1.806   6.363  0.3332  0.2187 -0.4454
 3930SOL     OW23425   3.825   4.519   0.690 -0.3407 -0.4325 -0.1057
 3930SOL    HW123426   3.852   4.609   0.708 -1.1540  0.0134 -1.0818
 3930SOL    HW223427   3.898   4.476   0.643 -1.4735 -0.5268 -1.7972
 3931SOL     OW23428   4.621   0.835  16.087  0.0678  0.3149  0.5161
 3931SOL    HW123429   4.621   0.798  16.175 -2.6488 -0.4828  0.1753
 3931SOL    HW223430   4.709   0.867  16.071 -0.0736 -0.3446 -1.5628
 3932SOL     OW23431   1.143   4.252  11.286 -0.0614  0.0672  0.2358
 3932SOL    HW123432   1.137   4.227  11.194 -0.2088  0.7287  0.0652
 3932SOL    HW223433   1.052   4.278  11.295  0.2459  1.4633 -0.8082
 3933SOL     OW23434   1.206   1.801   9.438 -0.0682 -0.3793 -0.1019
 3933SOL    HW123435   1.195   1.794   9.533 -0.8855 -2.5397 -0.3463
 3933SOL    HW223436   1.206   1.711   9.405 -0.8410 -1.6586  3.4059
 3934SOL     OW23437   0.847   1.325   3.493 -0.2687 -0.3221  0.1553
 3934SOL    HW123438   0.904   1.252   3.518 -0.6124 -1.0674 -1.2300
 3934SOL    HW223439   0.857   1.334   3.398 -4.0207 -0.9670 -0.3175
 3935SOL     OW23440   2.967   0.633   2.923  0.2711  0.2818 -0.2386
 3935SOL    HW123441   3.057   0.655   2.899  0.0722  0.4249 -0.8599
 3935SOL    HW223442   2.973   0.552   2.974 -1.2234 -0.9935 -2.0588
 3936SOL     OW23443   3.708   1.860   9.893 -0.2105  0.2422  0.1952
 3936SOL    HW123444   3.644   1.790   9.906  0.9190 -0.6131  1.0864
 3936SOL    HW223445   3.650   1.936   9.896 -0.1852  0.2724 -0.0897
 3937SOL     OW23446   4.391   3.053   1.724  0.1416 -0.7626  0.3400
 3937SOL    HW123447   4.418   2.963   1.741  2.7968  0.0546  0.4664
 3937SOL    HW223448   4.314   3.047   1.667  0.3391 -1.9158  0.2063
 3938SOL     OW23449   3.756   2.546   3.620 -0.2015  0.0565  0.4462
 3938SOL    HW123450   3.825   2.534   3.685 -0.3182 -3.0403 -0.0027
 3938SOL    HW223451   3.734   2.635   3.649 -0.2442  0.7187 -1.6309
 3939SOL     OW23452   3.340   3.544   0.945 -0.0975 -0.2711  0.2721
 3939SOL    HW123453   3.416   3.486   0.959 -0.0120 -0.5724 -1.5092
 3939SOL    HW223454   3.303   3.512   0.863  2.3382 -2.1354 -0.1045
 3940SOL     OW23455   3.174   2.189   2.147  1.0240  0.6190  0.2972
 3940SOL    HW123456   3.190   2.169   2.239 -2.9326 -0.2597  0.7801
 3940SOL    HW223457   3.254   2.240   2.130  2.2772 -1.9972 -1.6267
 3941SOL     OW23458   0.188   1.658   2.635  0.2272 -0.0167 -0.4481
 3941SOL    HW123459   0.106   1.662   2.684  0.9355 -1.3471  0.8268
 3941SOL    HW223460   0.246   1.599   2.683  2.9196  2.7228 -0.3769
 3942SOL     OW23461   3.194   3.730   2.529 -0.1626 -0.1583  0.1399
 3942SOL    HW123462   3.215   3.645   2.489  0.3738 -0.8476  1.8833
 3942SOL    HW223463   3.106   3.754   2.500 -0.6464 -1.2848  0.6600
 3943SOL     OW23464   3.730   4.615   1.929  0.4202 -0.1652  0.3935
 3943SOL    HW123465   3.764   4.704   1.923 -3.6137  1.3606 -0.0972
 3943SOL    HW223466   3.795   4.558   1.887  0.8010 -0.0492  0.8350
 3944SOL     OW23467   0.049   0.908   3.453  0.2885 -0.2628 -0.7843
 3944SOL    HW123468   0.014   0.925   3.366 -1.6007 -0.9207 -0.1495
 3944SOL    HW223469   0.094   0.992   3.457 -0.2587 -0.1030  1.9303
 3945SOL     OW23470   2.800   3.079   8.444  1.1488  0.4278 -0.1760
 3945SOL    HW123471   2.849   2.997   8.448  0.8156  0.2126 -0.5022
 3945SOL    HW223472   2.728   3.054   8.386 -1.1030  0.4709  2.5674
 3946SOL     OW23473   1.463   3.128   4.840  0.9022  0.2343 -0.4479
 3946SOL    HW123474   1.486   3.046   4.885 -0.6729 -0.5557 -1.0737
 3946SOL    HW223475   1.369   3.111   4.832  1.2773 -1.4230 -1.4635
 3947SOL     OW23476   0.078   3.920   7.185 -0.5874 -0.2015 -0.2898
 3947SOL    HW123477   0.080   3.825   7.197 -0.5585 -0.1878 -0.1845
 3947SOL    HW223478   0.080   3.925   7.090  0.4628 -1.1600 -0.3024
 3948SOL     OW23479   4.359   3.489   6.365  0.4334 -0.9573  0.1958
 3948SOL    HW123480   4.357   3.498   6.270 -0.8529  3.0026  0.6256
 3948SOL    HW223481   4.337   3.579   6.387  2.0041 -0.3802 -0.5798
 3949SOL     OW23482   0.851   1.836  12.286 -0.2795 -0.3723 -0.1022
 3949SOL    HW123483   0.844   1.863  12.194  1.3380  1.2728  0.2450
 3949SOL    HW223484   0.795   1.759  12.294  0.1579 -0.9982 -2.9829
 3950SOL     OW23485   1.507   4.259   3.025  0.2505 -0.6074 -0.5178
 3950SOL    HW123486   1.460   4.334   3.062 -0.5882 -0.8272 -1.1318
 3950SOL    HW223487   1.567   4.307   2.968 -2.4947  1.5886 -1.5497
 3951SOL     OW23488   3.032   4.368   9.913  0.7179  0.0267 -0.5289
 3951SOL    HW123489   3.102   4.328   9.964  2.0586  1.1345 -1.4893
 3951SOL    HW223490   2.949   4.330   9.943  0.7142 -0.2567 -0.8935
 3952SOL     OW23491   0.408   1.053   1.140 -0.5008 -0.3492  0.1706
 3952SOL    HW123492   0.502   1.044   1.159 -0.6945  0.6518  1.6086
 3952SOL    HW223493   0.378   1.099   1.218 -1.3985 -1.9915  0.7979
 3953SOL     OW23494   4.092   0.736   8.395 -0.3132  0.4301 -0.7407
 3953SOL    HW123495   4.087   0.832   8.396  0.7132  0.4870  0.0873
 3953SOL    HW223496   4.184   0.728   8.422 -0.2531  1.5276 -0.6103
 3954SOL     OW23497   4.208   3.668   2.900 -0.0262  0.2392 -0.8328
 3954SOL    HW123498   4.122   3.663   2.858  0.3776  1.8980 -1.8959
 3954SOL    HW223499   4.221   3.581   2.937 -0.3394  0.9547  0.9579
 3955SOL     OW23500   0.304   1.885   1.297 -0.4791 -0.0282  0.3434
 3955SOL    HW123501   0.222   1.864   1.253 -0.6789 -0.0467  0.7213
 3955SOL    HW223502   0.344   1.805   1.331  0.3961  0.6206  0.8516
 3956SOL     OW23503   3.774   1.047   2.003 -0.0092  0.0779  0.0049
 3956SOL    HW123504   3.816   0.966   1.972 -0.5544 -0.9298  1.9103
 3956SOL    HW223505   3.688   1.007   2.014  0.4538 -0.8265  0.3663
 3957SOL     OW23506   0.771   2.687   4.369  0.5163 -0.0874  0.2846
 3957SOL    HW123507   0.756   2.779   4.390 -2.3315 -0.4061 -0.3425
 3957SOL    HW223508   0.742   2.651   4.454  0.5916 -0.4517  0.1559
 3958SOL     OW23509   0.042   2.326   6.077 -0.2676 -0.4729 -0.1125
 3958SOL    HW123510   4.689   2.358   6.074 -0.6662 -1.7203 -1.5520
 3958SOL    HW223511   0.097   2.397   6.107 -0.1129 -0.5999 -0.0951
 3959SOL     OW23512   4.729   0.133   4.135  0.0223  0.0497  0.2805
 3959SOL    HW123513   4.719   0.047   4.094 -1.5786  0.0625  0.6260
 3959SOL    HW223514   0.033   0.173   4.058 -1.3936  1.5917  0.3444
 3960SOL     OW23515   3.431   1.330   0.370 -0.2954 -0.4344  0.2902
 3960SOL    HW123516   3.485   1.409   0.367  1.5006 -1.6058  1.3039
 3960SOL    HW223517   3.394   1.340   0.282 -0.1406  0.1879  0.2945
 3961SOL     OW23518   1.374   3.633   7.858 -0.0132 -0.0720 -0.2618
 3961SOL    HW123519   1.370   3.651   7.764 -0.9954  0.5797 -0.1001
 3961SOL    HW223520   1.464   3.653   7.882 -0.2763  0.9108 -0.0933
 3962SOL     OW23521   3.245   2.966  13.422 -0.1238 -0.3031  0.0591
 3962SOL    HW123522   3.225   3.042  13.368  1.1547 -0.3626 -0.5010
 3962SOL    HW223523   3.338   2.980  13.444  0.0110 -1.0546 -0.0275
 3963SOL     OW23524   4.003   3.641  16.751  0.4623 -0.2622  0.2884
 3963SOL    HW123525   3.933   3.703  16.768  0.3099 -0.6799  1.1774
 3963SOL    HW223526   4.079   3.686  16.786 -1.1741  1.6906  1.3051
 3964SOL     OW23527   0.237   0.086   8.719  0.4395  0.5153  0.3857
 3964SOL    HW123528   0.222   0.014   8.780 -0.0160  0.0421 -0.2790
 3964SOL    HW223529   0.154   0.134   8.712  0.4379  0.4577  0.0261
 3965SOL     OW23530   3.436   2.850   0.376  0.0594 -0.1594 -0.1868
 3965SOL    HW123531   3.495   2.889   0.312 -0.2070 -2.1465 -1.6270
 3965SOL    HW223532   3.463   2.759   0.379 -0.4413 -0.3864 -2.6507
 3966SOL     OW23533   1.175   3.620   6.526 -0.2655  0.7628 -0.2909
 3966SOL    HW123534   1.208   3.611   6.615 -4.3611 -0.3673  1.1372
 3966SOL    HW223535   1.258   3.619   6.479  0.3237 -1.0704  0.7870
 3967SOL     OW23536   3.433   2.654  15.074 -0.1905  0.3131 -0.1434
 3967SOL    HW123537   3.512   2.636  15.024 -1.0025  0.1957 -1.3989
 3967SOL    HW223538   3.362   2.658  15.010 -0.3271  1.6430  0.0932
 3968SOL     OW23539   2.085   2.896   3.442  0.1151  0.0923 -0.8003
 3968SOL    HW123540   2.049   2.833   3.380  0.8288 -1.6543  0.5498
 3968SOL    HW223541   2.166   2.858   3.476 -1.1810 -0.0266  2.2251
 3969SOL     OW23542   4.623   3.123   5.955  0.6729  0.5638  0.2103
 3969SOL    HW123543   4.660   3.117   5.867  2.7328  0.7684  1.0486
 3969SOL    HW223544   4.679   3.180   6.008 -0.5580  1.2984  0.7087
 3970SOL     OW23545   1.404   4.634   6.263 -0.3000  0.1222  0.6862
 3970SOL    HW123546   1.388   4.726   6.282  0.8154  0.4482  0.0729
 3970SOL    HW223547   1.318   4.603   6.291 -0.4954  1.2633  1.3331
 3971SOL     OW23548   3.520   3.835  16.474 -0.2863  0.3501 -0.0419
 3971SOL    HW123549   3.496   3.791  16.392 -2.6465 -1.9170  1.8442
 3971SOL    HW223550   3.431   3.849  16.507 -0.4964  1.7661 -1.2042
 3972SOL     OW23551   4.637   1.387   7.413  0.2497 -0.0552 -0.2546
 3972SOL    HW123552   4.555   1.340   7.401  0.4696  0.2420 -3.0992
 3972SOL    HW223553   4.698   1.329   7.368 -0.0520 -0.4034 -0.2126
 3973SOL     OW23554   2.693   1.676   0.969 -0.4791 -0.7648  0.0810
 3973SOL    HW123555   2.782   1.649   0.995  0.3409  2.4412  0.7184
 3973SOL    HW223556   2.686   1.763   1.008 -2.3789 -1.4843  1.2929
 3974SOL     OW23557   2.348   4.497   2.554  0.1011  0.4675 -0.3469
 3974SOL    HW123558   2.360   4.404   2.571 -0.0897  0.2205 -1.6347
 3974SOL    HW223559   2.420   4.510   2.493  0.8503 -0.1010  0.4156
 3975SOL     OW23560   2.824   2.710   9.652  0.2583 -0.5957  0.0783
 3975SOL    HW123561   2.751   2.743   9.705 -0.0678 -0.0299 -0.7264
 3975SOL    HW223562   2.786   2.641   9.598 -0.6502 -1.0263  1.2582
 3976SOL     OW23563   1.344   0.768   8.489  0.0268  0.5093 -0.5321
 3976SOL    HW123564   1.427   0.725   8.507 -0.8520 -1.3907 -1.0528
 3976SOL    HW223565   1.288   0.765   8.567  0.0906  1.3588 -0.4469
 3977SOL     OW23566   3.482   3.881  16.774 -0.1916  0.2031 -0.0066
 3977SOL    HW123567   3.463   3.843  16.688 -0.0145 -0.9804  0.4676
 3977SOL    HW223568   3.509   3.971  16.756  1.4862  0.1821  2.4347
 3978SOL     OW23569   2.931   0.456   8.875 -0.2596 -0.1888 -0.1003
 3978SOL    HW123570   2.842   0.491   8.867  0.0007  0.3207 -0.7639
 3978SOL    HW223571   2.950   0.457   8.969  0.4764  0.1250 -0.2576
 3979SOL     OW23572   2.222   4.006   6.791 -0.3683 -0.2410 -0.3670
 3979SOL    HW123573   2.160   4.071   6.823 -1.6760 -0.7173 -1.8871
 3979SOL    HW223574   2.161   3.969   6.727  1.3307  2.6208 -3.6256
 3980SOL     OW23575   2.614   1.347   2.573  0.3092  0.0860 -0.4801
 3980SOL    HW123576   2.667   1.292   2.515  1.7420  1.6217 -0.6299
 3980SOL    HW223577   2.644   1.313   2.657  1.9931  1.2270 -0.6210
 3981SOL     OW23578   3.930   0.031   2.389  0.6131  0.4113 -0.0176
 3981SOL    HW123579   3.979   4.737   2.313  0.6849 -0.8584  0.5493
 3981SOL    HW223580   3.842   0.019   2.352  1.2197 -1.0148 -0.9983
 3982SOL     OW23581   3.073   3.145   1.483  0.5356  0.6437  0.4174
 3982SOL    HW123582   2.980   3.132   1.465  0.4762  2.3633 -0.5469
 3982SOL    HW223583   3.100   3.079   1.419  0.7462  2.0231 -0.9474
 3983SOL     OW23584   1.995   2.401   3.073  0.2969 -0.1528 -0.0171
 3983SOL    HW123585   2.021   2.395   3.165  0.5370  0.1136 -0.0655
 3983SOL    HW223586   2.076   2.369   3.033  0.9030 -1.5230  2.3226
 3984SOL     OW23587   1.544   0.276   7.212 -0.1542 -0.1830 -0.1484
 3984SOL    HW123588   1.597   0.224   7.152 -3.1621 -0.4227 -2.6095
 3984SOL    HW223589   1.578   0.365   7.201 -0.7314  0.2451  1.6269
 3985SOL     OW23590   0.481   1.307   5.349 -0.4022 -0.1028  0.5949
 3985SOL    HW123591   0.420   1.333   5.418  0.8118  2.5129  0.6959
 3985SOL    HW223592   0.530   1.389   5.344 -0.1642 -0.3447 -1.0815
 3986SOL     OW23593   2.979   1.081  13.513  0.0313 -0.8706  0.5498
 3986SOL    HW123594   3.039   1.049  13.445 -1.4300  1.8445 -1.9871
 3986SOL    HW223595   2.979   1.175  13.497 -0.9793 -1.0820 -0.7349
 3987SOL     OW23596   0.626   4.658  11.205  0.3814  0.0841 -0.3752
 3987SOL    HW123597   0.587   4.722  11.265 -0.2075 -0.9014  0.2981
 3987SOL    HW223598   0.656   4.715  11.135 -2.4804  0.6813 -1.1276
 3988SOL     OW23599   0.705   0.218   6.153  0.6530  0.3326 -0.0347
 3988SOL    HW123600   0.618   0.179   6.169  1.3756 -1.5489 -0.6671
 3988SOL    HW223601   0.703   0.214   6.057 -0.9045  1.6672 -0.0646
 3989SOL     OW23602   2.382   3.104   0.131  0.2368  0.1620 -0.2116
 3989SOL    HW123603   2.383   3.182   0.185  1.1139  0.6141 -0.8818
 3989SOL    HW223604   2.367   3.038   0.199 -3.1855 -0.2735 -1.3885
 3990SOL     OW23605   1.063   2.438   5.655 -0.1201 -0.3728 -0.1444
 3990SOL    HW123606   1.058   2.343   5.645  0.7369 -0.4808  0.5028
 3990SOL    HW223607   1.081   2.447   5.748 -0.4836 -1.6205  0.0441
 3991SOL     OW23608   4.489   1.983  17.384  0.6667  0.2476  0.8091
 3991SOL    HW123609   4.461   1.939  17.304  1.3873  0.6267  0.3509
 3991SOL    HW223610   4.414   2.039  17.406  0.9563  1.6366 -1.7175
 3992SOL     OW23611   4.228   3.837  10.903  0.3211 -0.2719  0.0734
 3992SOL    HW123612   4.303   3.886  10.937 -0.9576  0.8154  1.3237
 3992SOL    HW223613   4.155   3.863  10.959 -2.0930 -2.2613 -2.1388
 3993SOL     OW23614   3.616   3.551   6.671  0.4898  0.6882 -0.4168
 3993SOL    HW123615   3.607   3.624   6.731  1.0865  0.1116  0.3765
 3993SOL    HW223616   3.569   3.577   6.592  1.2648  0.9379 -0.8057
 3994SOL     OW23617   2.581   2.041   8.785  0.4770  0.3244  0.9202
 3994SOL    HW123618   2.658   2.079   8.828  1.9266 -0.1685 -1.2302
 3994SOL    HW223619   2.517   2.052   8.856 -1.4075  1.6791 -0.9825
 3995SOL     OW23620   1.301   3.121   3.246  0.8024  0.0316 -0.2032
 3995SOL    HW123621   1.268   3.033   3.262  0.9701  0.4387  2.4264
 3995SOL    HW223622   1.246   3.143   3.171  0.7272  0.1461 -0.1156
 3996SOL     OW23623   3.130   0.853   5.640  0.1079  0.1715 -0.7367
 3996SOL    HW123624   3.092   0.940   5.631  0.8732  0.4743 -1.1443
 3996SOL    HW223625   3.080   0.809   5.571 -0.2093 -0.3470 -0.1695
 3997SOL     OW23626   1.299   1.839  11.319 -0.3247  0.7302  0.2300
 3997SOL    HW123627   1.235   1.785  11.271  1.4088 -1.2412  0.1367
 3997SOL    HW223628   1.263   1.927  11.324 -0.8036  0.4650  1.4203
 3998SOL     OW23629   0.142   1.353   6.821 -0.4107 -0.1014  0.6290
 3998SOL    HW123630   0.202   1.279   6.829 -0.4361  0.0345  2.0460
 3998SOL    HW223631   0.131   1.373   6.914 -0.9448 -0.8554  0.7304
 3999SOL     OW23632   1.324   4.441  17.183 -0.1665  0.0967  0.5896
 3999SOL    HW123633   1.394   4.460  17.245 -1.3663 -0.7022  2.2039
 3999SOL    HW223634   1.376   4.416  17.106 -1.7787  2.1197 -1.1423
 4000SOL     OW23635   3.527   4.544  15.135  0.1679 -0.1375 -0.1071
 4000SOL    HW123636   3.581   4.526  15.213  0.5784  0.5427 -0.2326
 4000SOL    HW223637   3.571   4.625  15.109  0.2099 -0.5236 -1.2377
 4001SOL     OW23638   4.689   0.450   6.722 -0.4982  0.3623  0.4287
 4001SOL    HW123639   4.674   0.412   6.636  2.0674 -0.8066  0.4763
 4001SOL    HW223640   0.015   0.521   6.707 -0.8481  0.6924  0.5410
 4002SOL     OW23641   2.715   1.636  14.877  0.0655 -0.1620  0.2821
 4002SOL    HW123642   2.621   1.638  14.860 -0.0281 -2.3216  0.5475
 4002SOL    HW223643   2.724   1.619  14.971  2.3075 -3.2094 -0.4707
 4003SOL     OW23644   4.238   3.263   5.432  0.1419 -0.5539 -0.2844
 4003SOL    HW123645   4.147   3.237   5.445 -0.3400  2.4578  2.3554
 4003SOL    HW223646   4.244   3.274   5.337 -0.3012 -1.4383 -0.4170
 4004SOL     OW23647   2.933   1.692  10.944 -0.5256  0.0895  0.1947
 4004SOL    HW123648   3.021   1.660  10.925 -0.6998  0.8994 -2.0120
 4004SOL    HW223649   2.886   1.620  10.902  0.1702  0.0418 -0.5144
 4005SOL     OW23650   1.019   1.549   2.905  0.1925 -0.5609  0.2674
 4005SOL    HW123651   0.968   1.617   2.860  0.6891 -0.9046 -0.8164
 4005SOL    HW223652   1.055   1.599   2.978 -2.8722  0.5814  1.0067
 4006SOL     OW23653   3.616   3.492   8.205  0.3445 -0.0849  0.3497
 4006SOL    HW123654   3.635   3.542   8.126 -1.4123 -0.2267 -0.1617
 4006SOL    HW223655   3.654   3.540   8.278 -1.2565 -1.5648  2.1772
 4007SOL     OW23656   3.727   4.179   7.455  0.2645  0.5949 -0.7353
 4007SOL    HW123657   3.633   4.188   7.468  0.5024 -1.0309  2.1195
 4007SOL    HW223658   3.732   4.088   7.427  0.2507  0.3113  0.1572
 4008SOL     OW23659   2.744   4.334   1.994  0.1331  1.0177  0.1392
 4008SOL    HW123660   2.776   4.264   2.051  0.3765  0.8840 -0.1606
 4008SOL    HW223661   2.687   4.289   1.931  2.6615 -1.4038 -0.4496
 4009SOL     OW23662   1.827   3.655   2.985 -0.1660  0.6243  0.1907
 4009SOL    HW123663   1.829   3.574   2.935  1.2658  0.9928 -0.3578
 4009SOL    HW223664   1.770   3.625   3.055 -1.6569  1.6158 -0.5998
 4010SOL     OW23665   4.146   2.297   2.600  0.1266 -0.1998  0.0369
 4010SOL    HW123666   4.219   2.240   2.625  0.3349  0.0242 -0.0573
 4010SOL    HW223667   4.161   2.387   2.629  1.8784 -1.0074  1.6444
 4011SOL     OW23668   2.033   1.570  12.898  0.4648 -0.5667  0.4932
 4011SOL    HW123669   2.064   1.578  12.808 -0.1168  0.1228  0.3454
 4011SOL    HW223670   2.094   1.622  12.950  0.5483  1.9664 -2.0936
 4012SOL     OW23671   2.639   3.404   3.770 -0.1971  0.1537 -0.6573
 4012SOL    HW123672   2.622   3.313   3.795 -1.4912  0.5474 -0.1299
 4012SOL    HW223673   2.643   3.402   3.674  3.2659 -0.6143 -0.4864
 4013SOL     OW23674   1.148   1.434  11.996 -0.1684  0.3996  0.3579
 4013SOL    HW123675   1.155   1.482  12.078  3.5214 -0.2367  0.3983
 4013SOL    HW223676   1.239   1.406  11.988  0.0040  0.9838  0.3138
 4014SOL     OW23677   4.017   0.044   7.558 -0.1568 -0.3331  0.1996
 4014SOL    HW123678   4.089   0.105   7.544 -0.9195 -0.6043 -5.2390
 4014SOL    HW223679   3.951   0.080   7.497 -0.5161 -1.9938 -0.4089
 4015SOL     OW23680   3.041   4.406  13.708 -0.2490  0.3395 -0.1406
 4015SOL    HW123681   3.136   4.412  13.696 -0.1911 -0.6366 -0.1961
 4015SOL    HW223682   3.027   4.403  13.803  1.3025 -0.9647  0.0492
 4016SOL     OW23683   0.978   2.075   7.740 -0.1097 -0.1198  0.3996
 4016SOL    HW123684   1.009   2.109   7.655  2.3436 -1.4463  0.7472
 4016SOL    HW223685   0.934   2.008   7.688  0.8304  0.1563 -0.7830
 4017SOL     OW23686   4.574   2.074   4.935  0.2909  0.5451 -0.2534
 4017SOL    HW123687   4.530   2.018   4.871  0.5150 -0.3994  0.4322
 4017SOL    HW223688   4.640   2.009   4.958  0.7103  1.3277  0.7369
 4018SOL     OW23689   0.356   2.469   3.523  0.7574  0.2083 -0.2272
 4018SOL    HW123690   0.412   2.393   3.541  0.9398  0.6830  1.2711
 4018SOL    HW223691   0.354   2.525   3.600 -0.2863 -0.2242  0.0602
 4019SOL     OW23692   1.360   4.052   5.277 -0.7468 -0.5608 -0.5095
 4019SOL    HW123693   1.362   3.967   5.320 -0.2022 -0.7105 -0.8404
 4019SOL    HW223694   1.444   4.058   5.232 -0.9632  0.1126 -0.8304
 4020SOL     OW23695   2.575   0.120   9.612  0.3404 -0.5188 -0.2361
 4020SOL    HW123696   2.660   0.076   9.619  0.7616  0.5581  1.4955
 4020SOL    HW223697   2.567   0.103   9.518 -3.4829  1.0978 -0.1922
 4021SOL     OW23698   4.050   4.523  10.722 -0.0564  0.4786  0.2802
 4021SOL    HW123699   4.105   4.551  10.649  1.3592 -1.2237  0.7047
 4021SOL    HW223700   4.102   4.516  10.802 -3.2809 -0.0287  2.3300
 4022SOL     OW23701   2.944   1.700   2.993  0.2915 -0.3022  0.3132
 4022SOL    HW123702   2.866   1.707   2.938  0.5089  3.2614  0.4467
 4022SOL    HW223703   3.009   1.750   2.942 -0.5080  0.9768  0.5432
 4023SOL     OW23704   0.775   2.285   5.922 -0.6730  0.5888 -0.0160
 4023SOL    HW123705   0.850   2.255   5.871  0.4604  0.1759  1.8985
 4023SOL    HW223706   0.716   2.210   5.915 -0.8439  0.8331 -1.1837
 4024SOL     OW23707   2.516   1.381   8.428  0.2873  0.4627 -0.6897
 4024SOL    HW123708   2.509   1.462   8.479 -0.7194  0.9929 -1.6733
 4024SOL    HW223709   2.609   1.378   8.402  0.2376 -1.0805 -0.7088
 4025SOL     OW23710   1.070   0.646   2.759  0.2453 -0.1667  0.1399
 4025SOL    HW123711   1.110   0.600   2.686 -0.1541  1.4709 -1.1262
 4025SOL    HW223712   1.096   0.737   2.743 -0.7547  0.0994  0.0587
 4026SOL     OW23713   4.560   4.467  15.023 -0.6603 -0.1804  0.6214
 4026SOL    HW123714   4.654   4.484  15.032 -0.7258 -0.4052  1.6510
 4026SOL    HW223715   4.559   4.392  15.082  0.8811 -0.3506  0.4289
 4027SOL     OW23716   1.642   1.645   0.956  0.5814  0.0538 -0.5818
 4027SOL    HW123717   1.549   1.639   0.938  0.5417  0.9980 -0.6673
 4027SOL    HW223718   1.685   1.620   0.874  0.5427 -0.5753 -0.4095
 4028SOL     OW23719   3.340   2.978  15.274  0.5923  0.0564  0.2566
 4028SOL    HW123720   3.427   2.989  15.237 -0.0568  0.8709 -1.0415
 4028SOL    HW223721   3.346   2.890  15.312 -1.4394 -0.7422 -1.2314
 4029SOL     OW23722   4.496   1.951  10.167 -0.0627 -0.1759  0.5146
 4029SOL    HW123723   4.498   1.942  10.071  3.3397  3.5890  0.2271
 4029SOL    HW223724   4.401   1.952  10.176 -0.2351 -0.5496 -1.2841
 4030SOL     OW23725   3.756   2.121  13.176  0.2642 -0.0017  0.5930
 4030SOL    HW123726   3.837   2.071  13.175 -0.6396 -1.5217  2.0860
 4030SOL    HW223727   3.704   2.082  13.248 -2.2614  1.4895 -0.4182
 4031SOL     OW23728   2.145   1.477  16.083  0.1806 -0.2641  0.3184
 4031SOL    HW123729   2.139   1.569  16.109  0.8586 -0.2767  0.5333
 4031SOL    HW223730   2.085   1.474  16.009  0.0839  2.0029  0.3157
 4032SOL     OW23731   0.359   1.042   0.566  0.2914 -0.4557 -0.4803
 4032SOL    HW123732   0.393   0.973   0.623  0.3898 -0.9514 -1.1458
 4032SOL    HW223733   0.414   1.028   0.489  0.0247 -2.5506 -0.2755
 4033SOL     OW23734   0.881   0.761   9.324  0.1884 -0.1988  0.0086
 4033SOL    HW123735   0.892   0.750   9.419  0.9621  1.5228  0.1061
 4033SOL    HW223736   0.972   0.754   9.294 -0.1143  2.5537 -1.5004
 4034SOL     OW23737   4.052   3.106   4.322 -0.5628  1.3270 -0.4318
 4034SOL    HW123738   4.114   3.119   4.249 -1.0335  2.2999 -0.6466
 4034SOL    HW223739   4.019   3.017   4.311  1.7989 -0.0869  3.7874
 4035SOL     OW23740   0.658   2.858   6.280 -0.5050 -0.0283  0.3360
 4035SOL    HW123741   0.577   2.876   6.231  0.8858 -3.0416 -3.1093
 4035SOL    HW223742   0.690   2.776   6.242  2.4649  0.9459  0.7570
 4036SOL     OW23743   2.280   1.377  11.315 -0.0169  0.1194  0.3411
 4036SOL    HW123744   2.308   1.314  11.382  2.5052  0.6141 -0.2306
 4036SOL    HW223745   2.185   1.379  11.323 -0.0251  0.2045  0.2146
 4037SOL     OW23746   4.432   1.778   7.713 -0.1744 -0.1399 -0.4091
 4037SOL    HW123747   4.525   1.765   7.728  0.1303 -2.8306 -4.5262
 4037SOL    HW223748   4.431   1.811   7.623 -0.1056 -1.3915 -0.8623
 4038SOL     OW23749   0.052   2.643   6.003 -0.0914 -0.1231  0.8339
 4038SOL    HW123750   0.085   2.640   6.093  0.0547  1.3606  0.8283
 4038SOL    HW223751   0.121   2.687   5.955  2.6290 -3.5273  1.6285
 4039SOL     OW23752   0.398   4.142   2.939  0.4633 -0.4252  0.3472
 4039SOL    HW123753   0.421   4.092   2.861  0.6041 -1.6119  1.1518
 4039SOL    HW223754   0.409   4.229   2.902 -0.9263  0.1365  1.2655
 4040SOL     OW23755   1.910   3.489   7.389  0.5313  0.1111 -0.2073
 4040SOL    HW123756   1.834   3.441   7.355 -0.2410  1.2844 -0.1566
 4040SOL    HW223757   1.861   3.556   7.437  0.1904  0.4429 -1.0185
 4041SOL     OW23758   1.422   4.081   7.167 -0.3926 -0.1583 -0.7852
 4041SOL    HW123759   1.351   4.052   7.109 -2.1348  1.4959  0.5323
 4041SOL    HW223760   1.452   4.166   7.136  0.4096 -0.8184 -1.8108
 4042SOL     OW23761   0.265   1.966  10.197  0.6799  0.4528  0.4423
 4042SOL    HW123762   0.189   1.926  10.154  1.2184  1.5812 -1.5497
 4042SOL    HW223763   0.231   1.966  10.287  2.3977  0.9943  1.0870
 4043SOL     OW23764   2.851   2.418  17.011  0.0507  0.0983  0.4635
 4043SOL    HW123765   2.784   2.402  17.078  0.0196 -2.1804 -0.1381
 4043SOL    HW223766   2.923   2.469  17.049 -0.9428  1.6033  0.3467
 4044SOL     OW23767   2.593   0.352   5.681  0.6866  0.3270 -0.1912
 4044SOL    HW123768   2.559   0.373   5.768 -2.3106  2.3567 -1.8610
 4044SOL    HW223769   2.572   0.259   5.677  0.6839  0.2633  1.5467
 4045SOL     OW23770   1.978   0.714  17.225  0.3601  0.2472  0.4173
 4045SOL    HW123771   2.017   0.656  17.159 -1.2541 -0.2084 -0.1481
 4045SOL    HW223772   1.915   0.751  17.163 -1.2165 -0.6566  1.4691
 4046SOL     OW23773   4.673   0.033   1.510 -0.1146  0.4824 -0.4269
 4046SOL    HW123774   4.645   0.031   1.602  2.7435  2.1558  0.4726
 4046SOL    HW223775   4.640   0.115   1.473  0.6388  0.9960  0.0294
 4047SOL     OW23776   3.010   4.403   1.068 -0.1220  0.5202 -0.0188
 4047SOL    HW123777   3.086   4.361   1.027 -1.2910 -0.2341 -1.3954
 4047SOL    HW223778   2.966   4.427   0.987  1.0404  1.4576 -0.3859
 4048SOL     OW23779   4.128   3.409   6.668 -0.0267 -0.1561  0.5173
 4048SOL    HW123780   4.035   3.431   6.661  0.3509  1.7620  1.6213
 4048SOL    HW223781   4.169   3.488   6.702 -0.9952  1.3827 -1.8993
 4049SOL     OW23782   3.774   2.852  10.041  0.0641  0.4043  0.0467
 4049SOL    HW123783   3.863   2.822  10.057 -0.5195 -0.5901  1.5168
 4049SOL    HW223784   3.744   2.773   9.997  0.9468  0.6803 -1.0242
 4050SOL     OW23785   4.304   4.268  14.482  0.3774 -0.1795  0.2006
 4050SOL    HW123786   4.390   4.236  14.457  1.2745  0.6302  2.2405
 4050SOL    HW223787   4.280   4.318  14.403  1.3393 -2.3991 -1.4890
 4051SOL     OW23788   1.990   4.024   4.425  0.2180 -0.4084 -0.3282
 4051SOL    HW123789   2.046   3.987   4.357  1.5106  1.9942 -0.5817
 4051SOL    HW223790   2.019   4.115   4.421  2.9354 -1.1692  1.8647
 4052SOL     OW23791   1.793   3.288   4.090  0.1890  0.4024  0.2455
 4052SOL    HW123792   1.787   3.287   4.185 -2.9048 -0.8923  0.0515
 4052SOL    HW223793   1.702   3.264   4.073  1.0104 -0.7494 -2.4822
 4053SOL     OW23794   4.167   1.368   2.815 -0.1234  0.4935 -0.3486
 4053SOL    HW123795   4.197   1.446   2.863 -0.8921  0.2293  0.5647
 4053SOL    HW223796   4.114   1.405   2.744 -0.7878 -0.8275 -0.5482
 4054SOL     OW23797   1.093   1.852   3.005  0.4125  0.0325 -0.0542
 4054SOL    HW123798   1.014   1.881   2.959 -0.8119 -2.4510  0.5344
 4054SOL    HW223799   1.055   1.819   3.086  2.1434 -0.9641  0.3381
 4055SOL     OW23800   1.345   3.894   4.357  0.5797 -0.6903 -0.0851
 4055SOL    HW123801   1.288   3.969   4.368  1.5399 -0.2369  1.8664
 4055SOL    HW223802   1.369   3.878   4.449 -0.7477  2.4804  0.7822
 4056SOL     OW23803   2.351   2.588   3.080  0.4137  0.3537 -0.0139
 4056SOL    HW123804   2.272   2.640   3.092 -0.4558 -1.1207  0.5282
 4056SOL    HW223805   2.325   2.507   3.124  0.1050 -0.5388 -1.8445
 4057SOL     OW23806   4.444   4.326  11.198  0.8911  0.4458  0.1830
 4057SOL    HW123807   4.446   4.288  11.110 -0.0453 -0.7372  0.6542
 4057SOL    HW223808   4.381   4.398  11.190  0.7881  0.3883  0.4776
 4058SOL     OW23809   3.860   2.961   6.195  0.0851 -0.5990  0.4439
 4058SOL    HW123810   3.853   3.043   6.243  0.7976  1.7493 -3.4289
 4058SOL    HW223811   3.822   2.895   6.252  3.3628 -1.1319  2.0079
 4059SOL     OW23812   3.886   1.014   0.620 -0.4994 -0.3258 -0.6320
 4059SOL    HW123813   3.813   1.027   0.559  2.8332 -0.0367 -4.5223
 4059SOL    HW223814   3.915   1.104   0.631 -1.7238 -0.0227  0.1326
 4060SOL     OW23815   3.236   2.252   4.867  0.2607 -0.1495 -0.1141
 4060SOL    HW123816   3.244   2.196   4.944  0.1074 -1.2355 -0.9016
 4060SOL    HW223817   3.264   2.338   4.898  1.5212 -0.3292 -0.7675
 4061SOL     OW23818   0.293   4.291  12.821 -0.5109  0.3253 -0.0516
 4061SOL    HW123819   0.317   4.367  12.873  0.8152 -0.3967  0.3820
 4061SOL    HW223820   0.345   4.222  12.862 -1.4960  0.1736  0.9604
 4062SOL     OW23821   3.084   0.207   2.410 -0.1677 -0.1330 -0.1799
 4062SOL    HW123822   3.159   0.265   2.398 -0.9799  0.6064 -1.7167
 4062SOL    HW223823   3.058   0.202   2.318  0.4247 -0.9225 -0.3057
 4063SOL     OW23824   3.649   1.297  10.811  0.5580 -0.4789  0.0730
 4063SOL    HW123825   3.571   1.258  10.850  0.0361  0.8515  0.3881
 4063SOL    HW223826   3.720   1.248  10.852  0.5480 -0.0166  0.6498
 4064SOL     OW23827   3.675   0.527   8.280  0.0657 -0.5611  0.1309
 4064SOL    HW123828   3.682   0.558   8.190  3.4514 -2.9679 -0.4400
 4064SOL    HW223829   3.600   0.467   8.273  0.5866 -1.3051  0.8192
 4065SOL     OW23830   0.019   2.104  13.301 -0.1355  0.5527  0.2577
 4065SOL    HW123831   0.071   2.133  13.227 -1.9308 -1.2095 -1.6967
 4065SOL    HW223832   0.088   2.099  13.368  1.5567 -0.5548 -1.5827
 4066SOL     OW23833   2.939   2.929  15.390  0.7109 -0.0251 -0.1601
 4066SOL    HW123834   2.984   2.996  15.338  1.2030  0.9306  1.5202
 4066SOL    HW223835   2.857   2.920  15.341  1.0992  0.2539 -0.8729
 4067SOL     OW23836   4.160   2.537  11.969  0.2064  0.1645  1.0351
 4067SOL    HW123837   4.205   2.498  12.044  1.6614 -1.8331 -0.8900
 4067SOL    HW223838   4.088   2.475  11.981 -2.0557  2.6116  0.2550
 4068SOL     OW23839   0.665   2.843   6.556  0.9589  0.1461 -0.6618
 4068SOL    HW123840   0.758   2.863   6.544  0.8757 -0.8614 -2.9525
 4068SOL    HW223841   0.629   2.821   6.471 -2.0681  1.9049  0.1640
 4069SOL     OW23842   3.425   1.490   7.221  0.1520  0.1960 -0.1524
 4069SOL    HW123843   3.410   1.577   7.259  1.3214  0.1396  0.4389
 4069SOL    HW223844   3.500   1.504   7.163  1.2351 -1.7965  0.7614
 4070SOL     OW23845   2.273   1.700  13.043 -0.1536  0.3206 -0.4375
 4070SOL    HW123846   2.226   1.639  13.100 -0.7276 -0.0668 -1.3171
 4070SOL    HW223847   2.349   1.733  13.092  1.8111 -2.3048 -1.7335
 4071SOL     OW23848   3.593   2.802   3.242  0.0008  0.7378  0.0491
 4071SOL    HW123849   3.574   2.761   3.158  0.0093 -0.2207  0.5153
 4071SOL    HW223850   3.630   2.885   3.212  0.8354  0.6060  0.6906
 4072SOL     OW23851   0.579   4.673   2.475  0.2964  0.0832 -0.3663
 4072SOL    HW123852   0.670   4.669   2.507  0.5182 -1.1032 -1.1456
 4072SOL    HW223853   0.588   4.716   2.390 -1.6101  0.5304 -0.3329
 4073SOL     OW23854   2.821   1.656   3.266  0.0456 -0.7662 -0.2090
 4073SOL    HW123855   2.873   1.596   3.320  1.9975  0.8544 -0.2554
 4073SOL    HW223856   2.869   1.669   3.185  0.4194  0.8793  0.2685
 4074SOL     OW23857   3.920   4.634   3.844 -0.2167  0.2344 -0.4977
 4074SOL    HW123858   3.881   4.643   3.931 -0.6594 -1.8338 -0.4870
 4074SOL    HW223859   3.947   4.542   3.842 -2.0290 -0.2892 -0.4849
 4075SOL     OW23860   1.348   3.990  13.177  0.7316  0.5315 -0.2134
 4075SOL    HW123861   1.273   3.963  13.124  2.0332 -1.4371 -1.0414
 4075SOL    HW223862   1.323   4.082  13.190  0.1838  0.7274 -2.6193
 4076SOL     OW23863   4.691   0.532   5.895 -0.4963 -0.7504 -0.1796
 4076SOL    HW123864   4.737   0.553   5.813  2.2432 -2.2042  0.9861
 4076SOL    HW223865   4.734   0.452   5.924 -2.2546 -1.6411 -0.0679
 4077SOL     OW23866   3.958   2.600  14.891  0.0416  0.5706  0.4283
 4077SOL    HW123867   3.960   2.605  14.795 -0.1356  0.7121  0.4317
 4077SOL    HW223868   3.996   2.686  14.909 -1.0928  1.1832 -0.1100
 4078SOL     OW23869   0.157   3.315   1.872 -0.0261  0.2767  0.1873
 4078SOL    HW123870   0.079   3.291   1.822 -0.8945 -0.1836  1.7814
 4078SOL    HW223871   0.223   3.271   1.819 -0.2013 -0.9877  1.0176
 4079SOL     OW23872   1.177   4.630   6.011  0.0673 -0.0921 -0.8776
 4079SOL    HW123873   1.152   4.722   6.016  0.9176  0.1607 -1.2172
 4079SOL    HW223874   1.113   4.590   5.951 -2.0535  0.8446  0.7704
 4080SOL     OW23875   2.487   1.138   3.860  0.0164  0.1258 -0.3264
 4080SOL    HW123876   2.487   1.052   3.902  2.6453 -0.0663 -0.6889
 4080SOL    HW223877   2.501   1.131   3.765 -0.2981 -0.9175 -0.2946
 4081SOL     OW23878   1.519   1.770   4.831 -0.5028 -0.0987 -0.2454
 4081SOL    HW123879   1.597   1.717   4.846 -0.6631 -1.6727 -4.8792
 4081SOL    HW223880   1.477   1.770   4.917  0.0098 -2.4355  0.0250
 4082SOL     OW23881   3.018   2.130  17.478  0.1929 -0.6331 -0.1890
 4082SOL    HW123882   3.044   2.160  17.565  0.1548 -0.9964 -0.0517
 4082SOL    HW223883   3.100   2.164  17.441 -0.4093 -0.3474 -1.2606
 4083SOL     OW23884   2.273   1.485   1.934 -0.2471 -0.2368 -0.1182
 4083SOL    HW123885   2.315   1.561   1.891 -0.6821 -0.5609 -1.1264
 4083SOL    HW223886   2.250   1.520   2.019  0.4468 -0.3640  0.1225
 4084SOL     OW23887   4.354   0.727   9.732 -0.0808 -0.6912 -0.2464
 4084SOL    HW123888   4.394   0.810   9.706 -1.1806 -0.0724  0.0112
 4084SOL    HW223889   4.337   0.755   9.822 -0.3016  1.1140 -0.8587
 4085SOL     OW23890   2.455   3.699   1.951  0.0167 -0.3695 -0.3918
 4085SOL    HW123891   2.528   3.664   2.002 -1.7274 -0.7600  1.8726
 4085SOL    HW223892   2.493   3.771   1.902 -0.5230  1.7951  2.4149
 4086SOL     OW23893   1.612   2.826   5.355  0.3027 -0.1299  0.5944
 4086SOL    HW123894   1.634   2.810   5.263  0.8113  2.6522  0.2407
 4086SOL    HW223895   1.576   2.743   5.385 -4.1342  1.0972 -1.2038
 4087SOL     OW23896   3.361   2.931   8.776 -0.2204  0.1850  0.4494
 4087SOL    HW123897   3.319   3.008   8.815  0.0610  0.5111  0.1198
 4087SOL    HW223898   3.290   2.882   8.735  0.1991  0.5642 -0.7415
 4088SOL     OW23899   3.940   1.733   0.660 -0.0169  0.0235  0.4722
 4088SOL    HW123900   3.863   1.768   0.705  0.8379  0.3740  1.6569
 4088SOL    HW223901   4.006   1.801   0.674 -1.0314  1.0335  0.3465
 4089SOL     OW23902   3.108   2.482  10.473  0.1212 -0.4689  0.1821
 4089SOL    HW123903   3.199   2.507  10.454 -0.5267  1.1639 -0.7353
 4089SOL    HW223904   3.060   2.552  10.430  0.9755  0.1792  0.2772
 4090SOL     OW23905   2.287   2.448   8.568 -0.2141  0.2665  0.5360
 4090SOL    HW123906   2.201   2.409   8.559  0.5823 -1.6890  1.3707
 4090SOL    HW223907   2.266   2.540   8.554 -0.0460  0.2899  0.4300
 4091SOL     OW23908   0.754   3.450  10.858  0.2181 -0.0551  0.1194
 4091SOL    HW123909   0.734   3.361  10.887  0.5862 -0.4455 -0.8197
 4091SOL    HW223910   0.667   3.472  10.823  0.7488 -0.9806 -1.7636
 4092SOL     OW23911   1.390   1.389   5.769 -0.3302 -0.1168  0.7412
 4092SOL    HW123912   1.406   1.370   5.676 -0.9397 -0.8349  0.7758
 4092SOL    HW223913   1.328   1.461   5.757 -0.4784 -0.4519 -0.5528
 4093SOL     OW23914   3.644   0.044   7.396  0.0310  0.0407 -0.0126
 4093SOL    HW123915   3.590   4.722   7.344 -0.4253  0.4429 -0.0051
 4093SOL    HW223916   3.587   0.119   7.415 -0.1940  0.5742 -2.9064
 4094SOL     OW23917   0.146   1.161   3.451  0.1518 -0.2446  0.1679
 4094SOL    HW123918   0.148   1.203   3.365  1.4103 -2.0886 -0.7034
 4094SOL    HW223919   0.236   1.135   3.465  0.2928  0.3825  0.4144
 4095SOL     OW23920   4.568   4.373   5.191 -0.0235  0.4293 -0.9739
 4095SOL    HW123921   4.514   4.343   5.264  1.5491  0.5696  0.2261
 4095SOL    HW223922   4.597   4.285   5.165  1.9361  0.8999 -0.3696
 4096SOL     OW23923   2.814   4.395  15.309 -0.1172  0.4082 -0.5691
 4096SOL    HW123924   2.809   4.437  15.395 -1.0976  3.2473 -2.0062
 4096SOL    HW223925   2.871   4.454  15.259  0.9507 -0.3249 -0.2030
 4097SOL     OW23926   2.442   3.411   4.379 -0.3413  0.4127  0.4425
 4097SOL    HW123927   2.426   3.467   4.455 -1.5175  2.8404 -1.6348
 4097SOL    HW223928   2.484   3.331   4.413  2.2662  0.8124 -1.8448
 4098SOL     OW23929   0.712   2.717   8.292  0.0926  0.0081  0.5242
 4098SOL    HW123930   0.765   2.782   8.339 -0.6276  0.6918  0.3981
 4098SOL    HW223931   0.740   2.730   8.202  0.6812 -3.9394  0.1220
 4099SOL     OW23932   3.061   1.127  15.867  0.6356  0.0241  0.2353
 4099SOL    HW123933   3.129   1.194  15.864 -0.2553  0.8699 -1.6265
 4099SOL    HW223934   3.093   1.081  15.789  0.8090  1.2566 -0.4305
 4100SOL     OW23935   0.597   4.376   1.754  0.6094  0.2887 -0.0706
 4100SOL    HW123936   0.579   4.331   1.836  1.3516 -0.2078 -0.1795
 4100SOL    HW223937   0.667   4.334   1.704  1.1700  0.7639  0.3177
 4101SOL     OW23938   0.595   4.183  12.763  0.5171 -0.2580  0.2927
 4101SOL    HW123939   0.678   4.153  12.799  1.2143 -1.8975 -2.6534
 4101SOL    HW223940   0.542   4.105  12.778  2.3371 -1.7818 -1.1485
 4102SOL     OW23941   3.322   1.668   3.605 -0.2558 -0.3578  0.5919
 4102SOL    HW123942   3.314   1.752   3.650 -0.1570  0.3038 -0.6340
 4102SOL    HW223943   3.352   1.705   3.522  1.1337 -1.1117  0.7465
 4103SOL     OW23944   3.032   2.384   2.751  0.6950 -0.6428  0.2662
 4103SOL    HW123945   3.105   2.444   2.739  0.3786  0.0065  1.5877
 4103SOL    HW223946   3.042   2.353   2.841  2.7135 -0.0811  0.2231
 4104SOL     OW23947   0.894   2.387   6.138  0.1136 -0.2017 -0.0964
 4104SOL    HW123948   0.830   2.361   6.204  0.5905 -2.1540 -0.4017
 4104SOL    HW223949   0.841   2.370   6.060 -0.3309 -2.2854  0.6453
 4105SOL     OW23950   4.111   2.741   2.843  0.2219 -0.9699  0.2727
 4105SOL    HW123951   4.069   2.826   2.826 -0.6111 -1.3568  0.3810
 4105SOL    HW223952   4.145   2.759   2.930 -0.1319  0.5902  0.0951
 4106SOL     OW23953   2.828   3.967   0.667  0.3730 -0.3316 -0.0829
 4106SOL    HW123954   2.855   4.019   0.592  0.2851 -1.2634 -0.7617
 4106SOL    HW223955   2.917   3.963   0.703 -0.1653  0.4387  1.3221
 4107SOL     OW23956   2.256   3.889   9.198 -0.0686 -0.2957  0.6820
 4107SOL    HW123957   2.322   3.922   9.258  1.2308 -1.3854 -0.1619
 4107SOL    HW223958   2.181   3.928   9.243 -1.4830 -1.1384 -0.9469
 4108SOL     OW23959   2.618   1.955   3.118 -0.1795 -0.2944 -0.1200
 4108SOL    HW123960   2.695   1.983   3.168 -1.1335  0.8011  0.7414
 4108SOL    HW223961   2.606   1.875   3.169 -2.3520  1.2143  1.7206
 4109SOL     OW23962   4.367   0.186   4.437 -0.1481  0.1669 -0.0373
 4109SOL    HW123963   4.458   0.195   4.407 -0.6353 -0.1003 -1.6054
 4109SOL    HW223964   4.371   0.107   4.491  2.1257 -0.0672 -0.5403
 4110SOL     OW23965   3.562   2.407   4.517 -0.4764 -0.0724  0.6883
 4110SOL    HW123966   3.610   2.400   4.599  0.0393  0.1832  0.4124
 4110SOL    HW223967   3.588   2.324   4.477  1.1799  0.0121  1.5860
 4111SOL     OW23968   1.779   0.433   3.846 -0.1932 -0.4987  0.5969
 4111SOL    HW123969   1.777   0.341   3.820  0.6592 -0.2249 -0.4635
 4111SOL    HW223970   1.871   0.453   3.826 -0.0898  0.5629  2.1296
 4112SOL     OW23971   2.651   1.365   5.310 -0.1679 -0.5217  0.4307
 4112SOL    HW123972   2.691   1.278   5.312  1.8927  0.4183 -0.0138
 4112SOL    HW223973   2.600   1.356   5.391 -0.3101 -0.1611  0.3835
 4113SOL     OW23974   4.189   3.802   2.167  0.3708  0.5094 -0.0242
 4113SOL    HW123975   4.178   3.886   2.122  0.6020 -0.0997 -1.2122
 4113SOL    HW223976   4.284   3.795   2.158  0.3600 -1.1710  1.2427
 4114SOL     OW23977   0.814   4.465   7.637  0.1624 -0.0614 -0.1934
 4114SOL    HW123978   0.756   4.398   7.674 -0.2484  0.0688 -0.6032
 4114SOL    HW223979   0.869   4.410   7.582 -0.9155 -0.3292 -1.0118
 4115SOL     OW23980   2.798   2.877   4.374  0.5372  0.2763  0.0267
 4115SOL    HW123981   2.746   2.926   4.311  1.3410 -1.8943 -2.3369
 4115SOL    HW223982   2.846   2.953   4.407  1.5205 -0.3139 -0.0291
 4116SOL     OW23983   0.923   1.095   8.633  0.0743  0.0554  0.1527
 4116SOL    HW123984   0.848   1.084   8.575 -0.5275  0.7086  0.7935
 4116SOL    HW223985   0.976   1.162   8.592 -1.4519  1.6293  0.7367
 4117SOL     OW23986   1.040   2.806   7.727 -0.2975 -0.1046  0.4376
 4117SOL    HW123987   0.955   2.763   7.725  0.0477 -0.7995  0.7569
 4117SOL    HW223988   1.067   2.778   7.640  2.0902  1.3399  0.6902
 4118SOL     OW23989   3.184   3.145  17.161  0.0079 -0.4513 -0.1152
 4118SOL    HW123990   3.257   3.174  17.215  1.0713  0.5817 -2.0820
 4118SOL    HW223991   3.170   3.220  17.103  1.3494  0.9692  1.4128
 4119SOL     OW23992   1.894   4.647   4.194 -0.2610  0.1648 -0.2924
 4119SOL    HW123993   1.818   4.691   4.157 -1.3463  0.0894  1.8104
 4119SOL    HW223994   1.917   4.706   4.267  0.8093 -0.1470 -0.3710
 4120SOL     OW23995   4.705   1.372   7.054 -0.0803  0.0621  0.0651
 4120SOL    HW123996   4.650   1.319   7.112 -1.4112  0.0967 -1.1821
 4120SOL    HW223997   4.635   1.399   6.995  2.3321 -2.2406 -3.8897
 4121SOL     OW23998   1.935   0.916   5.905 -0.2754  0.2206  0.3216
 4121SOL    HW123999   1.948   0.846   5.969 -0.2757  0.0382  0.1211
 4121SOL    HW224000   1.968   0.991   5.955  1.6960 -0.3685 -0.1144
 4122SOL     OW24001   2.486   1.348  17.066 -0.4127  1.1454  0.5279
 4122SOL    HW124002   2.494   1.298  16.985 -0.4007 -1.0597  1.9074
 4122SOL    HW224003   2.511   1.432  17.028  0.2741 -0.0996 -1.7661
 4123SOL     OW24004   1.459   0.031   8.945  0.1252 -0.5523  0.4344
 4123SOL    HW124005   1.464   4.673   8.933  0.7367 -0.6616  1.5588
 4123SOL    HW224006   1.539   0.068   8.907  0.2276 -0.3091  0.8939
 4124SOL     OW24007   2.186   2.513   1.091 -0.0563  0.1609 -0.2284
 4124SOL    HW124008   2.121   2.476   1.031 -1.0074  0.8381  0.3877
 4124SOL    HW224009   2.221   2.582   1.034  3.3850 -2.3483 -1.1883
 4125SOL     OW24010   3.763   1.751   4.071 -0.3360 -0.4794  0.2529
 4125SOL    HW124011   3.746   1.737   3.978  0.4020  0.0144  0.0465
 4125SOL    HW224012   3.773   1.846   4.072 -0.0921 -0.4880 -1.7013
 4126SOL     OW24013   1.790   1.316  15.744 -0.3560  0.1290  0.7127
 4126SOL    HW124014   1.795   1.249  15.676 -1.9705  0.7271 -0.0040
 4126SOL    HW224015   1.743   1.273  15.815 -1.8092  2.4621  1.1871
 4127SOL     OW24016   2.391   0.220   4.048 -0.4502  0.1359 -0.3846
 4127SOL    HW124017   2.464   0.161   4.027  1.7891  2.3179  1.1671
 4127SOL    HW224018   2.362   0.164   4.120 -0.7313  1.2935  0.4125
 4128SOL     OW24019   3.292   4.024   3.168  0.4034  0.2904 -0.2557
 4128SOL    HW124020   3.356   3.969   3.124 -2.5648 -2.6979 -0.7740
 4128SOL    HW224021   3.349   4.047   3.242  0.2346 -0.0842 -0.0112
 4129SOL     OW24022   3.903   2.846   1.018 -0.5876 -0.0666  0.1534
 4129SOL    HW124023   3.963   2.919   1.034 -2.4008  1.1525  1.4485
 4129SOL    HW224024   3.879   2.860   0.927  1.4604  0.0268 -0.3697
 4130SOL     OW24025   2.004   0.384   7.717  0.4880  0.0131 -0.4808
 4130SOL    HW124026   2.019   0.348   7.805 -0.8213  1.1362  0.1921
 4130SOL    HW224027   1.982   0.305   7.668 -1.1083 -0.1206  0.4461
 4131SOL     OW24028   1.608   2.683  10.777 -0.0315 -0.3678  0.0864
 4131SOL    HW124029   1.553   2.628  10.721  1.1012 -1.4319 -0.0058
 4131SOL    HW224030   1.690   2.679  10.728 -0.7198 -0.7691 -1.0298
 4132SOL     OW24031   1.257   4.270  10.720 -0.8590 -0.2317 -0.3570
 4132SOL    HW124032   1.308   4.339  10.763 -0.5558 -1.7894  1.7787
 4132SOL    HW224033   1.330   4.211  10.700 -0.2754 -0.7463  3.2801
 4133SOL     OW24034   1.914   1.197   2.347  0.9398  0.7994 -0.3280
 4133SOL    HW124035   1.875   1.121   2.391  0.3135  0.7226 -1.0058
 4133SOL    HW224036   2.004   1.166   2.345 -0.2437 -2.7122  0.3497
 4134SOL     OW24037   0.876   1.688   2.608 -1.0186 -0.5942 -0.1526
 4134SOL    HW124038   0.834   1.708   2.525 -1.5774 -0.2392  0.2219
 4134SOL    HW224039   0.877   1.592   2.603  0.3292 -0.6398  0.8433
 4135SOL     OW24040   2.996   0.958   3.988 -0.1591 -0.2820 -0.3806
 4135SOL    HW124041   2.960   0.945   4.076 -0.2463  2.3495 -0.0298
 4135SOL    HW224042   3.012   0.868   3.960  1.5172 -0.1634  0.1855
 4136SOL     OW24043   1.624   4.036   7.357  0.1218 -0.0541 -0.6423
 4136SOL    HW124044   1.578   4.063   7.278 -1.0037  0.8684  0.3424
 4136SOL    HW224045   1.713   4.055   7.327 -0.1751  1.1085 -0.7888
 4137SOL     OW24046   1.103   0.661  14.635 -0.1796  0.1871  0.1934
 4137SOL    HW124047   1.169   0.613  14.684 -2.9773  0.7148  4.5211
 4137SOL    HW224048   1.100   0.746  14.678  1.6303 -0.0326  0.7242
 4138SOL     OW24049   4.482   0.135  11.770  0.7992 -0.4598 -0.3772
 4138SOL    HW124050   4.413   0.071  11.757 -1.1292  2.1039 -2.7523
 4138SOL    HW224051   4.496   0.166  11.680 -2.1795 -0.1325 -0.7229
 4139SOL     OW24052   0.845   1.836   4.592 -0.4431  0.2279  0.0073
 4139SOL    HW124053   0.927   1.790   4.573 -1.1095 -1.3175  0.8721
 4139SOL    HW224054   0.792   1.793   4.526  0.7511 -1.4843  0.1643
 4140SOL     OW24055   3.298   3.471   2.424  0.3490  0.3159 -0.6789
 4140SOL    HW124056   3.380   3.445   2.465 -0.2786 -1.2974 -0.4461
 4140SOL    HW224057   3.240   3.418   2.479 -1.1067  1.3737 -1.1885
 4141SOL     OW24058   4.641   2.567   2.978  0.1219 -0.3812  0.8647
 4141SOL    HW124059   4.604   2.528   3.058 -0.6978 -2.2995 -0.4681
 4141SOL    HW224060   4.732   2.538   2.989  0.5446  0.3434 -0.6946
 4142SOL     OW24061   0.762   3.977   2.638 -0.2368  1.1018 -0.6113
 4142SOL    HW124062   0.789   3.988   2.729 -1.6562  0.2810 -0.0848
 4142SOL    HW224063   0.840   3.990   2.585  0.1190 -0.6565 -0.5230
 4143SOL     OW24064   2.666   4.187   0.621 -0.6338 -0.4114  0.5419
 4143SOL    HW124065   2.739   4.131   0.646  0.3228 -0.1399 -1.5585
 4143SOL    HW224066   2.618   4.202   0.702 -1.3167 -2.6014  0.5486
 4144SOL     OW24067   4.568   1.354   3.223 -0.0913  0.1174 -0.1915
 4144SOL    HW124068   4.488   1.375   3.175  0.0810  0.0320 -0.5112
 4144SOL    HW224069   4.549   1.367   3.316  3.4704  0.6940  0.4412
 4145SOL     OW24070   4.612   0.063   6.754  0.1742  0.6602 -0.2940
 4145SOL    HW124071   4.559   0.108   6.688 -0.7825  0.5134  0.3682
 4145SOL    HW224072   4.559   4.723   6.774  0.4916 -0.0265 -2.1032
 4146SOL     OW24073   2.560   1.205   5.836  0.2445 -0.2310 -0.1241
 4146SOL    HW124074   2.483   1.252   5.868  0.4134 -0.2787  0.3497
 4146SOL    HW224075   2.555   1.132   5.898  0.5269  1.1621  1.5244
 4147SOL     OW24076   0.535   1.489  14.119 -0.2480 -0.3034 -0.2542
 4147SOL    HW124077   0.510   1.404  14.155 -0.1967 -0.7643 -1.3105
 4147SOL    HW224078   0.613   1.471  14.068 -1.0650  0.0340 -1.6198
 4148SOL     OW24079   1.174   1.995   3.994 -0.0518 -0.2065  0.7602
 4148SOL    HW124080   1.113   1.966   3.926 -0.0737 -0.4299  0.8741
 4148SOL    HW224081   1.243   1.929   3.991 -0.4143 -0.4867 -1.2712
 4149SOL     OW24082   1.545   2.262   1.637  0.2489  0.2120  0.3315
 4149SOL    HW124083   1.479   2.202   1.602  1.9824  0.1478 -2.7903
 4149SOL    HW224084   1.575   2.301   1.555 -1.8743  3.4326  1.0951
 4150SOL     OW24085   0.998   0.849   7.111 -0.1750 -0.0671  0.2804
 4150SOL    HW124086   1.087   0.814   7.114  0.1946  0.7992 -1.0002
 4150SOL    HW224087   0.962   0.807   7.033  1.6598 -0.3149 -0.4126
 4151SOL     OW24088   1.233   3.350  16.997  0.0778 -0.6623 -0.3903
 4151SOL    HW124089   1.269   3.398  16.923 -1.6991  2.4209  0.7525
 4151SOL    HW224090   1.177   3.421  17.027 -0.1778 -0.3326 -1.6744
 4152SOL     OW24091   1.199   4.282   3.567  0.2073 -0.1459  0.1193
 4152SOL    HW124092   1.125   4.255   3.513 -0.2673 -3.7175  2.5981
 4152SOL    HW224093   1.239   4.195   3.571 -0.2923 -0.4574 -1.5161
 4153SOL     OW24094   1.051   1.290   7.694 -0.1665 -0.2974  0.2446
 4153SOL    HW124095   1.021   1.380   7.712 -0.2515  0.1990 -2.3685
 4153SOL    HW224096   1.043   1.242   7.776  2.1692  0.9961  1.2321
 4154SOL     OW24097   2.822   3.050   1.998  0.0246  0.3691 -0.3648
 4154SOL    HW124098   2.820   3.014   1.909 -0.7319 -0.9419  0.1806
 4154SOL    HW224099   2.773   2.979   2.040 -0.4150  0.4371 -0.7603
 4155SOL     OW24100   0.273   1.885   6.065  0.1014  0.2696  0.5419
 4155SOL    HW124101   0.217   1.957   6.092 -2.7344 -0.4117 -3.6858
 4155SOL    HW224102   0.347   1.908   6.122  0.2557 -1.8258  1.1828
 4156SOL     OW24103   0.835   1.460  12.113  0.2036 -0.7648 -0.2603
 4156SOL    HW124104   0.789   1.537  12.147 -0.7028 -0.7059 -1.6449
 4156SOL    HW224105   0.871   1.430  12.197 -1.0509  0.4336  0.7142
 4157SOL     OW24106   3.002   3.642   5.730 -0.6142 -0.2047  0.1859
 4157SOL    HW124107   2.932   3.589   5.769  0.6081 -0.4285  2.0652
 4157SOL    HW224108   3.079   3.586   5.733  1.2077  2.3868  1.2537
 4158SOL     OW24109   4.419   1.084  16.657  0.6233 -0.1452 -0.6634
 4158SOL    HW124110   4.348   1.023  16.639  2.7960 -2.6872 -0.7322
 4158SOL    HW224111   4.482   1.020  16.688 -0.3927 -0.5603  0.5159
 4159SOL     OW24112   3.478   0.489   7.069  0.0853 -0.0554  0.0654
 4159SOL    HW124113   3.429   0.424   7.018 -0.0739 -0.5302  0.8263
 4159SOL    HW224114   3.566   0.451   7.063  0.8843  1.7101  0.8629
 4160SOL     OW24115   2.266   1.071  12.205 -0.0817 -1.2452 -0.1943
 4160SOL    HW124116   2.349   1.104  12.172 -0.1585 -0.3074  0.5757
 4160SOL    HW224117   2.208   1.134  12.162  1.3659  0.2817  0.0922
 4161SOL     OW24118   3.536   1.682  10.015 -0.3279 -0.1253  0.0534
 4161SOL    HW124119   3.450   1.642  10.025 -0.4747  0.7312  2.2915
 4161SOL    HW224120   3.555   1.690  10.109  0.1476 -2.5822  0.1664
 4162SOL     OW24121   4.329   0.637  11.263 -0.1408  0.2127  0.2965
 4162SOL    HW124122   4.274   0.696  11.314  0.4188  0.2982  0.8091
 4162SOL    HW224123   4.398   0.608  11.323  1.4432 -0.4302 -1.8258
 4163SOL     OW24124   4.597   4.600  11.553  0.1835  0.3021  0.5190
 4163SOL    HW124125   4.655   4.558  11.489 -0.0176  2.1361 -0.8537
 4163SOL    HW224126   4.658   4.663  11.590 -0.2628  0.3127  1.2329
 4164SOL     OW24127   2.113   2.519   0.653 -0.9608 -0.4283  0.0425
 4164SOL    HW124128   2.097   2.475   0.736 -3.5885  0.6879  0.1448
 4164SOL    HW224129   2.069   2.461   0.590 -0.8415 -1.7201  1.1551
 4165SOL     OW24130   2.441   4.245   2.873 -0.4427  0.4942  0.0922
 4165SOL    HW124131   2.514   4.184   2.887 -1.1064  0.0417  1.4709
 4165SOL    HW224132   2.427   4.221   2.781  1.2557  0.5831 -0.1958
 4166SOL     OW24133   1.046   3.743   8.700  0.0197  0.2672  0.0363
 4166SOL    HW124134   1.069   3.673   8.639 -0.3266 -1.0554  1.3989
 4166SOL    HW224135   1.106   3.805   8.658 -0.7901  1.5818  0.8245
 4167SOL     OW24136   2.905   0.640   6.644  0.1349 -0.2781 -0.5588
 4167SOL    HW124137   2.979   0.671   6.696 -1.1389  0.1012  1.0204
 4167SOL    HW224138   2.846   0.716   6.644 -0.7154 -0.9473  0.6447
 4168SOL     OW24139   2.663   1.721  10.600 -0.3084  0.3903  0.5640
 4168SOL    HW124140   2.700   1.727  10.512  2.1457  0.3235  1.5868
 4168SOL    HW224141   2.736   1.701  10.657  0.3644 -0.5169 -0.6264
 4169SOL     OW24142   4.254   0.754   5.262  0.7745 -0.1757  0.4396
 4169SOL    HW124143   4.161   0.777   5.264  1.4368  2.5038  1.0450
 4169SOL    HW224144   4.254   0.703   5.181  0.3037  0.2923  0.1403
 4170SOL     OW24145   3.788   0.817   5.409 -0.4527 -0.3728 -0.2420
 4170SOL    HW124146   3.824   0.904   5.394 -1.3351 -0.0831 -0.7086
 4170SOL    HW224147   3.867   0.763   5.408 -0.5710 -0.5846  1.1666
 4171SOL     OW24148   3.931   2.381  15.020 -1.0309  0.1161 -0.0037
 4171SOL    HW124149   3.951   2.456  14.964 -0.3109  0.7862  1.1547
 4171SOL    HW224150   3.919   2.427  15.103 -0.6054  0.9729 -0.4224
 4172SOL     OW24151   2.950   2.242  16.786  0.2634  0.1276  0.4364
 4172SOL    HW124152   2.931   2.300  16.860  0.3975  1.6672 -0.7185
 4172SOL    HW224153   2.952   2.304  16.713  0.9592 -2.5660 -1.8427
 4173SOL     OW24154   4.665   0.222   6.124  0.1333  0.0962  0.4614
 4173SOL    HW124155   4.682   0.158   6.193 -1.1827 -0.6180  0.1195
 4173SOL    HW224156   4.679   0.304   6.171  0.7903  0.5687 -0.5586
 4174SOL     OW24157   3.897   2.794   3.717 -0.2584  0.2248  0.6558
 4174SOL    HW124158   3.853   2.791   3.632  0.9975 -1.8037  0.0808
 4174SOL    HW224159   3.858   2.878   3.743 -2.1976 -0.6801  0.6825
 4175SOL     OW24160   3.855   3.846   3.615 -0.6921 -0.0098  0.0972
 4175SOL    HW124161   3.803   3.915   3.574 -0.5651 -0.1201 -0.2427
 4175SOL    HW224162   3.927   3.899   3.648 -0.2884 -0.7646  0.4306
 4176SOL     OW24163   3.686   2.209   2.015 -0.1163 -0.0105 -0.0380
 4176SOL    HW124164   3.596   2.205   1.983  0.1221 -0.3054 -0.6857
 4176SOL    HW224165   3.683   2.299   2.047 -1.0279 -0.1553  0.2872
 4177SOL     OW24166   2.378   3.503  15.357  0.4696  0.2737 -0.3275
 4177SOL    HW124167   2.370   3.558  15.434 -0.5112  1.4424 -1.2766
 4177SOL    HW224168   2.367   3.415  15.394  0.4420 -0.0873 -1.1756
 4178SOL     OW24169   3.528   2.304   0.901 -0.6589  0.3464 -0.4756
 4178SOL    HW124170   3.592   2.371   0.882 -1.5789  1.1093 -0.8800
 4178SOL    HW224171   3.529   2.267   0.813 -0.5450  2.4997 -1.3678
 4179SOL     OW24172   4.199   0.158   6.136 -0.4528  0.0524 -0.1803
 4179SOL    HW124173   4.270   0.200   6.087 -0.0830  0.0990  0.3991
 4179SOL    HW224174   4.174   0.230   6.193  0.8437  0.2459  0.1433
 4180SOL     OW24175   3.925   0.944   6.243 -0.0072 -0.0644 -0.1009
 4180SOL    HW124176   3.934   0.944   6.339  1.9410 -1.2749 -0.2698
 4180SOL    HW224177   3.907   0.853   6.222  2.5932 -0.5187 -0.3740
 4181SOL     OW24178   3.375   2.465  17.460  0.0903  0.5033 -0.4261
 4181SOL    HW124179   3.388   2.548  17.506 -1.3379 -0.1236  1.1136
 4181SOL    HW224180   3.417   2.483  17.376 -0.2739 -1.0590 -0.9332
 4182SOL     OW24181   3.780   2.681   0.623  0.0114 -0.2673  0.0853
 4182SOL    HW124182   3.686   2.699   0.629  0.1280  0.2134  0.4656
 4182SOL    HW224183   3.813   2.754   0.675  2.7961 -0.7480 -1.0067
 4183SOL     OW24184   2.721   1.058   6.223  0.2492 -0.0368  0.2038
 4183SOL    HW124185   2.811   1.070   6.192 -0.0372  0.0598 -0.6070
 4183SOL    HW224186   2.708   0.966   6.199 -0.0450 -0.3731  1.6476
 4184SOL     OW24187   0.403   2.570   1.398  0.3146 -0.2557  0.1198
 4184SOL    HW124188   0.372   2.599   1.484 -0.8323 -3.0385  0.6512
 4184SOL    HW224189   0.318   2.532   1.373  0.3744  0.0559 -0.5624
 4185SOL     OW24190   0.979   0.015   2.810 -0.2267  0.3611 -0.0572
 4185SOL    HW124191   1.069   4.721   2.801  0.2074  1.2901  1.1009
 4185SOL    HW224192   0.957   0.036   2.901  1.2633 -0.4449  0.4898
 4186SOL     OW24193   2.973   1.560  11.425  0.0832  0.7363  0.0890
 4186SOL    HW124194   3.008   1.585  11.339 -1.3632 -1.3086 -1.1056
 4186SOL    HW224195   2.882   1.539  11.401  0.0439  0.9781  0.0293
 4187SOL     OW24196   0.603   3.471   5.634  0.1725 -0.0040  0.3298
 4187SOL    HW124197   0.509   3.466   5.621  0.2792  1.3833 -0.9380
 4187SOL    HW224198   0.617   3.565   5.624 -0.7236  0.1096  0.1645
 4188SOL     OW24199   1.631   0.518   4.505  0.0524  0.4758  1.1075
 4188SOL    HW124200   1.722   0.525   4.534  0.0131  0.7563  1.1638
 4188SOL    HW224201   1.598   0.480   4.587 -2.9641  0.0483 -0.3017
 4189SOL     OW24202   1.209   1.518  16.073  0.4323  0.5414  0.0861
 4189SOL    HW124203   1.151   1.465  16.019  1.7814 -1.5042  0.6199
 4189SOL    HW224204   1.199   1.459  16.148 -1.0186  0.9843  0.2319
 4190SOL     OW24205   3.194   4.100   7.262 -0.6742 -0.2704  0.4689
 4190SOL    HW124206   3.121   4.144   7.305  0.6679  1.3362  1.1080
 4190SOL    HW224207   3.186   4.143   7.177  3.3917 -2.1434 -0.8543
 4191SOL     OW24208   0.510   1.865  12.215  0.6504  0.3913  0.2091
 4191SOL    HW124209   0.510   1.778  12.256  1.0988  0.2382 -0.1130
 4191SOL    HW224210   0.536   1.832  12.129  0.2913 -0.2796  0.3615
 4192SOL     OW24211   4.610   3.446  17.430 -0.1059 -0.4136  0.4966
 4192SOL    HW124212   4.573   3.534  17.436 -2.0245 -1.1444 -0.6974
 4192SOL    HW224213   4.526   3.400  17.438 -1.2354  1.2993 -1.5308
 4193SOL     OW24214   0.568   0.772   3.389 -0.2928 -0.1968 -0.0552
 4193SOL    HW124215   0.475   0.786   3.403 -0.1118  1.0547 -0.1217
 4193SOL    HW224216   0.599   0.730   3.469 -1.9923  1.1143  1.2901
 4194SOL     OW24217   1.475   2.425   7.449  0.5499 -0.5334  0.7446
 4194SOL    HW124218   1.447   2.379   7.528 -0.8389  0.8187  1.0287
 4194SOL    HW224219   1.502   2.338   7.418 -1.3883 -1.1880  0.9338
 4195SOL     OW24220   1.882   3.344   6.697 -0.1291 -0.3004 -0.6162
 4195SOL    HW124221   1.892   3.327   6.603  0.6525  0.6641 -0.7123
 4195SOL    HW224222   1.952   3.289   6.733  0.6023  0.3467 -1.0453
 4196SOL     OW24223   3.246   3.355   7.853  0.5145  0.4925  0.2123
 4196SOL    HW124224   3.236   3.426   7.917 -2.3860 -0.2247  0.5732
 4196SOL    HW224225   3.335   3.322   7.867  0.1566 -1.1815 -1.4869
 4197SOL     OW24226   2.751   1.628   8.278 -0.6119  0.1292  0.6707
 4197SOL    HW124227   2.792   1.587   8.354  1.6329 -0.5553 -0.9121
 4197SOL    HW224228   2.822   1.687   8.253  0.0529 -1.2419 -0.6668
 4198SOL     OW24229   2.491   2.819   8.587  0.0727  0.1578  0.3715
 4198SOL    HW124230   2.469   2.765   8.662 -1.1250  0.5665  0.3267
 4198SOL    HW224231   2.421   2.882   8.607  0.0367  0.6685 -1.3663
 4199SOL     OW24232   2.654   4.490   0.452  0.1810 -0.0723  0.0772
 4199SOL    HW124233   2.573   4.454   0.418  0.0488  1.3457 -1.1497
 4199SOL    HW224234   2.707   4.411   0.459 -0.8883 -0.8881 -1.0909
 4200SOL     OW24235   1.819   4.224  14.113 -0.2410 -0.0628  0.0814
 4200SOL    HW124236   1.857   4.174  14.040  0.5217  0.7197 -0.0572
 4200SOL    HW224237   1.884   4.204  14.181  0.3543  1.1181 -0.1481
 4201SOL     OW24238   0.692   1.731   5.408  0.4713  0.6215 -0.7285
 4201SOL    HW124239   0.749   1.759   5.479 -0.4316  0.7694 -0.0649
 4201SOL    HW224240   0.622   1.793   5.430 -0.3789  0.7589 -3.7004
 4202SOL     OW24241   1.232   3.778   3.538 -0.2015 -0.5144 -0.2562
 4202SOL    HW124242   1.256   3.718   3.608 -2.5909  0.3238  1.2757
 4202SOL    HW224243   1.232   3.726   3.457  2.8286  0.2299 -0.7460
 4203SOL     OW24244   1.165   3.264   2.147 -0.1803 -0.3409  0.2092
 4203SOL    HW124245   1.112   3.265   2.068 -0.8086 -1.5309  0.6274
 4203SOL    HW224246   1.107   3.293   2.217 -0.0007  1.4466 -0.3681
 4204SOL     OW24247   0.331   1.821   7.320  0.2067  0.2580 -0.6181
 4204SOL    HW124248   0.372   1.760   7.381  2.4507  1.5101 -0.9032
 4204SOL    HW224249   0.298   1.887   7.381 -1.0341  0.1783 -1.2079
 4205SOL     OW24250   2.126   3.992   2.567  0.0198  0.2801  0.2684
 4205SOL    HW124251   2.173   3.909   2.570 -0.2195  0.2251  2.1863
 4205SOL    HW224252   2.050   3.961   2.518 -2.7295  0.4746  4.4228
 4206SOL     OW24253   4.235   3.206   5.160 -0.3236  0.5162  0.4714
 4206SOL    HW124254   4.141   3.195   5.151  0.1287 -3.4634  0.5229
 4206SOL    HW224255   4.249   3.114   5.182  1.5017  0.5604 -0.4593
 4207SOL     OW24256   2.508   4.389   4.561  0.0861 -0.4963  0.7056
 4207SOL    HW124257   2.450   4.349   4.497  4.4528 -1.9844 -2.2769
 4207SOL    HW224258   2.515   4.311   4.616  1.9311  0.0304  1.2287
 4208SOL     OW24259   2.421   1.987   7.618  0.2616  0.2889  0.4596
 4208SOL    HW124260   2.348   2.015   7.562  1.2897  0.2129 -0.9073
 4208SOL    HW224261   2.391   1.899   7.640 -0.9811  0.2454 -1.3838
 4209SOL     OW24262   3.318   4.371   5.577  0.1877 -0.3811 -0.1471
 4209SOL    HW124263   3.245   4.355   5.637  1.3902 -1.8137  0.9515
 4209SOL    HW224264   3.389   4.402   5.633  1.2104 -0.9737 -1.1158
 4210SOL     OW24265   2.487   1.269  16.795  0.3711 -0.2354 -0.2720
 4210SOL    HW124266   2.444   1.219  16.725 -1.7020  0.6714  0.3458
 4210SOL    HW224267   2.506   1.350  16.748 -0.4504 -0.0833 -0.3403
 4211SOL     OW24268   0.952   3.383   2.948 -0.2912  0.1131 -0.2286
 4211SOL    HW124269   0.938   3.423   2.862 -1.3724  1.6594  0.6656
 4211SOL    HW224270   0.926   3.453   3.008 -2.0327 -0.9998  0.3116
 4212SOL     OW24271   1.785   0.692   4.677 -0.0282  0.1318  0.2218
 4212SOL    HW124272   1.842   0.617   4.659  0.0901 -0.3514  2.5543
 4212SOL    HW224273   1.797   0.760   4.610 -1.0055 -1.0486 -1.1457
 4213SOL     OW24274   3.685   0.987   7.070  0.3711  0.5396 -0.0390
 4213SOL    HW124275   3.722   1.051   7.130 -0.6314  1.1351 -0.0630
 4213SOL    HW224276   3.597   1.004   7.103  0.4636 -0.4838  0.7453
 4214SOL     OW24277   4.086   1.257   8.377  0.5042 -0.6950  1.1409
 4214SOL    HW124278   4.153   1.279   8.312 -3.1941  2.1181 -1.7511
 4214SOL    HW224279   4.103   1.312   8.453  1.9477 -1.3436  1.2891
 4215SOL     OW24280   3.476   1.119   8.846 -0.0966 -0.2444 -0.4176
 4215SOL    HW124281   3.444   1.135   8.757 -0.4280  2.6389  0.2365
 4215SOL    HW224282   3.490   1.026   8.827 -1.7666 -0.4853 -0.5005
 4216SOL     OW24283   0.304   1.895   5.793 -0.3367  0.6944 -0.0473
 4216SOL    HW124284   0.279   1.902   5.886  0.0491 -2.9593  0.3402
 4216SOL    HW224285   0.226   1.857   5.753 -1.2789  1.3471  1.1546
 4217SOL     OW24286   1.246   2.913  15.850 -0.2251  0.0187  0.0397
 4217SOL    HW124287   1.184   2.874  15.911  0.3847 -1.0022  0.0179
 4217SOL    HW224288   1.193   2.919  15.771  1.7336 -0.9016 -1.3440
 4218SOL     OW24289   3.641   1.981  13.404  0.0824 -0.2186 -0.2193
 4218SOL    HW124290   3.660   1.998  13.496 -1.4752 -3.1394  0.6407
 4218SOL    HW224291   3.710   1.917  13.389 -0.7638 -0.9202 -1.1169
 4219SOL     OW24292   1.808   3.401   2.904  0.2949 -0.0363  0.5831
 4219SOL    HW124293   1.854   3.320   2.928  2.1027  1.3933  1.9402
 4219SOL    HW224294   1.750   3.365   2.837  0.4765 -0.0526  0.4341
 4220SOL     OW24295   1.062   3.389   7.566  0.1997 -0.6211  0.0477
 4220SOL    HW124296   1.067   3.476   7.605 -0.6002 -0.1557 -0.8949
 4220SOL    HW224297   0.984   3.396   7.511  0.2275 -2.3559 -0.2199
 4221SOL     OW24298   0.179   1.642   6.023  0.0311  0.6374  0.5423
 4221SOL    HW124299   0.213   1.732   6.027 -1.8368  1.3435  0.2438
 4221SOL    HW224300   0.216   1.612   6.106  1.4518  0.4943 -0.1343
 4222SOL     OW24301   2.488   2.138   7.950  0.1683  0.8111 -0.3229
 4222SOL    HW124302   2.405   2.107   7.915 -0.0458  0.4838  0.4868
 4222SOL    HW224303   2.473   2.097   8.035  0.7362 -1.3574 -1.2763
 4223SOL     OW24304   2.596   1.554  16.917  0.3758  0.3812  0.0031
 4223SOL    HW124305   2.641   1.531  16.835 -0.8480 -0.8270 -0.3177
 4223SOL    HW224306   2.637   1.639  16.935 -1.9207  1.3835  0.4465
 4224SOL     OW24307   2.581   1.281   9.027  0.1189 -0.4292  0.2359
 4224SOL    HW124308   2.562   1.360   9.078  1.4658 -1.0309  1.6756
 4224SOL    HW224309   2.577   1.318   8.939 -0.6137 -3.8653 -1.1455
 4225SOL     OW24310   2.731   0.732  13.277 -0.7449 -0.2897 -0.2854
 4225SOL    HW124311   2.675   0.716  13.354  1.3474  2.9370  1.8928
 4225SOL    HW224312   2.714   0.651  13.228  1.6942 -0.2568 -1.1825
 4226SOL     OW24313   1.537   0.964  11.702 -0.0733  0.2427 -0.5544
 4226SOL    HW124314   1.499   1.037  11.750  2.5422 -0.8724  3.2668
 4226SOL    HW224315   1.501   0.986  11.617  0.3839 -2.1869 -1.3856
 4227SOL     OW24316   0.093   1.074  12.651  0.0490  0.0114  0.3894
 4227SOL    HW124317   0.030   1.019  12.697 -1.0773  1.7753  0.9540
 4227SOL    HW224318   0.033   1.130  12.600 -0.0640  0.2348  0.7688
 4228SOL     OW24319   4.220   2.620   4.815 -0.4696 -0.1947  0.8455
 4228SOL    HW124320   4.272   2.548   4.851 -0.2140 -1.1242 -1.3925
 4228SOL    HW224321   4.269   2.690   4.858  1.3293 -0.4678 -0.7455
 4229SOL     OW24322   4.694   2.476   8.404 -0.0158 -0.1876  0.0068
 4229SOL    HW124323   4.618   2.519   8.442 -0.4861  1.9093 -3.3107
 4229SOL    HW224324   4.726   2.546   8.347  0.2074 -2.3272 -2.5252
 4230SOL     OW24325   4.141   3.147   7.041 -0.1230 -0.0412 -0.1934
 4230SOL    HW124326   4.177   3.236   7.048 -0.4457  0.1885 -1.4945
 4230SOL    HW224327   4.181   3.129   6.955  0.1109 -0.0744 -0.0782
 4231SOL     OW24328   4.351   4.594   1.607  0.7557  0.7847 -0.1497
 4231SOL    HW124329   4.359   4.627   1.697 -0.8258 -0.7594  0.5539
 4231SOL    HW224330   4.264   4.558   1.624  2.0167 -1.9680  0.4080
 4232SOL     OW24331   2.120   0.724   3.229  0.0269  0.3045  0.3736
 4232SOL    HW124332   2.201   0.709   3.278  0.1774 -0.8999 -0.2423
 4232SOL    HW224333   2.107   0.633   3.202  0.9726  1.0924 -2.7463
 4233SOL     OW24334   1.653   4.004  15.484  0.4176 -0.3822 -0.2659
 4233SOL    HW124335   1.693   4.070  15.540 -3.2695  1.5433  0.1341
 4233SOL    HW224336   1.713   4.017  15.411  1.9890 -0.5164  0.9982
 4234SOL     OW24337   1.445   0.588   1.607 -0.4464 -0.2970 -0.3452
 4234SOL    HW124338   1.387   0.557   1.677 -1.3416  1.1214 -0.4580
 4234SOL    HW224339   1.444   0.513   1.547 -0.7669  0.0193 -0.7419
 4235SOL     OW24340   4.018   1.600   8.131  0.3995  0.3808  0.4303
 4235SOL    HW124341   4.107   1.623   8.104  0.6784 -0.4370  0.6569
 4235SOL    HW224342   3.968   1.641   8.061  0.3652  0.5139  0.5329
 4236SOL     OW24343   3.545   0.557  11.253  0.1610  0.2544  0.1800
 4236SOL    HW124344   3.547   0.494  11.325  4.7272 -1.1444 -1.1667
 4236SOL    HW224345   3.618   0.619  11.263 -0.3508  0.9451 -0.3902
 4237SOL     OW24346   1.340   3.846   0.114  0.1198  0.0211  0.5891
 4237SOL    HW124347   1.323   3.891   0.197 -1.0960 -1.5723  1.2096
 4237SOL    HW224348   1.272   3.883   0.057  1.6309  0.9110 -0.6379
 4238SOL     OW24349   2.239   0.542  15.218  0.0705 -0.2657 -0.4959
 4238SOL    HW124350   2.291   0.604  15.167  1.5648 -2.3367 -1.4579
 4238SOL    HW224351   2.285   0.460  15.202  0.9458  0.1803 -0.2740
 4239SOL     OW24352   4.067   2.067   7.945 -0.1433 -1.2377  0.3373
 4239SOL    HW124353   4.084   2.155   7.978 -1.1170 -0.3831 -1.3841
 4239SOL    HW224354   3.991   2.045   7.999 -1.6300  1.2126 -0.7472
 4240SOL     OW24355   0.028   0.502   1.953 -0.1463  0.0990 -0.2743
 4240SOL    HW124356   0.057   0.414   1.978 -0.4296 -0.0315 -0.4049
 4240SOL    HW224357   0.112   0.541   1.975  1.8258 -3.9503 -0.7569
 4241SOL     OW24358   0.725   0.302   4.771  0.1671  0.5214 -0.2187
 4241SOL    HW124359   0.679   0.373   4.816 -0.3155 -0.2870  0.5602
 4241SOL    HW224360   0.806   0.350   4.753 -1.3466  2.7224 -1.1859
 4242SOL     OW24361   0.780   4.355   0.882 -0.4614  0.0507  0.3651
 4242SOL    HW124362   0.776   4.441   0.923 -0.3451 -0.1872  0.8713
 4242SOL    HW224363   0.693   4.316   0.894 -0.4926  0.3576  1.1498
 4243SOL     OW24364   1.187   3.295   2.578  0.3600 -0.4972  0.0189
 4243SOL    HW124365   1.124   3.355   2.537 -0.2942 -0.4220  1.1409
 4243SOL    HW224366   1.232   3.265   2.499  2.1032  1.4090  0.2671
 4244SOL     OW24367   1.823   0.149  14.161  0.4240 -0.0155  0.0726
 4244SOL    HW124368   1.836   0.142  14.255  0.0626  2.3527  0.2879
 4244SOL    HW224369   1.868   0.231  14.144  2.0465 -0.0287  4.3619
 4245SOL     OW24370   3.145   1.418   3.732  0.3693 -0.3288  0.2653
 4245SOL    HW124371   3.190   1.494   3.696  0.9496 -0.6531  0.2947
 4245SOL    HW224372   3.177   1.419   3.823  0.4818  0.0880  0.2174
 4246SOL     OW24373   0.850   2.156   8.595  0.0542  0.2516  0.1234
 4246SOL    HW124374   0.860   2.163   8.500 -0.4423 -2.9812 -0.1529
 4246SOL    HW224375   0.912   2.097   8.636 -0.7355 -0.4547  0.2981
 4247SOL     OW24376   1.585   1.231   9.065 -0.2051  0.2160  0.0723
 4247SOL    HW124377   1.509   1.196   9.019  2.1772 -0.6453 -3.1985
 4247SOL    HW224378   1.588   1.321   9.031  0.0524  0.5108  0.8714
 4248SOL     OW24379   0.253   4.126   4.803 -0.1334 -0.3490 -0.0939
 4248SOL    HW124380   0.343   4.124   4.835 -0.7536  1.2972  1.7059
 4248SOL    HW224381   0.253   4.057   4.736  1.3718 -1.4202  1.0089
 4249SOL     OW24382   2.203   4.635  12.641 -0.5126  0.1692 -0.0505
 4249SOL    HW124383   2.110   4.616  12.626 -1.0304  1.1982  1.9152
 4249SOL    HW224384   2.201   4.730  12.639 -0.8628  0.1744  0.7410
 4250SOL     OW24385   4.403   1.858   6.131 -0.0356  0.3636 -0.3207
 4250SOL    HW124386   4.482   1.838   6.182 -1.6070 -0.8730  1.6180
 4250SOL    HW224387   4.401   1.952   6.150 -0.9946  0.6293 -1.7515
 4251SOL     OW24388   4.249   2.603   5.488 -0.0966 -0.1890  0.2430
 4251SOL    HW124389   4.253   2.546   5.565  0.2501 -0.5437 -0.0373
 4251SOL    HW224390   4.178   2.561   5.440  1.0375 -2.6437  0.6882
 4252SOL     OW24391   3.975   2.615   7.235 -0.8151 -0.0016  0.0574
 4252SOL    HW124392   3.976   2.564   7.316 -2.0297 -0.0713  0.0319
 4252SOL    HW224393   3.880   2.605   7.225 -0.6832 -0.4413 -0.7403
 4253SOL     OW24394   1.663   0.821   3.399 -0.2019  0.1010  0.4163
 4253SOL    HW124395   1.574   0.832   3.367 -0.4211 -1.0265  0.6170
 4253SOL    HW224396   1.708   0.904   3.385 -2.3764  1.1612 -0.2943
 4254SOL     OW24397   0.648   0.414   3.619 -0.4640 -0.5901  0.0283
 4254SOL    HW124398   0.705   0.422   3.543 -1.6365  3.5996 -0.4234
 4254SOL    HW224399   0.579   0.364   3.576 -0.3081 -1.3882  0.6991
 4255SOL     OW24400   1.635   3.964   2.832  0.4361 -0.2865 -0.4751
 4255SOL    HW124401   1.696   3.970   2.759 -1.2764  1.3297 -1.7671
 4255SOL    HW224402   1.627   3.869   2.846  0.9645  0.2207  3.3796
 4256SOL     OW24403   3.384   3.855  14.367  0.4364 -0.3140  0.5651
 4256SOL    HW124404   3.429   3.797  14.305  0.0255 -1.1674  1.0571
 4256SOL    HW224405   3.460   3.888  14.415  0.3721  0.8296 -0.1364
 4257SOL     OW24406   1.029   3.929   8.473  0.5573  0.1883  0.0228
 4257SOL    HW124407   1.084   4.008   8.472 -2.2041  2.0768 -1.8535
 4257SOL    HW224408   1.023   3.903   8.381 -1.6324  2.4021 -0.4268
 4258SOL     OW24409   1.712   1.591   0.698 -0.1033  0.3391  0.0104
 4258SOL    HW124410   1.739   1.651   0.628  0.3382 -1.0097 -0.9716
 4258SOL    HW224411   1.745   1.513   0.654 -1.4827 -0.1689 -0.1214
 4259SOL     OW24412   1.876   1.673  12.564 -0.3719 -0.1503 -0.5918
 4259SOL    HW124413   1.888   1.585  12.529 -1.5438 -0.8357  0.7125
 4259SOL    HW224414   1.960   1.711  12.541 -1.4730  2.8971  0.4033
 4260SOL     OW24415   1.688   4.557   1.885  0.3967 -0.3964 -0.0093
 4260SOL    HW124416   1.761   4.554   1.823  1.8937  1.8434  1.6517
 4260SOL    HW224417   1.708   4.636   1.934  0.4028 -0.9624  0.9027
 4261SOL     OW24418   0.556   0.402   6.443  0.3427  0.5867  0.9672
 4261SOL    HW124419   0.572   0.313   6.475 -0.3199 -0.3819 -1.4360
 4261SOL    HW224420   0.639   0.419   6.398  0.0589 -0.0212  0.2235
 4262SOL     OW24421   0.226   3.662  10.835 -0.0953  0.2885  0.5789
 4262SOL    HW124422   0.318   3.674  10.811 -0.3076 -1.1164 -0.9525
 4262SOL    HW224423   0.215   3.567  10.833 -0.7073  0.3712  0.1606
 4263SOL     OW24424   2.897   3.717   7.498 -0.4667 -0.3553  0.2251
 4263SOL    HW124425   2.911   3.648   7.434  0.2980 -1.6914  1.8340
 4263SOL    HW224426   2.803   3.709   7.514 -0.7622  1.7240 -0.4579
 4264SOL     OW24427   0.778   4.416   7.126  0.2755 -0.4969  0.4337
 4264SOL    HW124428   0.868   4.421   7.092  0.5097 -1.1929  0.9612
 4264SOL    HW224429   0.781   4.349   7.195  0.1133  1.1885  2.0705
 4265SOL     OW24430   1.993   4.466   7.716 -0.1153 -0.2999 -0.6377
 4265SOL    HW124431   1.990   4.519   7.636  1.8877  2.0536  0.8608
 4265SOL    HW224432   2.076   4.485   7.761 -1.2676  0.2530  1.2380
 4266SOL     OW24433   3.158   2.691   1.577 -0.6751  0.7368 -0.6474
 4266SOL    HW124434   3.210   2.720   1.652  0.8814 -1.9988 -0.6681
 4266SOL    HW224435   3.166   2.757   1.508 -1.3666 -1.4154 -2.7527
 4267SOL     OW24436   2.143   3.079  17.087 -0.4227 -0.0306  0.4073
 4267SOL    HW124437   2.049   3.099  17.086 -0.5091 -0.4867 -0.3451
 4267SOL    HW224438   2.153   3.047  16.997 -2.7791 -1.1285  0.5139
 4268SOL     OW24439   0.644   1.328  14.953  0.4070  0.1360  0.2089
 4268SOL    HW124440   0.566   1.287  14.991 -0.3447  2.9887  1.7532
 4268SOL    HW224441   0.722   1.291  14.994  1.8336  0.5403 -2.1507
 4269SOL     OW24442   2.112   1.639   6.172  0.1821  0.1019 -0.3324
 4269SOL    HW124443   2.094   1.717   6.225 -2.8963 -0.6652 -0.2588
 4269SOL    HW224444   2.169   1.600   6.239 -0.2498  1.0337  0.5817
 4270SOL     OW24445   0.147   2.055   7.424 -0.1272 -0.2987  0.3601
 4270SOL    HW124446   0.092   1.987   7.463 -1.6696  1.6857  1.6901
 4270SOL    HW224447   0.112   2.127   7.477 -0.4940  0.4830 -0.9294
 4271SOL     OW24448   2.482   0.233   6.183 -0.1167  0.6709 -0.3191
 4271SOL    HW124449   2.554   0.287   6.214  0.4562  0.3612 -1.1223
 4271SOL    HW224450   2.432   0.293   6.127  1.3978  1.9068 -0.3245
 4272SOL     OW24451   2.338   3.033  11.011  0.3320  0.2712  0.4265
 4272SOL    HW124452   2.305   2.943  11.014 -1.1219  0.7304 -1.4657
 4272SOL    HW224453   2.366   3.052  11.100 -0.0689  0.0006  0.6122
 4273SOL     OW24454   4.259   2.634   8.268 -0.3851 -0.0281 -0.1640
 4273SOL    HW124455   4.197   2.575   8.225 -0.4597  0.8394 -1.2324
 4273SOL    HW224456   4.226   2.625   8.358 -0.8156  1.5099 -0.1693
 4274SOL     OW24457   1.543   2.051  16.564 -0.2732  0.1968 -0.1136
 4274SOL    HW124458   1.475   1.984  16.556 -0.5658  0.4821  0.0255
 4274SOL    HW224459   1.585   2.024  16.645 -0.7675 -0.6801 -0.1432
 4275SOL     OW24460   0.905   0.143   9.340  0.2844  0.6050 -0.1633
 4275SOL    HW124461   0.810   0.130   9.343  0.4249 -0.4818 -0.4934
 4275SOL    HW224462   0.917   0.210   9.408  0.3348 -0.5328  0.9346
 4276SOL     OW24463   3.752   3.773   2.424 -0.3913  0.2304  0.0470
 4276SOL    HW124464   3.680   3.834   2.413 -1.4328 -1.0722 -0.3888
 4276SOL    HW224465   3.824   3.825   2.389  0.6594 -1.1249  0.1758
 4277SOL     OW24466   1.770   4.155   2.602  0.4337  0.1576 -0.0087
 4277SOL    HW124467   1.812   4.074   2.632  0.9020  0.3174 -0.2299
 4277SOL    HW224468   1.814   4.229   2.643 -1.6764 -0.3210  3.1153
 4278SOL     OW24469   4.736   2.212   4.711 -0.0721  0.2280 -0.0417
 4278SOL    HW124470   4.677   2.206   4.786 -1.2724 -0.4848 -1.0477
 4278SOL    HW224471   0.009   2.307   4.706 -0.0898  0.1081 -2.1058
 4279SOL     OW24472   0.552   0.608  14.136 -0.0367 -0.2100  0.2131
 4279SOL    HW124473   0.604   0.537  14.173  1.8389  1.0442  0.0080
 4279SOL    HW224474   0.513   0.646  14.215  2.3035  3.1732 -0.2580
 4280SOL     OW24475   4.444   3.055  10.968 -0.6300 -0.3093  0.1703
 4280SOL    HW124476   4.450   3.148  10.946  0.7392 -0.0845  1.5152
 4280SOL    HW224477   4.350   3.038  10.967 -0.9872  1.6200  0.4420
 4281SOL     OW24478   2.325   2.333   0.903 -0.1876 -0.4881  0.1549
 4281SOL    HW124479   2.249   2.345   0.961  0.7771 -1.8791  1.7145
 4281SOL    HW224480   2.338   2.421   0.867  2.1716 -0.7897  0.2961
 4282SOL     OW24481   0.827   4.207  15.156 -0.2903 -0.0721  0.1141
 4282SOL    HW124482   0.913   4.222  15.195  0.3988 -1.4191 -0.9249
 4282SOL    HW224483   0.814   4.113  15.170 -0.7166 -0.2642 -1.4956
 4283SOL     OW24484   3.924   0.861   8.030  0.2437  0.6765  0.6880
 4283SOL    HW124485   3.853   0.884   8.091 -1.2137 -0.4306 -0.6087
 4283SOL    HW224486   3.999   0.882   8.085  0.8841 -1.6202  0.6765
 4284SOL     OW24487   4.487   0.424  10.518  0.0524  0.0063  0.1415
 4284SOL    HW124488   4.549   0.495  10.501  0.5601 -0.8067 -1.3745
 4284SOL    HW224489   4.508   0.413  10.611 -0.3346  1.6396  0.4252
 4285SOL     OW24490   1.783   2.441   0.380  0.1896  0.0636  0.0052
 4285SOL    HW124491   1.697   2.401   0.393 -0.5787  1.9500  0.7233
 4285SOL    HW224492   1.763   2.534   0.373  0.7810  0.1175 -1.0652
 4286SOL     OW24493   3.614   4.576   5.260 -0.3261 -0.2981  0.5044
 4286SOL    HW124494   3.611   4.653   5.316  0.3719 -0.3575  0.6217
 4286SOL    HW224495   3.665   4.622   5.193 -3.2862  0.0380 -1.5372
 4287SOL     OW24496   2.217   1.871   7.863 -0.2312 -0.1618 -0.4446
 4287SOL    HW124497   2.255   1.831   7.785 -1.2795 -2.0928  0.0413
 4287SOL    HW224498   2.126   1.855   7.836 -0.3142 -1.1455  0.4021
 4288SOL     OW24499   0.026   2.480   1.760  0.1483 -0.1572 -0.4986
 4288SOL    HW124500   0.015   2.388   1.785 -1.2063  0.5625  1.5720
 4288SOL    HW224501   0.038   2.529   1.841 -0.9542  1.2039 -1.1722
 4289SOL     OW24502   2.035   1.254  16.184 -0.1315  0.2087  0.6264
 4289SOL    HW124503   2.080   1.337  16.165  2.3297 -1.0182  1.0416
 4289SOL    HW224504   2.063   1.207  16.105 -2.5076  2.6072 -1.6473
 4290SOL     OW24505   3.570   4.361   3.421  0.0556 -0.2440 -0.6557
 4290SOL    HW124506   3.640   4.367   3.485 -1.4461 -0.6580  1.0280
 4290SOL    HW224507   3.497   4.372   3.483 -0.8892  1.5484 -2.0624
 4291SOL     OW24508   2.105   3.883   4.206  0.3848  0.1925 -0.3534
 4291SOL    HW124509   2.200   3.880   4.216  0.4371  0.4703 -0.7904
 4291SOL    HW224510   2.088   3.878   4.112 -1.0520 -1.8373  0.0217
 4292SOL     OW24511   2.323   2.735   4.603  0.6384  0.1786 -0.3163
 4292SOL    HW124512   2.245   2.786   4.625  0.1573 -0.0065 -1.5671
 4292SOL    HW224513   2.369   2.736   4.687  1.3657 -1.4110 -0.6977
 4293SOL     OW24514   0.606   0.940   7.182 -0.4228 -0.0665  0.5368
 4293SOL    HW124515   0.701   0.943   7.199 -0.1735  1.8145 -1.1217
 4293SOL    HW224516   0.601   0.998   7.106 -0.0787  2.0282  2.1074
 4294SOL     OW24517   3.001   1.967   5.043  0.0137  0.1595 -0.5137
 4294SOL    HW124518   2.907   1.971   5.024 -0.5527 -1.2078  2.0232
 4294SOL    HW224519   3.041   1.941   4.960 -0.4211 -3.2220  0.3406
 4295SOL     OW24520   0.105   0.136   6.612 -1.0134 -0.2093 -0.1255
 4295SOL    HW124521   0.115   0.043   6.590  1.1277 -0.2109  0.8584
 4295SOL    HW224522   0.037   0.119   6.677  2.0640 -0.8024  2.9551
 4296SOL     OW24523   0.674   4.356   8.039 -0.1577  0.7544  0.6601
 4296SOL    HW124524   0.590   4.398   8.017 -1.5434 -1.9984  0.6345
 4296SOL    HW224525   0.714   4.426   8.091 -0.2196  1.9849 -0.9557
 4297SOL     OW24526   4.461   3.541  14.433 -0.0267  0.1437  1.1131
 4297SOL    HW124527   4.520   3.476  14.471 -0.3373 -0.7172  0.1312
 4297SOL    HW224528   4.380   3.490  14.437 -0.4746  0.6658 -1.3882
 4298SOL     OW24529   0.247   0.721   9.274 -0.6524 -0.3757 -0.0635
 4298SOL    HW124530   0.297   0.653   9.319 -0.3222 -0.1995 -0.1678
 4298SOL    HW224531   0.199   0.668   9.209 -1.6661 -0.9034  1.1137
 4299SOL     OW24532   2.497   0.715   1.909  0.1217 -0.2054 -0.3051
 4299SOL    HW124533   2.403   0.718   1.895 -0.1778  0.8389  2.0879
 4299SOL    HW224534   2.517   0.648   1.843  1.2174 -1.2228  1.0489
 4300SOL     OW24535   1.739   1.920   6.624 -0.0566  0.1275 -0.1445
 4300SOL    HW124536   1.659   1.870   6.637 -0.3792  0.6621 -0.0647
 4300SOL    HW224537   1.807   1.859   6.652  1.0277  0.4462 -2.1044
 4301SOL     OW24538   2.229   4.682   3.407 -0.4053 -0.5817 -0.4806
 4301SOL    HW124539   2.256   0.031   3.374 -1.1705  0.6064  1.9626
 4301SOL    HW224540   2.136   4.698   3.427 -0.3788  0.2440 -1.0233
 4302SOL     OW24541   1.602   4.186   1.805 -0.1362  0.4007  0.4944
 4302SOL    HW124542   1.582   4.206   1.896 -1.5283  1.2728 -0.0128
 4302SOL    HW224543   1.697   4.178   1.816 -0.1823 -0.6561  0.0786
 4303SOL     OW24544   3.829   3.836   1.865 -0.6865  0.1168 -0.1546
 4303SOL    HW124545   3.747   3.806   1.826 -1.3914  2.8500 -0.7657
 4303SOL    HW224546   3.881   3.756   1.878  0.1981  0.4432 -1.6379
 4304SOL     OW24547   0.278   3.892   6.927 -0.2493  0.0462 -0.2200
 4304SOL    HW124548   0.196   3.849   6.903 -1.9015  2.9566  0.1928
 4304SOL    HW224549   0.336   3.851   6.863 -0.0529  0.3556 -0.2406
 4305SOL     OW24550   3.019   3.613  13.229 -0.3767  0.0616 -0.0102
 4305SOL    HW124551   3.036   3.662  13.309 -1.6620 -2.5625  1.8630
 4305SOL    HW224552   3.049   3.676  13.163 -2.0702 -0.6930 -1.4987
 4306SOL     OW24553   0.141   0.929   7.152 -0.1285 -0.8512 -0.3809
 4306SOL    HW124554   0.165   0.893   7.066  0.6873 -1.8077  0.2508
 4306SOL    HW224555   0.045   0.923   7.144  0.0434 -0.7448 -2.7068
 4307SOL     OW24556   0.782   3.947   8.003 -0.1723  0.2315 -0.2612
 4307SOL    HW124557   0.690   3.971   8.001  0.0911  1.1840 -0.5775
 4307SOL    HW224558   0.824   4.031   7.985  1.2420  0.0680  2.1703
 4308SOL     OW24559   1.084   3.911  15.156  0.3061 -0.0285  0.2093
 4308SOL    HW124560   1.163   3.965  15.153 -0.1410  0.6257  0.0874
 4308SOL    HW224561   1.053   3.891  15.068 -0.7421  1.1775  0.3030
 4309SOL     OW24562   3.611   0.473   3.161 -0.0378 -0.0311  0.0009
 4309SOL    HW124563   3.658   0.465   3.244  0.9500  1.5355 -0.4104
 4309SOL    HW224564   3.680   0.510   3.107 -1.5744  3.7329  0.5690
 4310SOL     OW24565   1.892   3.603   6.143 -0.2627 -0.4339 -0.1297
 4310SOL    HW124566   1.807   3.629   6.178  0.2301  0.8274  0.1074
 4310SOL    HW224567   1.863   3.518   6.109 -1.9463 -0.3580  1.0942
 4311SOL     OW24568   0.362   1.473   4.606 -0.0615  0.5672  0.2234
 4311SOL    HW124569   0.303   1.490   4.679 -0.8721  2.1292 -0.7973
 4311SOL    HW224570   0.297   1.454   4.539  1.4436 -1.7842 -0.5662
 4312SOL     OW24571   0.231   2.168   3.090 -1.3563  0.1258 -0.6527
 4312SOL    HW124572   0.148   2.192   3.049 -0.9711  1.4819 -0.6410
 4312SOL    HW224573   0.290   2.184   3.017  1.3302  0.4274  1.5888
 4313SOL     OW24574   1.038   3.363   5.764 -0.2060  0.1929  0.1776
 4313SOL    HW124575   1.107   3.424   5.790  0.7801 -1.5120  1.6203
 4313SOL    HW224576   0.963   3.420   5.776 -0.4867 -0.2090  0.3342
 4314SOL     OW24577   4.390   3.069   7.871 -0.3031 -0.2933  0.1746
 4314SOL    HW124578   4.324   3.017   7.826  0.4543 -1.1561  0.0863
 4314SOL    HW224579   4.339   3.148   7.892 -0.8435 -0.5204 -0.3090
 4315SOL     OW24580   2.562   2.019   9.955 -0.6128  0.6181  0.2378
 4315SOL    HW124581   2.644   2.068   9.955 -1.7249  2.4718  2.0651
 4315SOL    HW224582   2.519   2.051   9.875  1.5052  2.1899 -0.2484
 4316SOL     OW24583   3.824   3.776  13.164  0.3293 -1.2452 -0.5944
 4316SOL    HW124584   3.890   3.834  13.128  1.4535 -1.8380  0.5059
 4316SOL    HW224585   3.798   3.727  13.086 -1.5502  1.5726 -1.7420
 4317SOL     OW24586   4.401   3.738   6.059  0.2293  0.1434  0.1707
 4317SOL    HW124587   4.351   3.657   6.059 -0.6045  0.6510 -3.5657
 4317SOL    HW224588   4.348   3.805   6.103 -0.5625 -0.5095  0.2115
 4318SOL     OW24589   0.432   4.182   5.371 -0.1541 -0.0436  0.1879
 4318SOL    HW124590   0.359   4.174   5.433 -1.0484 -1.6506 -1.0692
 4318SOL    HW224591   0.395   4.229   5.296 -0.4556  1.0163  0.9931
 4319SOL     OW24592   1.941   4.286   8.262 -0.2963  0.0162 -0.0235
 4319SOL    HW124593   1.859   4.313   8.304 -0.8378 -0.5523 -0.7244
 4319SOL    HW224594   1.997   4.279   8.340 -3.0763 -0.8973  1.9041
 4320SOL     OW24595   0.784   0.471   5.201  0.3774 -0.2101  0.0332
 4320SOL    HW124596   0.874   0.500   5.216 -0.7090  0.8589  4.4413
 4320SOL    HW224597   0.794   0.398   5.140 -2.0696 -1.0983  0.6939
 4321SOL     OW24598   1.347   3.177   6.414 -0.2320  0.4597 -0.7881
 4321SOL    HW124599   1.274   3.238   6.427 -0.2193  0.0783  1.0594
 4321SOL    HW224600   1.308   3.120   6.348 -0.6345 -0.7312  0.4887
 4322SOL     OW24601   1.138   4.464   1.605 -0.5449 -0.2738 -0.0977
 4322SOL    HW124602   1.204   4.523   1.640  0.0707 -1.4099  0.6472
 4322SOL    HW224603   1.058   4.494   1.649 -0.1997 -1.1989  1.1537
 4323SOL     OW24604   2.825   1.489   4.859  0.6413  0.4080  0.2280
 4323SOL    HW124605   2.902   1.498   4.914  0.8380  1.0340 -0.1548
 4323SOL    HW224606   2.853   1.413   4.809 -1.0952 -0.7267  0.9417
 4324SOL     OW24607   1.357   3.627   6.316  0.3269 -0.1120  0.2034
 4324SOL    HW124608   1.369   3.698   6.252 -0.0270 -0.2745 -0.0432
 4324SOL    HW224609   1.285   3.578   6.276  0.5221  1.3528 -1.9642
 4325SOL     OW24610   1.147   3.879  15.432  0.3679  0.6262  1.3287
 4325SOL    HW124611   1.124   3.862  15.341 -1.7468 -0.0306  1.9941
 4325SOL    HW224612   1.240   3.857  15.433 -0.2263 -1.9579 -0.7834
 4326SOL     OW24613   2.528   0.885   2.806 -0.1771 -0.0755  0.0545
 4326SOL    HW124614   2.594   0.854   2.744  0.1421  0.2399  0.2323
 4326SOL    HW224615   2.475   0.940   2.749  0.2869  0.9605  0.6172
 4327SOL     OW24616   2.630   1.683  13.830 -0.6425 -0.3352 -0.6687
 4327SOL    HW124617   2.607   1.597  13.865  0.3111 -0.9116 -1.4486
 4327SOL    HW224618   2.724   1.671  13.813 -0.8028 -1.5217 -0.7575
 4328SOL     OW24619   4.589   4.216   7.443 -0.2809  0.3460 -0.0046
 4328SOL    HW124620   4.574   4.223   7.537 -0.5745 -2.6328  0.1802
 4328SOL    HW224621   4.674   4.257   7.426  0.5906 -2.3505 -2.1836
 4329SOL     OW24622   1.955   2.862   7.097  0.3193  0.1145  0.1314
 4329SOL    HW124623   2.032   2.916   7.079 -1.6323  2.5247 -0.9442
 4329SOL    HW224624   2.004   2.789   7.134  0.3670  0.8830  1.5580
 4330SOL     OW24625   0.738   2.301  11.784 -0.5800 -0.0473 -0.2427
 4330SOL    HW124626   0.818   2.291  11.836 -0.3878 -1.1985 -0.7584
 4330SOL    HW224627   0.773   2.374  11.732  1.6074 -0.9645 -0.0672
 4331SOL     OW24628   4.516   1.365   5.981  0.1827  0.0576 -0.5715
 4331SOL    HW124629   4.529   1.451   6.022 -1.0416  1.7182 -3.6641
 4331SOL    HW224630   4.524   1.399   5.892 -2.2983  0.5272 -0.6132
 4332SOL     OW24631   1.200   0.552   2.183 -0.2138 -0.2494 -0.2588
 4332SOL    HW124632   1.130   0.581   2.242  1.0777  1.5117  0.3796
 4332SOL    HW224633   1.161   0.571   2.098 -0.9936  2.0495  0.6247
 4333SOL     OW24634   1.609   2.588  10.385  0.0956 -0.3906  0.0404
 4333SOL    HW124635   1.554   2.584  10.464  1.0628 -0.3769  0.7230
 4333SOL    HW224636   1.687   2.619  10.432 -0.1273  0.3107 -0.0560
 4334SOL     OW24637   1.908   2.594   9.010 -0.2710  0.0661 -0.5324
 4334SOL    HW124638   1.827   2.641   9.029  0.5660  1.5545 -0.6923
 4334SOL    HW224639   1.928   2.574   9.101 -0.8371 -1.3285 -0.7071
 4335SOL     OW24640   1.369   3.138   2.287  0.6881  0.2228  0.1372
 4335SOL    HW124641   1.292   3.183   2.251  0.0297 -0.5616  0.5474
 4335SOL    HW224642   1.404   3.100   2.206 -1.5878  0.7674 -1.1083
 4336SOL     OW24643   4.225   0.371   8.653  0.0779 -0.2757  0.2896
 4336SOL    HW124644   4.291   0.304   8.666  1.4059  1.1117  0.6919
 4336SOL    HW224645   4.150   0.324   8.690  0.7165 -0.5698  1.2019
 4337SOL     OW24646   4.549   1.881   5.299  0.4552  0.2606 -0.2110
 4337SOL    HW124647   4.525   1.796   5.262 -1.0575 -0.0863  1.5641
 4337SOL    HW224648   4.555   1.844   5.388  1.9530  1.4972  0.1998
 4338SOL     OW24649   4.263   2.700   7.785  0.2887 -0.0457  0.3887
 4338SOL    HW124650   4.279   2.619   7.834  2.3509  0.8399  1.1940
 4338SOL    HW224651   4.203   2.747   7.842  0.4460  0.8712 -0.2087
 4339SOL     OW24652   2.117   2.683   4.155  0.3462  0.0265 -0.2148
 4339SOL    HW124653   2.043   2.634   4.118 -0.7164  3.0546 -2.1034
 4339SOL    HW224654   2.179   2.685   4.081 -0.5240 -1.5980 -0.9842
 4340SOL     OW24655   1.523   3.265   3.765 -0.3699  0.0949 -0.6894
 4340SOL    HW124656   1.486   3.234   3.682  4.0458  0.5614 -2.8559
 4340SOL    HW224657   1.454   3.242   3.827  2.4192 -0.8225  2.0485
 4341SOL     OW24658   1.528   2.191   8.544  0.1541  0.4184  0.3502
 4341SOL    HW124659   1.531   2.206   8.449 -0.0811 -0.0779  0.2632
 4341SOL    HW224660   1.458   2.128   8.562  1.3819 -1.0433  0.0520
 4342SOL     OW24661   3.599   3.145   4.449 -0.2740 -0.0473 -0.7862
 4342SOL    HW124662   3.659   3.186   4.386 -0.0510  2.0390  0.7741
 4342SOL    HW224663   3.656   3.077   4.485 -0.4260  1.1745  1.7488
 4343SOL     OW24664   1.550   2.766   8.213  0.2613  0.1318  0.4684
 4343SOL    HW124665   1.495   2.818   8.272  0.0856  0.5724 -0.0822
 4343SOL    HW224666   1.524   2.679   8.242 -0.7039 -0.4299 -2.1559
 4344SOL     OW24667   4.589   2.738   4.546  0.5080 -0.1446  0.1125
 4344SOL    HW124668   4.620   2.819   4.588  2.9532 -1.3457  0.5819
 4344SOL    HW224669   4.616   2.745   4.454 -1.4642  2.7262 -0.2716
 4345SOL     OW24670   3.990   1.934   2.339  0.0312 -0.2433  0.0325
 4345SOL    HW124671   3.946   1.990   2.275  0.1174 -0.1595  0.0459
 4345SOL    HW224672   3.945   1.974   2.414  0.4508 -1.0071  0.7009
 4346SOL     OW24673   1.244   0.548   6.915  0.5254  0.5101  0.1173
 4346SOL    HW124674   1.171   0.584   6.966 -0.2099  0.3059 -0.7754
 4346SOL    HW224675   1.237   0.605   6.839 -2.1731  1.2853  0.9118
 4347SOL     OW24676   1.697   0.565   3.508  0.0612  0.3469  0.5175
 4347SOL    HW124677   1.662   0.635   3.452  0.9621 -0.6444 -1.3026
 4347SOL    HW224678   1.624   0.510   3.537  0.6057  0.1275  1.4557
 4348SOL     OW24679   3.663   2.982   0.521 -0.1183 -0.3963  0.0048
 4348SOL    HW124680   3.619   3.056   0.480 -0.6264 -1.0361 -0.6096
 4348SOL    HW224681   3.599   2.911   0.517 -1.3712  0.6925  0.8193
 4349SOL     OW24682   3.253   0.959   6.715  0.4662 -0.3596  0.7446
 4349SOL    HW124683   3.249   1.031   6.778  2.8403 -0.2424  0.7708
 4349SOL    HW224684   3.297   0.898   6.773  0.5073  1.7452  2.9517
 4350SOL     OW24685   2.780   4.643   5.013 -0.4180 -0.1319  0.1857
 4350SOL    HW124686   2.755   4.656   5.105 -0.6620  0.7505  0.0043
 4350SOL    HW224687   2.869   4.677   5.015  0.5103 -2.6099 -0.1070
 4351SOL     OW24688   0.507   0.561  14.857  0.1847  0.1987 -0.4428
 4351SOL    HW124689   0.470   0.499  14.920 -0.7847 -0.5327 -1.7370
 4351SOL    HW224690   0.559   0.503  14.802  1.1889  0.7030 -0.0454
 4352SOL     OW24691   4.135   0.773   1.167  0.3600 -0.5119  0.1512
 4352SOL    HW124692   4.088   0.855   1.184  0.4274 -0.4709  0.1430
 4352SOL    HW224693   4.123   0.729   1.251 -2.0270  1.7546  1.0023
 4353SOL     OW24694   4.445   3.681   2.714  0.3841 -0.3251  0.1065
 4353SOL    HW124695   4.402   3.600   2.684 -0.5167 -0.0671  0.7056
 4353SOL    HW224696   4.370   3.720   2.759  1.0086  1.2516 -0.2093
 4354SOL     OW24697   2.482   3.955   9.317 -0.1500 -0.1834 -0.4634
 4354SOL    HW124698   2.534   3.890   9.364 -2.4672 -0.6477  1.4445
 4354SOL    HW224699   2.525   4.034   9.349 -1.5966 -0.0957  1.2896
 4355SOL     OW24700   0.991   0.074   1.722 -0.0814  0.6896 -0.4303
 4355SOL    HW124701   0.981   0.132   1.798 -1.4450 -0.4581  0.2580
 4355SOL    HW224702   1.074   0.106   1.687  0.8021 -1.1676 -0.0213
 4356SOL     OW24703   0.381   1.927   8.933  0.1340 -0.3366 -0.2507
 4356SOL    HW124704   0.308   1.950   8.875 -0.2238 -0.8156  0.0046
 4356SOL    HW224705   0.374   1.998   8.997 -0.7933 -0.3470 -0.3435
 4357SOL     OW24706   0.649   4.114   1.183  0.3027 -0.8456  0.2866
 4357SOL    HW124707   0.619   4.135   1.095  1.8205 -1.0404 -0.2608
 4357SOL    HW224708   0.638   4.198   1.227 -0.0503 -0.8841  0.2724
 4358SOL     OW24709   3.591   3.309   4.961 -0.3627  0.0348 -0.5164
 4358SOL    HW124710   3.584   3.401   4.936  1.3668  0.6534  1.2476
 4358SOL    HW224711   3.509   3.273   4.928  0.7563 -2.1851 -0.9103
 4359SOL     OW24712   3.197   3.545   3.974  0.1886  1.0546  0.0893
 4359SOL    HW124713   3.199   3.510   4.063 -1.0411  0.6647 -0.0406
 4359SOL    HW224714   3.131   3.613   3.982  1.2791  1.8010  2.7261
 4360SOL     OW24715   0.260   3.561   4.894 -0.0357  0.4378 -0.2458
 4360SOL    HW124716   0.199   3.555   4.820 -0.7622  0.1316  0.3748
 4360SOL    HW224717   0.237   3.650   4.919 -1.4029  0.0870 -0.2476
 4361SOL     OW24718   0.350   4.303   9.333  0.0245  0.6444  0.2546
 4361SOL    HW124719   0.414   4.233   9.320  1.8837  1.9264  2.5143
 4361SOL    HW224720   0.322   4.293   9.424  1.0878 -1.5622  0.3207
 4362SOL     OW24721   1.027   4.041   2.245  0.0735 -0.0011  0.8976
 4362SOL    HW124722   1.064   4.130   2.243 -0.4000  0.1635 -1.2712
 4362SOL    HW224723   1.070   3.997   2.171 -0.9122 -0.4702  0.6104
 4363SOL     OW24724   2.904   2.698   1.567  0.1257 -0.0459 -0.3778
 4363SOL    HW124725   2.861   2.616   1.592  2.3392 -1.7464 -2.1681
 4363SOL    HW224726   2.998   2.682   1.576 -0.2985 -0.6919  2.9739
 4364SOL     OW24727   0.926   2.412  13.043  0.4122  0.9952 -0.5933
 4364SOL    HW124728   0.934   2.500  13.004 -1.7129 -0.1147 -3.5406
 4364SOL    HW224729   0.907   2.431  13.135 -0.2732 -0.2213 -0.4812
 4365SOL     OW24730   1.177   0.771   8.887  0.2588  0.3575 -0.0190
 4365SOL    HW124731   1.129   0.714   8.826  0.9181  1.2767 -1.4107
 4365SOL    HW224732   1.174   0.858   8.848  0.6174  0.8782  1.1288
 4366SOL     OW24733   0.614   3.768   3.010 -0.0654  0.4481  0.3034
 4366SOL    HW124734   0.591   3.774   2.918  0.1501  0.7762  0.2741
 4366SOL    HW224735   0.560   3.691   3.031  1.0805 -0.9434 -1.8764
 4367SOL     OW24736   1.560   2.842   7.898  0.1974 -0.0919 -0.4954
 4367SOL    HW124737   1.533   2.911   7.959  0.0767 -0.9659  0.4463
 4367SOL    HW224738   1.612   2.884   7.830  0.2336 -0.9910 -1.0209
 4368SOL     OW24739   3.098   4.510  13.278 -0.0030  0.0562 -0.1210
 4368SOL    HW124740   3.160   4.539  13.344 -0.5559  1.9345 -0.4131
 4368SOL    HW224741   3.031   4.489  13.343  0.0795  1.1701  0.3232
 4369SOL     OW24742   4.401   4.568   2.961  0.8350  0.2749 -0.0904
 4369SOL    HW124743   4.483   4.520   2.976  0.4404 -0.1440  0.7414
 4369SOL    HW224744   4.338   4.532   3.023  2.1349  1.5213  1.9659
 4370SOL     OW24745   2.470   4.620  12.659  0.5624 -0.1837  0.7441
 4370SOL    HW124746   2.375   4.609  12.661  0.5531 -0.0906  0.8041
 4370SOL    HW224747   2.488   4.568  12.581  0.0259 -0.2444  0.6624
 4371SOL     OW24748   3.718   3.660  15.285 -0.1428  0.3145 -0.3165
 4371SOL    HW124749   3.726   3.647  15.191  0.4589  1.8414 -0.4864
 4371SOL    HW224750   3.768   3.584  15.316 -0.8233 -0.0247 -0.0651
 4372SOL     OW24751   2.004   4.556   2.026 -0.1523 -0.3953 -0.5894
 4372SOL    HW124752   1.952   4.631   2.056  0.2370 -0.0691 -0.7256
 4372SOL    HW224753   1.998   4.575   1.932 -1.2197  0.7917 -0.2880
 4373SOL     OW24754   3.268   4.126  10.502 -0.5722  0.5070 -0.2728
 4373SOL    HW124755   3.328   4.201  10.510  0.2670 -0.3292  1.1861
 4373SOL    HW224756   3.287   4.077  10.582  1.2951 -2.1622 -2.3176
 4374SOL     OW24757   1.418   3.477   1.552  0.3627  0.4104 -0.2942
 4374SOL    HW124758   1.459   3.462   1.467  1.6941  0.8954  0.2707
 4374SOL    HW224759   1.472   3.423   1.610 -0.0447 -1.2151 -1.4177
 4375SOL     OW24760   4.376   0.911   1.785  0.4675  0.1721 -0.1394
 4375SOL    HW124761   4.376   1.006   1.787 -2.5760  0.1931 -2.5824
 4375SOL    HW224762   4.431   0.877   1.714 -0.5704  0.4384 -1.0701
 4376SOL     OW24763   1.186   1.635   7.001 -0.3831  0.5455 -0.1797
 4376SOL    HW124764   1.224   1.721   6.984  1.4971 -1.0721 -4.0144
 4376SOL    HW224765   1.259   1.575   6.990 -0.4425  0.4713 -0.1690
 4377SOL     OW24766   1.792   4.247  12.750  0.1770 -0.0185  0.3212
 4377SOL    HW124767   1.720   4.273  12.693 -0.3725 -0.3331  0.8769
 4377SOL    HW224768   1.863   4.303  12.719 -1.2983  1.3052 -0.6286
 4378SOL     OW24769   4.267   1.775   3.771  0.0425 -0.1161  0.6553
 4378SOL    HW124770   4.311   1.690   3.776 -0.5842 -0.3130  2.8037
 4378SOL    HW224771   4.203   1.775   3.842 -0.6658  2.1670  0.0360
 4379SOL     OW24772   3.496   0.128   7.634  0.0651  0.0537  0.5946
 4379SOL    HW124773   3.574   0.181   7.647  0.1422 -0.5792  2.7247
 4379SOL    HW224774   3.494   0.059   7.700 -0.7877 -1.6314 -1.1972
 4380SOL     OW24775   3.708   2.817   4.304 -0.3026  0.2220 -0.2230
 4380SOL    HW124776   3.684   2.725   4.298 -1.2892  0.5334 -1.1272
 4380SOL    HW224777   3.657   2.854   4.232  0.4898  0.1842 -0.7969
 4381SOL     OW24778   3.007   4.099   0.482 -0.0878  0.3577  0.1928
 4381SOL    HW124779   3.100   4.115   0.470 -0.1255 -0.9267 -1.8939
 4381SOL    HW224780   2.965   4.170   0.434 -0.1717  0.8288  0.9610
 4382SOL     OW24781   2.149   1.904   3.498 -0.4630 -0.3664 -0.2846
 4382SOL    HW124782   2.099   1.931   3.420  3.8490 -0.5971 -3.1370
 4382SOL    HW224783   2.196   1.826   3.466  0.8829  0.9804 -1.5868
 4383SOL     OW24784   2.019   2.813   7.472 -0.0579 -0.0965  0.0350
 4383SOL    HW124785   1.981   2.900   7.484  1.0102  0.3431  0.2891
 4383SOL    HW224786   2.106   2.825   7.511  0.8445 -1.7169 -1.4751
 4384SOL     OW24787   1.608   2.975   3.447 -0.1390 -0.0443 -0.2256
 4384SOL    HW124788   1.645   3.008   3.528 -1.6129  1.7940 -0.3131
 4384SOL    HW224789   1.519   2.958   3.477  0.0336  1.2444  1.0205
 4385SOL     OW24790   1.393   2.983   1.868 -0.4973  0.0027 -0.0387
 4385SOL    HW124791   1.466   3.008   1.812  1.0555  0.4642  2.2093
 4385SOL    HW224792   1.327   3.053   1.867 -2.3496 -1.7267  0.6702
 4386SOL     OW24793   2.325   3.059   5.336 -0.0435  0.1738  0.5502
 4386SOL    HW124794   2.278   3.139   5.361 -1.2279 -0.4064  0.1838
 4386SOL    HW224795   2.257   3.000   5.368 -0.3005 -0.1047 -0.5165
 4387SOL     OW24796   2.557   2.876   2.848 -0.4378 -0.4341 -0.3375
 4387SOL    HW124797   2.513   2.850   2.767 -0.7247  0.9919 -0.6303
 4387SOL    HW224798   2.477   2.871   2.899  0.1555 -1.5485  0.4832
 4388SOL     OW24799   3.302   1.054   3.810  0.0939  0.4257 -0.3105
 4388SOL    HW124800   3.210   1.079   3.804  0.4026  1.1334 -2.3449
 4388SOL    HW224801   3.336   1.117   3.746  0.1167  0.3236 -0.3986
 4389SOL     OW24802   4.530   4.121   6.246  0.2466 -0.1464 -0.4183
 4389SOL    HW124803   4.591   4.047   6.242 -1.0601 -1.2107 -0.6499
 4389SOL    HW224804   4.584   4.189   6.206 -1.1049 -0.0411 -2.0541
 4390SOL     OW24805   1.826   0.646   4.047  0.2089  0.2755 -0.3249
 4390SOL    HW124806   1.876   0.687   3.977 -0.3779  0.6873 -0.4953
 4390SOL    HW224807   1.817   0.565   3.996 -0.5105 -1.4303  2.4465
 4391SOL     OW24808   3.116   1.029   7.646 -0.4892 -0.4829 -0.3129
 4391SOL    HW124809   3.040   0.984   7.607  0.9356 -1.5800 -1.8314
 4391SOL    HW224810   3.080   1.063   7.728  0.2024 -0.5781  0.0258
 4392SOL     OW24811   3.430   4.625   5.822  0.2804  0.1667  0.1226
 4392SOL    HW124812   3.440   4.720   5.809  1.2602  0.0973  0.3556
 4392SOL    HW224813   3.519   4.589   5.823  0.9246  1.7478  0.1368
 4393SOL     OW24814   4.452   3.647   7.666 -0.2193 -0.6444 -0.2331
 4393SOL    HW124815   4.503   3.696   7.601 -1.7979  1.0222 -0.2378
 4393SOL    HW224816   4.495   3.678   7.745  1.2608  0.9154 -1.6408
 4394SOL     OW24817   4.618   3.352   6.367  0.2192 -0.2192  0.2140
 4394SOL    HW124818   4.534   3.391   6.393  0.3160  1.8627 -2.6522
 4394SOL    HW224819   4.674   3.391   6.434 -0.8974  0.4800  0.7596
 4395SOL     OW24820   1.722   0.664   8.334 -0.4807 -0.4050 -0.6151
 4395SOL    HW124821   1.660   0.619   8.390  0.4388 -0.0126  0.7067
 4395SOL    HW224822   1.740   0.613   8.255  0.1977  1.4053 -1.6469
 4396SOL     OW24823   1.940   3.010   3.213 -0.6041 -0.6945 -0.3136
 4396SOL    HW124824   1.899   3.075   3.271  0.0810  1.4944 -2.2549
 4396SOL    HW224825   1.907   2.935   3.261 -0.7452  1.2651  2.6598
 4397SOL     OW24826   0.659   2.184   7.021 -0.0528  0.2968  0.2236
 4397SOL    HW124827   0.644   2.262   6.968 -2.8597  0.3582  1.0953
 4397SOL    HW224828   0.734   2.144   6.978 -1.6528 -2.2418 -0.1838
 4398SOL     OW24829   4.389   1.881   4.397  0.2019  0.1459 -0.4503
 4398SOL    HW124830   4.424   1.811   4.452  0.3129 -0.4410 -1.2760
 4398SOL    HW224831   4.436   1.957   4.432  1.0339 -0.6928  0.2657
 4399SOL     OW24832   2.590   0.383   9.386 -0.5786  0.0043  0.4212
 4399SOL    HW124833   2.575   0.340   9.470 -0.2506 -1.3932 -0.2413
 4399SOL    HW224834   2.627   0.323   9.322 -1.8363  2.6719 -2.7994
 4400SOL     OW24835   2.352   4.349   7.085  0.1367  0.4609  0.0501
 4400SOL    HW124836   2.426   4.410   7.079  1.2630 -0.7413  1.8202
 4400SOL    HW224837   2.395   4.264   7.083  0.3190  0.5115  1.6290
 4401SOL     OW24838   1.940   0.174   5.990  0.1638  0.2855  0.0423
 4401SOL    HW124839   1.879   0.245   6.011  0.8290  0.0135  2.8794
 4401SOL    HW224840   1.873   0.108   5.969 -0.2463  0.7492 -0.1061
 4402SOL     OW24841   0.073   1.844   2.908 -0.2345  0.0521  0.2535
 4402SOL    HW124842   0.160   1.881   2.924  0.1470 -0.5731 -0.4079
 4402SOL    HW224843   0.091   1.750   2.902 -1.1930 -0.1898  1.1789
 4403SOL     OW24844   4.120   0.716  10.267 -0.2751 -0.1042 -0.5926
 4403SOL    HW124845   4.045   0.679  10.314  0.6950 -1.9386 -0.5109
 4403SOL    HW224846   4.189   0.731  10.333  0.4956  2.6894 -2.0160
 4404SOL     OW24847   3.142   2.483  17.289 -0.5148 -0.0707  0.3008
 4404SOL    HW124848   3.170   2.397  17.320  1.5006 -0.6120 -3.0503
 4404SOL    HW224849   3.213   2.537  17.324  0.0333 -0.5051 -0.1389
 4405SOL     OW24850   4.180   4.661   4.548 -0.2240 -0.1403 -0.7174
 4405SOL    HW124851   4.202   4.569   4.534  1.5985  0.2221 -0.2914
 4405SOL    HW224852   4.157   4.681   4.458  1.8811  0.7669 -1.0629
 4406SOL     OW24853   1.466   2.946   5.743 -0.1905  0.0908  0.2099
 4406SOL    HW124854   1.403   2.874   5.736  0.0150  0.0282 -0.8984
 4406SOL    HW224855   1.410   3.014   5.781  0.6905  1.0142 -0.1540
 4407SOL     OW24856   2.217   3.947   8.051 -0.2818  0.1432 -0.5325
 4407SOL    HW124857   2.276   4.013   8.087  1.4320 -1.9607  0.5203
 4407SOL    HW224858   2.129   3.985   8.056  0.0164  0.5291  1.7370
 4408SOL     OW24859   1.632   2.001   8.726  0.0966  0.5780  0.6511
 4408SOL    HW124860   1.599   2.066   8.663 -0.4649  0.6215  0.9918
 4408SOL    HW224861   1.678   1.941   8.667 -1.4603  0.2442 -0.2358
 4409SOL     OW24862   0.173   1.422   4.416  0.1101 -0.0235 -0.3953
 4409SOL    HW124863   0.237   1.360   4.382 -0.5399 -0.1827 -1.3365
 4409SOL    HW224864   0.148   1.464   4.333  0.2395  0.1493 -0.3481
 4410SOL     OW24865   4.215   0.434  14.370  0.1466 -0.5285 -0.1916
 4410SOL    HW124866   4.295   0.480  14.345 -0.0626  0.2118  0.5189
 4410SOL    HW224867   4.237   0.441  14.462 -1.5546 -0.9417  0.2471
 4411SOL     OW24868   1.656   3.708  10.807  0.2567  0.0300  0.4209
 4411SOL    HW124869   1.734   3.760  10.828  1.0906 -1.5425  1.2894
 4411SOL    HW224870   1.591   3.777  10.816 -0.4597 -0.5644 -0.1933
 4412SOL     OW24871   4.075   0.137   6.845 -0.0586 -0.1602  0.0324
 4412SOL    HW124872   4.001   0.128   6.905 -1.2938 -0.4133 -1.5177
 4412SOL    HW224873   4.038   0.146   6.757 -0.5712 -0.2846  0.2350
 4413SOL     OW24874   2.846   3.831   2.117  0.4004  0.0002  0.3519
 4413SOL    HW124875   2.911   3.768   2.147 -0.8353 -1.6880 -0.5342
 4413SOL    HW224876   2.797   3.764   2.070 -0.0360  0.7406 -0.2409
 4414SOL     OW24877   4.234   0.960   4.872 -0.1104 -0.3448 -0.1359
 4414SOL    HW124878   4.258   0.935   4.783 -2.0340 -2.2141 -0.1075
 4414SOL    HW224879   4.168   1.028   4.867  1.1299  0.8435 -0.4063
 4415SOL     OW24880   2.845   4.320  10.268  0.4052  0.6121 -0.6917
 4415SOL    HW124881   2.797   4.396  10.300  2.5465  1.1905  1.2135
 4415SOL    HW224882   2.906   4.307  10.341  2.1961  0.8900 -2.1095
 4416SOL     OW24883   0.775   0.756   7.697  0.0929 -0.2705 -0.0611
 4416SOL    HW124884   0.799   0.848   7.707  2.6521 -1.0195  0.7598
 4416SOL    HW224885   0.685   0.769   7.669 -0.7484 -2.4434  1.6003
 4417SOL     OW24886   0.861   4.370  15.386  0.4854 -0.2524  0.3252
 4417SOL    HW124887   0.900   4.284  15.405  1.3164  0.1524  0.4629
 4417SOL    HW224888   0.769   4.352  15.407  0.2820  0.5604  0.1222
 4418SOL     OW24889   2.865   4.020   5.543 -0.1299 -0.3882  0.4760
 4418SOL    HW124890   2.937   4.051   5.489 -0.9651  0.1455 -0.3374
 4418SOL    HW224891   2.906   3.991   5.625 -1.1398 -0.2139  1.0507
 4419SOL     OW24892   0.567   1.568   4.997  0.0186  0.7704  0.0418
 4419SOL    HW124893   0.499   1.600   4.938  1.2397  0.6108 -1.4600
 4419SOL    HW224894   0.636   1.632   4.982  0.8832  0.3951  2.3433
 4420SOL     OW24895   0.200   3.410   3.567  0.0498 -0.1433 -0.2225
 4420SOL    HW124896   0.177   3.317   3.567  1.1685 -0.4176 -1.0682
 4420SOL    HW224897   0.234   3.415   3.478  0.6209 -0.9650 -0.0489
 4421SOL     OW24898   4.008   1.991  13.263  0.5887 -0.1722 -0.0696
 4421SOL    HW124899   4.012   2.037  13.346 -0.6451  0.4945 -0.3950
 4421SOL    HW224900   4.081   1.929  13.270  1.4485  0.9191  0.7200
 4422SOL     OW24901   1.133   2.728   6.572 -0.0384  0.0901 -0.7354
 4422SOL    HW124902   1.206   2.767   6.524 -0.0628 -0.0084 -0.8522
 4422SOL    HW224903   1.158   2.742   6.664 -2.5752 -0.4756  0.0446
 4423SOL     OW24904   2.552   4.414   2.421 -0.9501 -0.2935  0.8841
 4423SOL    HW124905   2.531   4.464   2.342  3.4280 -0.5397 -0.4453
 4423SOL    HW224906   2.540   4.321   2.399  1.1041  0.2102 -2.3781
 4424SOL     OW24907   1.426   1.495   8.671  0.1042 -0.2440 -0.1154
 4424SOL    HW124908   1.483   1.430   8.712 -2.1491 -0.5717  2.5486
 4424SOL    HW224909   1.377   1.440   8.610 -0.5319 -2.0770  2.0502
 4425SOL     OW24910   4.456   1.339   2.226  0.2613  0.2751 -0.4091
 4425SOL    HW124911   4.525   1.282   2.191 -1.5347 -2.5594  0.6974
 4425SOL    HW224912   4.514   1.379   2.291  0.2514 -0.6768  0.1845
 4426SOL     OW24913   0.858   3.838  12.755 -0.1818  0.1679  0.1575
 4426SOL    HW124914   0.795   3.849  12.684  1.5156 -0.8598 -1.5091
 4426SOL    HW224915   0.873   3.926  12.789 -0.2545  0.1945  0.1198
 4427SOL     OW24916   0.591   0.788  14.578 -0.7584 -0.2630  0.2212
 4427SOL    HW124917   0.670   0.835  14.607 -0.5394 -1.2561  1.2054
 4427SOL    HW224918   0.544   0.765  14.658 -0.0933 -1.3518  0.3044
 4428SOL     OW24919   0.816   2.571   5.662  0.2977  0.3754 -0.2524
 4428SOL    HW124920   0.859   2.639   5.610  2.5490  0.0249  1.1159
 4428SOL    HW224921   0.890   2.509   5.660 -0.8505 -1.1094  2.9192
 4429SOL     OW24922   1.801   2.293   1.832 -0.3001 -0.1851  0.2817
 4429SOL    HW124923   1.790   2.328   1.920 -4.5091 -1.2534  0.1691
 4429SOL    HW224924   1.710   2.283   1.804 -0.6608 -0.8783  1.7041
 4430SOL     OW24925   4.692   4.066   1.613  0.5418  0.4993  0.2143
 4430SOL    HW124926   0.039   4.065   1.566  1.0057 -1.3954  1.0728
 4430SOL    HW224927   4.705   4.136   1.677  0.4132  0.7808 -0.0675
 4431SOL     OW24928   3.939   2.335  10.959  0.2459  0.1632 -0.4798
 4431SOL    HW124929   3.953   2.241  10.953 -1.5652 -0.0484 -1.5034
 4431SOL    HW224930   3.929   2.344  11.054  2.2796  2.1671 -0.4395
 4432SOL     OW24931   3.343   4.573   6.389  0.1185 -0.1553 -0.3757
 4432SOL    HW124932   3.383   4.605   6.308  0.3052 -2.5027 -1.2311
 4432SOL    HW224933   3.378   4.621   6.464  1.9431 -0.2608 -1.1584
 4433SOL     OW24934   1.095   3.246   1.425  0.0143 -0.4563  0.1865
 4433SOL    HW124935   1.080   3.325   1.373  0.9149 -1.6679 -1.8977
 4433SOL    HW224936   1.064   3.175   1.370  2.0402  0.0844 -1.6607
 4434SOL     OW24937   3.174   0.109  10.385  0.4798  0.0111 -0.2778
 4434SOL    HW124938   3.173   0.014  10.399 -0.7076  0.0679  0.0051
 4434SOL    HW224939   3.259   0.127  10.425 -0.3969  3.0325  0.1766
 4435SOL     OW24940   1.637   2.887   3.153  0.5127 -0.2640  0.1914
 4435SOL    HW124941   1.587   2.930   3.221 -1.9851  0.5256 -2.1299
 4435SOL    HW224942   1.647   2.801   3.193 -0.4484  0.5663  2.2004
 4436SOL     OW24943   2.221   1.330   8.839 -0.3122  1.1306  0.1025
 4436SOL    HW124944   2.151   1.348   8.902 -0.0166 -2.0710  1.3473
 4436SOL    HW224945   2.217   1.414   8.794  0.3147 -0.1648 -2.3459
 4437SOL     OW24946   0.360   4.021   8.342 -0.4939  0.1374 -0.3516
 4437SOL    HW124947   0.450   4.052   8.341  0.0919 -1.6675 -2.1687
 4437SOL    HW224948   0.372   3.948   8.403 -1.8918  0.4430  0.2948
 4438SOL     OW24949   4.533   3.469   2.097 -0.7078  0.1317 -0.6827
 4438SOL    HW124950   4.554   3.539   2.159  0.8133 -1.6449  0.8465
 4438SOL    HW224951   4.498   3.516   2.022 -0.3050  0.9655 -0.3513
 4439SOL     OW24952   3.492   3.025   1.750  0.3101  0.1722  0.0184
 4439SOL    HW124953   3.581   3.011   1.719  0.8630 -0.0607  1.7623
 4439SOL    HW224954   3.465   3.106   1.708  1.4688  0.2341 -0.6160
 4440SOL     OW24955   3.134   0.622   5.484 -0.1310  0.6988  0.3012
 4440SOL    HW124956   3.065   0.573   5.440 -0.7627 -1.0861  3.2760
 4440SOL    HW224957   3.109   0.610   5.576  1.0426  2.7514  0.8884
 4441SOL     OW24958   1.430   1.084  12.757  0.0243  0.4204 -0.3235
 4441SOL    HW124959   1.482   1.046  12.828 -1.1382 -0.1040  0.2541
 4441SOL    HW224960   1.408   1.001  12.714 -1.4859  0.1305  1.0069
 4442SOL     OW24961   1.800   1.899   7.291  0.3929  0.0832 -0.0342
 4442SOL    HW124962   1.712   1.907   7.328  0.0092  1.0566 -1.1663
 4442SOL    HW224963   1.809   1.982   7.246  1.1321 -0.2804 -0.5446
 4443SOL     OW24964   3.759   0.256   4.626  0.2568  0.4926 -0.2860
 4443SOL    HW124965   3.819   0.229   4.697  0.2541 -0.5132 -0.6648
 4443SOL    HW224966   3.682   0.295   4.667 -0.1151 -2.1665  1.5436
 4444SOL     OW24967   2.177   2.448  13.548  0.0651 -0.3883 -0.1835
 4444SOL    HW124968   2.268   2.431  13.523  0.6959 -2.3631  3.3291
 4444SOL    HW224969   2.145   2.477  13.463 -2.0420 -0.8593  0.4395
 4445SOL     OW24970   1.365   3.091  17.600 -0.5230  0.5453 -0.1057
 4445SOL    HW124971   1.277   3.114  17.628 -0.5668 -1.1692  1.1566
 4445SOL    HW224972   1.416   3.172  17.598 -0.3230  0.4230  0.0747
 4446SOL     OW24973   3.764   2.488  10.736  0.6598  0.6059 -0.1814
 4446SOL    HW124974   3.838   2.429  10.722  0.1413 -0.0538 -0.1378
 4446SOL    HW224975   3.729   2.440  10.811 -1.7095  1.6077 -0.6493
 4447SOL     OW24976   0.028   2.542   5.459 -0.1290 -0.3646 -0.3187
 4447SOL    HW124977   0.018   2.621   5.514 -0.6933 -0.9568  0.4343
 4447SOL    HW224978   0.077   2.571   5.383  1.7696  0.9783  1.4226
 4448SOL     OW24979   1.596   0.513  15.473  0.4155  1.0377  0.6017
 4448SOL    HW124980   1.652   0.574  15.425 -0.7910  0.1115 -1.9949
 4448SOL    HW224981   1.628   0.510  15.563 -0.0989  0.3351  0.7571
 4449SOL     OW24982   2.395   4.140   4.115  0.1621  0.2903  0.0600
 4449SOL    HW124983   2.333   4.164   4.047 -0.4122  2.4548  1.3329
 4449SOL    HW224984   2.446   4.079   4.062 -0.0709  0.9205 -0.8759
 4450SOL     OW24985   4.454   0.228   8.726 -0.4752 -0.4446 -0.1783
 4450SOL    HW124986   4.466   0.313   8.769  1.9442 -1.2497  0.7313
 4450SOL    HW224987   4.476   0.169   8.798 -1.7653  0.5197  1.0155
 4451SOL     OW24988   4.186   2.406   8.422 -0.2664 -0.0916  0.2943
 4451SOL    HW124989   4.196   2.413   8.517 -1.9087 -0.6795  0.5171
 4451SOL    HW224990   4.276   2.382   8.398 -0.5802 -1.1510  0.1720
 4452SOL     OW24991   4.097   0.682   1.430  0.0775 -0.1969  0.0726
 4452SOL    HW124992   4.129   0.601   1.470  0.7290  1.0909  2.1943
 4452SOL    HW224993   4.116   0.743   1.502 -0.0077  1.1929 -1.0950
 4453SOL     OW24994   4.479   1.499   5.506 -0.7326 -0.2578 -0.6287
 4453SOL    HW124995   4.419   1.548   5.450 -2.2069  0.6642  1.7620
 4453SOL    HW224996   4.432   1.415   5.503 -0.2353 -0.6105  1.2798
 4454SOL     OW24997   0.341   0.796   8.214 -0.1497  0.2468 -0.0912
 4454SOL    HW124998   0.282   0.868   8.190 -0.0092 -0.1694 -1.7381
 4454SOL    HW224999   0.287   0.732   8.261 -0.9726  1.1357  0.1614
 4455SOL     OW25000   4.348   1.358  16.681  0.5333 -0.5176 -0.4482
 4455SOL    HW125001   4.362   1.263  16.687  1.4688 -0.3213  0.4895
 4455SOL    HW225002   4.311   1.373  16.594  1.5411 -0.9891 -0.9616
 4456SOL     OW25003   0.675   2.362   7.743  0.5128 -0.1994  0.1979
 4456SOL    HW125004   0.661   2.312   7.663  1.7689 -0.6461  0.2607
 4456SOL    HW225005   0.616   2.319   7.804  0.9712  1.4338  1.7994
 4457SOL     OW25006   4.147   1.666   4.209  0.1382  0.3097 -0.3071
 4457SOL    HW125007   4.072   1.606   4.207 -1.5062  2.3800 -1.7447
 4457SOL    HW225008   4.180   1.644   4.296 -2.3069  1.6451  0.9850
 4458SOL     OW25009   3.194   1.400   2.507  0.5087  0.4452 -0.1665
 4458SOL    HW125010   3.207   1.434   2.595  0.0176  0.0425  0.0669
 4458SOL    HW225011   3.152   1.476   2.466 -3.8017 -1.8638 -0.0939
 4459SOL     OW25012   0.613   4.733  17.520 -0.0021 -0.3018 -0.0616
 4459SOL    HW125013   0.565   4.711  17.600 -0.8238  1.2254 -0.1158
 4459SOL    HW225014   0.599   4.651  17.473 -0.0567 -1.0554  1.2459
 4460SOL     OW25015   2.659   3.111   9.128  0.4188 -0.5088 -0.9600
 4460SOL    HW125016   2.732   3.137   9.184 -0.4098  2.3570 -1.2133
 4460SOL    HW225017   2.699   3.101   9.042 -1.4487  1.3418 -2.0293
 4461SOL     OW25018   4.402   0.001  11.390  0.8659  0.2519  0.2989
 4461SOL    HW125019   4.413   0.085  11.436 -1.0334 -0.0446  1.2913
 4461SOL    HW225020   4.474   4.691  11.431 -1.2048 -1.6192  1.7673
 4462SOL     OW25021   1.939   1.197   3.435  0.1488 -0.2178 -0.0776
 4462SOL    HW125022   1.861   1.147   3.410  1.3160 -1.1599 -1.8398
 4462SOL    HW225023   1.895   1.282   3.442  1.7698  0.8165 -2.6691
 4463SOL     OW25024   4.722   2.133  17.539 -0.4448 -0.0228 -0.3491
 4463SOL    HW125025   4.678   2.081  17.473 -0.2869  0.9157 -1.1958
 4463SOL    HW225026   0.066   2.085  17.557 -0.1420  0.6377  0.0868
 4464SOL     OW25027   1.632   2.380   2.031  0.2760  0.1739  0.0646
 4464SOL    HW125028   1.548   2.339   2.011 -0.5702  2.2974 -0.6304
 4464SOL    HW225029   1.628   2.370   2.126 -0.4603 -0.9049 -0.0680
 4465SOL     OW25030   3.829   0.261  12.647 -0.1866  0.3081 -0.1551
 4465SOL    HW125031   3.815   0.284  12.555  2.5198  0.8209 -0.4600
 4465SOL    HW225032   3.781   0.328  12.695 -1.5375 -0.0975 -0.9393
 4466SOL     OW25033   2.229   4.462   6.743  0.2663  0.2121  0.3285
 4466SOL    HW125034   2.179   4.441   6.664 -1.1817  1.8648  0.8278
 4466SOL    HW225035   2.170   4.431   6.812 -0.4540  0.2258 -0.2854
 4467SOL     OW25036   0.695   1.869   3.171 -0.0550 -0.1770  0.2033
 4467SOL    HW125037   0.678   1.823   3.253 -1.2818 -0.7106 -0.3436
 4467SOL    HW225038   0.677   1.960   3.196 -1.4515 -0.6174  0.8295
 4468SOL     OW25039   2.326   4.133   9.810  0.6406  0.4629  0.5478
 4468SOL    HW125040   2.329   4.212   9.756  2.0852 -1.4928 -2.2510
 4468SOL    HW225041   2.420   4.135   9.827  0.6277 -2.7109  0.9936
 4469SOL     OW25042   1.903   3.054   7.519 -0.2523  0.4388  0.2613
 4469SOL    HW125043   1.901   3.148   7.501 -0.2856 -0.1271 -2.6531
 4469SOL    HW225044   1.816   3.039   7.555  0.8004 -0.5872  2.4013
 4470SOL     OW25045   3.182   3.614   3.324  0.3128  0.3384 -0.5060
 4470SOL    HW125046   3.174   3.597   3.230  0.4297  2.2988 -0.8710
 4470SOL    HW225047   3.229   3.534   3.351 -0.3136 -1.0525 -3.4843
 4471SOL     OW25048   3.163   0.222   1.937  0.6199  0.5540 -0.3173
 4471SOL    HW125049   3.151   0.155   1.869 -0.8662  0.0273  0.4854
 4471SOL    HW225050   3.193   0.293   1.880  1.7013 -0.2503 -0.7558
 4472SOL     OW25051   1.573   2.170   6.967  0.0215 -0.3151  0.2113
 4472SOL    HW125052   1.545   2.237   6.904 -0.3986 -0.7366 -0.0576
 4472SOL    HW225053   1.487   2.128   6.969  0.8994 -2.1928 -1.5030
 4473SOL     OW25054   3.156   0.040   4.023 -0.9736  0.0709 -0.4254
 4473SOL    HW125055   3.075   0.013   3.979 -1.2260  1.8519 -1.0624
 4473SOL    HW225056   3.160   0.121   3.972 -0.0778  0.1961 -0.1690
 4474SOL     OW25057   2.031   1.211  16.447 -0.4444  0.3266  0.2012
 4474SOL    HW125058   2.057   1.250  16.363 -1.2971 -2.1455 -1.2210
 4474SOL    HW225059   2.086   1.133  16.442  0.6150  1.1800 -1.7715
 4475SOL     OW25060   1.551   4.156   3.340 -0.2528  0.1261  0.3813
 4475SOL    HW125061   1.641   4.144   3.308 -0.9277 -1.3055 -0.9900
 4475SOL    HW225062   1.503   4.098   3.281 -0.4097  0.9287 -0.2915
 4476SOL     OW25063   2.687   4.621   7.752  0.0763  0.4146 -0.2927
 4476SOL    HW125064   2.638   4.584   7.826 -0.2792  0.6187 -0.4255
 4476SOL    HW225065   2.766   4.652   7.796 -0.8652  0.0788  1.6425
 4477SOL     OW25066   3.851   3.547   5.060  0.1314  0.3653 -0.1292
 4477SOL    HW125067   3.772   3.553   5.007  1.4403  1.6855 -1.9318
 4477SOL    HW225068   3.805   3.548   5.144 -0.7373 -3.1937 -0.5406
 4478SOL     OW25069   2.690   4.519   8.804  0.2188 -0.0142 -0.4110
 4478SOL    HW125070   2.754   4.450   8.822  1.0469  0.8291 -0.1210
 4478SOL    HW225071   2.671   4.485   8.717  0.0241  0.9158 -0.7310
 4479SOL     OW25072   4.211   1.229   1.654 -0.6720  0.0066  0.0534
 4479SOL    HW125073   4.127   1.215   1.697 -0.2511 -0.6914  0.6386
 4479SOL    HW225074   4.279   1.209   1.718 -0.8944 -2.7643 -0.5978
 4480SOL     OW25075   0.707   0.691   6.086  0.1869  0.5959  0.5850
 4480SOL    HW125076   0.671   0.763   6.034 -1.3073 -0.3107  0.3916
 4480SOL    HW225077   0.638   0.650   6.138 -1.1062 -1.2096 -2.5373
 4481SOL     OW25078   0.627   2.657   3.553  0.1922 -0.3180  0.2389
 4481SOL    HW125079   0.682   2.661   3.475 -0.7437  0.4612 -0.3855
 4481SOL    HW225080   0.547   2.700   3.523  0.9814  0.5585 -0.6316
 4482SOL     OW25081   2.699   0.207   7.754 -0.8405 -0.5367  0.6444
 4482SOL    HW125082   2.650   0.241   7.680  0.7558  2.2894  0.8708
 4482SOL    HW225083   2.786   0.193   7.715 -0.9501  0.1075  0.1620
 4483SOL     OW25084   4.538   1.521  12.381 -0.0384 -0.0706 -0.2926
 4483SOL    HW125085   4.598   1.565  12.321  1.2909  0.9497  1.7542
 4483SOL    HW225086   4.458   1.525  12.329 -1.7026  0.9244  2.3106
 4484SOL     OW25087   3.200   3.400  16.046  0.3977  0.0101 -0.0040
 4484SOL    HW125088   3.224   3.472  16.105  0.9679  0.2852 -0.5780
 4484SOL    HW225089   3.104   3.403  16.049  0.4007  0.2377 -0.0969
 4485SOL     OW25090   3.822   0.429  10.638 -0.2398 -0.4825  0.2917
 4485SOL    HW125091   3.839   0.343  10.675  1.3830 -0.5673 -0.6505
 4485SOL    HW225092   3.780   0.468  10.715 -0.2767  2.1879 -1.0739
 4486SOL     OW25093   4.016   1.437  16.675  0.2321  0.0149  0.5223
 4486SOL    HW125094   4.036   1.356  16.720  0.6780  0.8936  1.8983
 4486SOL    HW225095   3.932   1.419  16.632  0.4446 -1.5798  0.8145
 4487SOL     OW25096   4.535   3.172   1.525  0.2663 -0.3188  0.1434
 4487SOL    HW125097   4.505   3.117   1.597  0.6292 -0.1347  0.4400
 4487SOL    HW225098   4.473   3.243   1.506  0.6644 -0.5728 -2.1289
 4488SOL     OW25099   2.192   1.271   2.141  0.2180 -0.2747 -0.2250
 4488SOL    HW125100   2.114   1.326   2.135  0.9897  0.7273 -1.1476
 4488SOL    HW225101   2.258   1.340   2.139 -0.8116  0.7302  0.6552
 4489SOL     OW25102   0.121   1.165   5.782  0.1570  0.0458  0.1123
 4489SOL    HW125103   0.216   1.171   5.790  0.2753  1.0610 -2.1303
 4489SOL    HW225104   0.100   1.225   5.854  0.0111  2.1430 -1.6852
 4490SOL     OW25105   0.626   1.168   3.428  0.6416 -0.4485 -0.5219
 4490SOL    HW125106   0.694   1.234   3.443 -0.0459  0.1215  0.1568
 4490SOL    HW225107   0.547   1.215   3.457  1.0681 -0.7859  1.2100
 4491SOL     OW25108   4.172   2.956  16.911 -0.4754  0.1776 -0.9168
 4491SOL    HW125109   4.222   2.888  16.865 -1.6151 -1.0606 -0.3229
 4491SOL    HW225110   4.238   3.007  16.957 -0.2287 -2.0104  1.1467
 4492SOL     OW25111   0.420   2.549   9.323 -0.5198  0.6343 -0.1486
 4492SOL    HW125112   0.343   2.500   9.294  1.4314 -3.2893  1.1506
 4492SOL    HW225113   0.503   2.507   9.301 -0.6895 -0.5783  1.4757
 4493SOL     OW25114   2.620   1.274   4.547  0.3603  0.7707 -0.4337
 4493SOL    HW125115   2.569   1.292   4.626  0.6834 -0.3659  0.0428
 4493SOL    HW225116   2.638   1.181   4.560 -0.1901  0.7547  0.2287
 4494SOL     OW25117   1.041   4.018  13.342 -0.2145 -0.3187 -0.5838
 4494SOL    HW125118   1.113   4.077  13.320  0.1404 -0.1829  1.0017
 4494SOL    HW225119   1.059   3.983  13.429 -0.1270 -0.3828 -0.6275
 4495SOL     OW25120   3.476   2.031   8.058 -0.4363 -0.1288  0.5156
 4495SOL    HW125121   3.543   2.087   8.097  0.2126 -0.6788  0.1861
 4495SOL    HW225122   3.450   2.089   7.986  1.1051 -0.1691 -0.0715
 4496SOL     OW25123   1.874   2.435   4.909 -0.3005 -0.6259 -0.1367
 4496SOL    HW125124   1.871   2.479   4.994 -1.3419  0.7148 -0.8738
 4496SOL    HW225125   1.788   2.397   4.889  0.3333 -1.4511 -1.2390
 4497SOL     OW25126   3.760   0.939  14.249 -0.0834  0.1904 -0.4651
 4497SOL    HW125127   3.809   1.011  14.210 -0.2411 -0.4255 -1.7929
 4497SOL    HW225128   3.814   0.934  14.328 -1.9373  1.6256  0.8879
 4498SOL     OW25129   2.305   4.517   6.100 -0.1747 -0.0138  0.2506
 4498SOL    HW125130   2.261   4.602   6.088 -1.3305 -0.7348 -0.6530
 4498SOL    HW225131   2.274   4.452   6.037 -0.6783  1.4839 -1.0788
 4499SOL     OW25132   2.400   0.885  16.369 -0.6094  0.1675 -0.1297
 4499SOL    HW125133   2.468   0.951  16.379 -0.4572  0.2182 -1.3847
 4499SOL    HW225134   2.438   0.808  16.410  0.5984  0.4451 -0.7054
 4500SOL     OW25135   4.232   0.468   3.036 -0.1878  0.2159  0.2009
 4500SOL    HW125136   4.194   0.470   2.948 -0.0988  1.2369  0.1781
 4500SOL    HW225137   4.150   0.455   3.084 -2.6449  5.5464 -2.5655
 4501SOL     OW25138   1.502   4.492   8.931 -0.2016 -0.1229  0.4554
 4501SOL    HW125139   1.430   4.443   8.890 -1.2692  0.8852  1.1227
 4501SOL    HW225140   1.572   4.487   8.867 -0.9886  1.4537 -0.5229
 4502SOL     OW25141   0.665   1.480   4.065 -0.4957 -0.0328 -0.6496
 4502SOL    HW125142   0.708   1.412   4.117  0.0539  0.7040 -0.1265
 4502SOL    HW225143   0.724   1.506   3.994 -1.7613  0.2580 -1.5970
 4503SOL     OW25144   4.245   3.892  10.492 -0.1995 -0.4181 -0.6136
 4503SOL    HW125145   4.195   3.922  10.568  0.5278 -0.1122 -0.2537
 4503SOL    HW225146   4.205   3.943  10.421  1.1448  2.8900  0.9979
 4504SOL     OW25147   1.919   0.568   2.786  0.4794 -0.3378  0.3212
 4504SOL    HW125148   1.856   0.634   2.757  1.7046  0.3529 -0.7403
 4504SOL    HW225149   1.978   0.622   2.839 -0.2512 -1.7326  2.5615
 4505SOL     OW25150   2.072   4.187   8.042  0.2708  0.7442  0.2440
 4505SOL    HW125151   2.164   4.207   8.059 -0.0708  0.6467  2.2391
 4505SOL    HW225152   2.024   4.222   8.117  1.8839  0.0460  1.6275
 4506SOL     OW25153   2.695   1.259  11.957  0.1400 -0.4121  0.7707
 4506SOL    HW125154   2.690   1.219  11.871  1.7918 -1.0344  0.9606
 4506SOL    HW225155   2.790   1.258  11.970  0.2913 -1.7400 -0.4354
 4507SOL     OW25156   1.550   2.570   9.906 -0.4199 -0.2166  0.0210
 4507SOL    HW125157   1.617   2.503   9.893  1.2229  1.5238 -0.3888
 4507SOL    HW225158   1.572   2.630   9.835 -0.6352 -2.6623 -2.1165
 4508SOL     OW25159   3.885   1.327   5.860 -0.2047  0.3303  0.0636
 4508SOL    HW125160   3.876   1.412   5.818  0.4965 -0.3563 -1.4597
 4508SOL    HW225161   3.974   1.307   5.830  0.2056 -0.0394  1.5280
 4509SOL     OW25162   3.122   4.219   2.117  0.6014 -0.2656  0.2186
 4509SOL    HW125163   3.052   4.185   2.061  0.2751 -0.6862  0.8716
 4509SOL    HW225164   3.076   4.220   2.201 -0.1632 -0.6195 -0.1865
 4510SOL     OW25165   0.792   3.325   2.577 -0.1962 -0.1328  0.3225
 4510SOL    HW125166   0.721   3.309   2.516  2.8222 -1.7702 -2.7868
 4510SOL    HW225167   0.823   3.237   2.596 -0.3660 -0.8194 -2.6107
 4511SOL     OW25168   3.130   3.453   6.797 -0.0655 -0.0241 -0.1542
 4511SOL    HW125169   3.085   3.493   6.872  0.5542  2.0751 -0.8896
 4511SOL    HW225170   3.067   3.462   6.726  0.1059 -3.0394 -0.6823
 4512SOL     OW25171   0.710   2.957   9.709  0.4580 -0.3548  0.3849
 4512SOL    HW125172   0.801   2.943   9.684 -0.0189 -1.1197 -0.9441
 4512SOL    HW225173   0.668   2.969   9.623  1.6201 -0.7518 -0.2327
 4513SOL     OW25174   2.738   0.503   7.969 -0.0247  0.3565  0.0080
 4513SOL    HW125175   2.781   0.570   7.915 -0.5617 -0.2891 -1.2112
 4513SOL    HW225176   2.649   0.518   7.937 -0.7955 -0.9359  1.5703
 4514SOL     OW25177   4.489   4.573  12.368  0.1525 -0.1823  0.0191
 4514SOL    HW125178   4.444   4.495  12.403 -0.0272 -0.8706 -1.7694
 4514SOL    HW225179   4.437   4.581  12.288 -2.1996 -0.7601  1.4570
 4515SOL     OW25180   0.212   0.434   3.504  0.2010 -0.0550 -0.3765
 4515SOL    HW125181   0.234   0.475   3.588 -1.5612  0.2039 -0.0461
 4515SOL    HW225182   0.116   0.432   3.497  0.1752  2.1702 -0.4563
 4516SOL     OW25183   4.154   1.005   8.432  0.3618  0.5407 -0.7629
 4516SOL    HW125184   4.247   1.027   8.431  0.4124  0.3078 -1.8126
 4516SOL    HW225185   4.104   1.083   8.409  0.8063  0.3464 -2.4274
 4517SOL     OW25186   0.993   1.513   4.783  0.6537  0.0236 -0.3710
 4517SOL    HW125187   0.901   1.495   4.803  0.7499  0.5846  0.5867
 4517SOL    HW225188   1.037   1.430   4.765 -2.1845 -1.3850 -0.8331
 4518SOL     OW25189   3.622   2.240   8.160  0.9516  0.1216 -0.7178
 4518SOL    HW125190   3.598   2.237   8.252  0.2330 -2.9401 -1.0046
 4518SOL    HW225191   3.644   2.331   8.143 -0.3553  0.3497 -1.1764
 4519SOL     OW25192   1.181   2.603  13.784 -0.6300  0.0433  0.4366
 4519SOL    HW125193   1.129   2.609  13.864 -1.7101  2.7458 -0.4942
 4519SOL    HW225194   1.177   2.511  13.756  0.0681 -0.2833  1.3642
 4520SOL     OW25195   2.548   0.602   8.269 -0.5590 -0.1378  0.2422
 4520SOL    HW125196   2.532   0.608   8.363 -0.4589 -1.3046  0.3402
 4520SOL    HW225197   2.513   0.518   8.240 -1.5271 -0.8656  3.5469
 4521SOL     OW25198   1.972   0.777   1.284 -0.3397 -0.3422  0.0106
 4521SOL    HW125199   1.883   0.813   1.289  0.0571  0.4025  1.5715
 4521SOL    HW225200   2.028   0.836   1.335 -2.6921 -0.1997  2.4184
 4522SOL     OW25201   0.872   0.766   6.284 -0.1690 -0.6231  0.0752
 4522SOL    HW125202   0.801   0.753   6.221  1.8118  0.5877 -2.4078
 4522SOL    HW225203   0.942   0.795   6.225  0.5922 -1.1434  0.7162
 4523SOL     OW25204   3.795   3.411   3.432  0.4354 -0.1904  0.2058
 4523SOL    HW125205   3.868   3.415   3.495 -0.5945  1.3236  1.3071
 4523SOL    HW225206   3.833   3.466   3.364 -1.3636  0.3691 -0.3426
 4524SOL     OW25207   1.901   1.383  10.172 -0.1145  0.2966 -0.0188
 4524SOL    HW125208   1.814   1.344  10.176  0.0994 -0.0908  0.9010
 4524SOL    HW225209   1.928   1.356  10.084 -2.0836 -1.9053  0.0395
 4525SOL     OW25210   3.971   3.721  16.482 -0.1730 -0.2737 -0.5317
 4525SOL    HW125211   3.888   3.750  16.521 -1.8984 -2.7565 -2.3745
 4525SOL    HW225212   4.030   3.744  16.553  1.1443 -1.0062 -1.3915
 4526SOL     OW25213   1.599   1.274   1.847  0.5551 -0.0415 -0.3651
 4526SOL    HW125214   1.547   1.200   1.816  1.3611 -0.6522 -0.2790
 4526SOL    HW225215   1.687   1.241   1.867  0.4402  0.4847  1.0167
 4527SOL     OW25216   2.234   2.869   9.208  0.3816  0.2704  0.1613
 4527SOL    HW125217   2.327   2.891   9.217  0.0907  1.4863  0.1642
 4527SOL    HW225218   2.239   2.823   9.124  0.4400  1.2715 -0.3845
 4528SOL     OW25219   2.313   1.948  13.255  0.5493 -0.1813 -0.3675
 4528SOL    HW125220   2.386   1.916  13.202 -0.4303 -1.0621 -1.1810
 4528SOL    HW225221   2.357   1.982  13.333 -1.1396  1.4140 -0.0809
 4529SOL     OW25222   2.053   2.216   8.066  0.5171  0.1206  0.7409
 4529SOL    HW125223   2.021   2.149   8.126  0.5729 -1.1965 -0.6908
 4529SOL    HW225224   1.975   2.272   8.066 -0.5353 -1.3360 -2.0807
 4530SOL     OW25225   2.233   1.215   5.730 -0.4938  0.3583  0.4449
 4530SOL    HW125226   2.249   1.124   5.705 -0.7203  0.1097  1.2139
 4530SOL    HW225227   2.177   1.232   5.655 -1.4077  0.0612  1.0626
 4531SOL     OW25228   3.947   3.880   5.485 -0.4175  0.6057  0.2593
 4531SOL    HW125229   3.875   3.941   5.471 -1.4452 -0.7560 -0.4047
 4531SOL    HW225230   3.908   3.826   5.553 -0.0507 -0.3447 -0.2789
 4532SOL     OW25231   2.409   2.820   4.863 -0.0192  0.7039  0.7024
 4532SOL    HW125232   2.467   2.842   4.937  0.0101 -0.2100  0.9563
 4532SOL    HW225233   2.382   2.908   4.838  1.0365  0.6430 -0.6531
 4533SOL     OW25234   2.302   2.835   9.787 -0.1908  0.1034 -0.4177
 4533SOL    HW125235   2.331   2.864   9.874  0.9865 -0.8468 -0.4905
 4533SOL    HW225236   2.294   2.916   9.737 -0.7277  0.2984 -0.0202
 4534SOL     OW25237   0.538   2.872   5.130 -0.4009  0.0265 -0.5820
 4534SOL    HW125238   0.531   2.962   5.163  1.5437  0.2715 -0.8073
 4534SOL    HW225239   0.452   2.831   5.141 -0.3216 -0.1163 -0.4910
 4535SOL     OW25240   1.135   1.076   2.811  0.0004  0.2275  0.4389
 4535SOL    HW125241   1.094   1.029   2.739 -0.2798 -0.2002  0.8814
 4535SOL    HW225242   1.107   1.167   2.798  0.9066  0.8559  2.8106
 4536SOL     OW25243   0.678   1.409  16.868  0.4439  0.4225  0.7509
 4536SOL    HW125244   0.730   1.381  16.793  1.3644  2.0388  0.7809
 4536SOL    HW225245   0.732   1.485  16.892 -0.6107  0.9738  1.3771
 4537SOL     OW25246   4.539   3.492   8.424  0.0201 -0.2624  0.6067
 4537SOL    HW125247   4.548   3.439   8.502  0.3109  1.9606  2.0836
 4537SOL    HW225248   4.450   3.466   8.400  0.1701  0.9525 -1.2999
 4538SOL     OW25249   3.684   1.032   8.627 -0.6132 -0.3789  0.0985
 4538SOL    HW125250   3.647   0.995   8.547  2.3898 -0.4467 -1.2599
 4538SOL    HW225251   3.693   1.118   8.587  0.2210 -0.9865 -1.0443
 4539SOL     OW25252   1.317   3.962   2.440 -0.2896 -0.5321  0.3108
 4539SOL    HW125253   1.401   3.918   2.449 -1.6138 -2.8962  1.2872
 4539SOL    HW225254   1.269   3.894   2.393  0.3270  0.7315 -2.0984
 4540SOL     OW25255   4.266   2.542  13.629 -0.0791  0.5510 -0.1676
 4540SOL    HW125256   4.345   2.492  13.650 -0.3894  0.1631  0.0810
 4540SOL    HW225257   4.298   2.632  13.637  0.0341  0.2069  3.1685
 4541SOL     OW25258   2.570   0.976   5.981 -1.1162  0.3408  0.5215
 4541SOL    HW125259   2.528   0.920   5.915  2.9420 -0.1031 -1.6565
 4541SOL    HW225260   2.628   0.907   6.015 -1.4153  0.3390  1.0347
 4542SOL     OW25261   3.730   4.049   6.667 -0.7294  0.2509  0.0855
 4542SOL    HW125262   3.662   4.001   6.716 -0.6400  0.0917  0.0549
 4542SOL    HW225263   3.805   4.043   6.725  0.4988  1.3752 -1.3771
 4543SOL     OW25264   3.958   2.202  12.240 -0.6194  0.4757 -0.0615
 4543SOL    HW125265   3.924   2.116  12.213  1.4167 -0.5356  0.6151
 4543SOL    HW225266   3.924   2.206  12.329  1.2524  0.1071  0.6667
 4544SOL     OW25267   0.274   0.439   2.986  0.2032 -0.4117 -0.6392
 4544SOL    HW125268   0.280   0.439   3.082  0.5265  2.1324 -0.6736
 4544SOL    HW225269   0.364   0.463   2.964  0.1342  0.9268  0.5802
 4545SOL     OW25270   4.015   1.944   6.744  0.1837 -0.3570 -0.6396
 4545SOL    HW125271   3.995   1.853   6.724 -0.6908 -0.3496  0.1941
 4545SOL    HW225272   4.081   1.932   6.812 -0.7512 -0.9628  0.1535
 4546SOL     OW25273   4.627   2.793   2.824  0.2020 -0.9404  0.0511
 4546SOL    HW125274   4.624   2.708   2.868 -0.8836 -0.3923  1.0360
 4546SOL    HW225275   4.534   2.804   2.803  0.5627  4.2791  1.2342
 4547SOL     OW25276   0.195   2.946   1.244 -0.1581  0.1950 -0.8322
 4547SOL    HW125277   0.240   2.905   1.317 -1.7802  0.1133  0.1208
 4547SOL    HW225278   0.111   2.964   1.285 -0.6181  1.1935 -2.1773
 4548SOL     OW25279   3.899   1.078  12.850 -0.1868 -0.0826  0.1013
 4548SOL    HW125280   3.808   1.051  12.838  0.2101 -2.4592  2.3470
 4548SOL    HW225281   3.944   0.997  12.874 -0.5980 -0.1583  0.6201
 4549SOL     OW25282   0.650   3.101   8.039  0.0524  0.2897  0.2347
 4549SOL    HW125283   0.678   3.104   7.948  3.2298  1.0213  1.2372
 4549SOL    HW225284   0.725   3.123   8.094  1.0475 -0.2384 -0.9268
 4550SOL     OW25285   3.477   1.488  12.076 -0.1851  0.1517 -0.1815
 4550SOL    HW125286   3.521   1.409  12.107 -1.7992 -0.2300  1.1398
 4550SOL    HW225287   3.386   1.461  12.065 -0.0194 -0.2622 -0.5626
 4551SOL     OW25288   1.103   4.269   2.911 -0.4484  0.3317 -0.2653
 4551SOL    HW125289   1.133   4.301   2.827 -1.3186  1.4791 -0.1306
 4551SOL    HW225290   1.028   4.214   2.886 -0.0154 -1.0319  1.3751
 4552SOL     OW25291   4.354   0.336   6.349  0.2013 -0.0786 -0.2339
 4552SOL    HW125292   4.398   0.358   6.267 -0.8623 -0.8620 -1.0027
 4552SOL    HW225293   4.268   0.377   6.341  0.6606  0.9533  0.0610
 4553SOL     OW25294   3.728   1.968   1.879  0.1515 -0.3396  0.0844
 4553SOL    HW125295   3.635   1.983   1.863  0.7148 -0.7818 -3.5358
 4553SOL    HW225296   3.727   2.011   1.965 -0.9178  0.5204 -0.3626
 4554SOL     OW25297   2.283   3.754   2.606 -0.2326 -0.0324 -0.7185
 4554SOL    HW125298   2.375   3.730   2.595 -0.2070  0.2351 -1.0816
 4554SOL    HW225299   2.244   3.686   2.551 -1.3156 -1.7693  2.1845
 4555SOL     OW25300   0.538   0.187   2.848 -0.4830 -0.3218 -0.1233
 4555SOL    HW125301   0.531   0.099   2.885  2.0716 -0.7935 -0.7434
 4555SOL    HW225302   0.593   0.235   2.910 -2.1133 -0.3763  1.3724
 4556SOL     OW25303   3.274   4.038  17.295 -0.1014  0.1884 -0.2428
 4556SOL    HW125304   3.195   4.035  17.348  1.2402  2.4927  1.9084
 4556SOL    HW225305   3.333   3.999  17.360 -0.4954  0.6335  0.3903
 4557SOL     OW25306   1.537   0.811   7.470 -0.1855 -0.0806  0.4284
 4557SOL    HW125307   1.582   0.799   7.553  0.5900 -1.6262 -0.2160
 4557SOL    HW225308   1.444   0.813   7.493  0.4352  1.8162  2.6689
 4558SOL     OW25309   4.402   2.243  14.121  0.0757  0.0759 -0.1476
 4558SOL    HW125310   4.376   2.169  14.067 -2.1376  0.6494  0.1603
 4558SOL    HW225311   4.363   2.214  14.204 -1.8920  1.1748 -0.6879
 4559SOL     OW25312   0.862   3.961  10.022  0.1204 -0.4368 -0.0063
 4559SOL    HW125313   0.795   3.919   9.968 -0.7510  0.5241  0.3151
 4559SOL    HW225314   0.944   3.928   9.986  1.0009  0.9581  0.7384
 4560SOL     OW25315   1.619   3.548   4.328  0.5986  0.4688 -0.3346
 4560SOL    HW125316   1.581   3.612   4.267  2.4171 -0.3468 -2.3163
 4560SOL    HW225317   1.586   3.583   4.411 -1.2716  0.1193 -0.9459
 4561SOL     OW25318   4.375   3.686  13.907  0.0328 -0.6103 -0.0567
 4561SOL    HW125319   4.315   3.611  13.907 -0.4047 -0.2579 -0.2010
 4561SOL    HW225320   4.438   3.639  13.962  0.4209 -0.3608 -0.2898
 4562SOL     OW25321   1.038   1.770   6.463  0.2616 -0.3070  0.3840
 4562SOL    HW125322   1.044   1.742   6.554 -0.8030 -1.5974  0.0616
 4562SOL    HW225323   1.074   1.858   6.478  0.8926 -0.1049 -2.3448
 4563SOL     OW25324   4.710   2.969  13.173  0.5764  0.2020 -0.0358
 4563SOL    HW125325   4.682   3.013  13.093 -2.9710 -0.7427  0.7068
 4563SOL    HW225326   0.068   2.976  13.169  0.5538  0.2290 -0.4505
 4564SOL     OW25327   0.020   4.003  15.846 -0.7413  0.0667 -0.4443
 4564SOL    HW125328   4.698   4.053  15.902 -0.0119 -0.4078  0.7466
 4564SOL    HW225329   4.719   4.028  15.762 -0.9200 -2.5985 -1.1594
 4565SOL     OW25330   1.599   0.540  12.388  0.1087  0.2765 -0.7634
 4565SOL    HW125331   1.524   0.485  12.366 -0.5629  0.4190  1.1678
 4565SOL    HW225332   1.577   0.631  12.372 -1.4003  0.6495  3.3904
 4566SOL     OW25333   0.827   3.678   2.292 -0.4848 -0.0549  0.0184
 4566SOL    HW125334   0.768   3.725   2.233 -0.4889 -1.3847 -1.0328
 4566SOL    HW225335   0.783   3.699   2.375 -3.4297  0.1329 -1.6037
 4567SOL     OW25336   1.916   3.932   8.153  0.5840 -0.1633  0.2478
 4567SOL    HW125337   2.000   3.886   8.165  0.8789  0.6127  1.1647
 4567SOL    HW225338   1.943   4.023   8.167  0.7906 -0.1663 -0.1152
 4568SOL     OW25339   1.655   2.677   9.031  0.4865  0.4330  0.1667
 4568SOL    HW125340   1.579   2.621   9.046  1.1167 -0.5593 -0.3513
 4568SOL    HW225341   1.665   2.740   9.103  0.6003 -1.5162  1.8732
 4569SOL     OW25342   3.750   0.304   6.516  0.6427 -0.0934 -0.1355
 4569SOL    HW125343   3.747   0.286   6.422  1.8017  3.5931 -0.8634
 4569SOL    HW225344   3.720   0.394   6.524  1.6911  0.3185 -0.7067
 4570SOL     OW25345   2.754   3.326   8.633  0.1696  0.2517 -0.0542
 4570SOL    HW125346   2.744   3.392   8.565  0.4377  0.0377 -0.3032
 4570SOL    HW225347   2.774   3.249   8.579  0.0183 -0.7012  1.2377
 4571SOL     OW25348   1.032   2.363   9.788 -0.4427 -0.2426  0.5356
 4571SOL    HW125349   0.960   2.327   9.840 -0.5088  0.3295  0.8391
 4571SOL    HW225350   0.988   2.435   9.741 -0.2845  0.1336  0.9684
 4572SOL     OW25351   1.526   3.299   6.694 -0.3894  0.3598  0.2488
 4572SOL    HW125352   1.533   3.263   6.606  1.0674 -0.1865  0.5803
 4572SOL    HW225353   1.527   3.390   6.665 -1.5650 -0.3831 -2.1585
 4573SOL     OW25354   0.563   2.012   8.267 -0.3517  0.1215  0.1952
 4573SOL    HW125355   0.640   2.069   8.273 -0.2277  0.0517 -0.6735
 4573SOL    HW225356   0.494   2.063   8.310  0.1736 -0.7137  2.0180
 4574SOL     OW25357   3.247   3.794   7.332  0.1520  0.7924 -0.0794
 4574SOL    HW125358   3.225   3.884   7.307 -0.8086  1.0167  1.5512
 4574SOL    HW225359   3.230   3.800   7.426  2.8235 -0.2941  0.4681
 4575SOL     OW25360   1.420   3.798  15.390 -0.3820  0.1474  0.1863
 4575SOL    HW125361   1.513   3.803  15.411 -0.2434 -0.7118 -0.2089
 4575SOL    HW225362   1.410   3.733  15.320  0.5368  2.9654 -2.5319
 4576SOL     OW25363   0.638   1.126   9.011  0.1114  0.9572  0.1678
 4576SOL    HW125364   0.641   1.160   8.922  0.0057 -2.6335 -1.2337
 4576SOL    HW225365   0.558   1.073   9.010  0.3809  0.5625 -0.8548
 4577SOL     OW25366   1.600   3.286   4.655 -0.5319  0.3415 -0.5229
 4577SOL    HW125367   1.658   3.322   4.722 -1.3819  2.2301 -0.7986
 4577SOL    HW225368   1.536   3.235   4.704 -0.0481  1.7934  1.5867
 4578SOL     OW25369   0.387   1.376   3.580 -0.0008 -0.5640  0.1879
 4578SOL    HW125370   0.445   1.422   3.641  1.9984 -1.2985 -1.1678
 4578SOL    HW225371   0.345   1.317   3.643  0.8949 -0.1412  1.1687
 4579SOL     OW25372   1.950   4.378  15.027 -0.3733  0.1299  0.2714
 4579SOL    HW125373   1.939   4.457  14.973  5.2785  1.1886  0.6138
 4579SOL    HW225374   1.872   4.386  15.081  1.0248 -1.3103  2.4869
 4580SOL     OW25375   0.785   0.712   2.180  0.0246 -0.0515  0.3596
 4580SOL    HW125376   0.722   0.732   2.112 -0.8375  0.7583  1.4028
 4580SOL    HW225377   0.758   0.771   2.250  2.3426  0.4257  0.8579
 4581SOL     OW25378   0.399   4.451   9.121  0.6153  0.3970  0.4171
 4581SOL    HW125379   0.406   4.377   9.181 -1.0401  0.7850  1.0693
 4581SOL    HW225380   0.492   4.446   9.099  0.8662 -2.1071  2.0072
 4582SOL     OW25381   0.892   2.141   9.670  0.7529  0.0914 -0.1087
 4582SOL    HW125382   0.832   2.137   9.596 -0.6734  1.2885  0.9886
 4582SOL    HW225383   0.895   2.233   9.696 -2.2530  0.0045  0.5328
 4583SOL     OW25384   4.018   1.105  16.667 -0.7120 -0.5775  0.4449
 4583SOL    HW125385   4.038   1.101  16.761  0.8397  0.1346  0.1569
 4583SOL    HW225386   3.950   1.039  16.677 -0.9296 -0.6982 -1.9398
 4584SOL     OW25387   4.153   4.640   6.112 -0.1231 -0.0654  0.8918
 4584SOL    HW125388   4.239   4.599   6.117  0.5805  1.5344  1.8833
 4584SOL    HW225389   4.178   4.731   6.132 -0.9860  0.6433 -1.2154
 4585SOL     OW25390   3.398   1.793  11.359  0.8048  0.1830 -0.0627
 4585SOL    HW125391   3.429   1.849  11.430 -1.0971  1.3866 -0.1719
 4585SOL    HW225392   3.347   1.861  11.316  0.2781 -0.4800 -0.4801
 4586SOL     OW25393   0.287   3.610  13.394 -0.6463  0.3618 -0.6304
 4586SOL    HW125394   0.274   3.628  13.301 -0.1107  2.3377 -0.3211
 4586SOL    HW225395   0.209   3.559  13.417 -0.0135 -0.2480  0.1752
 4587SOL     OW25396   4.578   3.698   4.687  0.4296 -0.3564 -0.3814
 4587SOL    HW125397   4.504   3.646   4.717  1.3802 -1.3844  0.2108
 4587SOL    HW225398   4.544   3.788   4.686 -0.4686 -0.6836  0.9463
 4588SOL     OW25399   1.818   1.594   8.401 -0.9832 -0.3041 -0.1299
 4588SOL    HW125400   1.837   1.629   8.488 -0.5408 -1.4048  0.2193
 4588SOL    HW225401   1.872   1.516   8.386 -0.0383  0.4036 -0.4233
 4589SOL     OW25402   0.230   1.240   2.068 -0.0111 -0.2392  0.1024
 4589SOL    HW125403   0.302   1.287   2.027  1.0473 -2.3440 -0.4553
 4589SOL    HW225404   0.194   1.313   2.118  1.1668  0.0477  0.5375
 4590SOL     OW25405   3.795   2.138  15.296 -0.1115  0.6690  0.0781
 4590SOL    HW125406   3.841   2.219  15.317  1.0968  0.2946 -1.0577
 4590SOL    HW225407   3.806   2.086  15.375  0.6554 -2.2805 -1.9697
 4591SOL     OW25408   1.190   2.499   6.685 -0.0050  0.0764  0.2642
 4591SOL    HW125409   1.113   2.516   6.740  0.5072  1.1913  0.6393
 4591SOL    HW225410   1.197   2.579   6.633 -0.1521  2.0400  3.2622
 4592SOL     OW25411   2.128   1.860   9.232  0.1887  0.3236  0.3152
 4592SOL    HW125412   2.075   1.850   9.311  0.9416  1.4632  0.9763
 4592SOL    HW225413   2.138   1.953   9.213  1.3212  0.4855  1.6835
 4593SOL     OW25414   2.811   0.431   5.033  0.4480 -0.6502 -0.0236
 4593SOL    HW125415   2.897   0.423   4.991 -0.8716  0.6098 -2.9463
 4593SOL    HW225416   2.773   0.355   4.990  1.1125 -1.2255  0.4115
 4594SOL     OW25417   4.129   3.297   4.494  0.8218  0.1597  0.4029
 4594SOL    HW125418   4.106   3.235   4.426  0.5963  0.1939  0.4475
 4594SOL    HW225419   4.108   3.382   4.456 -0.8988 -1.2702 -1.8232
 4595SOL     OW25420   0.462   3.413  12.098 -0.1850 -0.0406  0.4240
 4595SOL    HW125421   0.530   3.475  12.071 -1.5317  1.2449 -0.0312
 4595SOL    HW225422   0.470   3.423  12.193 -0.1761 -0.5584  0.4744
 4596SOL     OW25423   2.233   2.288  16.875  0.2666  0.4962  0.1137
 4596SOL    HW125424   2.309   2.246  16.835  0.1535  0.4535 -0.0555
 4596SOL    HW225425   2.213   2.233  16.951 -0.5382  3.0960  1.7794
 4597SOL     OW25426   0.599   1.514   5.676  0.0736  0.4847 -0.6084
 4597SOL    HW125427   0.549   1.544   5.752 -0.5564  0.8164 -1.1546
 4597SOL    HW225428   0.526   1.486   5.620  0.2783  1.6879 -1.4844
 4598SOL     OW25429   4.039   4.711   5.287  0.4587 -0.4572  0.0700
 4598SOL    HW125430   3.970   0.040   5.285  0.2076 -0.7708 -1.5801
 4598SOL    HW225431   4.090   4.718   5.206  1.1548 -1.4110  0.4219
 4599SOL     OW25432   1.123   1.696   6.710  0.1440 -0.3006 -0.1037
 4599SOL    HW125433   1.110   1.648   6.791  0.2303  0.5216  0.4034
 4599SOL    HW225434   1.207   1.662   6.679 -0.7953 -0.4324 -2.4579
 4600SOL     OW25435   3.793   4.209   4.953  0.0283  0.1285  0.4161
 4600SOL    HW125436   3.723   4.144   4.954 -0.8856  1.1168  0.1791
 4600SOL    HW225437   3.855   4.159   4.900  0.4991  0.6002  0.5177
 4601SOL     OW25438   2.867   3.675   9.687  0.0704 -0.2526  0.0272
 4601SOL    HW125439   2.895   3.741   9.750 -1.0994 -0.6864  0.9877
 4601SOL    HW225440   2.954   3.636   9.677  0.0902  0.3597 -2.2164
 4602SOL     OW25441   2.909   0.289   1.191  0.0374  0.3466  0.3038
 4602SOL    HW125442   2.955   0.368   1.218 -0.6442  0.8040  0.1324
 4602SOL    HW225443   2.830   0.290   1.245  1.7960 -0.5145  2.8829
 4603SOL     OW25444   1.257   2.741   5.780 -0.1054 -0.7542 -0.2008
 4603SOL    HW125445   1.184   2.686   5.807 -0.1382 -0.6355 -0.0509
 4603SOL    HW225446   1.214   2.790   5.710 -0.1911  0.4115  0.6694
 4604SOL     OW25447   1.999   1.353   9.429 -0.1998  0.5050  0.2184
 4604SOL    HW125448   1.985   1.448   9.430 -1.1509  0.4030 -1.5876
 4604SOL    HW225449   1.918   1.327   9.385  1.1173 -2.0133 -0.7239
 4605SOL     OW25450   1.143   2.439   4.574  0.0489  0.2359  0.8757
 4605SOL    HW125451   1.098   2.358   4.552  1.7995 -0.1689 -1.3150
 4605SOL    HW225452   1.103   2.496   4.509 -0.7785  0.7345  1.8315
 4606SOL     OW25453   2.498   0.803   1.505 -0.5722 -0.2685 -0.7231
 4606SOL    HW125454   2.522   0.887   1.545  0.6372 -0.1648 -1.6473
 4606SOL    HW225455   2.574   0.781   1.450  2.1657  1.5270  2.3080
 4607SOL     OW25456   4.719   3.764  13.746  0.3385 -0.1037 -0.7433
 4607SOL    HW125457   0.039   3.762  13.823  0.7131  1.6747 -0.9712
 4607SOL    HW225458   4.721   3.669  13.731 -0.7024  0.0600 -1.9399
 4608SOL     OW25459   3.770   2.010  12.730 -0.1072  0.0480 -0.1613
 4608SOL    HW125460   3.746   2.092  12.774  2.6986  0.9466 -0.3346
 4608SOL    HW225461   3.757   1.950  12.804  4.0063 -1.1357 -0.4077
 4609SOL     OW25462   2.334   0.974  11.601 -0.0320  0.5705 -0.0240
 4609SOL    HW125463   2.353   0.881  11.600 -0.1902  0.5644 -1.6852
 4609SOL    HW225464   2.413   1.016  11.566  0.0790 -0.0495 -0.5046
 4610SOL     OW25465   2.334   1.156   2.863  0.6401  0.0963  0.2034
 4610SOL    HW125466   2.350   1.119   2.777 -0.7472 -0.3973  0.1506
 4610SOL    HW225467   2.419   1.195   2.883  1.2088 -0.9592 -0.1829
 4611SOL     OW25468   1.470   0.202   4.443  0.0090  0.2750  0.0770
 4611SOL    HW125469   1.450   0.184   4.351 -0.3155  2.8298 -0.3414
 4611SOL    HW225470   1.564   0.184   4.433 -0.2780 -0.8694 -0.6476
 4612SOL     OW25471   3.832   3.664   4.213  0.0296  0.0231  0.7606
 4612SOL    HW125472   3.851   3.745   4.165  2.6631  0.3694  2.3575
 4612SOL    HW225473   3.753   3.638   4.167  0.7238 -1.6370  0.4835
 4613SOL     OW25474   0.209   2.696   5.332 -0.3433  0.4076 -0.2368
 4613SOL    HW125475   0.187   2.767   5.391 -2.6508  0.0558 -0.6806
 4613SOL    HW225476   0.282   2.655   5.379 -1.0656  1.6889  1.9495
 4614SOL     OW25477   1.181   4.711   1.425  0.8139  0.1207  0.2660
 4614SOL    HW125478   1.249   0.040   1.409  0.1615  0.9839  1.0490
 4614SOL    HW225479   1.199   4.678   1.513 -0.4975 -1.5601 -0.0864
 4615SOL     OW25480   1.209   0.534   2.565 -0.6973  0.1883 -0.3264
 4615SOL    HW125481   1.280   0.500   2.511 -1.3393 -0.5530 -0.7095
 4615SOL    HW225482   1.245   0.622   2.577  1.1603 -0.7894  1.1846
 4616SOL     OW25483   1.545   2.427   7.793  0.1098 -0.4732 -0.2326
 4616SOL    HW125484   1.503   2.503   7.754 -1.6576 -0.3999  1.7878
 4616SOL    HW225485   1.483   2.362   7.760 -0.1471  1.0279 -2.6892
 4617SOL     OW25486   3.548   3.309   3.497  0.0613  0.1753 -0.4350
 4617SOL    HW125487   3.641   3.331   3.500  0.1174 -0.1066 -0.1292
 4617SOL    HW225488   3.516   3.395   3.525  2.3640  1.0696 -0.5561
 4618SOL     OW25489   2.239   3.212   3.223  0.2783 -0.2951 -0.1895
 4618SOL    HW125490   2.268   3.221   3.314  0.3525 -3.1744  0.0937
 4618SOL    HW225491   2.251   3.118   3.210 -0.2199 -0.0791 -2.3238
 4619SOL     OW25492   3.369   2.505   6.547  0.6417  0.3003  1.0282
 4619SOL    HW125493   3.341   2.572   6.611  0.4389  1.6240 -0.4505
 4619SOL    HW225494   3.308   2.436   6.572 -0.8122  0.7666 -1.2265
 4620SOL     OW25495   1.356   4.602   1.640  0.0973  0.1551  0.3476
 4620SOL    HW125496   1.432   4.658   1.624  1.0332 -0.8799  1.1317
 4620SOL    HW225497   1.389   4.514   1.620 -0.6631  0.0107 -0.2800
 4621SOL     OW25498   4.530   1.820   8.178 -0.3142  0.1465 -0.0287
 4621SOL    HW125499   4.480   1.890   8.221 -0.4749  0.3582 -0.5588
 4621SOL    HW225500   4.538   1.756   8.248  1.2778 -0.8326 -1.1100
 4622SOL     OW25501   3.588   2.469   5.663  0.6177 -0.0469 -0.4108
 4622SOL    HW125502   3.538   2.489   5.583 -0.6166 -1.0943  0.1049
 4622SOL    HW225503   3.566   2.548   5.711  0.7252 -0.9420  1.0867
 4623SOL     OW25504   4.546   3.279   3.749 -0.3548 -0.2692 -0.1249
 4623SOL    HW125505   4.622   3.287   3.692 -1.8726 -2.2564 -2.4187
 4623SOL    HW225506   4.572   3.206   3.805  0.5162 -1.1985 -1.7890
 4624SOL     OW25507   4.465   2.626   2.358 -0.0076  0.7173 -0.1883
 4624SOL    HW125508   4.515   2.641   2.277  2.5451 -0.8769  1.0863
 4624SOL    HW225509   4.468   2.712   2.400 -0.4565 -0.7154  2.7451
 4625SOL     OW25510   3.113   3.713   6.967 -0.1052  0.3101  0.4706
 4625SOL    HW125511   3.033   3.718   6.914  0.5915 -2.7477 -0.8631
 4625SOL    HW225512   3.085   3.659   7.041  0.7810  1.1398  1.4210
 4626SOL     OW25513   4.442   4.098  11.917 -0.3737  0.1047  0.7599
 4626SOL    HW125514   4.459   4.189  11.942  0.3534  0.1591  0.0513
 4626SOL    HW225515   4.462   4.061  12.003  1.3490 -1.6515 -0.3941
 4627SOL     OW25516   0.198   1.660  14.919 -0.1414  0.3036  0.7675
 4627SOL    HW125517   0.274   1.603  14.937  0.0366  0.5443  0.7767
 4627SOL    HW225518   0.217   1.689  14.829 -1.2612 -1.8173 -0.1591
 4628SOL     OW25519   4.028   1.160   4.568  0.0380  0.2429 -0.2491
 4628SOL    HW125520   4.066   1.248   4.571  1.1844 -0.1977 -1.7245
 4628SOL    HW225521   3.937   1.188   4.563  0.2220  0.9319  0.3184
 4629SOL     OW25522   3.392   3.197   4.602 -0.3019 -0.6966 -0.6596
 4629SOL    HW125523   3.470   3.159   4.562  0.6301  1.4287 -0.8991
 4629SOL    HW225524   3.355   3.122   4.648 -0.5550 -1.0369 -1.4410
 4630SOL     OW25525   0.690   3.001   5.518  0.3983  0.1045  0.0811
 4630SOL    HW125526   0.672   3.090   5.549  3.1104  0.7094 -0.1313
 4630SOL    HW225527   0.707   3.015   5.425  1.6972 -1.2912  0.1151
 4631SOL     OW25528   0.868   1.829   8.308  0.2670 -0.4402 -0.0062
 4631SOL    HW125529   0.883   1.817   8.215  3.4730 -0.2316  0.5049
 4631SOL    HW225530   0.810   1.756   8.330 -1.5142  0.8189 -0.4839
 4632SOL     OW25531   2.895   2.749   6.903  0.8456  0.1901 -0.6337
 4632SOL    HW125532   2.838   2.696   6.960  1.4214 -1.3507 -1.4707
 4632SOL    HW225533   2.979   2.737   6.947  0.3903 -1.1695 -0.1050
 4633SOL     OW25534   4.262   1.673   1.600 -0.0336  0.5006 -0.3944
 4633SOL    HW125535   4.255   1.593   1.548  0.1572 -0.4358  1.0014
 4633SOL    HW225536   4.258   1.639   1.690 -0.9118  2.1564  0.1833
 4634SOL     OW25537   2.594   2.954   1.730 -0.6202  0.7856 -0.3405
 4634SOL    HW125538   2.680   2.912   1.724 -0.4520  1.3286 -2.0140
 4634SOL    HW225539   2.533   2.886   1.700 -1.1895  1.8179 -1.5529
 4635SOL     OW25540   4.143   3.579   7.223  0.4190 -0.6716  0.5490
 4635SOL    HW125541   4.169   3.641   7.291 -0.8577 -0.0553  0.4760
 4635SOL    HW225542   4.081   3.525   7.271 -1.8577  0.0349 -1.5760
 4636SOL     OW25543   4.445   4.356  11.900  0.0873 -0.7202  0.3029
 4636SOL    HW125544   4.392   4.433  11.921  1.8444  0.9224 -1.2762
 4636SOL    HW225545   4.443   4.360  11.805 -0.7120 -1.9950  0.2707
 4637SOL     OW25546   3.651   0.775  14.054 -0.4225  0.2559  0.2034
 4637SOL    HW125547   3.688   0.848  14.104  1.5430 -1.5854  1.4575
 4637SOL    HW225548   3.730   0.750  14.006 -0.2088  0.9798  0.1747
 4638SOL     OW25549   0.776   1.266  15.440 -0.1053 -0.2531  0.4343
 4638SOL    HW125550   0.703   1.210  15.411 -0.6463  0.3109  0.7176
 4638SOL    HW225551   0.745   1.318  15.513 -0.3421 -0.0789  0.2115
 4639SOL     OW25552   0.179   3.085   8.211  0.5219  0.4025  0.1628
 4639SOL    HW125553   0.108   3.025   8.235  1.5478 -1.9966 -2.7382
 4639SOL    HW225554   0.131   3.131   8.142  0.3254 -0.7420 -0.4692
 4640SOL     OW25555   4.562   1.399   6.805 -0.3824 -0.1454  0.1320
 4640SOL    HW125556   4.506   1.432   6.734 -0.0568 -0.9693 -0.5017
 4640SOL    HW225557   4.647   1.441   6.793 -0.1337 -0.9130 -0.7477
 4641SOL     OW25558   0.169   0.551   4.109 -0.4619  0.3794 -0.0991
 4641SOL    HW125559   0.249   0.551   4.160  0.3861 -2.3429 -1.4492
 4641SOL    HW225560   0.153   0.642   4.084  1.0691  0.3470 -1.2320
 4642SOL     OW25561   4.718   1.198   8.103 -0.7598  0.0623  0.1596
 4642SOL    HW125562   0.023   1.112   8.104 -2.3286 -0.7044 -0.0760
 4642SOL    HW225563   4.645   1.162   8.053  2.3825 -1.6697 -3.1463
 4643SOL     OW25564   1.535   1.555   5.114 -0.1722  0.2957 -0.4720
 4643SOL    HW125565   1.483   1.505   5.177  1.3326 -0.0498  0.4976
 4643SOL    HW225566   1.586   1.618   5.165  1.5969 -2.6309  1.3861
 4644SOL     OW25567   1.093   4.376   8.342 -0.3261  0.2751 -0.1494
 4644SOL    HW125568   1.185   4.400   8.356 -0.8517  1.6525  1.0119
 4644SOL    HW225569   1.096   4.332   8.258  0.2689 -0.8885  0.4811
 4645SOL     OW25570   4.206   1.166   1.395  0.6467  0.3308  0.0290
 4645SOL    HW125571   4.204   1.167   1.490  1.1545  1.5361  0.0332
 4645SOL    HW225572   4.221   1.078   1.360 -1.2653  0.4915 -1.2290
 4646SOL     OW25573   0.745   2.656   4.092 -0.2442  0.6272 -0.2284
 4646SOL    HW125574   0.798   2.577   4.082  1.0390  1.2507  1.6338
 4646SOL    HW225575   0.732   2.669   4.186  3.4598  0.8406  0.2524
 4647SOL     OW25576   4.166   4.558   6.686  0.1247 -0.4110 -0.4492
 4647SOL    HW125577   4.107   4.627   6.657  0.1151 -0.9913 -1.7726
 4647SOL    HW225578   4.163   4.574   6.781 -0.0003  0.5145 -0.6132
 4648SOL     OW25579   0.969   0.522   3.846 -0.3525  0.4583 -0.1295
 4648SOL    HW125580   0.885   0.516   3.891  0.0924  1.3775  0.8373
 4648SOL    HW225581   0.935   0.569   3.771  0.3537  0.3182 -0.5346
 4649SOL     OW25582   0.268   4.586   2.260 -0.3750  0.8944  0.0658
 4649SOL    HW125583   0.354   4.545   2.269 -0.6014  0.3653 -0.1616
 4649SOL    HW225584   0.239   4.519   2.198 -0.3609 -1.0005  2.0994
 4650SOL     OW25585   3.633   3.291   2.961  0.0741 -0.1202  0.6507
 4650SOL    HW125586   3.712   3.287   3.014 -0.0749 -0.0292  0.8806
 4650SOL    HW225587   3.571   3.243   3.017 -0.9199 -0.0353 -0.3701
 4651SOL     OW25588   0.490   2.278  14.979 -0.7913  0.4649 -0.6799
 4651SOL    HW125589   0.485   2.193  15.022 -0.5430 -0.3760 -2.2988
 4651SOL    HW225590   0.552   2.261  14.907  2.3069 -0.1142  2.1476
 4652SOL     OW25591   3.904   3.275   6.999  0.2541  0.8479 -0.3559
 4652SOL    HW125592   3.955   3.212   6.949 -1.8534 -1.4341  0.3462
 4652SOL    HW225593   3.907   3.359   6.952 -0.1162  1.1773  0.2092
 4653SOL     OW25594   1.932   3.609  16.235  0.0960 -0.2502 -0.2839
 4653SOL    HW125595   1.942   3.524  16.279  1.8878 -0.5622 -1.2825
 4653SOL    HW225596   1.868   3.592  16.166 -0.1772 -0.3543 -0.0064
 4654SOL     OW25597   0.212   4.457   3.354 -0.3346  0.3579 -0.2380
 4654SOL    HW125598   0.165   4.511   3.290  2.9323  1.6417 -1.5596
 4654SOL    HW225599   0.151   4.464   3.427  0.9988 -0.9647  0.9879
 4655SOL     OW25600   1.697   3.291   1.683 -0.2300 -0.1131 -0.0524
 4655SOL    HW125601   1.737   3.344   1.614 -0.1289  0.2107  0.2501
 4655SOL    HW225602   1.735   3.332   1.761  0.7018  1.3009 -1.2512
 4656SOL     OW25603   1.951   2.280  11.128 -0.7479 -0.1227 -0.0976
 4656SOL    HW125604   1.986   2.311  11.045 -1.2299 -0.7346 -0.5321
 4656SOL    HW225605   1.987   2.355  11.175  0.2159 -0.7664  0.1931
 4657SOL     OW25606   3.212   4.153  11.538  0.6215 -0.4932  0.7765
 4657SOL    HW125607   3.176   4.210  11.606 -1.2697  0.4858 -1.0468
 4657SOL    HW225608   3.135   4.129  11.487 -0.1890  1.1658  1.2135
 4658SOL     OW25609   1.293   2.989  17.189 -0.5664 -0.2830 -0.0808
 4658SOL    HW125610   1.282   3.008  17.095  2.2660 -0.0457 -0.3909
 4658SOL    HW225611   1.227   3.046  17.228 -0.1563 -1.4327  2.3081
 4659SOL     OW25612   1.402   3.955   3.184  0.2926 -0.7269  0.1247
 4659SOL    HW125613   1.485   3.919   3.155 -0.0044 -1.9720  0.8204
 4659SOL    HW225614   1.364   3.880   3.230 -3.0649 -0.2408 -1.7965
 4660SOL     OW25615   0.810   1.290   0.215 -0.4954  0.2555  0.0652
 4660SOL    HW125616   0.857   1.249   0.288  0.2098 -1.0091 -1.1025
 4660SOL    HW225617   0.832   1.382   0.233 -1.5583  0.3619  0.8729
 4661SOL     OW25618   4.730   2.553   1.489 -0.7973  0.2000  0.5351
 4661SOL    HW125619   4.635   2.551   1.505 -0.7668 -0.6870  0.5803
 4661SOL    HW225620   0.020   2.548   1.581 -0.1881 -1.1120  0.2812
 4662SOL     OW25621   2.580   3.658   3.919 -0.6564 -0.8151  0.1647
 4662SOL    HW125622   2.533   3.613   3.989  0.2801  1.0234  1.9624
 4662SOL    HW225623   2.580   3.597   3.845  0.3876 -0.5012 -0.0897
 4663SOL     OW25624   3.268   3.562   3.045  0.3490  0.1891  0.0057
 4663SOL    HW125625   3.359   3.533   3.044  0.3595  0.0555  3.4233
 4663SOL    HW225626   3.243   3.579   2.954  0.8191  2.6310  0.3252
 4664SOL     OW25627   3.824   4.394  10.587  0.2752 -0.0778 -0.2022
 4664SOL    HW125628   3.752   4.370  10.645 -0.5801  2.0943 -0.3587
 4664SOL    HW225629   3.874   4.430  10.660  0.0699  0.5711 -0.3802
 4665SOL     OW25630   4.218   2.932   5.216 -0.2457 -0.4058  0.0648
 4665SOL    HW125631   4.296   2.886   5.249  0.3290 -0.0751 -0.8288
 4665SOL    HW225632   4.163   2.863   5.182  1.2020 -1.1671 -0.7351
 4666SOL     OW25633   3.351   1.601   6.791 -0.2102 -0.2128 -0.2245
 4666SOL    HW125634   3.403   1.615   6.713 -2.0215 -1.8240 -1.7323
 4666SOL    HW225635   3.268   1.640   6.763 -0.5706 -0.5280  0.4011
 4667SOL     OW25636   3.907   1.314  12.651 -0.1954  0.3863 -0.3372
 4667SOL    HW125637   3.835   1.370  12.680 -0.0702  0.7609 -0.7413
 4667SOL    HW225638   3.892   1.239  12.708 -0.0108  0.5059 -0.1310
 4668SOL     OW25639   2.108   4.508  13.824  0.6657 -0.5852 -0.0879
 4668SOL    HW125640   2.058   4.582  13.858  0.5706  0.9669 -3.5325
 4668SOL    HW225641   2.078   4.443  13.887  1.4377 -0.2724  0.5921
 4669SOL     OW25642   1.751   0.977   1.353  0.6343 -0.2923 -0.1907
 4669SOL    HW125643   1.688   0.926   1.405  1.0153  0.0513  0.6059
 4669SOL    HW225644   1.768   1.047   1.415 -0.1976  0.6261 -1.0039
 4670SOL     OW25645   0.215   1.086   8.598  0.8123  0.3450 -0.0179
 4670SOL    HW125646   0.298   1.045   8.621  0.3798 -0.5015  0.0422
 4670SOL    HW225647   0.243   1.163   8.549 -2.3197 -0.5755 -3.2933
 4671SOL     OW25648   2.382   2.500  17.606  0.0289  0.4109  0.0826
 4671SOL    HW125649   2.453   2.507  17.669  0.2850  0.6282 -0.2327
 4671SOL    HW225650   2.377   2.589  17.572  0.3427  0.0339 -0.9484
 4672SOL     OW25651   1.969   2.552   3.930 -0.0630  0.5615  0.6200
 4672SOL    HW125652   1.998   2.464   3.950 -1.4976 -0.0077  0.1928
 4672SOL    HW225653   2.003   2.566   3.841  0.4517  2.5781  1.1319
 4673SOL     OW25654   3.392   1.165   4.043  0.0358  0.0033 -0.2643
 4673SOL    HW125655   3.486   1.175   4.028  0.3280 -0.6975  1.0492
 4673SOL    HW225656   3.358   1.138   3.958 -1.3673  0.5760  0.1195
 4674SOL     OW25657   2.808   0.558   8.211 -0.3425  0.1828  1.2102
 4674SOL    HW125658   2.777   0.535   8.123  0.0258  2.6750  0.4267
 4674SOL    HW225659   2.722   0.588   8.241 -0.5469 -0.2472  1.0527
 4675SOL     OW25660   1.551   1.343  11.519  0.3377  0.0965 -0.2452
 4675SOL    HW125661   1.582   1.433  11.520 -2.4402  1.0472  0.3849
 4675SOL    HW225662   1.476   1.347  11.579  0.7429 -1.8720  0.3962
 4676SOL     OW25663   3.071   0.723   6.839 -0.3647 -0.1362 -0.3898
 4676SOL    HW125664   3.126   0.703   6.915  0.7470  0.4456 -1.0314
 4676SOL    HW225665   3.147   0.741   6.782  0.6240  1.6110  1.4751
 4677SOL     OW25666   2.458   1.903   5.818 -0.4643  0.6635  0.2976
 4677SOL    HW125667   2.543   1.890   5.776 -0.1619 -0.3987  1.2336
 4677SOL    HW225668   2.412   1.824   5.788 -3.1507  2.2119  0.2815
 4678SOL     OW25669   3.214   3.453   5.511 -0.1757 -0.6863  0.2668
 4678SOL    HW125670   3.212   3.361   5.484  0.4630 -0.5655 -0.1879
 4678SOL    HW225671   3.215   3.495   5.425  0.8829 -1.2669  0.0056
 4679SOL     OW25672   0.707   3.199   4.052  0.4063 -0.0032 -0.3755
 4679SOL    HW125673   0.643   3.269   4.036  0.4154 -0.1364 -0.9974
 4679SOL    HW225674   0.724   3.162   3.965  0.8294 -0.5431 -0.0639
 4680SOL     OW25675   3.621   0.439  16.680  0.4039  0.1144  0.0192
 4680SOL    HW125676   3.562   0.376  16.639 -1.7533  1.3770  1.1804
 4680SOL    HW225677   3.590   0.432  16.770  0.1481  2.2079  0.0930
 4681SOL     OW25678   1.844   4.156   3.290 -0.3199  0.1088 -0.8055
 4681SOL    HW125679   1.811   4.208   3.217  0.1465 -0.2486 -1.2697
 4681SOL    HW225680   1.848   4.063   3.266  1.1698 -0.1454  0.3933
 4682SOL     OW25681   2.897   0.762   3.546  0.5746 -0.6742 -0.0659
 4682SOL    HW125682   2.927   0.845   3.509 -0.1210 -0.3798  0.0405
 4682SOL    HW225683   2.867   0.716   3.467 -0.1506 -2.8136  1.4481
 4683SOL     OW25684   2.590   3.305   5.720  0.4726  0.6222  0.2775
 4683SOL    HW125685   2.563   3.226   5.674  1.8420  0.9627 -1.0967
 4683SOL    HW225686   2.516   3.367   5.719  0.4537  0.6130  1.1922
 4684SOL     OW25687   0.890   4.497   8.507  0.0990 -0.9774 -0.1183
 4684SOL    HW125688   0.922   4.441   8.436 -1.0551 -1.2898 -0.3940
 4684SOL    HW225689   0.925   4.576   8.467  0.6831 -0.0940  2.1251
 4685SOL     OW25690   3.212   3.366   1.474  0.2532 -0.7320 -0.1776
 4685SOL    HW125691   3.162   3.286   1.488 -0.3313 -0.7278 -2.2224
 4685SOL    HW225692   3.165   3.399   1.397  0.3845 -0.4890 -0.1551
 4686SOL     OW25693   3.927   1.988   9.943 -0.1542 -0.3330 -0.0978
 4686SOL    HW125694   3.909   2.025  10.029 -0.0123 -0.8930  0.1734
 4686SOL    HW225695   3.841   1.946   9.931  0.6980 -2.2240  0.5364
 4687SOL     OW25696   4.337   3.405   5.036  0.1182  0.1453  0.0173
 4687SOL    HW125697   4.423   3.399   5.076  0.4199  1.8171 -0.3839
 4687SOL    HW225698   4.308   3.321   5.073 -1.9341 -0.5602 -3.1810
 4688SOL     OW25699   3.392   2.073  13.283 -0.2019  0.1778 -0.3779
 4688SOL    HW125700   3.313   2.054  13.333  1.2008  1.0040  2.1847
 4688SOL    HW225701   3.459   2.030  13.337  0.6388 -1.4107 -2.7103
 4689SOL     OW25702   3.332   2.475   8.460  0.4350  0.0838  0.2469
 4689SOL    HW125703   3.311   2.544   8.396  1.4635 -0.6549 -0.8937
 4689SOL    HW225704   3.257   2.417   8.444 -0.7024  1.1158  1.9224
 4690SOL     OW25705   4.380   2.653  11.730  0.2071 -0.1220 -0.4564
 4690SOL    HW125706   4.329   2.580  11.693  0.1502  0.3773 -1.3535
 4690SOL    HW225707   4.449   2.601  11.772  2.1199  2.7672 -0.0261
 4691SOL     OW25708   1.758   0.299   7.527  0.2726  0.3697  0.2453
 4691SOL    HW125709   1.777   0.385   7.491  0.5482 -0.0811 -0.6791
 4691SOL    HW225710   1.736   0.333   7.614 -0.2742 -2.1062  1.0800
 4692SOL     OW25711   2.370   0.964   5.099  0.1174  0.1727 -0.0922
 4692SOL    HW125712   2.398   1.027   5.033  0.1630  1.8922  1.5503
 4692SOL    HW225713   2.348   1.023   5.171 -1.8679 -1.2369  0.4466
 4693SOL     OW25714   0.729   3.752   6.161  0.4255 -0.9401  0.0266
 4693SOL    HW125715   0.649   3.744   6.213  0.5712  1.0677  0.5453
 4693SOL    HW225716   0.692   3.800   6.087 -1.9512 -1.3701  0.9251
 4694SOL     OW25717   1.545   0.368   3.165  0.1268 -0.0159  0.1974
 4694SOL    HW125718   1.550   0.462   3.184  0.4609 -0.3014  1.5237
 4694SOL    HW225719   1.638   0.347   3.169 -0.2586 -1.8220 -0.5447
 4695SOL     OW25720   0.676   3.764  12.553  0.3503 -0.0186  0.3433
 4695SOL    HW125721   0.651   3.826  12.484 -0.7001  0.8177  1.4643
 4695SOL    HW225722   0.590   3.742  12.589  0.3095 -0.1073  0.1951
 4696SOL     OW25723   1.587   2.837  14.191 -0.5307 -0.4131  0.2596
 4696SOL    HW125724   1.639   2.792  14.125 -0.3130  1.6425 -0.9557
 4696SOL    HW225725   1.571   2.924  14.155  2.3935 -0.4444 -1.0478
 4697SOL     OW25726   2.561   0.274   3.589  0.4108 -0.5616 -0.4429
 4697SOL    HW125727   2.590   0.256   3.500 -2.5891  0.1113 -1.5479
 4697SOL    HW225728   2.589   0.191   3.628  0.0427 -0.2850  0.4044
 4698SOL     OW25729   0.464   0.849   5.522 -0.0348  0.2267  0.5096
 4698SOL    HW125730   0.387   0.903   5.542 -0.0317  0.8260 -1.0788
 4698SOL    HW225731   0.497   0.840   5.611  0.5573 -0.0752  0.2604
 4699SOL     OW25732   1.959   1.939   0.335 -0.0836 -0.5030 -0.0552
 4699SOL    HW125733   1.942   1.849   0.364 -0.7527  0.3131  2.0969
 4699SOL    HW225734   1.981   1.926   0.243 -1.7393  0.7181 -0.6309
 4700SOL     OW25735   0.044   1.848  11.028  0.5346  0.0821 -0.5316
 4700SOL    HW125736   0.054   1.767  11.077 -2.9237  0.1068  0.2192
 4700SOL    HW225737   0.032   1.899  11.108 -2.0494  0.6433 -1.2715
 4701SOL     OW25738   3.547   1.361   9.240 -1.0841  0.1707 -0.3580
 4701SOL    HW125739   3.637   1.332   9.226 -2.0560 -1.4384 -3.2174
 4701SOL    HW225740   3.500   1.279   9.224 -0.7911 -0.2491  0.9247
 4702SOL     OW25741   2.067   0.417   3.152 -0.0693 -0.1254 -0.0318
 4702SOL    HW125742   2.041   0.440   3.242 -2.0080  0.5927 -0.7768
 4702SOL    HW225743   1.978   0.420   3.115 -0.6753 -3.0059  1.1558
 4703SOL     OW25744   1.585   4.340   2.080  0.1431 -0.4957  0.3185
 4703SOL    HW125745   1.660   4.327   2.138  0.1069 -0.8453  0.2894
 4703SOL    HW225746   1.618   4.394   2.008 -1.3561  0.6325  0.4963
 4704SOL     OW25747   0.255   0.413   4.747  0.3714  0.4225  0.0521
 4704SOL    HW125748   0.273   0.377   4.834  2.3352  3.0332  0.7349
 4704SOL    HW225749   0.327   0.374   4.697  0.6785  0.0732  0.7566
 4705SOL     OW25750   0.905   1.669  16.327 -0.0894 -0.1668 -0.4389
 4705SOL    HW125751   0.898   1.658  16.421  2.4122  3.0918  0.1282
 4705SOL    HW225752   0.981   1.727  16.320 -0.3690  0.3695  1.0725
 4706SOL     OW25753   3.270   1.318  15.866 -0.2565  0.7757 -0.0476
 4706SOL    HW125754   3.226   1.379  15.808 -0.1950  0.0965 -0.8067
 4706SOL    HW225755   3.360   1.317  15.833 -0.3849  1.8339 -0.4030
 4707SOL     OW25756   3.740   1.769   5.853 -0.3171 -0.0061 -0.2631
 4707SOL    HW125757   3.804   1.834   5.823  0.5230 -0.7383 -0.0512
 4707SOL    HW225758   3.690   1.825   5.913  1.5475  1.5686 -0.1762
 4708SOL     OW25759   1.876   2.835   6.541 -0.3756  0.0678  0.0539
 4708SOL    HW125760   1.963   2.870   6.522 -0.1201  0.5177  2.0838
 4708SOL    HW225761   1.894   2.782   6.619 -2.1503 -0.6344 -0.0250
 4709SOL     OW25762   3.203   2.802  11.748  0.1714  0.0805  0.2158
 4709SOL    HW125763   3.137   2.741  11.716 -0.2501  2.1601 -2.9268
 4709SOL    HW225764   3.183   2.828  11.838  1.1413 -0.3411  0.5523
 4710SOL     OW25765   2.927   1.956   7.812  0.3603 -0.3604 -0.7338
 4710SOL    HW125766   2.887   2.027   7.861  1.5482  1.1299 -1.9448
 4710SOL    HW225767   2.851   1.931   7.758 -0.3196 -1.6607  0.8315
 4711SOL     OW25768   2.756   1.339   2.822 -0.4048 -0.3512  0.0614
 4711SOL    HW125769   2.701   1.412   2.848  1.7005  1.7999 -1.5537
 4711SOL    HW225770   2.765   1.284   2.900  1.7882  0.5430  0.4454
 4712SOL     OW25771   3.510   0.332  14.569 -0.1055 -0.3382  0.1241
 4712SOL    HW125772   3.566   0.391  14.519  0.3087 -2.0724 -1.4452
 4712SOL    HW225773   3.451   0.383  14.625 -0.7238 -0.7389 -0.1600
 4713SOL     OW25774   4.373   1.368   4.026  0.0485 -0.1824  0.2339
 4713SOL    HW125775   4.374   1.287   4.077 -0.1697 -0.7350 -0.6369
 4713SOL    HW225776   4.468   1.381   4.026 -0.2036  1.6495 -0.9218
 4714SOL     OW25777   3.924   3.320   6.071  0.0087 -0.4633  0.3575
 4714SOL    HW125778   3.970   3.387   6.021  0.2511 -0.2411  0.8800
 4714SOL    HW225779   3.989   3.251   6.057  0.5598  0.2201 -0.4777
 4715SOL     OW25780   3.677   3.800   7.608  0.2107  0.0474  0.4332
 4715SOL    HW125781   3.743   3.832   7.546  0.2278 -0.9198 -0.0369
 4715SOL    HW225782   3.618   3.874   7.625 -0.5736 -0.0154 -2.0419
 4716SOL     OW25783   0.317   4.219  17.050 -0.0799  0.0188  1.1265
 4716SOL    HW125784   0.320   4.169  16.969  0.3886  1.2420  0.3914
 4716SOL    HW225785   0.223   4.213  17.069 -1.0065  3.8661 -2.0733
 4717SOL     OW25786   0.795   1.785   9.349 -0.7112 -0.3546 -0.5869
 4717SOL    HW125787   0.820   1.772   9.257 -2.1979  0.8431 -1.1643
 4717SOL    HW225788   0.780   1.695   9.375  1.0458  0.2254  2.4227
 4718SOL     OW25789   2.498   3.264  14.018 -0.0333 -0.2861 -0.1929
 4718SOL    HW125790   2.447   3.323  14.074  0.7926  0.6381 -0.4217
 4718SOL    HW225791   2.440   3.188  14.020 -0.7023  0.2394  0.3122
 4719SOL     OW25792   2.252   0.012   7.409 -0.0292 -0.3451  0.4708
 4719SOL    HW125793   2.233   0.105   7.395  0.6493 -0.4590 -1.1800
 4719SOL    HW225794   2.172   4.733   7.459 -1.9361  4.1913 -1.1232
 4720SOL     OW25795   1.397   2.926   9.099  0.2483  0.7956 -0.4909
 4720SOL    HW125796   1.324   2.969   9.144 -1.8681 -2.7961 -0.4748
 4720SOL    HW225797   1.433   2.996   9.045  0.3204  0.4502 -0.8869
 4721SOL     OW25798   3.284   4.418  12.351 -0.0883 -0.6687  0.6490
 4721SOL    HW125799   3.305   4.326  12.338  0.3866 -0.3174 -1.1471
 4721SOL    HW225800   3.371   4.448  12.376  0.5457 -1.7796 -0.2413
 4722SOL     OW25801   2.223   0.458   1.520  0.2050 -0.1986 -0.7221
 4722SOL    HW125802   2.315   0.447   1.547 -0.5435 -0.9436  1.5683
 4722SOL    HW225803   2.230   0.528   1.455  1.8550 -1.0266 -1.4479
 4723SOL     OW25804   3.613   3.902   1.552  0.3607 -0.4842 -0.3856
 4723SOL    HW125805   3.553   3.926   1.623 -2.2090 -0.1367 -2.6918
 4723SOL    HW225806   3.564   3.940   1.479 -1.3245  0.0360  1.0007
 4724SOL     OW25807   1.120   4.241   8.103  0.4951  0.0620 -0.0945
 4724SOL    HW125808   1.037   4.219   8.060  0.3801  1.7132 -0.7256
 4724SOL    HW225809   1.177   4.251   8.027  1.4849 -0.7737  0.5515
 4725SOL     OW25810   4.706   4.054   2.959 -0.0730 -0.4044  0.1200
 4725SOL    HW125811   0.038   4.028   3.020  0.7931 -1.2713 -1.2154
 4725SOL    HW225812   4.638   3.996   2.993  1.3076 -2.0184  0.1252
 4726SOL     OW25813   2.377   3.234   4.977 -0.3955  0.2913  0.2854
 4726SOL    HW125814   2.307   3.298   4.969 -0.0096  0.6965  0.1601
 4726SOL    HW225815   2.452   3.288   4.950  1.5770 -1.0034  3.1066
 4727SOL     OW25816   3.159   1.787   2.831  0.2214  0.1292  0.0527
 4727SOL    HW125817   3.208   1.867   2.810  1.9063 -1.4939 -2.0953
 4727SOL    HW225818   3.099   1.785   2.757  0.7699 -0.8079 -0.3586
 4728SOL     OW25819   1.807   1.028   0.027 -0.5255  0.4525  0.0237
 4728SOL    HW125820   1.793   0.936   0.005  1.6621 -0.1550  1.2370
 4728SOL    HW225821   1.801   1.066  17.685 -0.0277  0.0605 -0.1745
 4729SOL     OW25822   2.380   0.488   2.723  0.0612 -0.0810 -0.3565
 4729SOL    HW125823   2.305   0.433   2.749  0.9636 -0.0017  2.4064
 4729SOL    HW225824   2.399   0.541   2.800  1.7784 -1.6812  0.3252
 4730SOL     OW25825   2.256   1.205   6.332 -0.5345 -0.4177  0.8025
 4730SOL    HW125826   2.337   1.231   6.287 -0.8509  0.3470  0.6714
 4730SOL    HW225827   2.264   1.267   6.405 -0.3299  0.1789  0.2833
 4731SOL     OW25828   3.173   4.658   2.156 -0.0002 -0.1916  0.5303
 4731SOL    HW125829   3.123   4.593   2.206 -1.0309 -0.4015 -0.7909
 4731SOL    HW225830   3.128   0.003   2.180  0.6470  0.2517  0.2162
 4732SOL     OW25831   4.335   0.443   1.193  0.1046  0.2520  0.2059
 4732SOL    HW125832   4.368   0.512   1.135  2.2927 -0.4164  0.6438
 4732SOL    HW225833   4.305   0.377   1.131 -1.4789  0.7616  0.4232
 4733SOL     OW25834   2.215   4.622   5.233  0.8618  0.4727 -0.1758
 4733SOL    HW125835   2.218   4.565   5.156 -2.2927  1.2952 -0.9028
 4733SOL    HW225836   2.255   4.704   5.204 -1.5207  0.7849 -2.6081
 4734SOL     OW25837   0.750   2.423  10.362 -0.3948  0.3822 -0.3285
 4734SOL    HW125838   0.674   2.413  10.305 -1.6816 -1.3860  1.7091
 4734SOL    HW225839   0.792   2.338  10.371  2.9485  1.9598 -0.8233
 4735SOL     OW25840   0.956   4.366   5.206  0.7622  0.3896  0.1133
 4735SOL    HW125841   0.873   4.319   5.213  1.1496 -0.4895 -1.1776
 4735SOL    HW225842   0.925   4.455   5.222 -0.4641  0.1820 -1.1013
 4736SOL     OW25843   0.794   4.592   5.673 -0.6635  0.0657  0.0167
 4736SOL    HW125844   0.769   4.505   5.641  1.6042 -0.6718  0.2140
 4736SOL    HW225845   0.875   4.617   5.629 -1.9846  1.7382 -1.4533
 4737SOL     OW25846   2.068   2.648   7.239 -0.7673 -0.0280 -0.1578
 4737SOL    HW125847   2.065   2.695   7.322  1.8744  2.2679 -1.3526
 4737SOL    HW225848   1.991   2.591   7.250 -0.0910 -1.0478 -0.6511
 4738SOL     OW25849   4.437   4.567   7.992 -0.1020  0.4058 -0.1793
 4738SOL    HW125850   4.448   4.618   8.072  0.9083  1.8354 -1.2188
 4738SOL    HW225851   4.527   4.541   7.972 -0.4462 -0.1973 -0.9402
 4739SOL     OW25852   4.715   1.814   5.001  0.2941  0.4292 -0.1414
 4739SOL    HW125853   0.029   1.829   4.922 -0.8862 -1.4374 -1.2515
 4739SOL    HW225854   4.679   1.730   4.972 -0.3570  0.8869 -0.6803
 4740SOL     OW25855   0.375   3.202  17.387  0.6568  0.1532  0.2475
 4740SOL    HW125856   0.433   3.150  17.331 -1.6459 -1.2981 -0.8059
 4740SOL    HW225857   0.324   3.130  17.424  3.1671 -2.4623 -1.4014
 4741SOL     OW25858   4.377   2.710  12.548 -0.3255  0.5779  0.0516
 4741SOL    HW125859   4.323   2.773  12.500  2.1977  3.2829  0.7917
 4741SOL    HW225860   4.308   2.656  12.588 -0.9718 -0.3381 -2.2760
 4742SOL     OW25861   2.283   1.997  15.092 -0.0395 -0.1122 -0.3007
 4742SOL    HW125862   2.270   1.926  15.030 -1.8578 -1.3878  1.5451
 4742SOL    HW225863   2.347   2.055  15.050 -1.5434  0.1604 -2.2600
 4743SOL     OW25864   0.912   2.917   4.763 -0.2155  0.1100 -0.1477
 4743SOL    HW125865   0.830   2.869   4.771  0.7461 -1.6763 -1.0480
 4743SOL    HW225866   0.882   2.997   4.720  2.9004  1.1973 -0.2830
 4744SOL     OW25867   1.491   0.334  10.429 -0.4695  0.3917  0.7591
 4744SOL    HW125868   1.457   0.245  10.443 -0.1419  0.1980  0.3444
 4744SOL    HW225869   1.437   0.361  10.354 -0.0770 -2.6150 -0.6220
 4745SOL     OW25870   0.970   2.384  13.452 -0.0501 -0.0196 -0.3413
 4745SOL    HW125871   0.943   2.302  13.411 -0.0271  0.1289 -0.6570
 4745SOL    HW225872   1.034   2.357  13.517 -0.2873  0.8650  0.2563
 4746SOL     OW25873   0.788   3.339   8.002 -0.0219  0.8383  0.2950
 4746SOL    HW125874   0.771   3.306   7.914  3.6369 -3.2793  1.1059
 4746SOL    HW225875   0.723   3.409   8.003  1.1106  1.8867  0.6803
 4747SOL     OW25876   0.273   4.294  15.228 -0.5609 -0.1079  0.3257
 4747SOL    HW125877   0.241   4.353  15.159  0.1521 -0.0141  0.0722
 4747SOL    HW225878   0.353   4.264  15.184 -1.7473 -0.4005 -1.6670
 4748SOL     OW25879   2.732   2.409   2.433 -0.3737 -0.1287  0.4748
 4748SOL    HW125880   2.819   2.372   2.418  0.2053  0.6292  1.9180
 4748SOL    HW225881   2.698   2.391   2.345  2.0012  0.9470 -0.6681
 4749SOL     OW25882   4.162   2.772   1.260  0.3067 -0.1766  0.5246
 4749SOL    HW125883   4.224   2.843   1.242  0.4711 -0.2697  0.7217
 4749SOL    HW225884   4.086   2.820   1.295  0.2408  0.3321 -0.3272
 4750SOL     OW25885   1.676   4.077  13.443 -0.8010 -0.4178  0.0891
 4750SOL    HW125886   1.678   4.050  13.535 -0.0048 -0.4800  0.0588
 4750SOL    HW225887   1.715   4.164  13.443 -0.1416 -0.7063 -0.9228
 4751SOL     OW25888   2.030   2.399   0.909  0.7660 -0.3041 -0.0755
 4751SOL    HW125889   1.938   2.394   0.936  0.3525  1.8380 -1.0763
 4751SOL    HW225890   2.048   2.318   0.862 -1.3387 -0.0661 -1.3058
 4752SOL     OW25891   1.312   2.989   6.633 -0.2586 -0.1898 -0.1662
 4752SOL    HW125892   1.363   3.033   6.567  3.0173 -2.8235  0.6022
 4752SOL    HW225893   1.384   2.950   6.683 -0.3977 -0.8701 -0.4898
 4753SOL     OW25894   0.740   1.411   4.778  0.1889  0.0014 -0.2394
 4753SOL    HW125895   0.704   1.449   4.698 -1.4860 -0.9797  0.0316
 4753SOL    HW225896   0.711   1.321   4.763 -0.2852 -0.0905  1.2689
 4754SOL     OW25897   0.823   1.086  16.242 -0.3228 -0.0104  0.0049
 4754SOL    HW125898   0.784   1.148  16.181  1.1942  2.3987  1.4727
 4754SOL    HW225899   0.805   1.134  16.323  0.4578  3.2712 -1.7370
 4755SOL     OW25900   1.122   0.133   8.199  0.5172 -0.2367  0.8389
 4755SOL    HW125901   1.125   0.188   8.120  0.7901 -0.9506  0.3527
 4755SOL    HW225902   1.146   0.054   8.151  1.6370 -0.2839  1.4789
 4756SOL     OW25903   3.347   0.624   9.701  0.0975  0.2602 -0.0725
 4756SOL    HW125904   3.298   0.684   9.645  2.3886  1.5570 -0.6674
 4756SOL    HW225905   3.434   0.627   9.662 -0.0887  0.0653 -0.5068
 4757SOL     OW25906   1.427   0.094   1.351 -0.0211 -0.6923  0.1465
 4757SOL    HW125907   1.430   0.024   1.286 -0.7024  0.7955 -1.4895
 4757SOL    HW225908   1.473   0.062   1.428 -1.8387  0.7101  1.8109
 4758SOL     OW25909   0.036   2.976   7.211  0.8230  0.5342 -0.1460
 4758SOL    HW125910   0.013   2.983   7.304 -0.1159 -1.9905 -0.1932
 4758SOL    HW225911   4.687   2.981   7.169  2.1911  1.9100 -2.7841
 4759SOL     OW25912   2.362   3.494   7.375 -0.3033  0.4199 -0.0007
 4759SOL    HW125913   2.301   3.421   7.365  1.1449 -0.6251 -1.1869
 4759SOL    HW225914   2.359   3.537   7.290 -1.8975 -1.9445 -1.1277
 4760SOL     OW25915   2.313   3.942   9.639 -0.4210  0.2071 -0.6360
 4760SOL    HW125916   2.306   4.011   9.705 -2.6844 -0.6128 -0.0516
 4760SOL    HW225917   2.408   3.932   9.646 -0.2843  1.5007 -0.7214
 4761SOL     OW25918   3.342   4.021  10.749  0.4731 -0.2775 -0.6840
 4761SOL    HW125919   3.411   4.065  10.798  0.9259  0.8414 -2.3010
 4761SOL    HW225920   3.265   4.049  10.799  0.6552 -1.6480  0.3453
 4762SOL     OW25921   2.979   3.779   8.199 -0.0506  0.1537 -0.0842
 4762SOL    HW125922   2.948   3.774   8.290  1.2990  0.9716  0.4099
 4762SOL    HW225923   2.929   3.706   8.162  0.2578  0.4243 -1.0382
 4763SOL     OW25924   1.818   4.085   6.593  0.5826  0.1894  0.0767
 4763SOL    HW125925   1.782   4.000   6.570  0.8899  0.1758 -0.3583
 4763SOL    HW225926   1.803   4.129   6.509 -0.9280 -0.8715 -0.2030
 4764SOL     OW25927   2.413   1.941  15.759 -0.0486 -0.6605  0.4083
 4764SOL    HW125928   2.495   1.982  15.734  0.2407 -0.8214  1.1012
 4764SOL    HW225929   2.342   1.999  15.733  0.5711  0.1166  0.4786
 4765SOL     OW25930   3.289   1.295   6.082 -0.2900  0.0365  0.1150
 4765SOL    HW125931   3.205   1.250   6.087  0.0773 -0.4169  1.9570
 4765SOL    HW225932   3.273   1.379   6.039  1.9378  0.2584 -0.2995
 4766SOL     OW25933   0.498   4.206   3.198  0.1557  0.0626 -0.8718
 4766SOL    HW125934   0.473   4.180   3.110 -2.1984  2.0144 -0.7573
 4766SOL    HW225935   0.527   4.120   3.229 -1.0369 -0.0875 -0.1621
 4767SOL     OW25936   0.157   3.099  16.223 -0.1214  0.4559  0.0976
 4767SOL    HW125937   0.069   3.104  16.261 -0.6276 -2.0875 -0.6913
 4767SOL    HW225938   0.141   3.136  16.137 -2.0055  0.4029  0.4221
 4768SOL     OW25939   2.879   0.889  16.536  0.7113  0.5343 -0.2181
 4768SOL    HW125940   2.948   0.939  16.493  1.2820 -0.3645 -0.3277
 4768SOL    HW225941   2.914   0.850  16.616  1.6564 -3.5615 -2.6577
 4769SOL     OW25942   4.469   2.566   6.372  0.6855 -0.0138 -0.1705
 4769SOL    HW125943   4.427   2.588   6.289 -2.8079  0.0220  1.6211
 4769SOL    HW225944   4.481   2.473   6.354 -0.4373 -0.2986  0.5964
 4770SOL     OW25945   2.789   3.228   1.678  0.1413 -0.0658 -0.0577
 4770SOL    HW125946   2.758   3.153   1.626 -0.8940 -0.9197  1.7579
 4770SOL    HW225947   2.837   3.173   1.740 -2.0653 -2.3962 -0.4046
 4771SOL     OW25948   0.767   1.545   5.995 -0.2734  0.4125 -0.2541
 4771SOL    HW125949   0.695   1.607   5.979 -2.6033 -2.1386  0.4707
 4771SOL    HW225950   0.745   1.507   6.080 -0.0366  1.0085  0.0723
 4772SOL     OW25951   2.595   2.554   0.719  0.2564  0.4853 -0.0118
 4772SOL    HW125952   2.513   2.581   0.677 -0.7018 -3.6830 -0.7774
 4772SOL    HW225953   2.619   2.479   0.664 -1.2277 -1.7294  2.3416
 4773SOL     OW25954   4.505   3.439   3.293 -0.3124 -0.2524 -0.1383
 4773SOL    HW125955   4.445   3.389   3.348 -0.3784  1.5286  1.4071
 4773SOL    HW225956   4.580   3.445   3.351 -0.2637  2.3493 -0.4443
 4774SOL     OW25957   0.646   2.450   6.469 -0.5464  0.2574 -0.8247
 4774SOL    HW125958   0.643   2.385   6.539  0.7324  1.6828  0.5554
 4774SOL    HW225959   0.706   2.510   6.513 -2.5551  2.2685 -0.8626
 4775SOL     OW25960   0.145   0.401   1.502 -0.1811  0.1463  0.0404
 4775SOL    HW125961   0.205   0.455   1.554 -1.4511  0.7437  0.8742
 4775SOL    HW225962   0.206   0.372   1.435 -2.7461  0.6225 -2.4941
 4776SOL     OW25963   3.792   1.437   7.282 -0.1100  0.4524 -0.1560
 4776SOL    HW125964   3.769   1.507   7.342  2.1862 -0.4816  1.8102
 4776SOL    HW225965   3.886   1.429   7.297  0.0260 -0.3788 -1.4208
 4777SOL     OW25966   2.742   2.552   6.104 -0.4194 -0.2981  0.4753
 4777SOL    HW125967   2.766   2.644   6.099  1.5010 -0.8847 -1.1883
 4777SOL    HW225968   2.826   2.510   6.120  0.0662 -0.2165 -1.8270
 4778SOL     OW25969   0.143   3.671   3.598  0.3083  0.2627 -0.5488
 4778SOL    HW125970   0.117   3.691   3.508 -0.3880  1.3061 -0.1262
 4778SOL    HW225971   0.182   3.584   3.595 -0.2650  0.0511 -1.8874
 4779SOL     OW25972   2.123   4.008  17.380 -0.9492  0.1514 -0.7537
 4779SOL    HW125973   2.118   4.057  17.462  1.9647 -0.6418 -0.1372
 4779SOL    HW225974   2.076   3.927  17.401  1.0282 -1.0200 -0.9067
 4780SOL     OW25975   3.088   2.679   5.187  0.4144 -0.5400 -0.5502
 4780SOL    HW125976   3.137   2.605   5.152 -1.0272 -1.6898 -0.1347
 4780SOL    HW225977   3.002   2.669   5.145  1.0269  2.1535 -2.4618
 4781SOL     OW25978   2.355   2.362  16.075 -0.5121 -0.2056 -0.4375
 4781SOL    HW125979   2.304   2.285  16.048  0.8115 -1.5040  0.8030
 4781SOL    HW225980   2.433   2.359  16.020  0.1816 -2.3122  0.6603
 4782SOL     OW25981   0.133   0.988  17.320  0.5713 -0.0861  0.0609
 4782SOL    HW125982   0.125   1.052  17.390 -2.8615 -1.1428  0.6489
 4782SOL    HW225983   0.079   0.917  17.356  2.0697 -0.5054  1.4929
 4783SOL     OW25984   2.317   2.354   1.532 -0.0755 -0.4970  0.0178
 4783SOL    HW125985   2.317   2.433   1.478  2.1629  1.2287  2.5011
 4783SOL    HW225986   2.300   2.289   1.465  0.4970 -0.3487 -0.2664
 4784SOL     OW25987   0.066   4.266  15.405  0.0022  0.3420  0.0331
 4784SOL    HW125988   0.107   4.328  15.464  2.4299 -0.8490 -0.4139
 4784SOL    HW225989   0.137   4.258  15.341 -0.3329 -0.4571 -0.2383
 4785SOL     OW25990   3.399   1.120   8.587 -0.2079 -0.0878  0.1658
 4785SOL    HW125991   3.407   1.183   8.516 -2.2836 -0.9128 -0.7924
 4785SOL    HW225992   3.445   1.048   8.544  1.7393 -0.0982  2.2593
 4786SOL     OW25993   3.970   0.674   6.269 -0.1629 -0.6618  0.0461
 4786SOL    HW125994   3.908   0.670   6.342 -1.0118 -0.6175 -0.6643
 4786SOL    HW225995   4.051   0.661   6.319 -0.3101 -1.9379 -0.0287
 4787SOL     OW25996   4.191   3.785   6.416 -0.1131  0.1333 -0.4320
 4787SOL    HW125997   4.148   3.853   6.364 -0.7188 -2.4388 -3.2715
 4787SOL    HW225998   4.117   3.734   6.451 -0.0727  0.1305 -0.3507
 4788SOL     OW25999   2.324   1.749   3.373  0.3625  0.1669 -0.0185
 4788SOL    HW126000   2.277   1.676   3.332 -2.1967  2.1789 -0.6787
 4788SOL    HW226001   2.402   1.751   3.318  0.5556  2.4103  0.3525
 4789SOL     OW26002   3.896   0.541  11.708 -0.2758 -0.0134  0.0012
 4789SOL    HW126003   3.853   0.456  11.716 -0.5479  0.0521 -0.7647
 4789SOL    HW226004   3.827   0.607  11.701  1.0508  1.3879  0.3917
 4790SOL     OW26005   1.546   2.856   6.730  0.0210 -0.3345 -0.0228
 4790SOL    HW126006   1.568   2.765   6.709  1.9078 -0.2191  1.4402
 4790SOL    HW226007   1.524   2.844   6.823  0.1500 -1.0050 -0.0749
 4791SOL     OW26008   1.788   3.044  12.834  0.1813 -0.3711  0.3837
 4791SOL    HW126009   1.834   3.119  12.797 -0.7419 -0.9789 -1.9472
 4791SOL    HW226010   1.731   3.015  12.764 -0.9548  1.6115  0.4905
 4792SOL     OW26011   1.741   1.359   8.190  0.1377 -0.1881 -0.1646
 4792SOL    HW126012   1.815   1.367   8.130 -0.0868  1.3423 -0.2483
 4792SOL    HW226013   1.725   1.265   8.193  0.0782 -0.1349  1.3274
 4793SOL     OW26014   2.550   2.825   9.532  0.0296  0.2469  0.0218
 4793SOL    HW126015   2.513   2.744   9.495  1.0236  0.4325 -1.3776
 4793SOL    HW226016   2.579   2.867   9.451 -1.4722  1.3128  0.0444
 4794SOL     OW26017   0.223   1.926   5.423 -0.1089  0.1255  0.5847
 4794SOL    HW126018   0.164   1.914   5.349  0.8718  0.6301 -0.2796
 4794SOL    HW226019   0.170   1.975   5.486  0.3068 -1.3585  2.1083
 4795SOL     OW26020   0.278   1.590   5.164  0.5422 -0.3105 -0.1583
 4795SOL    HW126021   0.304   1.664   5.108 -0.0813  0.8128  1.0418
 4795SOL    HW226022   0.368   1.575   5.193  0.1384 -1.5801  0.4227
 4796SOL     OW26023   2.095   4.433   6.486 -0.3595 -0.2793  0.2513
 4796SOL    HW126024   2.010   4.433   6.443 -1.5526 -2.4187  2.6418
 4796SOL    HW226025   2.141   4.361   6.443  1.2293  1.4138 -0.9069
 4797SOL     OW26026   1.384   0.295   7.740  0.2403  0.1636  0.2486
 4797SOL    HW126027   1.326   0.221   7.723 -1.0490  1.3764 -0.6042
 4797SOL    HW226028   1.385   0.341   7.657 -1.0239  1.6249  1.0424
 4798SOL     OW26029   0.902   0.965   5.510 -0.8343  0.0353 -0.1956
 4798SOL    HW126030   0.848   1.041   5.486 -1.7200 -0.9176 -1.2245
 4798SOL    HW226031   0.983   1.007   5.538 -0.4565 -1.2771  0.6469
 4799SOL     OW26032   4.000   3.641   3.913 -0.5696 -0.2325  0.1972
 4799SOL    HW126033   4.002   3.726   3.956  0.1545 -0.3335  0.3765
 4799SOL    HW226034   4.065   3.606   3.975 -0.2995 -1.3147 -0.6925
 4800SOL     OW26035   1.540   2.099   9.273  0.3785  0.1384  0.2583
 4800SOL    HW126036   1.501   2.121   9.188  1.2662 -0.7897 -0.3914
 4800SOL    HW226037   1.463   2.081   9.327  0.5702 -2.6960 -0.4415
 4801SOL     OW26038   2.803   0.255   6.023 -0.2553 -0.2134  1.2699
 4801SOL    HW126039   2.781   0.267   5.930  2.9776 -0.7532  0.4384
 4801SOL    HW226040   2.895   0.233   6.007 -0.6801 -1.9918  1.2222
 4802SOL     OW26041   1.161   4.071   5.096  0.4692  0.3531  0.4049
 4802SOL    HW126042   1.227   4.074   5.165  0.2860 -2.7136  0.7044
 4802SOL    HW226043   1.131   3.981   5.111  1.0704  0.4086  1.9833
 4803SOL     OW26044   0.532   0.496   9.089  0.0812 -0.3498  0.2429
 4803SOL    HW126045   0.586   0.432   9.041 -0.8831 -1.6442  0.8841
 4803SOL    HW226046   0.456   0.486   9.031  0.0285 -0.1702  0.2833
 4804SOL     OW26047   2.544   4.268   0.073  0.1024 -0.4313 -0.5148
 4804SOL    HW126048   2.524   4.278   0.166 -0.1576  1.2254 -0.7431
 4804SOL    HW226049   2.638   4.282   0.074 -0.0518  0.7126 -1.6559
 4805SOL     OW26050   1.147   0.520  17.444  0.1811 -0.5690 -0.1488
 4805SOL    HW126051   1.136   0.574  17.522  0.5110  1.4166 -1.4908
 4805SOL    HW226052   1.108   0.579  17.379  2.0760 -1.6446 -2.2674
 4806SOL     OW26053   2.493   0.242   9.082  0.1639  0.0818  0.4203
 4806SOL    HW126054   2.505   0.175   9.015 -0.0696  0.3720  0.0902
 4806SOL    HW226055   2.450   0.309   9.029  2.2580  0.1407 -1.2095
 4807SOL     OW26056   0.958   0.996  14.898 -0.8083 -0.5779 -0.3375
 4807SOL    HW126057   0.998   0.911  14.917  0.3800 -0.2321 -1.3117
 4807SOL    HW226058   1.035   1.041  14.863 -1.6656  0.4324 -0.9074
 4808SOL     OW26059   1.894   1.400   3.770  0.0772  0.4506  0.4010
 4808SOL    HW126060   1.936   1.462   3.829  0.9859  1.1396 -0.9612
 4808SOL    HW226061   1.802   1.423   3.777  0.1159  1.7142 -3.2249
 4809SOL     OW26062   2.420   0.588   6.821 -0.5827 -0.2950  0.1486
 4809SOL    HW126063   2.398   0.679   6.804 -3.9925 -1.3577 -1.1065
 4809SOL    HW226064   2.346   0.566   6.877 -2.2270  1.7681 -1.2459
 4810SOL     OW26065   0.348   4.410   6.281  0.7125 -0.2163 -0.2408
 4810SOL    HW126066   0.258   4.382   6.299 -0.1996  2.9500  0.1955
 4810SOL    HW226067   0.357   4.483   6.341  0.8970 -1.1676  0.8866
 4811SOL     OW26068   1.880   1.720   8.134  0.8391 -0.2167 -0.0027
 4811SOL    HW126069   1.858   1.710   8.041 -1.0130 -0.2529  0.4529
 4811SOL    HW226070   1.801   1.691   8.178 -0.4116  2.3546 -0.5819
 4812SOL     OW26071   3.179   1.911  10.867 -0.4936 -0.0420  0.3138
 4812SOL    HW126072   3.196   1.908  10.773  1.8228  1.6023  0.6759
 4812SOL    HW226073   3.252   1.860  10.904 -2.8564 -3.6776 -0.0381
 4813SOL     OW26074   4.372   2.632   6.133 -0.1022  0.0710 -0.0150
 4813SOL    HW126075   4.416   2.714   6.111  2.9652 -1.4672  0.2883
 4813SOL    HW226076   4.280   2.645   6.113  0.0862 -0.0046 -0.9006
 4814SOL     OW26077   1.775   4.465   3.221  0.3256  0.3571 -0.0670
 4814SOL    HW126078   1.855   4.448   3.270 -0.0043 -0.0308  0.3432
 4814SOL    HW226079   1.807   4.450   3.132 -2.9095 -1.9730 -0.8312
 4815SOL     OW26080   3.123   4.058  10.948  0.0376  0.2745 -0.3826
 4815SOL    HW126081   3.046   4.026  10.900  1.0294  0.3185 -2.0336
 4815SOL    HW226082   3.082   4.111  11.015  0.7019 -0.5130  0.6456
 4816SOL     OW26083   2.457   4.450   6.311 -0.5849  0.0389 -0.1205
 4816SOL    HW126084   2.421   4.490   6.231  1.1745  1.4265 -0.2123
 4816SOL    HW226085   2.407   4.508   6.367 -0.3266 -0.7273  0.8977
 4817SOL     OW26086   0.319   4.333   1.670 -0.1768  0.0522 -0.6572
 4817SOL    HW126087   0.272   4.416   1.681  3.0862  1.9425 -0.9722
 4817SOL    HW226088   0.409   4.359   1.692 -1.2385  0.9652  2.5002
 4818SOL     OW26089   3.105   3.599  10.205 -0.5773 -0.1231 -0.2953
 4818SOL    HW126090   3.108   3.558  10.291 -0.4277 -1.3431 -0.8822
 4818SOL    HW226091   3.173   3.666  10.211  0.3239 -0.9046 -1.7842
 4819SOL     OW26092   1.238   3.518   1.915  0.3477 -0.8426 -0.1841
 4819SOL    HW126093   1.166   3.522   1.978 -0.0397 -0.2305 -0.6627
 4819SOL    HW226094   1.240   3.609   1.885  0.5945 -0.8652 -0.2411
 4820SOL     OW26095   2.361   3.633   4.907  0.1327 -0.6539 -0.1367
 4820SOL    HW126096   2.330   3.724   4.902  1.5806 -0.0230  2.5900
 4820SOL    HW226097   2.376   3.638   5.001 -0.7610 -0.1030 -0.0278
 4821SOL     OW26098   1.944   3.919   3.967  0.3186 -0.6310  0.0128
 4821SOL    HW126099   1.964   3.894   3.876  1.0165 -0.1723  0.0350
 4821SOL    HW226100   1.916   4.010   3.955 -0.2035 -0.8414 -0.3491
 4822SOL     OW26101   3.299   0.988   5.835  0.9796 -0.3820 -0.1638
 4822SOL    HW126102   3.253   0.931   5.774  0.4292 -0.6292  0.4834
 4822SOL    HW226103   3.328   1.060   5.779  0.4490  1.5599  2.0299
 4823SOL     OW26104   3.086   3.038   4.273  0.2596 -0.1650 -0.2154
 4823SOL    HW126105   3.149   2.967   4.282  1.0482  0.5919  0.3086
 4823SOL    HW226106   3.082   3.025   4.178 -1.8345 -0.0501 -0.1440
 4824SOL     OW26107   2.127   4.469   6.995  0.3466  0.9126 -0.3812
 4824SOL    HW126108   2.214   4.444   7.028  0.8622  0.1084 -2.3331
 4824SOL    HW226109   2.093   4.533   7.057 -0.7185 -1.1376  1.1221
 4825SOL     OW26110   0.675   3.466   2.966  0.2317 -0.0346  0.4640
 4825SOL    HW126111   0.732   3.523   3.016 -0.0549  0.2647  0.4489
 4825SOL    HW226112   0.726   3.386   2.950  2.3182  1.3763  0.1563
 4826SOL     OW26113   1.631   2.588   2.520  0.5710  0.2530  0.0618
 4826SOL    HW126114   1.695   2.619   2.457  1.0475 -2.3044 -0.7342
 4826SOL    HW226115   1.610   2.665   2.573  3.1510  1.2092 -0.2960
 4827SOL     OW26116   4.163   4.011   1.998 -0.1016  0.3152 -0.1989
 4827SOL    HW126117   4.215   3.979   1.924 -0.6799  0.8472 -0.8282
 4827SOL    HW226118   4.087   4.046   1.951 -1.2524 -1.0405  0.6457
 4828SOL     OW26119   1.109   3.688  10.242  0.1534  0.2015 -0.1225
 4828SOL    HW126120   1.040   3.653  10.186 -0.7123  0.5083  0.7469
 4828SOL    HW226121   1.162   3.614  10.271 -0.7624  0.1543  1.4707
 4829SOL     OW26122   0.385   3.636   7.083  0.5606 -0.2053  0.8985
 4829SOL    HW126123   0.379   3.697   7.009 -0.7462 -1.2766  0.1330
 4829SOL    HW226124   0.473   3.605   7.062  0.4029  0.3110 -0.5232
 4830SOL     OW26125   0.673   0.659   8.563  0.3928  0.1032 -0.3541
 4830SOL    HW126126   0.628   0.739   8.536  0.4081  0.4994  0.7808
 4830SOL    HW226127   0.686   0.609   8.483  2.4891 -0.0369  0.0670
 4831SOL     OW26128   3.313   2.882  10.561  0.3140 -0.1224  0.4123
 4831SOL    HW126129   3.268   2.951  10.514 -0.3131 -1.1370 -0.4546
 4831SOL    HW226130   3.272   2.894  10.647 -0.6236 -1.7695  0.1845
 4832SOL     OW26131   2.444   4.169   4.715 -0.5555  0.9537 -0.2800
 4832SOL    HW126132   2.514   4.112   4.748 -1.1158  1.7867  2.2817
 4832SOL    HW226133   2.418   4.125   4.634 -1.9180  1.0308  0.1302
 4833SOL     OW26134   4.610   3.300   2.656  0.6229 -0.7728 -0.1157
 4833SOL    HW126135   4.583   3.360   2.587  1.4914 -1.6411 -1.2233
 4833SOL    HW226136   4.603   3.222   2.600 -2.4430 -1.5365  1.3009
 4834SOL     OW26137   2.202   1.001  13.597 -0.5417 -0.0681 -0.0394
 4834SOL    HW126138   2.152   0.962  13.669  0.8974 -1.0185  0.4519
 4834SOL    HW226139   2.240   0.928  13.549 -1.9869 -1.2862  0.6897
 4835SOL     OW26140   0.788   4.174   2.333  0.2841 -0.1845  0.1255
 4835SOL    HW126141   0.742   4.091   2.349  0.2139  0.2254  2.0044
 4835SOL    HW226142   0.877   4.144   2.314 -0.0625 -0.2697 -1.3994
 4836SOL     OW26143   0.195   4.094   9.084  0.4973  0.2762 -0.4015
 4836SOL    HW126144   0.193   4.122   8.992  1.5213  1.0440 -0.1990
 4836SOL    HW226145   0.206   4.178   9.129  1.5838  0.5325 -1.1370
 4837SOL     OW26146   0.099   2.484   7.865  0.4794 -0.1484 -0.9950
 4837SOL    HW126147   0.080   2.445   7.950  1.0630 -0.1184 -0.8529
 4837SOL    HW226148   0.026   2.545   7.859  0.1188 -0.5426 -0.5306
 4838SOL     OW26149   3.438   1.182   7.231 -0.0779  0.2690  0.1826
 4838SOL    HW126150   3.420   1.268   7.194  0.3523 -0.4359 -1.6922
 4838SOL    HW226151   3.460   1.213   7.318  0.5723  2.1111 -0.6313
 4839SOL     OW26152   0.770   2.431  15.132  0.2127 -0.1950  0.4540
 4839SOL    HW126153   0.845   2.409  15.077 -0.0721  0.4144 -0.1795
 4839SOL    HW226154   0.710   2.474  15.070 -1.0582 -0.0176  1.8177
 4840SOL     OW26155   1.534   4.549  13.530 -0.4578  0.5584  0.7930
 4840SOL    HW126156   1.594   4.543  13.604  0.2599 -0.9304  0.0883
 4840SOL    HW226157   1.487   4.631  13.547 -2.1869 -0.2983  0.1298
 4841SOL     OW26158   3.296   3.659   6.022  0.5630  0.0093  0.5151
 4841SOL    HW126159   3.272   3.741   6.064 -1.8209  0.3342 -1.4857
 4841SOL    HW226160   3.350   3.694   5.951  0.0645 -3.8871 -1.7882
 4842SOL     OW26161   1.436   0.986   1.611 -0.1497 -0.2659 -0.1406
 4842SOL    HW126162   1.463   0.936   1.534  0.7996  0.9101 -0.5720
 4842SOL    HW226163   1.473   1.071   1.587  0.1907 -0.1080  0.9767
 4843SOL     OW26164   2.136   0.924   8.829 -0.0539 -0.0224 -0.3566
 4843SOL    HW126165   2.188   0.969   8.896 -0.7913 -2.5543  1.8753
 4843SOL    HW226166   2.057   0.897   8.875  0.1317 -0.8294 -0.5203
 4844SOL     OW26167   3.283   1.812   0.779 -0.0367  0.0487  0.4439
 4844SOL    HW126168   3.277   1.907   0.765 -1.7132 -0.2507 -0.8210
 4844SOL    HW226169   3.194   1.790   0.806  0.9469 -2.0485  1.9816
 4845SOL     OW26170   1.046   1.178   1.701 -0.4662 -0.8424  0.1089
 4845SOL    HW126171   1.126   1.144   1.661 -0.3685 -0.9460  0.3950
 4845SOL    HW226172   1.079   1.218   1.781  0.6862 -1.8638  0.1503
 4846SOL     OW26173   0.454   0.154   9.250  0.0550 -0.3405  0.1084
 4846SOL    HW126174   0.385   0.093   9.227 -1.4125  1.3667  0.0000
 4846SOL    HW226175   0.527   0.094   9.236  0.7427  0.6090 -0.4735
 4847SOL     OW26176   3.142   2.855   0.305  0.0710  0.3421  0.6339
 4847SOL    HW126177   3.222   2.870   0.353 -0.9522  1.1212  2.0859
 4847SOL    HW226178   3.157   2.899   0.221  0.4745 -0.6341  0.1912
 4848SOL     OW26179   1.772   2.121   7.137  0.5783 -0.2616  0.4954
 4848SOL    HW126180   1.694   2.138   7.083 -0.3022  2.1445  2.4989
 4848SOL    HW226181   1.839   2.177   7.098 -0.1697  0.2924 -0.0014
 4849SOL     OW26182   2.264   0.310   8.373 -0.2171  0.0427 -0.3078
 4849SOL    HW126183   2.181   0.312   8.421  1.0430 -1.3315  1.9454
 4849SOL    HW226184   2.300   0.242   8.431 -0.9160 -1.3340 -1.4894
 4850SOL     OW26185   2.161   0.654   4.411  0.0121 -0.4814  0.0606
 4850SOL    HW126186   2.098   0.709   4.365 -1.3642 -2.1119 -0.0239
 4850SOL    HW226187   2.238   0.711   4.411 -2.9968  3.5251  0.8046
 4851SOL     OW26188   4.730   1.574  16.851 -0.4190 -0.2897 -0.0996
 4851SOL    HW126189   0.071   1.534  16.890  0.4709  0.7945 -0.7635
 4851SOL    HW226190   4.710   1.524  16.772 -2.0087 -1.1799  0.8763
 4852SOL     OW26191   2.309   1.391   3.997 -0.3140 -0.3389  0.5029
 4852SOL    HW126192   2.279   1.306   4.031 -0.2845 -0.3498  0.5019
 4852SOL    HW226193   2.398   1.361   3.977 -0.3518  1.2863 -1.9917
 4853SOL     OW26194   4.234   1.879   6.971  0.9312 -0.3734  0.0038
 4853SOL    HW126195   4.155   1.869   7.025  1.8321 -2.1788  0.9812
 4853SOL    HW226196   4.259   1.969   6.994 -2.8926  0.3935  1.2175
 4854SOL     OW26197   0.715   4.179   4.600 -0.2045 -0.3208 -0.0421
 4854SOL    HW126198   0.676   4.176   4.512 -0.2117 -1.7708  0.0092
 4854SOL    HW226199   0.685   4.090   4.619  2.1520 -1.1783 -0.3168
 4855SOL     OW26200   4.376   4.083  10.925  0.2484  0.4741 -0.3498
 4855SOL    HW126201   4.470   4.101  10.916  0.2797  0.3002 -0.3828
 4855SOL    HW226202   4.325   4.163  10.915  2.1282  1.6363 -0.5921
 4856SOL     OW26203   0.184   3.031  17.486 -0.1341 -0.1624  0.1685
 4856SOL    HW126204   0.117   3.090  17.523  0.9763  1.1531  0.0903
 4856SOL    HW226205   0.134   2.950  17.488  0.5698 -0.6386 -1.2202
 4857SOL     OW26206   2.076   4.412   9.574  0.3446  0.8124 -1.3633
 4857SOL    HW126207   2.006   4.352   9.600  0.2363  1.9036  0.8552
 4857SOL    HW226208   2.048   4.498   9.606 -1.3237  0.1920 -1.1331
 4858SOL     OW26209   1.657   0.711   1.542  0.3438  0.3659 -0.3624
 4858SOL    HW126210   1.587   0.658   1.581 -0.2240  1.2656 -0.1511
 4858SOL    HW226211   1.713   0.715   1.619  0.5191  0.8367 -0.5151
 4859SOL     OW26212   4.200   0.822  11.372 -0.4753 -0.5449 -0.3400
 4859SOL    HW126213   4.226   0.893  11.314 -2.3061  0.7149  0.3669
 4859SOL    HW226214   4.104   0.832  11.373 -0.2062  1.7940  2.4287
 4860SOL     OW26215   3.007   1.076   7.969  0.8217  0.5307  0.1166
 4860SOL    HW126216   2.959   1.022   8.031  0.1676  2.5214  1.3501
 4860SOL    HW226217   3.093   1.035   7.981  0.1738 -0.0421  2.6092
 4861SOL     OW26218   4.555   0.134   2.288 -0.0225  0.3307 -0.1779
 4861SOL    HW126219   4.608   0.074   2.342  0.2422 -0.8024 -1.7007
 4861SOL    HW226220   4.466   0.114   2.318 -0.1622 -0.2307 -0.9839
 4862SOL     OW26221   2.185   4.204   5.008  0.2431  0.0476  0.0696
 4862SOL    HW126222   2.273   4.239   4.991  0.1372  0.0901 -0.3843
 4862SOL    HW226223   2.139   4.287   5.019  2.0510  0.7535  2.2402
 4863SOL     OW26224   0.978   1.157   1.997 -0.3547  0.3954  0.4359
 4863SOL    HW126225   1.036   1.084   1.976 -0.0864  0.5238  0.7237
 4863SOL    HW226226   1.049   1.220   2.012  0.7536 -1.0826  1.3452
 4864SOL     OW26227   2.952   1.114  14.052 -0.2921 -0.0115 -0.5192
 4864SOL    HW126228   2.877   1.173  14.056 -0.4655 -0.3835  2.1210
 4864SOL    HW226229   2.925   1.034  14.097  1.7601  0.5802  1.7970
 4865SOL     OW26230   0.897   4.534   4.963 -0.1950  0.3238  0.0633
 4865SOL    HW126231   0.944   4.603   4.916  2.4526 -1.6567 -0.1574
 4865SOL    HW226232   0.972   4.491   5.002 -0.7838 -0.3209  0.4804
 4866SOL     OW26233   0.341   0.899   7.827 -0.0362 -0.0970  0.1045
 4866SOL    HW126234   0.391   0.967   7.872 -1.1293  0.6337  0.2361
 4866SOL    HW226235   0.255   0.938   7.811  0.3744  0.4913 -0.6371
 4867SOL     OW26236   2.757   1.716   5.061 -0.1962 -0.4488 -0.7729
 4867SOL    HW126237   2.784   1.785   5.000 -0.4882  0.8921  0.6040
 4867SOL    HW226238   2.842   1.673   5.070 -0.2140 -0.3955 -0.3439
 4868SOL     OW26239   4.696   4.039   2.013 -0.8214 -0.1439 -0.0949
 4868SOL    HW126240   0.036   4.023   2.068  0.3178 -0.7938 -1.8873
 4868SOL    HW226241   4.678   3.954   1.974 -0.2792 -0.8336  1.1622
 4869SOL     OW26242   2.050   3.072   9.257 -0.0949 -0.2072  0.2997
 4869SOL    HW126243   2.045   3.094   9.350 -0.5308  0.4012  0.1380
 4869SOL    HW226244   2.101   2.992   9.266 -0.6568 -0.5984  0.0333
 4870SOL     OW26245   0.355   0.899   4.023 -0.2549 -0.3519  0.3731
 4870SOL    HW126246   0.351   0.925   4.115  1.0247 -2.5353  1.0550
 4870SOL    HW226247   0.267   0.867   4.003 -0.4821  0.2896  0.3602
 4871SOL     OW26248   2.108   3.143   4.622 -0.5859 -0.2324  0.4634
 4871SOL    HW126249   2.050   3.216   4.644 -1.7914 -0.3446 -2.3307
 4871SOL    HW226250   2.140   3.171   4.536 -1.2911 -0.4393  0.1341
 4872SOL     OW26251   3.656   2.003   5.550  0.4598 -0.7120  0.7062
 4872SOL    HW126252   3.567   1.988   5.580 -0.2017  1.4617 -0.1636
 4872SOL    HW226253   3.675   2.084   5.597  0.4576 -0.1610 -0.2475
 4873SOL     OW26254   2.146   0.903   4.740  0.2851  0.0394  0.2187
 4873SOL    HW126255   2.085   0.967   4.702 -1.5242 -2.5667 -1.2774
 4873SOL    HW226256   2.219   0.963   4.747  0.7549 -0.6134  0.8516
 4874SOL     OW26257   0.007   4.382   8.968  0.4581 -0.1781 -0.0032
 4874SOL    HW126258   0.057   4.311   8.929  1.3400  0.1836  0.4611
 4874SOL    HW226259   0.039   4.378   9.058 -1.1801 -1.4137  0.5160
 4875SOL     OW26260   2.313   1.928   6.288  0.1697 -0.0243  0.3620
 4875SOL    HW126261   2.338   1.960   6.201 -0.3591  1.1025  0.6185
 4875SOL    HW226262   2.221   1.916   6.266 -0.2141  1.8331  0.9866
 4876SOL     OW26263   1.782   2.709  10.559 -0.2131  0.4804 -0.5174
 4876SOL    HW126264   1.875   2.691  10.570 -0.1484 -0.1574 -2.0822
 4876SOL    HW226265   1.784   2.775  10.489  0.6918  2.1770  1.1249
 4877SOL     OW26266   4.064   3.399   2.861  0.3254  0.6969 -0.9852
 4877SOL    HW126267   4.018   3.483   2.860 -0.3836  0.3523  2.1796
 4877SOL    HW226268   4.133   3.412   2.926  1.5614  2.8738 -2.7411
 4878SOL     OW26269   0.829   3.498  11.120 -0.2480  0.4518 -0.4973
 4878SOL    HW126270   0.814   3.476  11.028 -0.9750 -0.8046 -0.0849
 4878SOL    HW226271   0.921   3.471  11.120 -0.6796 -0.9870 -1.1553
 4879SOL     OW26272   4.285   3.484   6.084  0.6007 -0.2953 -0.4286
 4879SOL    HW126273   4.198   3.447   6.093  1.6292 -2.1211  1.8733
 4879SOL    HW226274   4.330   3.413   6.038  0.0336 -0.8828 -0.0736
 4880SOL     OW26275   3.377   2.443   2.502 -0.4486  0.0185  0.6368
 4880SOL    HW126276   3.328   2.516   2.464 -0.6250 -1.7024 -2.3729
 4880SOL    HW226277   3.333   2.370   2.458 -3.1422  1.2519  1.2928
 4881SOL     OW26278   2.961   1.740   2.667 -0.8373  0.6853  0.1635
 4881SOL    HW126279   2.909   1.666   2.636 -0.5343  0.7068 -0.3947
 4881SOL    HW226280   2.934   1.803   2.601  1.4339 -1.5129 -2.8574
 4882SOL     OW26281   4.631   3.428   4.515  0.2364  0.0345 -0.0519
 4882SOL    HW126282   4.586   3.509   4.492  1.7526  0.7044 -0.6458
 4882SOL    HW226283   4.558   3.366   4.523  1.7840 -2.0800 -2.4358
 4883SOL     OW26284   1.224   1.285  15.255  0.2567 -0.4316  0.0486
 4883SOL    HW126285   1.167   1.361  15.255  2.3113  1.1142  2.0308
 4883SOL    HW226286   1.166   1.219  15.294  0.6016  0.5096  2.1753
 4884SOL     OW26287   2.032   4.021  12.024  0.3006 -0.4027  0.6237
 4884SOL    HW126288   2.080   3.964  12.084  0.3328 -0.1814  0.8085
 4884SOL    HW226289   2.103   4.053  11.968  0.6579  0.3592  1.5067
 4885SOL     OW26290   0.098   3.314  16.990 -0.2129  0.1463 -0.2530
 4885SOL    HW126291   0.100   3.403  17.027 -1.2636 -0.4951  1.3436
 4885SOL    HW226292   0.009   3.309  16.954 -1.0743  0.2694  1.8503
 4886SOL     OW26293   4.187   1.371   7.166  0.0286 -0.1149 -0.1489
 4886SOL    HW126294   4.162   1.291   7.120 -2.5634  1.6027 -1.7767
 4886SOL    HW226295   4.228   1.421   7.095  1.0628  0.9076  1.1794
 4887SOL     OW26296   2.594   1.635   7.704 -0.5143  0.3606 -0.1168
 4887SOL    HW126297   2.547   1.556   7.732  1.2119 -0.8521 -0.6010
 4887SOL    HW226298   2.670   1.626   7.762 -2.5953  0.2144  2.6093
 4888SOL     OW26299   1.226   3.088   7.854  0.1297 -0.2912 -0.1746
 4888SOL    HW126300   1.261   3.005   7.886 -0.3709  0.0080  1.1326
 4888SOL    HW226301   1.243   3.083   7.760 -2.8043 -2.6914 -0.5336
 4889SOL     OW26302   4.683   1.624   8.693 -0.0435 -0.0600  0.5316
 4889SOL    HW126303   4.697   1.678   8.771  0.7861  0.2718  0.1569
 4889SOL    HW226304   4.632   1.552   8.729 -0.3881 -0.6696 -1.1662
 4890SOL     OW26305   2.625   4.320   5.886  0.2890  0.2277 -0.7606
 4890SOL    HW126306   2.650   4.238   5.929 -1.6670  1.4941  2.8372
 4890SOL    HW226307   2.697   4.344   5.827 -0.0216 -0.9002 -1.6025
 4891SOL     OW26308   0.331   1.003   0.174  0.1682 -0.2044 -0.2267
 4891SOL    HW126309   0.399   1.029   0.236 -0.2369  0.8442 -0.2220
 4891SOL    HW226310   0.287   1.085   0.151  3.0426  1.2369 -0.5414
 4892SOL     OW26311   3.960   0.789   4.682  0.2441 -0.1893 -0.0067
 4892SOL    HW126312   4.047   0.755   4.661  0.3348  1.9272 -3.0896
 4892SOL    HW226313   3.962   0.790   4.777  2.2103 -1.6995 -0.0274
 4893SOL     OW26314   1.845   1.472   6.191 -0.0766  0.1360 -0.2774
 4893SOL    HW126315   1.867   1.424   6.111  0.2076 -1.5382  0.8177
 4893SOL    HW226316   1.829   1.393   6.242 -0.4948  0.7666  0.5590
 4894SOL     OW26317   0.413   3.229   8.081  0.2613  0.6018 -1.1255
 4894SOL    HW126318   0.385   3.147   8.042 -0.2245  1.2464 -2.1306
 4894SOL    HW226319   0.502   3.199   8.102 -0.7092 -1.9811 -0.7310
 4895SOL     OW26320   1.693   4.189   7.663 -0.7351 -0.1349  0.4594
 4895SOL    HW126321   1.779   4.198   7.623 -0.5114  1.4912  1.3323
 4895SOL    HW226322   1.708   4.159   7.753  0.1699  0.1325  0.3952
 4896SOL     OW26323   2.630   3.757   2.930  0.2453 -0.3233  0.4452
 4896SOL    HW126324   2.648   3.682   2.987 -1.5602 -0.7976  0.3843
 4896SOL    HW226325   2.539   3.742   2.904  0.8957 -1.1693 -1.2833
 4897SOL     OW26326   1.620   0.945   6.156 -0.0337  0.0974 -0.3096
 4897SOL    HW126327   1.577   0.940   6.241  0.5385 -0.8593 -0.0841
 4897SOL    HW226328   1.707   0.917   6.183  0.2083 -0.1864 -1.3735
 4898SOL     OW26329   0.152   3.160   3.686  0.1766  0.1015 -0.0838
 4898SOL    HW126330   0.247   3.158   3.699  0.0760 -1.6159  0.3659
 4898SOL    HW226331   0.110   3.137   3.768 -1.0028 -0.4999 -0.8577
 4899SOL     OW26332   1.391   0.471   2.366 -0.0573 -0.2415 -0.0210
 4899SOL    HW126333   1.457   0.500   2.302 -1.5060 -0.6357 -1.7035
 4899SOL    HW226334   1.314   0.473   2.308  0.1513 -1.3925 -0.3274
 4900SOL     OW26335   2.060   1.714   0.614 -0.1468 -0.0352 -0.5490
 4900SOL    HW126336   2.022   1.649   0.673  0.3227 -0.3736 -0.6239
 4900SOL    HW226337   2.132   1.740   0.671  0.9292 -0.4762 -1.7313
 4901SOL     OW26338   2.555   3.797   5.236 -0.4527  0.5602 -0.6540
 4901SOL    HW126339   2.613   3.812   5.310 -0.9345 -0.0602 -0.1518
 4901SOL    HW226340   2.498   3.875   5.238 -0.8551  0.2361  0.4448
 4902SOL     OW26341   1.252   3.245   1.818 -0.1311  0.2305 -0.0319
 4902SOL    HW126342   1.161   3.230   1.844  0.1034  0.4605  0.8961
 4902SOL    HW226343   1.249   3.335   1.785  0.5073  0.4771  0.5940
 4903SOL     OW26344   0.549   4.539   1.057 -0.1373 -0.0097 -0.1937
 4903SOL    HW126345   0.630   4.529   1.108  1.1184  1.6966 -1.8245
 4903SOL    HW226346   0.496   4.539   1.136  1.5754 -4.1523  0.9734
 4904SOL     OW26347   1.310   0.925  10.694  0.0092  0.3932  0.5550
 4904SOL    HW126348   1.309   0.951  10.787 -1.0211  0.6717  0.4618
 4904SOL    HW226349   1.282   1.001  10.643  0.9321  0.9332  0.8433
 4905SOL     OW26350   3.408   3.694  16.267  0.0048  0.6991 -0.1888
 4905SOL    HW126351   3.333   3.637  16.283  1.3771 -1.5564 -1.9380
 4905SOL    HW226352   3.452   3.644  16.199  1.2883 -0.5617  1.5634
 4906SOL     OW26353   2.962   3.463   6.174  0.2983 -0.7724 -0.3180
 4906SOL    HW126354   2.916   3.546   6.164  0.0764 -1.0052 -1.3071
 4906SOL    HW226355   2.914   3.420   6.103  0.7949  0.0886 -1.1747
 4907SOL     OW26356   4.153   0.165  14.296 -0.4937  0.1713 -0.0688
 4907SOL    HW126357   4.183   0.253  14.319 -0.6966 -0.0480  1.0145
 4907SOL    HW226358   4.175   0.156  14.203  1.8656 -0.9144  0.6065
 4908SOL     OW26359   3.443   0.524   3.459 -0.2718 -0.3428  0.5866
 4908SOL    HW126360   3.530   0.490   3.439 -0.4856 -0.5938  0.0858
 4908SOL    HW226361   3.390   0.455   3.419  1.2504 -0.9478 -0.3402
 4909SOL     OW26362   0.717   2.123  12.539  0.2469 -0.6396  0.1974
 4909SOL    HW126363   0.761   2.046  12.574  0.8691  0.1427  1.1267
 4909SOL    HW226364   0.626   2.094  12.528 -0.2497  0.5740  1.1864
 4910SOL     OW26365   3.582   3.113   6.455  0.4789  0.5218 -0.5756
 4910SOL    HW126366   3.540   3.027   6.452  1.1557  0.1058  1.9252
 4910SOL    HW226367   3.536   3.162   6.387 -0.8504 -0.4557 -0.3663
 4911SOL     OW26368   1.461   1.965   9.944 -0.4165  0.1081  0.0524
 4911SOL    HW126369   1.546   2.009   9.945 -0.0162 -0.6738  0.4657
 4911SOL    HW226370   1.428   1.979  10.033 -1.1832 -1.1780 -0.0349
 4912SOL     OW26371   0.132   4.538   8.560 -0.2764  0.2322  0.2645
 4912SOL    HW126372   0.083   4.524   8.642  0.7128 -2.5700  0.3759
 4912SOL    HW226373   0.095   4.474   8.500 -0.4125  0.6497 -0.0925
 4913SOL     OW26374   1.346   2.085  11.778 -0.0761  0.3424 -0.6947
 4913SOL    HW126375   1.384   2.173  11.771 -0.3120  0.4927 -0.0990
 4913SOL    HW226376   1.414   2.036  11.824 -0.7645 -0.1051 -0.1618
 4914SOL     OW26377   2.789   3.721   5.395 -0.3346 -0.0334  0.2866
 4914SOL    HW126378   2.832   3.807   5.387  0.2446 -0.2999  0.5114
 4914SOL    HW226379   2.718   3.738   5.456 -0.9774  1.4915 -0.8972
 4915SOL     OW26380   4.238   2.786   3.342  0.3560  0.0355 -0.2399
 4915SOL    HW126381   4.271   2.837   3.416  1.2393  0.8368 -1.1912
 4915SOL    HW226382   4.225   2.697   3.376 -1.2651  0.2617 -0.2773
 4916SOL     OW26383   4.049   0.586   1.752 -0.6174  0.1478  0.5128
 4916SOL    HW126384   4.084   0.667   1.716  0.8462 -0.2048  1.1129
 4916SOL    HW226385   4.108   0.565   1.825 -0.9224 -0.6309  0.5404
 4917SOL     OW26386   0.982   3.234  16.776  0.6195 -0.6205 -0.2072
 4917SOL    HW126387   1.037   3.294  16.726 -1.1716 -0.6869 -2.2761
 4917SOL    HW226388   0.900   3.245  16.728  0.6432 -0.1054 -0.1271
 4918SOL     OW26389   2.748   1.903  11.041  0.3940  0.3491  0.1198
 4918SOL    HW126390   2.752   1.812  11.013 -0.1847  0.1795  0.5896
 4918SOL    HW226391   2.798   1.957  10.981  1.4898  0.2428  0.9334
 4919SOL     OW26392   1.734   1.155   6.773  0.1960  0.1704 -0.0743
 4919SOL    HW126393   1.714   1.241   6.811  0.6376  0.7305 -1.0995
 4919SOL    HW226394   1.830   1.159   6.772  0.1609  0.4941 -1.7505
 4920SOL     OW26395   3.662   2.666  16.973 -0.4890 -0.3115  0.2141
 4920SOL    HW126396   3.582   2.718  16.983 -0.8019 -0.4933 -1.2474
 4920SOL    HW226397   3.635   2.590  16.922  0.3410 -1.3499  1.3291
 4921SOL     OW26398   0.909   3.605   6.603  0.1083 -0.1131 -0.0569
 4921SOL    HW126399   1.005   3.607   6.594  0.2094 -0.2185  0.9530
 4921SOL    HW226400   0.898   3.642   6.691  0.3895 -3.6517  1.4706
 4922SOL     OW26401   2.587   3.974   7.928  0.7031 -0.6928 -0.4336
 4922SOL    HW126402   2.669   3.925   7.931  0.7504 -0.6125 -0.3905
 4922SOL    HW226403   2.611   4.039   7.862  3.5060 -1.9755 -0.6810
 4923SOL     OW26404   0.932   4.300   7.434  0.2781 -0.3580 -0.3672
 4923SOL    HW126405   1.008   4.256   7.397  0.2571  0.5933 -1.5579
 4923SOL    HW226406   0.858   4.262   7.385 -1.0227 -0.4528  1.6737
 4924SOL     OW26407   4.262   0.007   3.493 -0.2343  0.2720 -0.1981
 4924SOL    HW126408   4.270   0.075   3.560 -0.7465 -0.0161  0.1537
 4924SOL    HW226409   4.218   4.671   3.535 -1.1609  1.4169  0.8166
 4925SOL     OW26410   1.987   3.432  14.027 -0.2858 -0.0653  0.2466
 4925SOL    HW126411   1.927   3.459  14.097  2.6398 -0.7905  3.0668
 4925SOL    HW226412   1.939   3.446  13.946  1.6114 -0.7981 -1.0164
 4926SOL     OW26413   0.267   3.570   9.011  0.2033  0.0096  0.0645
 4926SOL    HW126414   0.212   3.644   8.987 -0.4356 -0.4523  0.0979
 4926SOL    HW226415   0.332   3.573   8.940  1.0298 -2.8545  0.7063
 4927SOL     OW26416   2.328   1.395   7.210  0.1601  0.2268 -0.5962
 4927SOL    HW126417   2.259   1.439   7.260  1.2006 -0.2003  1.2491
 4927SOL    HW226418   2.273   1.322   7.183 -0.8057  0.7366 -0.0315
 4928SOL     OW26419   1.568   4.585   5.349  0.4015 -0.2142 -0.5143
 4928SOL    HW126420   1.531   4.506   5.389  0.6326  0.5989  1.3083
 4928SOL    HW226421   1.596   4.628   5.430 -3.9220  0.9780  0.3712
 4929SOL     OW26422   3.854   3.444   6.803 -0.0315  0.8147 -0.4548
 4929SOL    HW126423   3.850   3.540   6.804  0.1771  0.8397 -2.3929
 4929SOL    HW226424   3.806   3.426   6.722  0.9663  0.2144 -0.9101
 4930SOL     OW26425   2.716   1.460   9.429  0.7893  0.8612  0.4915
 4930SOL    HW126426   2.639   1.465   9.373  1.7894 -0.3081 -1.0124
 4930SOL    HW226427   2.749   1.545   9.400  0.7098  0.0595 -1.9115
 4931SOL     OW26428   1.695   0.220   5.132 -0.7999  0.3676 -0.4071
 4931SOL    HW126429   1.662   0.157   5.067  1.2212 -1.4269  0.2899
 4931SOL    HW226430   1.766   0.160   5.156  0.4864  1.0674 -2.4597
 4932SOL     OW26431   3.092   0.928   5.990 -0.3886  0.7675 -0.3126
 4932SOL    HW126432   3.048   1.005   6.026 -2.4050 -1.4484  2.0200
 4932SOL    HW226433   3.153   0.963   5.926  0.8895 -0.5178  0.2023
 4933SOL     OW26434   2.970   2.110   7.515  0.4280  0.1620 -0.1712
 4933SOL    HW126435   2.982   2.155   7.431  0.5516 -1.1714 -0.8577
 4933SOL    HW226436   3.022   2.030   7.508 -1.3182 -1.1065  1.4235
 4934SOL     OW26437   4.694   4.557  11.928 -0.4214 -0.1840 -0.2497
 4934SOL    HW126438   4.634   4.486  11.903 -1.6406  0.0657  2.0026
 4934SOL    HW226439   4.716   4.525  12.016  0.0016  0.9072  0.0358
 4935SOL     OW26440   1.208   2.785   6.816 -0.3593  0.1263 -0.5251
 4935SOL    HW126441   1.241   2.724   6.882 -1.8828 -0.5768 -0.4407
 4935SOL    HW226442   1.225   2.871   6.855  1.8368 -0.8870  0.7267
 4936SOL     OW26443   2.478   4.699   4.039  0.5300  0.4564 -0.3962
 4936SOL    HW126444   2.467   4.680   3.946 -2.8665  0.0123  0.0962
 4936SOL    HW226445   2.468   4.613   4.079 -0.8714  0.4829 -0.6882
 4937SOL     OW26446   2.335   3.466  13.462  0.5237 -0.0858 -0.0335
 4937SOL    HW126447   2.426   3.446  13.439  0.2250  0.4119 -1.6870
 4937SOL    HW226448   2.280   3.422  13.398  0.3557  0.4871 -0.2861
 4938SOL     OW26449   0.941   3.730   4.893 -0.3585 -0.2275 -0.1752
 4938SOL    HW126450   0.926   3.822   4.871  1.3088  0.2174  0.5616
 4938SOL    HW226451   0.861   3.716   4.944 -0.2064 -1.9628 -0.4324
 4939SOL     OW26452   2.131   1.056   4.330  0.0079  0.1368  0.3359
 4939SOL    HW126453   2.059   1.009   4.287 -0.3269  0.4223  0.5826
 4939SOL    HW226454   2.191   0.982   4.326  1.2146  1.2531 -2.1986
 4940SOL     OW26455   4.218   1.205  13.632  0.2140  0.2839 -0.8268
 4940SOL    HW126456   4.208   1.165  13.546  2.0508 -0.7787 -0.5506
 4940SOL    HW226457   4.309   1.233  13.637 -0.0069  0.4188  2.5675
 4941SOL     OW26458   1.735   0.336   5.877 -0.4993 -0.2962  0.0302
 4941SOL    HW126459   1.687   0.387   5.942 -1.4502  1.0976 -1.7467
 4941SOL    HW226460   1.701   0.247   5.880  0.2971 -0.5642  1.1709
 4942SOL     OW26461   4.557   3.011   8.651 -0.2993 -0.7457  0.2907
 4942SOL    HW126462   4.483   2.967   8.692 -0.2178 -0.3265  0.8915
 4942SOL    HW226463   4.567   3.076   8.721  0.3233  0.1141 -0.5978
 4943SOL     OW26464   2.887   4.720  16.350  0.4775 -0.2423 -0.4959
 4943SOL    HW126465   2.974   4.683  16.367 -0.6364 -2.8193 -0.4223
 4943SOL    HW226466   2.833   4.677  16.416  1.1584 -3.3196 -1.9211
 4944SOL     OW26467   0.539   0.822  12.483 -0.1387 -0.0535  0.2745
 4944SOL    HW126468   0.540   0.878  12.561  3.1010  0.5329 -0.1808
 4944SOL    HW226469   0.463   0.764  12.489 -0.0598  0.2623  3.9772
 4945SOL     OW26470   3.949   3.806   1.600 -0.3000  0.1898  0.4529
 4945SOL    HW126471   3.949   3.897   1.572 -0.2882 -0.1014 -0.4993
 4945SOL    HW226472   3.922   3.811   1.691  1.0027  0.0831  0.8431
 4946SOL     OW26473   0.390   1.052   3.511  0.1388  0.2063 -1.0060
 4946SOL    HW126474   0.468   1.011   3.474  0.4248  0.9700 -1.2350
 4946SOL    HW226475   0.417   1.050   3.603  1.1764  0.1689 -1.3093
 4947SOL     OW26476   4.078   2.112   9.754  0.2487  0.3145 -0.3654
 4947SOL    HW126477   4.028   2.192   9.742 -0.1668 -0.0678 -1.1491
 4947SOL    HW226478   4.035   2.076   9.832  0.9286  0.0427 -0.1149
 4948SOL     OW26479   3.182   3.270  16.401  0.2464 -0.1177  0.2522
 4948SOL    HW126480   3.089   3.281  16.420  0.2295  4.8909 -2.7956
 4948SOL    HW226481   3.176   3.235  16.313  2.9419 -1.4372  0.5937
 4949SOL     OW26482   3.438   0.443  16.905 -0.0496  0.0082 -0.3526
 4949SOL    HW126483   3.475   0.424  16.991 -0.0526  4.0954  0.5120
 4949SOL    HW226484   3.360   0.497  16.917 -1.2920 -2.0073  0.7532
 4950SOL     OW26485   2.502   2.476   3.506 -0.4629 -0.1974  0.0671
 4950SOL    HW126486   2.551   2.477   3.424 -0.9715 -2.8077 -0.2721
 4950SOL    HW226487   2.491   2.381   3.515  1.2139 -0.3306  0.6678
 4951SOL     OW26488   4.084   3.937  10.695 -0.1481 -0.7904  0.3424
 4951SOL    HW126489   4.111   3.917  10.785 -0.9802  2.1648  1.2205
 4951SOL    HW226490   4.027   4.012  10.711  0.5555 -0.4245  1.1205
 4952SOL     OW26491   0.479   1.541   5.939  0.2728 -0.7420 -0.4090
 4952SOL    HW126492   0.390   1.512   5.921  0.5507 -0.3830 -2.3710
 4952SOL    HW226493   0.465   1.597   6.015  1.8186  0.6990 -1.1865
 4953SOL     OW26494   2.400   2.947  15.898  0.2440  0.3190  0.2683
 4953SOL    HW126495   2.456   2.878  15.933  0.1268  1.1226  2.0433
 4953SOL    HW226496   2.399   3.011  15.970  0.3244 -0.0556  0.5985
 4954SOL     OW26497   1.827   3.216   3.326 -0.2099 -0.1527  0.3324
 4954SOL    HW126498   1.795   3.268   3.252 -0.5922 -2.2784 -0.9907
 4954SOL    HW226499   1.755   3.232   3.387  1.7593  3.2816  1.7686
 4955SOL     OW26500   3.089   2.176   1.215  0.7673 -0.1052  1.0741
 4955SOL    HW126501   3.183   2.192   1.213  0.6443  0.4531  0.0023
 4955SOL    HW226502   3.048   2.262   1.226 -0.1020 -0.6094  1.7247
 4956SOL     OW26503   1.565   3.879  16.345 -0.0740  0.4147 -0.2437
 4956SOL    HW126504   1.555   3.928  16.427  2.2271 -1.5962  1.2386
 4956SOL    HW226505   1.626   3.946  16.317  0.1438  0.3868  0.1643
 4957SOL     OW26506   3.870   0.033   0.784 -0.2504  0.1332  0.6347
 4957SOL    HW126507   3.790   0.061   0.828 -0.4425 -0.5860  0.7452
 4957SOL    HW226508   3.886   0.098   0.716 -0.8437 -1.1480 -0.7144
 4958SOL     OW26509   2.970   1.554   7.232 -0.1192  0.1212  0.2982
 4958SOL    HW126510   3.040   1.490   7.242  0.3597  0.4308 -1.1466
 4958SOL    HW226511   2.984   1.618   7.302  1.1190 -1.2483  1.2859
 4959SOL     OW26512   3.534   2.752   6.687 -0.1880  0.1594  0.2067
 4959SOL    HW126513   3.530   2.791   6.599  2.9315  0.2247  0.0772
 4959SOL    HW226514   3.440   2.742   6.703 -0.2217 -2.2015 -1.4180
 4960SOL     OW26515   1.069   0.788   1.582 -0.2100 -0.4584  0.0775
 4960SOL    HW126516   0.996   0.844   1.607 -0.0510  0.0838 -0.6619
 4960SOL    HW226517   1.037   0.700   1.601  0.2755 -0.9291 -1.2550
 4961SOL     OW26518   1.289   1.074   5.365 -0.5789 -0.0357 -0.4565
 4961SOL    HW126519   1.364   1.037   5.411 -1.6583  0.5980  1.8047
 4961SOL    HW226520   1.249   1.113   5.443 -0.0455  0.7956 -0.5936
 4962SOL     OW26521   0.459   1.651  10.809  0.2493  0.1270  0.2525
 4962SOL    HW126522   0.364   1.665  10.814  0.1360 -0.7624  0.5320
 4962SOL    HW226523   0.486   1.733  10.768  0.2402 -1.0513 -2.1210
 4963SOL     OW26524   0.315   2.660   7.220  0.0582  0.4433 -0.1954
 4963SOL    HW126525   0.333   2.579   7.173 -1.7363  0.6390 -1.2457
 4963SOL    HW226526   0.291   2.627   7.306 -1.4783  1.0635 -0.3878
 4964SOL     OW26527   2.746   2.520   1.704 -0.2342 -0.5745 -0.7294
 4964SOL    HW126528   2.753   2.433   1.741  0.5168 -0.8217 -1.4509
 4964SOL    HW226529   2.655   2.541   1.725  0.1784  0.9657 -0.4582
 4965SOL     OW26530   1.620   1.595  11.561 -0.3597  0.2457 -0.1181
 4965SOL    HW126531   1.616   1.637  11.475  0.4271  2.1154  0.7613
 4965SOL    HW226532   1.710   1.620  11.581  0.2766 -1.8171 -0.4449
 4966SOL     OW26533   2.214   4.735   7.752  0.4605  0.2891  0.2335
 4966SOL    HW126534   2.198   4.661   7.810 -1.8487 -1.7366 -3.0331
 4966SOL    HW226535   2.126   0.035   7.751  0.3411  0.0194  1.0194
 4967SOL     OW26536   4.517   3.885   8.562 -0.2056  0.3059  0.6796
 4967SOL    HW126537   4.566   3.879   8.479 -1.6138 -0.6531 -0.0780
 4967SOL    HW226538   4.444   3.824   8.551 -0.1267  0.2105  0.6846
 4968SOL     OW26539   2.771   0.513   3.374 -0.3236  0.1992 -0.3156
 4968SOL    HW126540   2.778   0.418   3.379 -2.1379  0.0635 -0.4193
 4968SOL    HW226541   2.784   0.525   3.280 -1.7628 -1.7551 -0.7591
 4969SOL     OW26542   4.581   3.974   7.958 -0.0309 -0.6544  0.2807
 4969SOL    HW126543   4.577   3.880   7.944  1.5560 -0.9684  1.9764
 4969SOL    HW226544   4.490   3.992   7.984  0.5918  0.4616  1.7334
 4970SOL     OW26545   2.722   1.544  11.378 -0.2307 -0.1495  0.4431
 4970SOL    HW126546   2.661   1.488  11.426 -0.8819  0.1804 -0.0136
 4970SOL    HW226547   2.664   1.588  11.317 -0.9772 -1.3403  0.2941
 4971SOL     OW26548   2.904   1.073  16.068  0.6288 -0.4408 -0.3758
 4971SOL    HW126549   2.948   1.090  15.985  2.3358 -2.7043  0.0898
 4971SOL    HW226550   2.978   1.064  16.128 -0.0212  1.8989  0.8064
 4972SOL     OW26551   1.871   4.062   6.090 -0.3062 -0.1139 -0.3547
 4972SOL    HW126552   1.927   4.107   6.154 -1.2918  0.7850 -0.1297
 4972SOL    HW226553   1.927   3.983   6.087  0.3481  0.2962  0.7825
 4973SOL     OW26554   4.421   2.570  17.546 -1.0395  0.0626  0.0719
 4973SOL    HW126555   4.338   2.529  17.569  0.4042 -0.7167  3.8729
 4973SOL    HW226556   4.490   2.515  17.584  1.0941  1.5893 -1.5347
 4974SOL     OW26557   0.061   1.102  17.604 -0.0346 -0.1462  0.2956
 4974SOL    HW126558   0.132   1.057  17.649  1.5963  1.5591 -0.5704
 4974SOL    HW226559   4.735   1.100  17.676  1.1639  2.9580  1.4332
 4975SOL     OW26560   3.255   0.949   6.332 -0.1427  0.0895 -0.0741
 4975SOL    HW126561   3.300   0.995   6.262  2.0884  0.4325  1.5772
 4975SOL    HW226562   3.329   0.948   6.393 -0.7994 -1.3875  0.6869
 4976SOL     OW26563   2.096   3.601   4.273 -0.2058  0.2154  0.0462
 4976SOL    HW126564   2.111   3.587   4.180 -1.6639 -1.6546  0.0797
 4976SOL    HW226565   2.077   3.694   4.287 -0.7998  0.4297 -2.2050
 4977SOL     OW26566   0.392   3.847   8.774  0.6138 -0.4736 -0.4115
 4977SOL    HW126567   0.424   3.819   8.860  0.3267 -1.5741 -0.6607
 4977SOL    HW226568   0.411   3.940   8.786 -2.0556 -0.1127  0.9092
 4978SOL     OW26569   1.348   3.615   5.513  0.3288 -0.4372 -0.6498
 4978SOL    HW126570   1.339   3.538   5.457  2.1642 -1.0156 -0.1493
 4978SOL    HW226571   1.404   3.575   5.580 -1.3050  1.5586  1.9083
 4979SOL     OW26572   4.490   1.748   2.533 -0.3336  0.2799 -0.0922
 4979SOL    HW126573   4.551   1.808   2.492 -0.7880  0.0490 -1.1026
 4979SOL    HW226574   4.540   1.722   2.610  0.1998  1.7645  0.0605
 4980SOL     OW26575   4.526   1.903   5.667 -0.4987 -0.5383 -0.5685
 4980SOL    HW126576   4.456   1.954   5.628  1.1523  2.1969  0.0029
 4980SOL    HW226577   4.544   1.833   5.605  0.9650 -0.9447  0.2951
 4981SOL     OW26578   1.193   2.831   7.947 -0.3540 -0.1587 -0.1387
 4981SOL    HW126579   1.134   2.767   7.987  1.7571 -2.1460 -0.1912
 4981SOL    HW226580   1.145   2.832   7.864 -2.5834  2.0498  1.2074
 4982SOL     OW26581   1.057   1.546   8.243 -0.2570  0.1329 -0.6454
 4982SOL    HW126582   1.015   1.573   8.324  0.8367  0.6886 -0.2568
 4982SOL    HW226583   1.144   1.517   8.270 -0.6433 -1.3822 -1.0189
 4983SOL     OW26584   2.131   0.902  12.692  0.3324  0.1722  0.0017
 4983SOL    HW126585   2.096   0.833  12.749 -0.7064 -1.8159 -3.0579
 4983SOL    HW226586   2.172   0.856  12.619  0.1712  0.6405 -0.3740
 4984SOL     OW26587   1.921   0.384  14.112 -0.2318 -0.5171  0.0412
 4984SOL    HW126588   2.005   0.410  14.074 -0.2832 -2.5173 -1.4196
 4984SOL    HW226589   1.923   0.432  14.195  0.8336 -2.1047  0.9284
 4985SOL     OW26590   2.122   2.858   4.342 -0.4283 -0.0298  0.1376
 4985SOL    HW126591   2.130   2.792   4.273 -1.7207  0.6820 -0.7008
 4985SOL    HW226592   2.031   2.888   4.333 -0.8383 -1.4730 -0.5607
 4986SOL     OW26593   2.204   1.064   3.870  0.0072  0.1885 -0.0034
 4986SOL    HW126594   2.177   1.071   3.779  1.2463  2.4466 -0.1913
 4986SOL    HW226595   2.263   1.139   3.875 -0.5843  0.5179  2.2502
 4987SOL     OW26596   2.033   3.995  16.559  0.1287  0.3382  0.1432
 4987SOL    HW126597   1.985   4.068  16.522  0.7603 -0.1764 -1.7119
 4987SOL    HW226598   2.012   3.929  16.493 -1.8278  0.3511  0.7732
 4988SOL     OW26599   2.014   0.992   6.938 -0.3347 -0.1284  0.6366
 4988SOL    HW126600   1.990   1.061   6.876  0.7501 -0.6265 -0.3299
 4988SOL    HW226601   2.060   0.931   6.880 -1.9039  0.5669 -1.3291
 4989SOL     OW26602   3.529   3.036   7.715  0.6088 -0.0107 -0.1165
 4989SOL    HW126603   3.435   3.055   7.718  0.5190 -0.3985 -0.5057
 4989SOL    HW226604   3.539   3.021   7.621 -0.4958 -2.1857  0.1206
 4990SOL     OW26605   3.434   4.588   8.146 -0.3450 -0.0001 -0.3299
 4990SOL    HW126606   3.385   4.623   8.221  0.2886 -2.2608  1.1251
 4990SOL    HW226607   3.410   4.496   8.153  0.4449 -0.1873 -0.0614
 4991SOL     OW26608   4.402   1.758   8.545  0.7261 -0.3208  0.0004
 4991SOL    HW126609   4.477   1.736   8.491  0.5476 -0.1011 -0.3348
 4991SOL    HW226610   4.379   1.665   8.555  0.8480 -0.2648  0.7928
 4992SOL     OW26611   1.391   2.045  17.081 -0.3940  0.5924 -0.1429
 4992SOL    HW126612   1.403   2.048  16.986 -2.1639  2.0060 -0.2976
 4992SOL    HW226613   1.463   1.989  17.111  0.6303  1.5096 -0.8604
 4993SOL     OW26614   0.858   2.244   5.023  0.2238  0.1614 -0.0279
 4993SOL    HW126615   0.772   2.235   5.064 -0.4065  0.6178 -1.2402
 4993SOL    HW226616   0.883   2.333   5.047 -2.2971  0.9224 -0.2177
 4994SOL     OW26617   0.271   0.974   2.599  0.5474 -0.0335  0.3633
 4994SOL    HW126618   0.247   0.917   2.526  1.3910 -0.8645  0.7291
 4994SOL    HW226619   0.188   1.019   2.609  0.9317  0.8216 -0.3180
 4995SOL     OW26620   4.492   3.058  10.675 -0.1928 -0.4246 -0.3137
 4995SOL    HW126621   4.453   3.002  10.607 -2.1379  1.0034 -0.3730
 4995SOL    HW226622   4.418   3.113  10.700  0.2685  1.0229 -2.1385
 4996SOL     OW26623   2.839   1.705   3.630 -0.2269  0.6820  0.0951
 4996SOL    HW126624   2.754   1.722   3.590 -1.0427  2.8176  2.7182
 4996SOL    HW226625   2.821   1.666   3.716  0.8705  0.9375  0.4377
 4997SOL     OW26626   1.099   4.177   6.755 -0.3361  0.7624 -0.1047
 4997SOL    HW126627   1.077   4.171   6.662  1.8736 -3.5012 -0.3343
 4997SOL    HW226628   1.014   4.192   6.797  0.2958 -1.0293  1.7704
 4998SOL     OW26629   0.963   4.122   9.495  0.3603 -0.5993 -0.1540
 4998SOL    HW126630   1.053   4.131   9.527 -0.5049 -0.7939  2.3424
 4998SOL    HW226631   0.920   4.134   9.580 -0.0204 -0.4466 -0.3689
 4999SOL     OW26632   2.050   1.543   8.267 -0.1335  0.0183 -0.4132
 4999SOL    HW126633   2.119   1.580   8.212 -1.4302  1.1044 -1.3042
 4999SOL    HW226634   1.987   1.615   8.257 -0.1214  0.2945  1.5208
 5000SOL     OW26635   3.732   0.506   3.767  0.0255 -0.3122  0.2796
 5000SOL    HW126636   3.774   0.424   3.791 -0.4425 -0.4379  0.6882
 5000SOL    HW226637   3.791   0.564   3.816 -1.5781  0.4814  1.2982
 5001SOL     OW26638   0.891   3.486   6.142  0.1036 -0.1133 -0.2648
 5001SOL    HW126639   0.847   3.436   6.073  0.0102 -2.0253  1.1790
 5001SOL    HW226640   0.823   3.551   6.160  0.0801 -0.1307 -0.2907
 5002SOL     OW26641   2.556   2.193  16.518 -0.5731 -0.1571 -0.0015
 5002SOL    HW126642   2.469   2.225  16.498  0.1539  2.6592  1.3557
 5002SOL    HW226643   2.594   2.278  16.539  0.4165 -0.7520  0.6393
 5003SOL     OW26644   0.780   2.300   9.901  0.3316 -0.1628  0.0176
 5003SOL    HW126645   0.733   2.220   9.924  0.2697 -0.5657 -1.5324
 5003SOL    HW226646   0.730   2.364   9.952 -0.7011  1.1046 -2.5934
 5004SOL     OW26647   0.663   4.693   9.356 -0.1403 -0.5651 -0.0934
 5004SOL    HW126648   0.698   4.612   9.320 -1.6464  0.0208 -2.9384
 5004SOL    HW226649   0.584   4.650   9.388  0.7518 -0.4906  2.2031
 5005SOL     OW26650   4.368   4.289   7.308 -0.5263 -0.3436 -0.5683
 5005SOL    HW126651   4.383   4.377   7.341  0.9640 -0.2076 -1.6200
 5005SOL    HW226652   4.441   4.244   7.351  0.8678  1.3148 -1.2243
 5006SOL     OW26653   3.652   1.166   5.875 -0.2897  0.0101  0.1118
 5006SOL    HW126654   3.746   1.180   5.859 -0.4730 -0.6940 -1.5317
 5006SOL    HW226655   3.625   1.255   5.898 -1.6846 -0.8505  1.7196
 5007SOL     OW26656   4.168   2.740   6.419  0.0573  0.5398  0.0188
 5007SOL    HW126657   4.249   2.762   6.372  0.5352 -2.3823 -0.4771
 5007SOL    HW226658   4.145   2.829   6.446  2.4555  0.9024  0.9272
 5008SOL     OW26659   3.836   2.891   5.201 -0.6848  0.2726  0.7435
 5008SOL    HW126660   3.797   2.977   5.183 -0.3047 -0.0323 -1.5740
 5008SOL    HW226661   3.810   2.870   5.291  2.5182  0.4122  1.6949
 5009SOL     OW26662   0.556   1.862  14.333  0.3622  0.4439  0.2023
 5009SOL    HW126663   0.590   1.854  14.244 -0.1873 -2.2653  0.2411
 5009SOL    HW226664   0.607   1.796  14.380 -0.2188 -0.9659 -1.1143
 5010SOL     OW26665   1.801   2.647   6.352  0.5318 -0.7456  0.0590
 5010SOL    HW126666   1.805   2.712   6.422 -0.4085 -0.6039 -0.0100
 5010SOL    HW226667   1.780   2.562   6.391 -1.0105  0.3607  1.7000
 5011SOL     OW26668   2.935   3.811  10.212 -0.2529  0.0672 -0.4359
 5011SOL    HW126669   2.990   3.887  10.196  0.3584  0.0710  1.6597
 5011SOL    HW226670   2.994   3.735  10.214  1.0851  1.1711  1.3692
 5012SOL     OW26671   3.314   3.909   4.234 -0.0546 -0.2497 -0.3209
 5012SOL    HW126672   3.309   3.822   4.193 -0.2413 -1.0098  1.3399
 5012SOL    HW226673   3.272   3.877   4.313  0.1251  1.9441  0.6590
 5013SOL     OW26674   2.549   1.635   3.756  0.2458 -0.1162 -0.5828
 5013SOL    HW126675   2.491   1.615   3.683  2.1034 -1.6072 -1.6631
 5013SOL    HW226676   2.541   1.559   3.813  0.2141  0.0284 -0.3933
 5014SOL     OW26677   4.306   1.853   2.953 -0.3458  0.2912  0.3950
 5014SOL    HW126678   4.280   1.880   2.865 -0.1945 -1.9003 -0.3253
 5014SOL    HW226679   4.398   1.877   2.956  0.3894 -2.3841 -0.5140
 5015SOL     OW26680   2.402   4.504   0.304 -0.9348  0.1128 -0.0809
 5015SOL    HW126681   2.441   4.548   0.228 -1.2541 -0.2270 -0.4358
 5015SOL    HW226682   2.328   4.458   0.266 -0.1610 -0.9074 -0.3537
 5016SOL     OW26683   2.797   4.042  13.855  0.3587  0.2622 -0.0562
 5016SOL    HW126684   2.815   4.085  13.938  1.1898 -1.4930  0.6696
 5016SOL    HW226685   2.744   3.968  13.885  1.7435 -0.1413  1.3898
 5017SOL     OW26686   1.192   4.044   8.725  0.2424  0.0470  0.5890
 5017SOL    HW126687   1.176   4.083   8.639 -1.5540 -0.4082  0.7226
 5017SOL    HW226688   1.282   4.075   8.733  1.3408 -2.9007 -0.0927
 5018SOL     OW26689   3.361   4.677   2.960 -0.1789  0.3215 -0.2671
 5018SOL    HW126690   3.302   4.613   3.000 -0.4394  0.2006 -0.8397
 5018SOL    HW226691   3.355   4.733   3.038  2.1573  0.9671 -0.5621
 5019SOL     OW26692   0.196   3.070   5.492 -0.0588 -0.4702  0.2811
 5019SOL    HW126693   0.192   3.146   5.434 -0.1731  0.1216  1.0576
 5019SOL    HW226694   0.269   3.094   5.550 -0.7692 -2.4050  1.9768
 5020SOL     OW26695   2.852   3.086   3.504  0.4712 -0.0745 -0.0697
 5020SOL    HW126696   2.910   3.065   3.431  0.1862  0.9987 -0.6127
 5020SOL    HW226697   2.809   3.003   3.521  1.8299 -0.6564  0.4845
 5021SOL     OW26698   0.014   4.482   7.059 -0.4618  0.2902 -0.5038
 5021SOL    HW126699   0.096   4.524   7.032  0.3763 -0.9442  0.1330
 5021SOL    HW226700   4.706   4.545   7.115 -0.5812 -0.6725  0.4716
 5022SOL     OW26701   4.650   0.223   4.393 -0.7719 -0.3736 -0.3771
 5022SOL    HW126702   4.700   0.174   4.328 -2.9754 -0.4533 -2.0131
 5022SOL    HW226703   4.713   0.233   4.464  0.5729  3.0976 -2.0546
 5023SOL     OW26704   0.705   2.005   0.417 -0.4891  0.0786  0.0341
 5023SOL    HW126705   0.717   2.073   0.350 -2.0049  0.9061  0.5849
 5023SOL    HW226706   0.618   2.037   0.442 -2.7884 -3.7421 -3.0735
 5024SOL     OW26707   1.905   3.577   6.476 -0.0067 -0.5193 -0.5238
 5024SOL    HW126708   1.866   3.562   6.562  0.2885  2.0649  0.0446
 5024SOL    HW226709   1.829   3.555   6.422 -0.5251  1.2479 -0.4996
 5025SOL     OW26710   1.688   1.438   4.038 -0.0868  0.4569  0.0040
 5025SOL    HW126711   1.703   1.443   4.132 -1.9025  2.7605  0.1818
 5025SOL    HW226712   1.781   1.453   4.019 -0.3801 -0.1952 -2.0357
 5026SOL     OW26713   3.723   2.082   7.785  0.2999  0.7284  0.8231
 5026SOL    HW126714   3.686   2.003   7.826  1.1795 -0.1328 -0.0410
 5026SOL    HW226715   3.780   2.038   7.723 -0.9328  0.4532 -0.1160
 5027SOL     OW26716   2.542   2.167  14.011  0.0622 -0.5600  0.1692
 5027SOL    HW126717   2.454   2.189  14.043 -0.0854 -0.1659 -0.4993
 5027SOL    HW226718   2.550   2.076  14.039 -0.9533 -1.1740 -1.4970
 5028SOL     OW26719   2.935   1.784   8.177  0.3199  0.5444  0.8539
 5028SOL    HW126720   2.864   1.838   8.142 -0.3508 -1.3331 -0.6717
 5028SOL    HW226721   2.968   1.871   8.202  2.9998 -0.0357 -0.7875
 5029SOL     OW26722   1.863   4.465   9.303 -0.1970 -0.1652 -0.4296
 5029SOL    HW126723   1.947   4.446   9.345  0.6034  0.6084 -1.6546
 5029SOL    HW226724   1.889   4.496   9.216 -1.1961 -2.3545 -1.5069
 5030SOL     OW26725   0.477   2.922   3.889 -0.2465 -0.3207 -0.0322
 5030SOL    HW126726   0.437   2.841   3.920 -0.3253  0.2447  1.3621
 5030SOL    HW226727   0.565   2.900   3.859 -0.6620 -0.6501 -1.0060
 5031SOL     OW26728   1.293   2.404   4.787 -1.1302 -0.2717  0.0795
 5031SOL    HW126729   1.247   2.416   4.871  1.2146  0.7612  1.2047
 5031SOL    HW226730   1.227   2.419   4.719 -1.8707 -0.2811  0.7870
 5032SOL     OW26731   0.146   1.850   3.304  0.6030 -0.1319  0.0220
 5032SOL    HW126732   0.106   1.934   3.327 -3.1466 -1.7289 -0.5564
 5032SOL    HW226733   0.070   1.799   3.334  0.1763  0.5855  0.1791
 5033SOL     OW26734   3.430   3.846  12.879 -0.2335 -0.2766 -0.9049
 5033SOL    HW126735   3.390   3.932  12.881  0.7069  0.1115  2.2550
 5033SOL    HW226736   3.458   3.829  12.789  1.2326  2.0254 -0.8859
 5034SOL     OW26737   0.459   0.685   7.197  0.3737 -0.5694  0.1058
 5034SOL    HW126738   0.424   0.698   7.109 -0.5881 -1.1404  0.4065
 5034SOL    HW226739   0.498   0.770   7.219 -2.9145  1.2815 -1.0825
 5035SOL     OW26740   1.959   0.640   9.540  0.0880 -0.5705  0.1173
 5035SOL    HW126741   1.907   0.719   9.527  0.5775 -0.0207  1.4100
 5035SOL    HW226742   2.025   0.655   9.472 -2.1678  2.5413 -1.3528
 5036SOL     OW26743   3.855   3.597   7.821  0.0716 -0.1127 -0.5299
 5036SOL    HW126744   3.921   3.666   7.814  0.1559  0.0004  1.3559
 5036SOL    HW226745   3.843   3.552   7.737  0.4362 -0.1315 -0.5725
 5037SOL     OW26746   2.472   0.549   1.688  0.1779  0.2780  0.0772
 5037SOL    HW126747   2.494   0.613   1.620  2.6233  0.4792  1.0265
 5037SOL    HW226748   2.552   0.496   1.682  1.8494  2.4441  2.8652
 5038SOL     OW26749   3.142   4.662   5.497 -0.2782  0.3869  0.8031
 5038SOL    HW126750   3.203   4.602   5.540 -1.7401  0.6458  3.2138
 5038SOL    HW226751   3.185   4.661   5.411  0.7582 -2.5049  1.3340
 5039SOL     OW26752   0.774   2.057   6.293  0.3038 -0.3523  0.2798
 5039SOL    HW126753   0.713   2.130   6.281 -0.5728 -1.3548 -1.3729
 5039SOL    HW226754   0.797   2.049   6.385  1.2368 -1.6767 -0.0723
 5040SOL     OW26755   1.805   1.727  16.706  0.3753  0.1273  0.1852
 5040SOL    HW126756   1.769   1.726  16.617  0.9190  0.5889 -0.0420
 5040SOL    HW226757   1.748   1.787  16.754 -0.7671  0.0033 -1.0081
 5041SOL     OW26758   3.177   2.273   2.437  0.1286  0.3324 -0.7291
 5041SOL    HW126759   3.113   2.332   2.397 -0.5087 -1.0435 -1.7482
 5041SOL    HW226760   3.131   2.227   2.507  1.7482 -0.1458  0.0064
 5042SOL     OW26761   0.387   3.347  17.086 -0.3048 -0.4014  0.2346
 5042SOL    HW126762   0.313   3.407  17.085  1.1325  1.3147 -2.6705
 5042SOL    HW226763   0.423   3.343  17.175  2.9447  2.3352 -0.9786
 5043SOL     OW26764   1.918   0.362  17.629  0.0715 -0.2235 -0.2592
 5043SOL    HW126765   1.912   0.457  17.618 -0.1494 -0.4494 -2.0774
 5043SOL    HW226766   1.923   0.329  17.539  1.4746 -0.1466 -0.1984
 5044SOL     OW26767   3.021   1.189   9.717 -0.0870  0.1960 -0.1546
 5044SOL    HW126768   3.023   1.256   9.649 -0.7106  2.8712  2.4517
 5044SOL    HW226769   3.111   1.187   9.750 -0.4638  1.9624  1.0179
 5045SOL     OW26770   2.248   0.619   7.004  0.4497  0.5293  0.1549
 5045SOL    HW126771   2.187   0.665   7.061  1.0833 -0.8186  1.9146
 5045SOL    HW226772   2.291   0.563   7.068  1.8403 -0.2571 -1.4423
 5046SOL     OW26773   4.603   1.023  17.099 -0.4715 -0.1546 -0.0491
 5046SOL    HW126774   4.613   0.969  17.021 -1.5816 -1.2027  0.5225
 5046SOL    HW226775   4.560   0.958  17.156 -1.7537  1.5937  0.9783
 5047SOL     OW26776   2.329   2.325   9.331  0.0230 -0.0677  0.3490
 5047SOL    HW126777   2.284   2.393   9.281  1.3947  0.9262  0.4615
 5047SOL    HW226778   2.419   2.326   9.299 -0.4090  2.3066 -0.8552
 5048SOL     OW26779   3.574   1.190  11.200  0.0984  0.4235 -0.0275
 5048SOL    HW126780   3.577   1.102  11.235  1.1040  0.3440 -0.3077
 5048SOL    HW226781   3.509   1.186  11.130 -0.4702  0.8109  0.4774
 5049SOL     OW26782   2.237   0.077   9.115  0.4329  0.4839 -0.5221
 5049SOL    HW126783   2.331   0.092   9.127  0.9016 -0.1731 -3.3344
 5049SOL    HW226784   2.198   0.140   9.176  0.4000 -1.0794  1.0635
 5050SOL     OW26785   3.508   0.963   5.003 -0.5936  0.5345 -0.2408
 5050SOL    HW126786   3.446   0.908   5.051  1.3188 -0.6719  0.8461
 5050SOL    HW226787   3.508   0.913   4.922  2.7806 -0.9490  0.6762
 5051SOL     OW26788   0.456   1.275   0.663  0.6262 -0.0188 -0.5566
 5051SOL    HW126789   0.405   1.197   0.642  0.6399 -0.0626 -0.4286
 5051SOL    HW226790   0.389   1.333   0.700  0.9933 -1.0021  1.6755
 5052SOL     OW26791   1.871   3.811   2.354  0.3375  0.3470  0.2525
 5052SOL    HW126792   1.793   3.771   2.316 -0.2615  1.2202  0.5640
 5052SOL    HW226793   1.944   3.772   2.305 -2.0346 -1.1503 -2.0966
 5053SOL     OW26794   2.316   3.584   7.104 -0.0000  0.2065 -0.4490
 5053SOL    HW126795   2.284   3.513   7.048  1.7596 -1.6980  0.9508
 5053SOL    HW226796   2.327   3.657   7.044  1.8353 -0.2454 -0.6609
 5054SOL     OW26797   2.414   2.202   3.605 -0.2058  0.2578  0.7246
 5054SOL    HW126798   2.474   2.199   3.679  1.6723 -1.8244 -0.8884
 5054SOL    HW226799   2.404   2.113   3.571  0.6330  0.8870 -1.1149
 5055SOL     OW26800   2.563   4.395   7.602 -0.2190 -0.3166  0.4373
 5055SOL    HW126801   2.616   4.453   7.658 -0.8389  0.0335  0.6650
 5055SOL    HW226802   2.498   4.458   7.572  0.3130 -0.1203 -0.2927
 5056SOL     OW26803   1.394   3.880   4.654  0.0598  0.4750 -0.0761
 5056SOL    HW126804   1.304   3.914   4.660 -0.4442 -0.7177 -0.8965
 5056SOL    HW226805   1.421   3.902   4.743  2.1154  0.3586 -0.6607
 5057SOL     OW26806   0.712   2.169   9.443  0.1643  0.1866  0.7704
 5057SOL    HW126807   0.642   2.146   9.382  0.2036 -1.1295  1.2234
 5057SOL    HW226808   0.741   2.258   9.421  0.2008  0.0999  0.4555
 5058SOL     OW26809   1.714   3.051  14.503 -0.2865 -0.1030 -0.3068
 5058SOL    HW126810   1.687   2.961  14.521 -1.1531  0.2390  0.0909
 5058SOL    HW226811   1.766   3.041  14.423  0.5606  0.1293  0.2151
 5059SOL     OW26812   1.612   0.673   2.431  0.5056  0.4899  0.1510
 5059SOL    HW126813   1.642   0.655   2.342  0.4654 -1.4957  0.5496
 5059SOL    HW226814   1.570   0.589   2.450  3.5385 -0.9851  0.3871
 5060SOL     OW26815   1.115   0.222   5.146  0.3252 -0.1707  0.5232
 5060SOL    HW126816   1.163   0.254   5.222 -1.1074 -0.7103  1.6431
 5060SOL    HW226817   1.178   0.153   5.123  0.3220  0.3057 -0.9396
 5061SOL     OW26818   1.843   4.374  17.561 -0.0376  0.0486 -0.4499
 5061SOL    HW126819   1.796   4.450  17.526  0.8818  0.5122 -0.6825
 5061SOL    HW226820   1.863   4.325  17.482 -1.7051  1.6972 -1.8684
 5062SOL     OW26821   0.789   3.082   6.160  0.2904 -0.1166 -0.3311
 5062SOL    HW126822   0.700   3.112   6.148  0.7854  1.1989 -0.6494
 5062SOL    HW226823   0.764   3.006   6.213  0.6827 -0.1970 -0.2557
 5063SOL     OW26824   4.058   3.175   8.318  0.0673  0.0284  0.1440
 5063SOL    HW126825   3.970   3.177   8.355  0.5718  1.3473  1.2642
 5063SOL    HW226826   4.052   3.124   8.237 -0.0410  3.4123 -1.9610
 5064SOL     OW26827   3.200   3.161  16.161  0.0934  0.3326  0.3719
 5064SOL    HW126828   3.275   3.111  16.131  0.3173 -0.3101  1.9962
 5064SOL    HW226829   3.214   3.246  16.120 -1.3806 -0.1703 -1.1791
 5065SOL     OW26830   0.766   1.592   8.345  0.4840 -0.2929 -0.5113
 5065SOL    HW126831   0.735   1.530   8.279 -0.3141  1.0775 -1.4422
 5065SOL    HW226832   0.777   1.534   8.420  2.6870  0.8246  0.0050
 5066SOL     OW26833   1.051   4.080   5.901 -0.0172  0.0867 -0.0019
 5066SOL    HW126834   1.023   4.089   5.810  1.3984 -0.2580 -0.4659
 5066SOL    HW226835   0.967   4.058   5.942  0.0326  2.1175  1.1943
 5067SOL     OW26836   4.036   1.476   5.150  0.4972 -0.0444  0.9045
 5067SOL    HW126837   3.976   1.548   5.172  1.1305  0.0698  2.2072
 5067SOL    HW226838   4.063   1.442   5.235 -0.9979 -3.3632  0.0678
 5068SOL     OW26839   2.758   1.569   4.514  0.0840 -0.0134 -0.8234
 5068SOL    HW126840   2.683   1.593   4.460 -0.7289  0.1551  0.3890
 5068SOL    HW226841   2.728   1.583   4.603 -1.6993  1.2313 -1.6268
 5069SOL     OW26842   3.341   4.288  14.791 -0.2163 -0.7099  0.5354
 5069SOL    HW126843   3.257   4.258  14.826 -0.2120 -2.0871 -0.6500
 5069SOL    HW226844   3.341   4.383  14.797  0.0611 -0.6284 -0.7248
 5070SOL     OW26845   4.358   3.292   6.555 -0.3509 -0.2164  0.2451
 5070SOL    HW126846   4.364   3.355   6.484  0.0630  1.1926  1.5242
 5070SOL    HW226847   4.265   3.310   6.571 -0.3644 -0.4712  0.4569
 5071SOL     OW26848   3.388   2.725   4.473 -1.2160 -0.1202  0.1949
 5071SOL    HW126849   3.419   2.802   4.520  1.3711 -0.8831 -0.2509
 5071SOL    HW226850   3.454   2.666   4.510 -1.5088  1.0608  2.6274
 5072SOL     OW26851   3.149   1.646  11.225  0.5686  0.2349 -0.1402
 5072SOL    HW126852   3.232   1.682  11.255  0.1511  0.9277  0.1671
 5072SOL    HW226853   3.174   1.593  11.150  0.7343  2.5869 -1.7330
 5073SOL     OW26854   1.810   1.420   8.733  0.1412 -0.3914 -0.1916
 5073SOL    HW126855   1.799   1.358   8.805 -3.6872  0.8693  0.3030
 5073SOL    HW226856   1.856   1.484   8.787  2.1118  0.4418 -2.8552
 5074SOL     OW26857   1.525   4.348   8.137 -0.1831 -0.2280  0.3945
 5074SOL    HW126858   1.567   4.294   8.070 -1.8364 -0.5581 -0.3708
 5074SOL    HW226859   1.507   4.284   8.205 -1.5497  0.7745  0.9554
 5075SOL     OW26860   2.688   4.536  12.813 -0.3962 -0.3174 -0.2150
 5075SOL    HW126861   2.631   4.582  12.752  1.8840  1.5889 -0.8832
 5075SOL    HW226862   2.700   4.595  12.888  0.1365 -0.6768 -0.0153
 5076SOL     OW26863   4.705   2.773  17.148 -0.2047 -0.4587 -0.3756
 5076SOL    HW126864   4.721   2.852  17.098 -1.6989  0.1748  0.1566
 5076SOL    HW226865   4.698   2.700  17.086 -0.3458 -0.3993 -0.4277
 5077SOL     OW26866   0.871   0.230   3.712 -0.1153  0.2754  0.2570
 5077SOL    HW126867   0.850   0.314   3.672  1.6623  0.4178 -0.3825
 5077SOL    HW226868   0.965   0.243   3.711 -0.2032  0.9107  0.5817
 5078SOL     OW26869   3.992   3.941  13.084 -0.0188  0.3752 -0.2508
 5078SOL    HW126870   4.078   3.901  13.073 -1.1604 -1.4812 -2.3815
 5078SOL    HW226871   4.029   4.023  13.117 -0.0526 -0.0845  0.8992
 5079SOL     OW26872   2.838   1.370   1.695  0.0412 -0.1172  0.2734
 5079SOL    HW126873   2.932   1.383   1.707 -0.0333 -0.3121  1.0652
 5079SOL    HW226874   2.831   1.286   1.740  0.6539 -0.1529  0.3012
 5080SOL     OW26875   3.078   1.125   4.488  0.5809  0.1169  0.2226
 5080SOL    HW126876   3.049   1.167   4.407  1.6525 -1.7817 -1.1514
 5080SOL    HW226877   3.087   1.034   4.458  3.3362 -0.4054  2.6261
 5081SOL     OW26878   0.571   0.760   0.371  0.1619  0.0269  0.0880
 5081SOL    HW126879   0.534   0.740   0.457 -1.5065 -0.1172 -0.6628
 5081SOL    HW226880   0.612   0.845   0.388  2.1701 -0.6797 -1.2823
 5082SOL     OW26881   2.521   4.595   2.212 -0.3785  0.6414  0.2352
 5082SOL    HW126882   2.454   4.583   2.144 -0.6761 -3.4495  1.2796
 5082SOL    HW226883   2.533   4.689   2.226 -0.3138  0.3877  1.8947
 5083SOL     OW26884   3.729   1.042   2.814 -0.2475  0.2377 -0.1086
 5083SOL    HW126885   3.661   0.977   2.796 -0.7050  0.2006  1.7783
 5083SOL    HW226886   3.806   0.987   2.831  0.0159  0.6350 -0.0048
 5084SOL     OW26887   0.028   0.193  10.876  0.6499 -0.2614 -0.3163
 5084SOL    HW126888   0.121   0.172  10.884  0.6617 -0.1156 -0.0753
 5084SOL    HW226889   4.731   0.109  10.908 -0.6380 -0.2526 -1.6482
 5085SOL     OW26890   1.157   4.617  16.663  0.0890  0.7185  0.0765
 5085SOL    HW126891   1.102   4.579  16.732  0.7515 -0.1449  0.1335
 5085SOL    HW226892   1.087   4.638  16.600 -0.9013 -1.6291  0.3615
 5086SOL     OW26893   1.349   2.100   1.588  0.0905  0.2251 -0.5482
 5086SOL    HW126894   1.369   2.027   1.647 -2.1276 -0.3703 -0.5079
 5086SOL    HW226895   1.254   2.086   1.582 -0.0642  0.3194  1.6325
 5087SOL     OW26896   2.720   2.088   5.067  0.1975 -0.1195  0.9687
 5087SOL    HW126897   2.661   2.016   5.086 -0.8572  0.4513 -0.1529
 5087SOL    HW226898   2.663   2.165   5.066  1.9885  1.2318  2.1450
 5088SOL     OW26899   0.787   0.915   8.023 -0.2119  0.1299 -0.1508
 5088SOL    HW126900   0.880   0.912   8.047  0.1325  3.2740 -1.1039
 5088SOL    HW226901   0.765   0.825   7.999 -0.8619  0.7955 -2.0288
 5089SOL     OW26902   1.300   2.705   8.473  0.2101  0.2567 -0.0680
 5089SOL    HW126903   1.343   2.644   8.413 -1.7752 -0.7386 -0.4765
 5089SOL    HW226904   1.288   2.771   8.405  2.5976 -2.1652 -2.8243
 5090SOL     OW26905   4.348   0.121   7.033 -0.4541  0.0548  0.2460
 5090SOL    HW126906   4.406   0.069   6.977  0.7633 -1.0402  2.5060
 5090SOL    HW226907   4.266   0.101   6.988 -0.0702  2.5291 -1.5274
 5091SOL     OW26908   3.535   0.472   4.451 -0.2778 -0.4149 -0.0965
 5091SOL    HW126909   3.595   0.530   4.498 -3.2670  0.4051  2.6205
 5091SOL    HW226910   3.489   0.534   4.394  1.4722  1.2557  0.3261
 5092SOL     OW26911   3.093   4.023   0.765 -0.0907 -0.6639 -0.0289
 5092SOL    HW126912   3.082   4.045   0.857  1.0605  0.1692 -0.0938
 5092SOL    HW226913   3.122   3.933   0.775 -0.1478 -0.7780 -0.8599
 5093SOL     OW26914   3.548   2.621  10.678 -0.0416  0.0350 -0.1372
 5093SOL    HW126915   3.638   2.595  10.698 -0.7467 -1.1520  1.4452
 5093SOL    HW226916   3.499   2.599  10.757 -2.5459  2.0269 -1.1381
 5094SOL     OW26917   0.207   1.681   6.896 -0.4067 -0.0855  0.1953
 5094SOL    HW126918   0.162   1.682   6.981  2.1633  0.1431  1.5371
 5094SOL    HW226919   0.291   1.650   6.929 -0.9014 -1.5603  0.0778
 5095SOL     OW26920   3.621   1.621   2.552  0.1345 -0.7361  0.1858
 5095SOL    HW126921   3.700   1.605   2.500 -0.5234 -0.8665 -0.7814
 5095SOL    HW226922   3.656   1.660   2.632 -0.8297 -1.0571  0.7671
 5096SOL     OW26923   2.752   2.362   8.930  0.5608  0.4739  0.0512
 5096SOL    HW126924   2.789   2.289   8.881 -0.4099 -0.2615  0.4253
 5096SOL    HW226925   2.756   2.329   9.019 -0.0403 -3.8917 -1.5366
 5097SOL     OW26926   4.302   1.122  10.389 -0.0376 -0.3093 -0.9397
 5097SOL    HW126927   4.223   1.097  10.340 -0.3338 -1.4206  0.1110
 5097SOL    HW226928   4.319   1.212  10.361 -0.5996  0.4333  1.0339
 5098SOL     OW26929   0.190   3.733   2.781 -0.5396 -0.4441 -0.0200
 5098SOL    HW126930   0.124   3.671   2.749 -0.9272 -0.6365  1.1720
 5098SOL    HW226931   0.148   3.750   2.865 -0.7088  0.8988 -0.3787
 5099SOL     OW26932   4.310   0.201  14.893  0.5683  0.1586  0.4151
 5099SOL    HW126933   4.301   0.111  14.921  2.6007 -0.2044 -0.1075
 5099SOL    HW226934   4.288   0.203  14.799 -1.5929  1.3146  0.9367
 5100SOL     OW26935   3.038   1.323   6.320  0.1413  0.0069 -0.0067
 5100SOL    HW126936   3.011   1.334   6.411  1.1275 -2.8007  0.6173
 5100SOL    HW226937   3.128   1.357   6.316  0.3394 -0.3574  1.3025
 5101SOL     OW26938   2.037   1.833   7.466 -0.3862 -0.4206 -0.1428
 5101SOL    HW126939   1.995   1.881   7.538  0.0453  1.4721 -1.1467
 5101SOL    HW226940   1.969   1.836   7.399 -0.5519  1.9036  0.1029
 5102SOL     OW26941   0.845   1.505   9.110  0.4363 -0.1276  0.6376
 5102SOL    HW126942   0.892   1.456   9.177 -0.4339 -0.2450  1.1624
 5102SOL    HW226943   0.762   1.462   9.129 -0.3336  0.1024 -2.2249
 5103SOL     OW26944   0.275   2.807   8.963  0.0433  0.0972  0.0727
 5103SOL    HW126945   0.359   2.850   8.945 -0.4811  0.8297 -0.6586
 5103SOL    HW226946   0.249   2.831   9.053  1.1001  0.4469  0.2813
 5104SOL     OW26947   4.234   2.436   4.574  0.9798  0.8862 -0.5301
 5104SOL    HW126948   4.258   2.495   4.646  1.2490 -1.1661  1.0454
 5104SOL    HW226949   4.207   2.361   4.626  0.6146  2.1275  1.0646
 5105SOL     OW26950   2.535   3.848  16.875 -0.6440 -0.5764  0.0682
 5105SOL    HW126951   2.462   3.899  16.911 -0.7797 -0.2927 -0.6006
 5105SOL    HW226952   2.502   3.845  16.785 -0.1977 -0.8194 -0.0877
 5106SOL     OW26953   0.905   2.753   5.445 -0.0119 -0.4033  0.1206
 5106SOL    HW126954   0.843   2.804   5.393  0.4646  1.8249  1.7030
 5106SOL    HW226955   0.973   2.727   5.382 -0.1699  0.8064 -0.5522
 5107SOL     OW26956   3.999   2.785   4.549 -0.4012 -0.8854  0.7158
 5107SOL    HW126957   3.985   2.708   4.605 -2.3702 -0.1589  1.2253
 5107SOL    HW226958   4.092   2.801   4.559 -0.1174 -1.3238 -1.2190
 5108SOL     OW26959   4.634   2.312   2.325  0.6069 -0.6259  0.2343
 5108SOL    HW126960   4.658   2.255   2.398 -0.4491 -1.5668 -0.1427
 5108SOL    HW226961   4.543   2.327   2.351  1.8273  2.7600  2.5531
 5109SOL     OW26962   3.969   3.261   1.904  0.1442 -0.2352 -0.3578
 5109SOL    HW126963   3.929   3.268   1.991 -1.8637  0.0062 -1.2900
 5109SOL    HW226964   3.888   3.241   1.857 -0.2142  1.5849 -0.5121
 5110SOL     OW26965   3.069   2.979   3.975 -0.2658 -0.0270  0.1494
 5110SOL    HW126966   3.053   3.066   3.940  2.5380  0.0142 -1.0596
 5110SOL    HW226967   2.982   2.950   4.002  0.2413  0.4312  2.2965
 5111SOL     OW26968   3.445   2.392   7.448  0.2150  0.0582 -0.4516
 5111SOL    HW126969   3.417   2.309   7.488 -0.2802  1.2728  1.6968
 5111SOL    HW226970   3.480   2.437   7.524  0.5953 -0.1750 -0.4836
 5112SOL     OW26971   3.561   3.817   3.516 -0.1718  0.1938 -0.1918
 5112SOL    HW126972   3.620   3.880   3.559  2.1313 -0.6054 -2.1280
 5112SOL    HW226973   3.482   3.871   3.511 -0.3920 -0.1367 -0.2675
 5113SOL     OW26974   4.665   3.981   8.250  1.0733 -0.5992  0.1555
 5113SOL    HW126975   4.682   3.887   8.260 -1.8031 -1.3136 -1.7597
 5113SOL    HW226976   4.647   3.974   8.157  0.2527 -1.1670  0.3503
 5114SOL     OW26977   0.594   2.580   4.643 -0.2580 -0.0493 -0.0067
 5114SOL    HW126978   0.577   2.632   4.722 -3.3434 -1.5831  0.3679
 5114SOL    HW226979   0.618   2.493   4.676  0.1407 -0.0129 -0.2114
 5115SOL     OW26980   4.615   2.978   3.049  0.0963  0.1572 -0.2365
 5115SOL    HW126981   4.664   2.908   3.005 -0.7631 -0.3735 -0.3351
 5115SOL    HW226982   4.643   3.048   2.991  1.6856 -1.3460 -1.2987
 5116SOL     OW26983   2.876   3.737   6.831 -0.0569 -0.1171  0.1981
 5116SOL    HW126984   2.785   3.732   6.861 -0.0599 -0.1272  0.1873
 5116SOL    HW226985   2.882   3.677   6.756  0.2568 -2.4766  2.1177
 5117SOL     OW26986   2.173   3.849   7.182 -0.0859 -0.4592 -0.0907
 5117SOL    HW126987   2.085   3.884   7.168  0.1102  0.5465  1.1876
 5117SOL    HW226988   2.157   3.755   7.175 -2.0701 -0.0763 -0.5596
 5118SOL     OW26989   1.633   0.765   3.025 -0.6952 -0.1484 -0.2846
 5118SOL    HW126990   1.590   0.779   2.940 -0.2544  4.1808  0.2030
 5118SOL    HW226991   1.710   0.822   3.020  0.8701 -2.2534  0.1662
 5119SOL     OW26992   1.631   3.347   3.475  0.0446  0.2098  0.1451
 5119SOL    HW126993   1.539   3.323   3.463  0.2096  0.3465 -1.3919
 5119SOL    HW226994   1.626   3.438   3.502  1.2790  0.5505 -0.7858
 5120SOL     OW26995   4.117   0.782   5.984 -0.5016 -0.6564  0.2220
 5120SOL    HW126996   4.084   0.871   5.970  1.1515  0.0271  0.7488
 5120SOL    HW226997   4.139   0.753   5.895 -1.5950  1.8510 -0.8795
 5121SOL     OW26998   0.346   3.388  10.571  0.0996  0.6538 -0.2934
 5121SOL    HW126999   0.389   3.387  10.485 -0.6109  0.0442 -0.6353
 5121SOL    HW227000   0.263   3.432  10.549 -0.5029 -1.1447 -1.5449
 5122SOL     OW27001   0.846   0.141   2.332  0.2324  0.4137 -0.0467
 5122SOL    HW127002   0.865   0.184   2.416 -1.6915 -0.0870  0.6501
 5122SOL    HW227003   0.824   0.225   2.291  3.1555  1.0931 -0.1835
 5123SOL     OW27004   1.771   1.993   4.047 -0.1210 -0.0863 -0.1796
 5123SOL    HW127005   1.728   1.909   4.032  0.2389  0.0749 -2.1111
 5123SOL    HW227006   1.859   1.964   4.021 -0.7058 -1.0475 -1.0773
 5124SOL     OW27007   2.335   3.384   8.449  0.2048 -0.1523  0.0889
 5124SOL    HW127008   2.337   3.442   8.525 -0.8101  1.2031 -0.9274
 5124SOL    HW227009   2.389   3.318   8.492 -0.0458 -0.5063 -0.1403
 5125SOL     OW27010   1.134   2.228  10.544  0.7903 -0.4242  0.1105
 5125SOL    HW127011   1.123   2.193  10.632 -0.1328 -2.0785 -0.6729
 5125SOL    HW227012   1.224   2.261  10.546  0.9910 -0.8299 -2.6665
 5126SOL     OW27013   3.582   4.134   4.347 -0.2707 -0.0389  0.1085
 5126SOL    HW127014   3.636   4.213   4.341  1.4450 -1.2908 -1.0976
 5126SOL    HW227015   3.565   4.109   4.256 -1.6357  1.7088 -0.1043
 5127SOL     OW27016   4.008   4.554   5.504  0.4452  0.0238  0.5128
 5127SOL    HW127017   3.986   4.627   5.563 -0.4134 -1.0957  1.5972
 5127SOL    HW227018   4.025   4.607   5.427 -0.0995 -0.9843 -0.2913
 5128SOL     OW27019   3.346   2.369   0.090 -0.0121 -0.5072 -0.1834
 5128SOL    HW127020   3.292   2.387   0.013 -0.0152  0.3005  0.0050
 5128SOL    HW227021   3.305   2.423   0.158 -0.0016  0.0402 -0.6094
 5129SOL     OW27022   0.930   4.296   2.545  0.0885 -0.1772  0.2311
 5129SOL    HW127023   0.966   4.208   2.535  0.8358  0.3420 -1.6639
 5129SOL    HW227024   0.875   4.307   2.468 -3.1777  0.4695  2.6677
 5130SOL     OW27025   4.171   2.544   2.058 -0.0341 -0.0214 -0.2590
 5130SOL    HW127026   4.188   2.496   2.139 -1.5564 -1.6385 -0.8938
 5130SOL    HW227027   4.092   2.502   2.023  0.0922 -0.6724  0.2312
 5131SOL     OW27028   0.545   0.105   6.959  0.6631  0.0538  0.1823
 5131SOL    HW127029   0.476   0.155   7.003 -0.2344  1.2746 -2.6544
 5131SOL    HW227030   0.555   0.032   7.020  0.3009 -1.2440 -1.3072
 5132SOL     OW27031   0.094   4.314   4.880 -0.2786 -0.1554 -0.2567
 5132SOL    HW127032   0.168   4.262   4.848 -0.8434  0.8029 -3.1615
 5132SOL    HW227033   0.142   4.370   4.940  0.6941 -0.6601 -0.5594
 5133SOL     OW27034   2.769   3.983   5.173  0.0812 -0.2322  0.1282
 5133SOL    HW127035   2.790   3.999   5.081  2.7938  1.0059  0.9461
 5133SOL    HW227036   2.834   3.922   5.207 -0.0028 -0.3311  0.1102
 5134SOL     OW27037   3.761   4.688   8.322  0.0880  0.0887  0.0848
 5134SOL    HW127038   3.675   4.729   8.329  0.4166  0.5774  1.2000
 5134SOL    HW227039   3.817   0.027   8.306 -0.8683  0.5458 -1.1070
 5135SOL     OW27040   0.358   1.183   1.358 -0.1721  0.2840  0.4212
 5135SOL    HW127041   0.273   1.226   1.349  0.7020  2.3486  2.0054
 5135SOL    HW227042   0.341   1.137   1.440 -2.0159  1.5129  0.7070
 5136SOL     OW27043   3.115   3.874   4.889 -0.2686  0.8764  0.4208
 5136SOL    HW127044   3.200   3.897   4.850 -0.0841 -0.4489  0.0678
 5136SOL    HW227045   3.072   3.814   4.829  1.1111 -0.1287  0.4290
 5137SOL     OW27046   2.477   4.220   5.671 -0.0610 -0.2936  0.6920
 5137SOL    HW127047   2.564   4.234   5.708  0.0591  0.0792  0.2714
 5137SOL    HW227048   2.421   4.219   5.749  0.3316  1.6833  0.9997
 5138SOL     OW27049   1.787   1.427   3.061  0.2902  0.1511  0.7585
 5138SOL    HW127050   1.801   1.336   3.036  0.6414  0.3972  0.0368
 5138SOL    HW227051   1.829   1.430   3.147  0.0534  2.2854  0.8141
 5139SOL     OW27052   0.026   3.509  17.164 -0.5063  0.0567 -0.2178
 5139SOL    HW127053   4.680   3.544  17.132 -0.1168  0.1052 -1.1836
 5139SOL    HW227054   4.735   3.470  17.247 -0.4074 -0.4081 -0.4055
 5140SOL     OW27055   4.214   3.164   6.772  0.2712 -0.1910  0.1278
 5140SOL    HW127056   4.289   3.181   6.715 -0.8553  1.7092 -0.7855
 5140SOL    HW227057   4.153   3.236   6.761 -1.9131 -1.8887  1.1868
 5141SOL     OW27058   0.193   2.824   4.575  0.1373 -0.0275 -0.0871
 5141SOL    HW127059   0.138   2.827   4.497  0.5713  2.1166 -0.3065
 5141SOL    HW227060   0.271   2.867   4.540  2.3229 -2.0141  2.3831
 5142SOL     OW27061   0.134   0.936  15.986  0.4622 -0.0951  0.0914
 5142SOL    HW127062   0.134   0.884  15.906  0.4720  0.8198 -0.4915
 5142SOL    HW227063   0.222   0.972  15.984  0.0635  1.0170  2.0244
 5143SOL     OW27064   0.439   3.325   2.651 -0.5431 -0.4994 -0.1258
 5143SOL    HW127065   0.410   3.414   2.632 -0.1314 -0.0468  1.3381
 5143SOL    HW227066   0.493   3.307   2.574 -0.0889 -0.4385  0.1797
 5144SOL     OW27067   1.843   0.193  16.742  0.3189  0.1893  0.2085
 5144SOL    HW127068   1.756   0.156  16.759 -0.0290  0.2301 -1.5099
 5144SOL    HW227069   1.830   0.253  16.669  2.3725 -0.8258 -0.9754
 5145SOL     OW27070   1.352   0.004  11.962  0.3752  0.1840  0.6666
 5145SOL    HW127071   1.393   0.037  11.882  0.0253 -1.8775 -0.3700
 5145SOL    HW227072   1.306   0.080  11.995 -1.2754 -0.2239 -0.7055
 5146SOL     OW27073   1.289   0.137   9.525 -0.0360  0.2477  0.0521
 5146SOL    HW127074   1.357   0.093   9.473 -0.4037 -1.2052  0.8115
 5146SOL    HW227075   1.223   0.069   9.511  1.9548 -1.4486 -1.2392
 5147SOL     OW27076   4.621   0.027   5.766  0.3870 -0.3532  0.1881
 5147SOL    HW127077   4.651   4.678   5.735  0.0332  0.0229 -1.1649
 5147SOL    HW227078   4.702   0.077   5.757 -0.3263  0.8936  0.6491
 5148SOL     OW27079   2.226   2.754   2.133 -0.0367  0.1203 -0.0728
 5148SOL    HW127080   2.162   2.820   2.161  0.2261  1.4497 -2.7023
 5148SOL    HW227081   2.206   2.741   2.041 -1.1194 -2.3038  0.4927
 5149SOL     OW27082   3.006   4.307   0.771  0.0255 -0.2459 -0.5717
 5149SOL    HW127083   3.020   4.232   0.713 -0.6541 -0.8028 -0.0067
 5149SOL    HW227084   3.094   4.303   0.808 -0.3487 -2.2033  0.1031
 5150SOL     OW27085   4.382   4.208   2.113  0.3431  0.1039 -0.0154
 5150SOL    HW127086   4.357   4.275   2.049  0.3035  0.3433  0.2455
 5150SOL    HW227087   4.327   4.141   2.073 -0.2090 -0.0127  0.9306
 5151SOL     OW27088   0.823   1.561   0.736  0.5022  0.8422  0.3297
 5151SOL    HW127089   0.895   1.589   0.680 -0.8549  0.1169 -1.7807
 5151SOL    HW227090   0.766   1.638   0.732  0.4492  0.7962  0.2087
 5152SOL     OW27091   1.482   0.562   4.193  0.1238  0.3551 -0.2433
 5152SOL    HW127092   1.390   0.573   4.217  0.1960  0.9290 -0.2215
 5152SOL    HW227093   1.504   0.655   4.189 -2.2527  0.9797  1.6378
 5153SOL     OW27094   1.368   4.689   2.990  0.0641 -0.2707 -0.5764
 5153SOL    HW127095   1.453   4.708   2.950  0.3904  0.2470  0.3725
 5153SOL    HW227096   1.317   4.671   2.911 -0.6058 -0.1357 -0.1728
 5154SOL     OW27097   0.713   1.524   9.386 -0.0345  0.6673  0.4895
 5154SOL    HW127098   0.718   1.443   9.438  3.0568  0.1569 -0.6190
 5154SOL    HW227099   0.666   1.486   9.312 -0.4421 -1.7558  1.9540
 5155SOL     OW27100   0.058   4.675  15.293 -0.5081 -0.1485  0.7705
 5155SOL    HW127101   0.087   4.642  15.378 -1.3509  3.6951  2.5430
 5155SOL    HW227102   4.725   4.736  15.312 -2.5663 -2.2061 -0.1897
 5156SOL     OW27103   3.208   3.849  17.127  0.0943  0.0355 -0.1159
 5156SOL    HW127104   3.249   3.919  17.178 -0.9976  1.1920 -0.8265
 5156SOL    HW227105   3.184   3.786  17.195 -0.6179 -1.1451 -1.4743
 5157SOL     OW27106   0.442   1.817   5.564 -0.2732  0.5237  0.5476
 5157SOL    HW127107   0.360   1.837   5.518 -0.6479 -0.1557  0.9047
 5157SOL    HW227108   0.422   1.852   5.651  0.7808  0.1539  0.9355
 5158SOL     OW27109   2.339   2.360   3.239  0.2127 -0.0285 -0.2543
 5158SOL    HW127110   2.307   2.312   3.315 -0.8522 -0.8385 -1.2126
 5158SOL    HW227111   2.397   2.291   3.205  0.3796 -0.9255  1.8837
 5159SOL     OW27112   0.073   3.581  11.666 -0.0933 -0.0919  0.3952
 5159SOL    HW127113   0.036   3.670  11.663 -0.8439 -0.3627  1.6708
 5159SOL    HW227114   0.096   3.572  11.759 -2.6141  0.4575  1.0767
 5160SOL     OW27115   4.095   0.445   2.058 -0.4617 -1.1577  0.5146
 5160SOL    HW127116   4.142   0.443   2.142 -0.3804  0.3258  0.5115
 5160SOL    HW227117   4.148   0.381   2.012 -2.2930 -0.4162 -2.5922
 5161SOL     OW27118   1.276   3.923   2.842  0.5194  0.5953 -0.3391
 5161SOL    HW127119   1.291   4.016   2.828  3.5273  0.6351  3.0240
 5161SOL    HW227120   1.361   3.892   2.808  0.0091 -2.9922  1.6774
 5162SOL     OW27121   1.412   0.433   8.963 -0.0663  0.4570  0.1956
 5162SOL    HW127122   1.335   0.400   8.918 -0.0601 -0.1082  0.6091
 5162SOL    HW227123   1.477   0.437   8.893 -0.4948  0.9278 -0.1779
 5163SOL     OW27124   2.138   4.733  16.179 -0.3871 -0.0911 -0.3337
 5163SOL    HW127125   2.163   4.678  16.105 -2.0226 -1.0495 -0.1714
 5163SOL    HW227126   2.192   0.071  16.156 -1.6481  0.5650 -1.1358
 5164SOL     OW27127   0.357   4.321   4.611 -0.2499  0.3536  0.2807
 5164SOL    HW127128   0.310   4.241   4.637  0.4302  0.0630  0.6017
 5164SOL    HW227129   0.416   4.288   4.543  0.6634  0.3634  1.0706
 5165SOL     OW27130   1.108   2.330   7.378  0.4416 -0.7058 -0.2065
 5165SOL    HW127131   1.051   2.406   7.381  1.8442  0.2711  1.7211
 5165SOL    HW227132   1.056   2.264   7.424 -0.5270  0.2109 -0.0111
 5166SOL     OW27133   1.447   0.910   3.238  0.2432 -0.1377  0.5336
 5166SOL    HW127134   1.469   1.003   3.246 -0.6901  0.0594  0.8206
 5166SOL    HW227135   1.373   0.909   3.177 -1.5369  1.1233  2.6911
 5167SOL     OW27136   1.069   1.248   8.484  0.3039  0.1231 -0.7958
 5167SOL    HW127137   1.075   1.212   8.396  1.1602 -2.4248  0.2943
 5167SOL    HW227138   1.160   1.268   8.502  0.5555  0.0236 -1.9506
 5168SOL     OW27139   2.242   0.981   7.287 -0.2738  0.1427  0.1613
 5168SOL    HW127140   2.219   1.068   7.254  0.8725  0.3499 -0.0695
 5168SOL    HW227141   2.226   0.988   7.381 -2.3494  0.5867 -0.2139
 5169SOL     OW27142   3.245   0.724   3.336 -0.1061 -0.3211 -0.4604
 5169SOL    HW127143   3.189   0.647   3.334 -2.2768  1.2282  1.2306
 5169SOL    HW227144   3.305   0.694   3.405  0.6844  0.7833 -0.6631
 5170SOL     OW27145   4.578   1.536  13.743  0.5280 -0.4525  0.4576
 5170SOL    HW127146   4.490   1.570  13.760 -0.1836 -1.8502 -0.4620
 5170SOL    HW227147   4.590   1.582  13.660 -0.1232 -1.2980 -0.1038
 5171SOL     OW27148   3.091   3.820  16.824 -0.0583  0.1133  0.1054
 5171SOL    HW127149   3.075   3.814  16.918  1.9093  1.5997  0.5400
 5171SOL    HW227150   3.001   3.822  16.792 -0.3280 -0.0034  0.8692
 5172SOL     OW27151   2.110   0.447   4.173  0.6221 -0.3120 -0.1606
 5172SOL    HW127152   2.018   0.441   4.144  1.1040  1.3078 -1.9925
 5172SOL    HW227153   2.095   0.412   4.261  0.2632  0.2079 -0.0152
 5173SOL     OW27154   0.658   1.910   3.825 -0.5205 -0.0410  0.5280
 5173SOL    HW127155   0.622   1.988   3.783 -1.1589 -0.9886 -0.7115
 5173SOL    HW227156   0.616   1.848   3.765  0.5748 -0.2331 -0.0448
 5174SOL     OW27157   3.078   1.974  12.673 -0.1735 -0.2612  0.0365
 5174SOL    HW127158   3.028   2.047  12.636 -1.1167 -2.4661 -2.9509
 5174SOL    HW227159   3.168   1.997  12.647 -0.7194  2.1021  0.1763
 5175SOL     OW27160   2.567   0.189  12.147  0.5304  0.3095  0.0665
 5175SOL    HW127161   2.585   0.112  12.093 -1.1338 -0.2722  0.3397
 5175SOL    HW227162   2.558   0.249  12.073 -2.1878  0.5472  0.5934
 5176SOL     OW27163   1.384   4.052  12.747 -0.0390 -0.2219  0.3202
 5176SOL    HW127164   1.400   3.977  12.804  0.8888 -0.9053 -0.8619
 5176SOL    HW227165   1.319   4.014  12.688 -0.0468 -2.8862  2.0472
 5177SOL     OW27166   0.364   4.400  13.562 -0.2317 -0.5789  0.5168
 5177SOL    HW127167   0.300   4.446  13.616 -0.4401  0.6489 -0.7718
 5177SOL    HW227168   0.371   4.452  13.482  1.1552 -0.9532  0.3922
 5178SOL     OW27169   0.738   1.164  10.759  0.4705  0.1392 -0.0665
 5178SOL    HW127170   0.769   1.121  10.679 -0.5870  1.1141 -0.9965
 5178SOL    HW227171   0.691   1.090  10.798 -0.6183  0.6693 -0.3726
 5179SOL     OW27172   4.328   4.403   4.509  0.4481  0.2494 -0.2719
 5179SOL    HW127173   4.395   4.427   4.573  1.9029  0.5594 -1.9107
 5179SOL    HW227174   4.385   4.394   4.432  0.3726 -0.5838 -0.2300
 5180SOL     OW27175   4.490   2.629  15.250  0.6879 -0.2372  0.7395
 5180SOL    HW127176   4.475   2.718  15.283 -0.7458 -0.2051  0.0057
 5180SOL    HW227177   4.549   2.645  15.177  0.3028 -0.0743  0.4657
 5181SOL     OW27178   0.854   0.461   8.100 -0.3987 -0.1572 -0.6894
 5181SOL    HW127179   0.829   0.548   8.069 -0.6726 -0.1428 -0.4275
 5181SOL    HW227180   0.832   0.396   8.033  0.5145 -0.6619 -0.4927
 5182SOL     OW27181   2.287   1.916  11.502  0.0783 -0.3804 -0.4276
 5182SOL    HW127182   2.359   1.961  11.545  0.6132 -1.9191  0.2581
 5182SOL    HW227183   2.313   1.911  11.410  1.3296 -1.5993 -0.0044
 5183SOL     OW27184   4.183   3.940   5.292  0.3610 -0.1475 -0.0218
 5183SOL    HW127185   4.107   3.966   5.344  0.5688 -2.5904  1.4934
 5183SOL    HW227186   4.261   3.946   5.347  1.6046  2.8234 -2.1294
 5184SOL     OW27187   1.627   3.330  12.560 -0.0995  0.1408  0.4303
 5184SOL    HW127188   1.595   3.370  12.640 -2.5090 -2.3175  0.6914
 5184SOL    HW227189   1.699   3.275  12.592 -1.2263  0.9558  4.2968
 5185SOL     OW27190   2.830   2.646   5.017  0.1462  0.6225  0.2036
 5185SOL    HW127191   2.834   2.609   4.929 -3.1429  1.8946 -0.4838
 5185SOL    HW227192   2.802   2.737   5.008 -0.4993  0.2842 -1.2355
 5186SOL     OW27193   0.529   1.367  12.649  0.2487  0.5189 -0.3550
 5186SOL    HW127194   0.467   1.407  12.588 -0.7254 -2.3938 -1.3110
 5186SOL    HW227195   0.552   1.289  12.599  1.5187 -0.7143  2.1413
 5187SOL     OW27196   1.131   3.124   5.141 -0.5816 -0.1607  0.0790
 5187SOL    HW127197   1.148   3.205   5.188 -1.4081  1.0135 -1.6575
 5187SOL    HW227198   1.125   3.151   5.049 -0.0465  0.2822  0.1746
 5188SOL     OW27199   0.611   2.638   6.732 -0.1915 -0.4768  0.0006
 5188SOL    HW127200   0.594   2.699   6.804 -0.1369 -0.5068  0.0382
 5188SOL    HW227201   0.601   2.704   6.663  0.8233 -2.3210 -1.9026
 5189SOL     OW27202   0.510   0.543   2.940 -0.3282  0.4005  0.1043
 5189SOL    HW127203   0.478   0.608   3.003 -0.4990  0.8274 -0.4248
 5189SOL    HW227204   0.540   0.595   2.866 -1.2602  1.5442  0.5265
 5190SOL     OW27205   3.416   1.453   5.104  1.0017  0.2965  0.1879
 5190SOL    HW127206   3.477   1.476   5.174  0.8880 -0.5035  0.5488
 5190SOL    HW227207   3.419   1.357   5.107 -2.3701  0.1428 -1.1745
 5191SOL     OW27208   4.195   3.539  14.703  0.2432 -0.0457  0.2981
 5191SOL    HW127209   4.102   3.559  14.690  0.8576  2.4934 -0.0731
 5191SOL    HW227210   4.217   3.521  14.612 -1.3428 -0.4686 -0.0016
 5192SOL     OW27211   1.216   2.977   4.756 -0.6504  0.6436 -0.0442
 5192SOL    HW127212   1.277   2.904   4.766  0.7758  1.8155 -0.1642
 5192SOL    HW227213   1.128   2.939   4.747 -0.2568 -0.1390 -0.5948
 5193SOL     OW27214   2.055   3.234  13.008 -0.1676  0.3835  0.3136
 5193SOL    HW127215   2.087   3.306  13.063  1.5734 -1.4588  1.6754
 5193SOL    HW227216   2.049   3.161  13.069 -0.0695  1.6304  1.8321
 5194SOL     OW27217   2.918   4.199   6.804 -0.3645  0.8952 -0.4273
 5194SOL    HW127218   2.904   4.135   6.874 -0.5233  1.9119  0.4717
 5194SOL    HW227219   2.861   4.275   6.820 -0.8788  0.8925 -2.2267
 5195SOL     OW27220   4.022   0.787   3.407  0.2125 -0.3096 -0.2186
 5195SOL    HW127221   3.933   0.809   3.433  1.0285  2.3223  0.3665
 5195SOL    HW227222   4.042   0.716   3.469  0.5864  0.5125  0.5944
 5196SOL     OW27223   2.735   1.010   4.582 -0.1294 -0.1546 -0.2774
 5196SOL    HW127224   2.787   0.951   4.528  0.6576 -0.0016  0.3233
 5196SOL    HW227225   2.779   0.992   4.665  0.4895  0.5130 -0.4665
 5197SOL     OW27226   1.722   0.913  13.368  0.0276 -0.4004 -0.2528
 5197SOL    HW127227   1.706   0.998  13.328  1.6133 -0.3888 -0.8917
 5197SOL    HW227228   1.741   0.935  13.459 -2.1401  2.2481 -0.4601
 5198SOL     OW27229   1.615   4.128   5.156 -0.4061  0.4079 -0.1807
 5198SOL    HW127230   1.575   4.209   5.123 -1.2879 -0.1139 -0.3984
 5198SOL    HW227231   1.706   4.151   5.137  0.0218 -1.1630 -0.0497
 5199SOL     OW27232   0.699   1.112   5.373 -1.2609 -0.8371 -1.0328
 5199SOL    HW127233   0.610   1.131   5.344 -1.6801 -2.0637 -0.5601
 5199SOL    HW227234   0.726   1.049   5.306  1.9575 -1.7643  1.1334
 5200SOL     OW27235   1.209   4.452   9.528 -0.2119 -0.0177  0.2833
 5200SOL    HW127236   1.206   4.480   9.620 -0.5755 -0.5594  0.4335
 5200SOL    HW227237   1.131   4.500   9.499  0.8936  0.9558 -1.1100
 5201SOL     OW27238   3.264   1.943   2.485 -0.3209 -0.8114 -0.2827
 5201SOL    HW127239   3.297   1.859   2.517 -0.7917 -0.2322  1.7650
 5201SOL    HW227240   3.317   1.949   2.406  0.1607 -0.8518  0.0341
 5202SOL     OW27241   3.482   1.807   8.641 -0.3597 -0.2927 -0.3768
 5202SOL    HW127242   3.566   1.782   8.603 -0.8788  1.6556 -2.8561
 5202SOL    HW227243   3.499   1.817   8.734 -0.6756  1.5163 -0.5091
 5203SOL     OW27244   3.522   1.573   0.236  0.0634 -0.1960  0.0706
 5203SOL    HW127245   3.464   1.640   0.273 -0.6589 -0.8401  0.1055
 5203SOL    HW227246   3.492   1.572   0.145 -1.0987  0.8282  0.4318
 5204SOL     OW27247   1.802   4.274   2.235  0.2573 -0.0592 -0.3603
 5204SOL    HW127248   1.801   4.208   2.304 -1.7227  0.0846 -0.2485
 5204SOL    HW227249   1.893   4.303   2.234 -0.2408  1.5980  2.0075
 5205SOL     OW27250   0.956   4.595   4.651  0.0465 -0.4029 -0.7075
 5205SOL    HW127251   0.952   4.656   4.724  2.4544 -1.7084  0.4892
 5205SOL    HW227252   0.868   4.608   4.614 -0.8002  0.6693  1.6913
 5206SOL     OW27253   1.465   4.208  10.984  0.4232 -0.4653 -0.6025
 5206SOL    HW127254   1.542   4.163  10.950 -0.1978 -0.3001 -2.2320
 5206SOL    HW227255   1.478   4.223  11.078 -0.3583  1.9386 -0.8690
 5207SOL     OW27256   1.819   0.810   8.676 -0.0872 -0.2647  0.7637
 5207SOL    HW127257   1.812   0.897   8.637 -0.4798 -1.4457 -1.8268
 5207SOL    HW227258   1.855   0.821   8.763  0.3027  0.6021  0.4955
 5208SOL     OW27259   1.125   3.343   6.459  0.8382 -0.8865 -0.1177
 5208SOL    HW127260   1.088   3.314   6.376  1.0475 -0.8829 -0.2139
 5208SOL    HW227261   1.106   3.436   6.458 -2.0757 -1.4790  2.5901
 5209SOL     OW27262   2.244   3.876   4.806  0.0933 -0.3747  0.6321
 5209SOL    HW127263   2.179   3.915   4.747 -0.0933 -0.8658  0.5043
 5209SOL    HW227264   2.329   3.898   4.769 -0.3224 -0.2468 -0.2487
 5210SOL     OW27265   2.678   2.818   5.814  0.2819 -0.0438 -0.5258
 5210SOL    HW127266   2.716   2.732   5.796 -2.8451 -1.5904  0.3801
 5210SOL    HW227267   2.739   2.868   5.758 -1.3139  1.3526 -1.0189
 5211SOL     OW27268   0.456   4.692   6.665  0.4650 -0.5367 -0.0113
 5211SOL    HW127269   0.409   4.627   6.717  0.8453  0.1836  1.2027
 5211SOL    HW227270   0.514   4.730   6.730  4.3574 -0.9615 -3.1944
 5212SOL     OW27271   1.391   2.133  14.018  0.4761  0.4676 -0.0570
 5212SOL    HW127272   1.482   2.160  14.029  1.1327 -1.7907 -0.0456
 5212SOL    HW227273   1.409   2.041  13.998  2.1460  1.1264 -1.5451
 5213SOL     OW27274   0.498   2.254  11.834  0.3806 -0.0636  0.0686
 5213SOL    HW127275   0.495   2.315  11.908  2.2971  1.3959 -1.0283
 5213SOL    HW227276   0.594   2.253  11.823  0.1684 -1.9722 -1.6515
 5214SOL     OW27277   2.871   0.086   4.772 -0.3919 -0.1206 -0.1207
 5214SOL    HW127278   2.877   0.042   4.856 -1.5410  1.0916  0.5886
 5214SOL    HW227279   2.799   0.148   4.778  1.3494  1.8150  1.1082
 5215SOL     OW27280   0.555   2.222   8.522  0.1205 -1.0043 -1.0680
 5215SOL    HW127281   0.625   2.161   8.544  0.1761 -0.0916  1.2270
 5215SOL    HW227282   0.485   2.160   8.502  0.9025 -1.8379 -1.2421
 5216SOL     OW27283   2.125   0.608  12.471 -0.2349  0.0172 -0.1786
 5216SOL    HW127284   2.045   0.557  12.459  1.6084 -2.2944 -2.6746
 5216SOL    HW227285   2.101   0.683  12.417  1.0570  1.8233  1.7657
 5217SOL     OW27286   3.421   3.060  13.102 -0.3222 -0.0003 -0.3660
 5217SOL    HW127287   3.452   2.976  13.068  1.5910 -0.1952  1.8885
 5217SOL    HW227288   3.366   3.091  13.030 -0.5498 -1.0981 -0.6711
 5218SOL     OW27289   3.857   1.653  15.711 -0.1728  0.0161  0.3352
 5218SOL    HW127290   3.802   1.582  15.679  0.5732 -1.2015  1.7585
 5218SOL    HW227291   3.947   1.630  15.686 -1.3428 -1.4341 -2.4759
 5219SOL     OW27292   4.097   1.867   7.395 -0.1745  0.9477 -0.5723
 5219SOL    HW127293   4.025   1.891   7.453 -1.4865 -0.3854 -1.6500
 5219SOL    HW227294   4.050   1.858   7.312 -0.7581 -2.4790  0.1483
 5220SOL     OW27295   0.491   2.638  12.337 -0.3306  0.0647  0.0104
 5220SOL    HW127296   0.522   2.651  12.426 -0.8022 -0.1991  0.2188
 5220SOL    HW227297   0.525   2.714  12.291 -0.1022  1.1852  2.0193
 5221SOL     OW27298   3.578   2.937   0.150 -0.3172  0.8137 -0.2191
 5221SOL    HW127299   3.614   2.904   0.068  0.9113  0.2923  0.5176
 5221SOL    HW227300   3.659   2.984   0.172  0.2137 -0.2853  0.2050
 5222SOL     OW27301   3.294   2.223   4.147 -0.2490 -0.1141  0.3190
 5222SOL    HW127302   3.291   2.263   4.234 -1.3526  0.9509 -0.2092
 5222SOL    HW227303   3.339   2.293   4.099  1.6799 -2.2308 -0.9710
 5223SOL     OW27304   0.928   0.401   4.611 -1.0693 -1.1520 -0.2056
 5223SOL    HW127305   0.921   0.463   4.538  1.8493 -0.5629  0.0019
 5223SOL    HW227306   0.972   0.330   4.564  1.1904  0.0107  0.1525
 5224SOL     OW27307   0.084   1.458  15.130 -0.0684  0.2599 -0.1440
 5224SOL    HW127308   0.160   1.403  15.150 -1.1434 -0.3311  2.2659
 5224SOL    HW227309   0.118   1.546  15.144 -1.6172  0.4589  2.4524
 5225SOL     OW27310   1.782   3.281  16.128 -0.0846 -0.1332 -0.7199
 5225SOL    HW127311   1.783   3.369  16.091 -0.5699 -0.0645 -0.5746
 5225SOL    HW227312   1.797   3.297  16.221  1.3210 -0.8961 -0.8229
 5226SOL     OW27313   3.796   0.080   6.130  0.3852  0.3234 -0.3975
 5226SOL    HW127314   3.731   0.150   6.127 -2.5167 -2.4761 -1.7132
 5226SOL    HW227315   3.750   0.008   6.173 -0.9021  1.6326  0.4401
 5227SOL     OW27316   4.260   0.864   7.780  0.4051  0.1368 -0.1566
 5227SOL    HW127317   4.283   0.956   7.766 -0.5293  0.4031  0.0603
 5227SOL    HW227318   4.347   0.831   7.804  0.8967 -0.2666 -2.4348
 5228SOL     OW27319   3.443   1.931   7.597 -0.0707  0.1318 -0.4264
 5228SOL    HW127320   3.475   1.921   7.686 -1.5510 -1.4092 -0.0707
 5228SOL    HW227321   3.442   2.026   7.593 -0.6592  0.1899  1.2773
 5229SOL     OW27322   1.514   2.182   7.357 -0.7931  0.5511  0.2602
 5229SOL    HW127323   1.587   2.155   7.302  0.5965  0.3764  2.2201
 5229SOL    HW227324   1.496   2.099   7.401  1.6348  0.5899  1.2815
 5230SOL     OW27325   3.936   2.415   1.937 -0.3668  0.2813 -0.4132
 5230SOL    HW127326   3.906   2.379   1.853  2.5942  1.6182 -2.0351
 5230SOL    HW227327   3.853   2.441   1.976 -1.1489 -0.8733 -1.2983
 5231SOL     OW27328   3.449   3.252   1.604  0.2072  0.1492 -0.1909
 5231SOL    HW127329   3.460   3.338   1.644  0.2571 -0.4331  1.0192
 5231SOL    HW227330   3.375   3.284   1.551 -0.9575 -1.4642  0.4698
 5232SOL     OW27331   2.282   1.774   8.273 -0.6665 -0.1742  0.4288
 5232SOL    HW127332   2.295   1.865   8.248  0.3807 -0.5599 -0.4194
 5232SOL    HW227333   2.368   1.749   8.239  0.1079  2.1664  0.6991
 5233SOL     OW27334   0.819   1.353  16.627  0.4204 -0.0382 -0.0805
 5233SOL    HW127335   0.784   1.352  16.538 -1.1486 -0.2161  0.5488
 5233SOL    HW227336   0.903   1.310  16.612 -0.5729 -2.4887  1.4697
 5234SOL     OW27337   3.485   4.583  13.336 -0.2002  0.1421 -0.2320
 5234SOL    HW127338   3.417   4.592  13.402 -0.2735  1.1200 -0.4306
 5234SOL    HW227339   3.455   4.502  13.295 -0.9814  1.2516 -1.8786
 5235SOL     OW27340   3.861   1.252   8.198 -0.0747 -0.1984  0.1246
 5235SOL    HW127341   3.920   1.290   8.263 -0.9214  0.8461  0.2794
 5235SOL    HW227342   3.927   1.220   8.136  1.8725 -0.2844  2.2280
 5236SOL     OW27343   3.213   3.517  16.769 -0.1191  0.1181  0.0351
 5236SOL    HW127344   3.130   3.562  16.753 -0.7113 -0.3899  1.7182
 5236SOL    HW227345   3.269   3.589  16.797  0.5047 -0.5181  0.4165
 5237SOL     OW27346   0.581   0.450   1.728  0.4956  0.4741 -0.2511
 5237SOL    HW127347   0.535   0.447   1.643 -1.2558  1.0905  0.6718
 5237SOL    HW227348   0.561   0.362   1.761 -1.0946  1.7157  2.0634
 5238SOL     OW27349   2.909   3.749   8.482 -0.2916 -0.2842  0.3657
 5238SOL    HW127350   2.955   3.665   8.490  1.9097  0.6774 -2.2398
 5238SOL    HW227351   2.982   3.804   8.510  1.0960 -2.0570  0.2448
 5239SOL     OW27352   2.929   1.796   2.160  0.1354 -0.1218  0.5209
 5239SOL    HW127353   2.862   1.814   2.095  1.5682  0.9338 -0.6553
 5239SOL    HW227354   2.984   1.736   2.109  1.6512 -0.8676  3.0268
 5240SOL     OW27355   2.403   0.980   0.525 -0.7003  0.5459  0.1483
 5240SOL    HW127356   2.329   0.925   0.548  0.9913 -0.3342  3.5308
 5240SOL    HW227357   2.472   0.977   0.592 -3.0097  0.4775  2.5349
 5241SOL     OW27358   2.227   2.631   9.019  0.1779  0.2310 -0.6986
 5241SOL    HW127359   2.286   2.576   8.966 -2.0186 -0.6356 -2.2365
 5241SOL    HW227360   2.151   2.639   8.961  0.3876  0.1383 -0.9875
 5242SOL     OW27361   0.415   0.405   2.563 -0.0043 -0.1840  0.9225
 5242SOL    HW127362   0.495   0.407   2.614 -1.4058 -1.5385  3.1724
 5242SOL    HW227363   0.389   0.313   2.565 -0.2183 -0.1488 -0.0620
 5243SOL     OW27364   3.707   3.618   5.309  0.3195  0.3211 -0.0295
 5243SOL    HW127365   3.658   3.700   5.315  0.1053  0.0499  1.9321
 5243SOL    HW227366   3.738   3.595   5.396  0.5495 -2.5571 -0.8957
 5244SOL     OW27367   3.762   0.776   3.509  0.3552 -0.0584 -0.1269
 5244SOL    HW127368   3.749   0.685   3.483  0.4717 -0.6298  1.7656
 5244SOL    HW227369   3.700   0.787   3.581 -0.9350  2.3871 -1.5988
 5245SOL     OW27370   3.593   0.690   2.371 -0.7712 -1.2293 -0.1940
 5245SOL    HW127371   3.541   0.687   2.451  0.5820 -2.2137  0.6587
 5245SOL    HW227372   3.536   0.715   2.299  0.4730 -1.6043 -1.3103
 5246SOL     OW27373   4.637   2.880  15.188  0.4706 -0.7582 -0.3817
 5246SOL    HW127374   4.585   2.866  15.109 -0.8474 -2.7817  0.8177
 5246SOL    HW227375   4.566   2.911  15.244  1.6383  0.1756  0.5708
 5247SOL     OW27376   4.575   4.456   3.711  0.5791 -0.1727  0.1423
 5247SOL    HW127377   4.566   4.504   3.629  2.0645 -1.2719 -0.6592
 5247SOL    HW227378   4.554   4.514   3.784  0.2868  2.5040 -2.0781
 5248SOL     OW27379   0.190   2.713  15.106  0.9419  0.2306  0.0680
 5248SOL    HW127380   0.214   2.785  15.047 -2.6350  0.9684 -0.4841
 5248SOL    HW227381   0.267   2.657  15.101  0.8696  0.1947 -0.6405
 5249SOL     OW27382   0.262   0.517   8.279  1.3645  0.2088  0.1226
 5249SOL    HW127383   0.309   0.435   8.267  2.2710  0.7307  0.1313
 5249SOL    HW227384   0.171   0.486   8.271  1.6133 -0.0692 -1.6152
 5250SOL     OW27385   4.656   1.134   7.727  0.0280  0.0083  0.2529
 5250SOL    HW127386   4.646   1.062   7.664  0.8860  1.8182 -1.9691
 5250SOL    HW227387   0.013   1.124   7.740 -0.0263  0.3404  0.8797
 5251SOL     OW27388   2.345   2.332   1.962 -0.5637 -0.1770  0.5130
 5251SOL    HW127389   2.252   2.318   1.943 -0.9114  0.5346  1.7461
 5251SOL    HW227390   2.373   2.240   1.966  1.8418  0.6041  1.3570
 5252SOL     OW27391   0.964   4.221  13.050  0.0651  0.2753  0.1982
 5252SOL    HW127392   1.004   4.242  12.966  0.0993  1.3606  0.4819
 5252SOL    HW227393   1.008   4.291  13.099  0.7917  0.3485 -0.5519
 5253SOL     OW27394   3.168   4.417   9.326  0.3654  0.6425 -0.4565
 5253SOL    HW127395   3.129   4.357   9.390  1.6213  1.2800  0.8948
 5253SOL    HW227396   3.099   4.442   9.265 -0.1578  0.8498  0.2153
 5254SOL     OW27397   1.067   1.542   5.254  0.6969 -0.0883  0.0921
 5254SOL    HW127398   1.010   1.467   5.236  2.0409 -1.3194  1.0266
 5254SOL    HW227399   1.061   1.598   5.177 -0.7080 -0.2648  0.0679
 5255SOL     OW27400   0.919   3.343   8.286  1.0169 -0.3350  0.0861
 5255SOL    HW127401   0.843   3.303   8.245  1.2152  0.0408 -0.6500
 5255SOL    HW227402   0.939   3.420   8.232  1.2131 -0.3919  0.0753
 5256SOL     OW27403   0.222   4.253  16.665 -0.1647 -0.5123  0.1765
 5256SOL    HW127404   0.241   4.159  16.672  0.2923 -0.5102 -1.0628
 5256SOL    HW227405   0.286   4.277  16.732 -1.6192  0.3553  1.2335
 5257SOL     OW27406   1.489   0.977   8.736 -0.1617 -0.0816 -0.3211
 5257SOL    HW127407   1.462   1.027   8.659  0.1802 -1.4473 -1.3399
 5257SOL    HW227408   1.481   1.036   8.811 -0.1565  0.6411 -0.8926
 5258SOL     OW27409   1.320   4.619  14.974 -0.2006  0.2293  0.5553
 5258SOL    HW127410   1.274   4.546  15.015  0.7033 -0.8182 -0.2820
 5258SOL    HW227411   1.349   4.577  14.893 -1.7137  2.3331 -1.0524
 5259SOL     OW27412   4.038   3.280  13.762 -0.1573  0.3129 -0.5050
 5259SOL    HW127413   4.047   3.205  13.821 -0.3037  0.9018  0.2659
 5259SOL    HW227414   4.093   3.246  13.692 -2.4143  0.2231 -2.2519
 5260SOL     OW27415   2.086   3.682  13.487 -0.0543 -0.1781  0.2860
 5260SOL    HW127416   2.048   3.677  13.575 -0.3941 -0.1662  0.1374
 5260SOL    HW227417   2.157   3.617  13.491 -0.6692 -0.7551  2.0152
 5261SOL     OW27418   0.004   2.212  10.528 -0.0470 -0.1818 -0.3586
 5261SOL    HW127419   4.688   2.157  10.469 -1.0496 -1.3667  1.6539
 5261SOL    HW227420   4.709   2.194  10.616  2.5427 -0.3130  0.5596
 5262SOL     OW27421   2.921   4.187   3.688  0.0879  0.5256  0.0274
 5262SOL    HW127422   2.897   4.278   3.708  1.8984  0.8344  0.7822
 5262SOL    HW227423   2.851   4.139   3.732 -0.7251  1.7188  0.0668
 5263SOL     OW27424   3.441   0.019   6.583  0.3985 -0.3531 -0.2355
 5263SOL    HW127425   3.422   0.027   6.676  1.2556  0.2173 -0.1025
 5263SOL    HW227426   3.445   0.112   6.561  3.6208 -1.2532 -3.5426
 5264SOL     OW27427   1.179   2.261  13.581  0.4679 -0.1654 -0.1169
 5264SOL    HW127428   1.265   2.232  13.551  0.2874  0.5466 -1.3087
 5264SOL    HW227429   1.184   2.236  13.673  2.0192 -0.5157 -0.3034
 5265SOL     OW27430   4.196   3.627   6.829 -0.5734  0.2866  0.3991
 5265SOL    HW127431   4.144   3.706   6.841  0.1811  0.2773  3.6673
 5265SOL    HW227432   4.274   3.663   6.786 -1.3885  0.0970 -1.2700
 5266SOL     OW27433   1.961   3.261   6.459  0.3782  0.1934  0.5968
 5266SOL    HW127434   1.997   3.185   6.504 -1.4492 -0.0842  1.5832
 5266SOL    HW227435   2.032   3.287   6.401  2.1380 -0.6415  2.3700
 5267SOL     OW27436   2.131   4.148  11.625  0.5130  0.2380 -0.0005
 5267SOL    HW127437   2.205   4.208  11.610 -0.7316  1.4591 -1.2154
 5267SOL    HW227438   2.063   4.204  11.661  0.3765 -0.2948  0.5632
 5268SOL     OW27439   2.509   1.832   8.634  0.8922  1.1572 -0.3398
 5268SOL    HW127440   2.540   1.892   8.702  0.8614  0.1364  0.5694
 5268SOL    HW227441   2.458   1.887   8.574  1.2745  1.7975 -0.0817
 5269SOL     OW27442   1.077   3.702   9.319  0.6080 -0.4666 -0.1835
 5269SOL    HW127443   1.157   3.752   9.301 -0.3332  0.0709 -2.9124
 5269SOL    HW227444   1.053   3.671   9.232  0.2155 -0.8005  0.0448
 5270SOL     OW27445   3.599   1.330   2.107  0.0698  0.9622 -0.2573
 5270SOL    HW127446   3.609   1.288   2.192 -0.8763  0.2499 -0.5042
 5270SOL    HW227447   3.691   1.340   2.082 -0.4840  0.4752 -2.4854
 5271SOL     OW27448   2.258   3.159   2.145 -0.2460  0.4951 -0.0511
 5271SOL    HW127449   2.257   3.249   2.112 -0.5704  0.3018 -0.5747
 5271SOL    HW227450   2.353   3.153   2.139 -0.2959 -1.9993  1.6563
 5272SOL     OW27451   4.252   2.553   3.523  0.3113 -0.7502 -0.0511
 5272SOL    HW127452   4.221   2.465   3.543  2.1602 -1.2901  0.4479
 5272SOL    HW227453   4.277   2.589   3.608 -1.0684 -1.2158  0.5527
 5273SOL     OW27454   1.266   3.530   7.428 -0.4171 -0.3899  0.2628
 5273SOL    HW127455   1.206   3.467   7.468 -0.8497 -0.0209  0.1943
 5273SOL    HW227456   1.329   3.551   7.496  0.3167  1.0965 -0.8763
 5274SOL     OW27457   2.452   1.180   0.358  0.2208  0.1283  0.7034
 5274SOL    HW127458   2.394   1.160   0.285  0.2573  0.1399  0.6712
 5274SOL    HW227459   2.434   1.106   0.416  2.9011 -0.7668  0.4016
 5275SOL     OW27460   1.052   3.743   4.100  0.2765  0.0282  0.0161
 5275SOL    HW127461   1.096   3.767   4.018  0.3136  1.0760  0.3371
 5275SOL    HW227462   1.082   3.655   4.123 -0.1679 -0.6785 -2.0976
 5276SOL     OW27463   2.902   1.222  11.444  0.1580 -0.1695  0.2353
 5276SOL    HW127464   2.905   1.133  11.410  4.2091  0.2594 -0.5639
 5276SOL    HW227465   2.856   1.258  11.368 -0.7744  0.8531  1.2875
 5277SOL     OW27466   2.565   1.387   4.297  0.0375 -0.1251  0.3106
 5277SOL    HW127467   2.602   1.361   4.382 -1.1479 -0.4086  0.7469
 5277SOL    HW227468   2.476   1.356   4.310  0.1343 -0.9861 -1.1451
 5278SOL     OW27469   1.986   3.177   2.129  0.3829 -0.2852 -0.1088
 5278SOL    HW127470   2.081   3.177   2.114 -0.0530 -1.6567 -2.9205
 5278SOL    HW227471   1.973   3.101   2.184  0.5054 -0.3774 -0.2073
 5279SOL     OW27472   2.147   3.274  11.712  0.7056 -0.2679 -0.1178
 5279SOL    HW127473   2.094   3.195  11.726 -0.0793  0.3856  0.6626
 5279SOL    HW227474   2.099   3.343  11.759  1.4898 -0.8303  1.4758
 5280SOL     OW27475   2.477   1.207   6.140  0.0827 -0.8263  0.2667
 5280SOL    HW127476   2.567   1.240   6.145 -0.2251 -0.0521  0.7797
 5280SOL    HW227477   2.494   1.113   6.132  1.2647 -0.6804  0.9744
 5281SOL     OW27478   0.798   1.639   6.412 -1.0319 -0.1994 -0.4333
 5281SOL    HW127479   0.874   1.697   6.424 -1.4475 -0.3554  2.7714
 5281SOL    HW227480   0.776   1.628   6.504  0.1844 -1.1739 -0.2528
 5282SOL     OW27481   1.081   3.899   9.819  0.5807 -0.3765 -0.1161
 5282SOL    HW127482   1.066   3.804   9.816  2.1389 -0.6365  0.0931
 5282SOL    HW227483   1.175   3.906   9.835  1.0979 -2.4510 -2.2151
 5283SOL     OW27484   1.757   1.031   9.131  0.3918  0.4384 -0.0150
 5283SOL    HW127485   1.693   0.964   9.154 -0.9584  1.8445  0.3795
 5283SOL    HW227486   1.697   1.101   9.105  1.0293  0.3987 -1.5813
 5284SOL     OW27487   2.617   3.731   6.906 -0.0088  0.5477  0.4459
 5284SOL    HW127488   2.639   3.750   6.997  1.8277 -1.7623  0.4870
 5284SOL    HW227489   2.523   3.750   6.900  0.6814  3.8921  0.7034
 5285SOL     OW27490   0.801   0.912   0.193 -0.1537  0.5543 -0.4144
 5285SOL    HW127491   0.727   0.962   0.158 -0.2725 -0.3461 -1.4709
 5285SOL    HW227492   0.871   0.965   0.154  1.1896 -1.3796 -0.6145
 5286SOL     OW27493   1.878   3.908   9.281 -0.6916 -0.4342  0.0193
 5286SOL    HW127494   1.859   3.907   9.375 -0.0981  3.1541  0.1612
 5286SOL    HW227495   1.927   3.988   9.267 -1.1116  0.0078  1.0264
 5287SOL     OW27496   0.328   2.836   1.460 -0.3384  0.0654 -0.3094
 5287SOL    HW127497   0.386   2.760   1.448  0.1923  0.4586 -0.2226
 5287SOL    HW227498   0.376   2.884   1.527  1.5412 -0.9891 -0.8832
 5288SOL     OW27499   4.239   1.806   4.807  0.2423  0.4633 -0.0551
 5288SOL    HW127500   4.163   1.848   4.767  0.3953 -2.1450 -3.0445
 5288SOL    HW227501   4.253   1.856   4.888 -0.9389 -1.2576  1.2154
 5289SOL     OW27502   0.019   1.766  15.080 -0.6361 -0.2394 -0.0098
 5289SOL    HW127503   0.057   1.717  15.006  1.5888  3.0769 -1.0729
 5289SOL    HW227504   4.670   1.725  15.073 -0.5239 -0.2050 -1.7833
 5290SOL     OW27505   1.067   2.299   8.846 -0.6083 -0.6724 -0.0080
 5290SOL    HW127506   0.979   2.299   8.883 -0.3464  2.5902  0.5698
 5290SOL    HW227507   1.099   2.213   8.875 -0.3314  0.3828  2.7474
 5291SOL     OW27508   3.898   2.599   4.172 -0.4183  0.2788 -0.3400
 5291SOL    HW127509   3.906   2.519   4.119  1.8563  1.7150 -2.1289
 5291SOL    HW227510   3.806   2.589   4.196  0.1333  0.5371  1.8216
 5292SOL     OW27511   4.077   1.516  12.532  0.1415  0.1318 -0.0237
 5292SOL    HW127512   4.146   1.452  12.551  0.0917 -0.0375 -0.4150
 5292SOL    HW227513   4.000   1.463  12.555 -0.1456  0.5517 -0.0266
 5293SOL     OW27514   4.208   3.417   7.003  0.3100  0.5751  0.1190
 5293SOL    HW127515   4.193   3.473   6.926  0.4859  1.3420  0.6411
 5293SOL    HW227516   4.193   3.492   7.060  0.5692  0.9604 -0.3148
 5294SOL     OW27517   2.596   3.502  13.356 -0.9093  0.5990 -0.2080
 5294SOL    HW127518   2.673   3.445  13.358 -1.6619 -0.3665  1.3971
 5294SOL    HW227519   2.614   3.559  13.282  0.1061  1.5847  0.7927
 5295SOL     OW27520   2.167   0.039   6.022  0.1775 -0.2126 -0.0382
 5295SOL    HW127521   2.220   0.048   5.943  1.0041  1.9209  0.7502
 5295SOL    HW227522   2.092   0.094   5.999  0.2475 -0.1222 -0.0513
 5296SOL     OW27523   4.388   0.007   4.694  0.3956  0.5521 -0.7190
 5296SOL    HW127524   4.311   4.719   4.643  0.5712 -2.0205  0.2320
 5296SOL    HW227525   4.424   4.657   4.714 -2.9332 -0.6031  0.3540
 5297SOL     OW27526   3.381   3.077  12.839  0.2376 -0.0892 -0.1101
 5297SOL    HW127527   3.430   3.139  12.783 -0.5139  0.6118 -0.0024
 5297SOL    HW227528   3.314   3.038  12.783 -0.1093 -1.8209  1.5296
 5298SOL     OW27529   2.062   1.858   4.688 -0.1199 -0.4841 -0.7751
 5298SOL    HW127530   1.970   1.878   4.671 -0.6792 -0.7867  1.9011
 5298SOL    HW227531   2.064   1.861   4.784 -0.5394  1.3675 -0.8353
 5299SOL     OW27532   4.518   0.713   8.268  0.4660 -0.6651  0.0419
 5299SOL    HW127533   4.483   0.793   8.228  1.9696  0.5917  1.2395
 5299SOL    HW227534   4.447   0.697   8.331  0.0957  0.3851 -0.1084
 5300SOL     OW27535   3.635   0.247   1.614  0.5090  0.6737  0.3353
 5300SOL    HW127536   3.589   0.316   1.663  1.7429  0.6848  1.4928
 5300SOL    HW227537   3.706   0.218   1.671  1.0121 -0.7342 -1.0294
 5301SOL     OW27538   0.164   1.031   7.652  0.4384 -0.3055  0.3680
 5301SOL    HW127539   0.151   0.976   7.575  1.7800 -0.0303 -0.0451
 5301SOL    HW227540   0.206   1.104   7.606 -1.3439 -0.4032 -1.4535
 5302SOL     OW27541   1.841   1.826   9.015 -0.0599  0.0507  0.1156
 5302SOL    HW127542   1.899   1.901   8.999 -1.8869  1.3385 -0.4130
 5302SOL    HW227543   1.891   1.744   9.006  1.5641  1.0879 -0.2567
 5303SOL     OW27544   4.508   2.152   9.041  0.0965 -0.0062 -0.0822
 5303SOL    HW127545   4.497   2.154   9.136 -4.0248  0.5740 -0.5521
 5303SOL    HW227546   4.467   2.068   9.019  2.6413 -0.7583 -1.9299
 5304SOL     OW27547   1.459   3.203   9.291  0.1138 -0.2136 -1.1424
 5304SOL    HW127548   1.449   3.135   9.357 -1.1187  0.2973 -0.8036
 5304SOL    HW227549   1.373   3.200   9.250  0.1362 -2.0363 -1.0354
 5305SOL     OW27550   0.916   1.853   6.767 -0.2435 -0.3643  0.8017
 5305SOL    HW127551   0.929   1.898   6.851 -0.1537  1.8825 -0.4231
 5305SOL    HW227552   0.994   1.799   6.755 -2.7063 -3.4083 -1.3033
 5306SOL     OW27553   3.057   3.659   8.791  0.3242  0.5267 -0.5973
 5306SOL    HW127554   2.963   3.671   8.805 -0.2049 -2.5717 -1.6059
 5306SOL    HW227555   3.071   3.564   8.792  1.6193  0.7380  1.0948
 5307SOL     OW27556   1.975   2.596  14.680 -0.2512 -0.0093 -0.5046
 5307SOL    HW127557   1.929   2.651  14.744  0.1550 -2.5928  1.9937
 5307SOL    HW227558   1.967   2.651  14.602 -1.9718  0.4198 -0.0122
 5308SOL     OW27559   1.494   4.009   1.604 -0.6973  0.5352 -0.2164
 5308SOL    HW127560   1.530   3.958   1.531  2.4355  0.2822  1.5060
 5308SOL    HW227561   1.569   4.032   1.659 -1.8703 -0.4393  1.7966
 5309SOL     OW27562   3.724   3.994  10.388 -0.5472 -0.1512  0.0052
 5309SOL    HW127563   3.775   4.075  10.382 -2.1050  0.9062  1.0721
 5309SOL    HW227564   3.790   3.928  10.370  0.7642  1.5939 -1.6064
 5310SOL     OW27565   0.471   3.239   9.122  0.4684  0.3630  0.5204
 5310SOL    HW127566   0.542   3.302   9.136  2.1414 -1.4092  0.1138
 5310SOL    HW227567   0.522   3.162   9.096  1.4837  0.8897  0.9616
 5311SOL     OW27568   3.995   0.277   5.552 -0.1453  0.3914  1.2968
 5311SOL    HW127569   4.003   0.185   5.576 -0.7408  0.0353  0.1194
 5311SOL    HW227570   4.016   0.314   5.638  0.0067 -1.0822  1.8862
 5312SOL     OW27571   0.677   1.289   5.059  0.2928  0.3531  0.6484
 5312SOL    HW127572   0.645   1.358   5.000  0.0704 -1.5721 -1.4837
 5312SOL    HW227573   0.613   1.221   5.040  1.4202 -0.1025 -1.5693
 5313SOL     OW27574   3.775   4.209   8.635 -0.1272 -0.0762  0.4033
 5313SOL    HW127575   3.802   4.148   8.703  2.0212 -0.0212 -0.4045
 5313SOL    HW227576   3.705   4.264   8.670 -0.3955  0.3488 -0.7817
 5314SOL     OW27577   0.953   3.422  12.732  0.0655 -0.1361 -0.3568
 5314SOL    HW127578   0.900   3.476  12.792 -1.6038 -1.7593 -0.3876
 5314SOL    HW227579   1.042   3.452  12.751 -0.0968  0.5736 -0.6922
 5315SOL     OW27580   1.567   0.009   1.570 -0.4394  0.4433 -0.1183
 5315SOL    HW127581   1.591   0.100   1.588  0.3909 -0.4577  3.2838
 5315SOL    HW227582   1.641   4.691   1.596 -0.1847  0.3962 -0.9303
 5316SOL     OW27583   1.496   2.802   4.372 -0.7498  0.6128 -0.1373
 5316SOL    HW127584   1.506   2.726   4.315 -2.1007  1.1276 -1.0523
 5316SOL    HW227585   1.419   2.783   4.426 -2.3812  1.1514 -2.2824
 5317SOL     OW27586   3.476   3.799   6.360 -0.1364 -0.4311  0.5558
 5317SOL    HW127587   3.394   3.817   6.406 -2.3667 -4.1339 -1.9838
 5317SOL    HW227588   3.460   3.707   6.339  1.0077 -0.1988 -1.3192
 5318SOL     OW27589   0.955   1.747   3.209  0.3323  0.4684 -0.8203
 5318SOL    HW127590   0.949   1.682   3.279  1.2179  2.8116  1.4242
 5318SOL    HW227591   0.862   1.767   3.198  0.2225  0.7670  0.6318
 5319SOL     OW27592   4.281   4.532   0.184  0.1757 -0.2701 -1.0131
 5319SOL    HW127593   4.316   4.570   0.264 -1.9131  1.8133 -1.0740
 5319SOL    HW227594   4.206   4.484   0.219  0.0295  0.2163 -0.6539
 5320SOL     OW27595   3.047   4.116  10.172  0.0978  0.1214 -0.2661
 5320SOL    HW127596   2.978   4.135  10.236 -0.5066  0.4816 -1.0263
 5320SOL    HW227597   3.117   4.170  10.208  0.0752 -0.5699  0.8192
 5321SOL     OW27598   4.099   0.642  17.736 -0.2728  0.1281 -0.1275
 5321SOL    HW127599   4.008   0.648  17.707 -0.3677  1.1082  0.3851
 5321SOL    HW227600   4.082   0.646   0.084 -0.8674  1.9907 -0.3145
 5322SOL     OW27601   1.601   0.088  16.796 -0.7775  0.1927 -0.1671
 5322SOL    HW127602   1.537   0.017  16.792 -1.7811  0.9532  2.0983
 5322SOL    HW227603   1.541   0.162  16.806 -0.6665  0.6435 -2.8122
 5323SOL     OW27604   1.811   4.213   3.574  0.4703  0.4548 -0.1299
 5323SOL    HW127605   1.820   4.197   3.480 -1.3884 -1.0876 -0.0551
 5323SOL    HW227606   1.856   4.296   3.586  3.1467 -1.3026  1.9762
 5324SOL     OW27607   4.232   2.767   3.082  0.4472 -0.1048 -0.3559
 5324SOL    HW127608   4.256   2.675   3.067 -1.5689 -0.1929 -3.2307
 5324SOL    HW227609   4.248   2.765   3.176  1.7218  0.2260 -0.5647
 5325SOL     OW27610   2.102   0.205   1.781  0.5267 -0.4713 -0.4658
 5325SOL    HW127611   2.156   0.282   1.797  0.3556 -0.6594  1.0841
 5325SOL    HW227612   2.165   0.160   1.725  1.6365  2.0499 -1.1843
 5326SOL     OW27613   0.024   4.066   3.302  0.2024  1.1955 -0.2010
 5326SOL    HW127614   0.087   4.116   3.355 -1.2398  1.5974  1.1260
 5326SOL    HW227615   0.073   4.040   3.223 -1.6156  2.3892 -1.7068
 5327SOL     OW27616   4.107   4.586   4.805 -0.3832 -0.4893  0.1920
 5327SOL    HW127617   4.024   4.553   4.771 -0.5518  0.0054  0.1238
 5327SOL    HW227618   4.124   4.650   4.736 -2.6471  1.4308  1.4081
 5328SOL     OW27619   2.731   2.400   4.350 -0.0315 -0.0434  0.8995
 5328SOL    HW127620   2.747   2.472   4.411  0.0104  0.3713  0.3969
 5328SOL    HW227621   2.750   2.445   4.268 -1.3239  0.3306  0.8077
 5329SOL     OW27622   0.365   1.575  17.517  0.7026  0.0148  0.4659
 5329SOL    HW127623   0.349   1.492  17.472  2.0294 -0.4004  0.7489
 5329SOL    HW227624   0.443   1.597  17.466 -1.0490  0.8179 -1.8609
 5330SOL     OW27625   4.018   3.962   7.272  0.0703  0.1431  0.3183
 5330SOL    HW127626   3.930   3.934   7.296 -0.5828  0.3651 -1.8376
 5330SOL    HW227627   4.056   3.974   7.360  1.8751 -1.7910 -0.1895
 5331SOL     OW27628   1.100   1.838   3.594  0.0521  0.1797 -0.2265
 5331SOL    HW127629   1.149   1.757   3.579 -0.8062 -0.6596  1.5032
 5331SOL    HW227630   1.167   1.901   3.617  0.5883  0.5268 -2.7087
 5332SOL     OW27631   0.883   4.188   7.952 -0.1110 -0.4501 -0.8437
 5332SOL    HW127632   0.824   4.256   7.984 -0.5885  0.1391 -2.9527
 5332SOL    HW227633   0.892   4.198   7.857  2.5880 -0.5299 -0.5777
 5333SOL     OW27634   4.125   0.323   4.526 -0.3055 -0.2259 -0.2476
 5333SOL    HW127635   4.190   0.287   4.466 -2.0095 -1.4967 -1.3709
 5333SOL    HW227636   4.138   0.271   4.605  0.4385  2.4417  1.3752
 5334SOL     OW27637   3.976   2.992   8.130 -0.2499 -0.5282 -0.3151
 5334SOL    HW127638   3.900   2.935   8.144 -1.8027  1.1927 -1.9441
 5334SOL    HW227639   4.043   2.939   8.086 -0.0372 -0.4536 -0.0802
 5335SOL     OW27640   1.928   3.038   3.808 -0.0326 -0.8943 -0.5034
 5335SOL    HW127641   1.893   3.126   3.793 -0.8862 -1.5156 -2.1275
 5335SOL    HW227642   1.878   3.007   3.883 -2.6068  0.3963 -1.6749
 5336SOL     OW27643   1.614   3.880   6.328 -0.2398  0.5687  0.0832
 5336SOL    HW127644   1.604   3.955   6.385  0.7677 -0.3383  1.4379
 5336SOL    HW227645   1.597   3.925   6.245  1.3875 -1.5097 -1.3936
 5337SOL     OW27646   2.658   2.349  17.637 -0.3989  0.2575  0.4682
 5337SOL    HW127647   2.729   2.326  17.576 -0.3425 -0.7118  0.9141
 5337SOL    HW227648   2.698   2.317  17.718 -0.2644  2.4287  1.2764
 5338SOL     OW27649   0.838   0.787   4.599 -0.2313 -0.4082 -0.0779
 5338SOL    HW127650   0.919   0.736   4.608  0.0408  0.0304 -0.0592
 5338SOL    HW227651   0.871   0.867   4.638 -1.8821  0.5160 -0.6030
 5339SOL     OW27652   3.024   2.716  15.219  0.5964  0.1738  0.0992
 5339SOL    HW127653   3.098   2.776  15.230  0.3937  0.0809  1.9040
 5339SOL    HW227654   2.974   2.739  15.298 -0.5147 -2.1587  0.0612
 5340SOL     OW27655   2.798   3.486   5.819 -0.0741 -0.2553  0.3545
 5340SOL    HW127656   2.802   3.521   5.908 -0.1062 -0.0458  0.2733
 5340SOL    HW227657   2.724   3.426   5.821 -0.3073  0.0681  1.5697
 5341SOL     OW27658   0.465   4.653   3.242  0.1526 -0.0806 -0.0967
 5341SOL    HW127659   0.556   4.677   3.262 -0.3119  2.5864 -1.2751
 5341SOL    HW227660   0.476   4.608   3.158 -1.8969 -0.8937  0.0700
 5342SOL     OW27661   1.009   3.666   7.631  0.0526  0.2105  0.0861
 5342SOL    HW127662   1.029   3.735   7.695 -1.6558  0.5202  0.2762
 5342SOL    HW227663   0.915   3.650   7.642  0.1860 -0.4348  0.3338
 5343SOL     OW27664   1.406   0.599  17.713 -0.5983  0.0815  0.3017
 5343SOL    HW127665   1.329   0.558   0.005 -0.2253 -2.8227 -2.0964
 5343SOL    HW227666   1.439   0.648   0.043 -1.6185  0.4012  0.5291
 5344SOL     OW27667   2.850   1.419   3.802  0.0435 -0.3033 -0.2697
 5344SOL    HW127668   2.850   1.354   3.871  0.8127  0.1592  0.1629
 5344SOL    HW227669   2.938   1.401   3.769 -0.0134 -1.1240  0.0360
 5345SOL     OW27670   0.999   4.423   5.904 -0.6354 -0.1900 -0.0588
 5345SOL    HW127671   0.939   4.496   5.892 -1.1072 -0.9894 -2.6502
 5345SOL    HW227672   0.942   4.349   5.881 -1.2181  0.1789  0.1974
 5346SOL     OW27673   0.388   0.378   3.919  0.4419 -0.0445  0.0025
 5346SOL    HW127674   0.389   0.296   3.969  1.0606  0.3317  0.6160
 5346SOL    HW227675   0.397   0.438   3.992  2.1771  0.4118 -0.5635
 5347SOL     OW27676   3.229   0.735   0.992 -0.1963  0.0835  0.2331
 5347SOL    HW127677   3.151   0.704   0.947 -0.5343  1.1945  0.0570
 5347SOL    HW227678   3.253   0.822   0.959 -0.7949  0.2165  0.1500
 5348SOL     OW27679   3.570   2.429   6.831  0.3367 -0.2687  0.5583
 5348SOL    HW127680   3.551   2.355   6.889 -1.0781 -0.2946  0.0540
 5348SOL    HW227681   3.508   2.414   6.759  0.5200  0.9237  0.1629
 5349SOL     OW27682   2.909   3.228  16.445  0.0807 -0.1262  0.1224
 5349SOL    HW127683   2.837   3.278  16.483 -0.3785 -0.0552 -0.8182
 5349SOL    HW227684   2.874   3.182  16.369 -1.3540 -1.3459  1.5461
 5350SOL     OW27685   2.541   3.286   6.704  0.2711 -0.0495  0.2217
 5350SOL    HW127686   2.572   3.213   6.650  1.2753 -0.4908  1.4101
 5350SOL    HW227687   2.456   3.295   6.661 -0.2004 -0.3884  1.0807
 5351SOL     OW27688   1.061   4.427  13.161  0.0269  0.2688 -0.0126
 5351SOL    HW127689   1.122   4.431  13.235  1.8234 -0.2875 -1.4654
 5351SOL    HW227690   1.071   4.517  13.128  1.1806  0.8508  1.8920
 5352SOL     OW27691   2.814   0.207   2.944 -0.5436 -0.5431  0.5358
 5352SOL    HW127692   2.874   0.156   2.890 -1.7712 -1.3400 -0.0827
 5352SOL    HW227693   2.762   0.244   2.873  1.0489  0.8618  0.1101
 5353SOL     OW27694   2.355   4.294   4.359 -0.1008 -0.2452  0.3117
 5353SOL    HW127695   2.368   4.203   4.387 -1.7202 -0.3984  0.5706
 5353SOL    HW227696   2.356   4.272   4.265  2.4019  4.4299 -0.7464
 5354SOL     OW27697   0.606   4.127   8.388 -0.2061  0.0033  0.0617
 5354SOL    HW127698   0.691   4.165   8.364  0.4676 -1.9812 -0.6875
 5354SOL    HW227699   0.628   4.064   8.456  0.3539 -2.3482 -2.2737
 5355SOL     OW27700   2.890   2.605   4.084 -0.3118  0.4142 -0.1823
 5355SOL    HW127701   2.935   2.654   4.015  0.4357  2.2304  1.5824
 5355SOL    HW227702   2.955   2.535   4.092 -0.4352  0.4165  0.8097
 5356SOL     OW27703   3.207   3.959   2.256 -0.3396  0.0880 -0.3697
 5356SOL    HW127704   3.245   3.984   2.172 -0.4073 -0.0061 -0.4283
 5356SOL    HW227705   3.224   3.865   2.249  3.1767  0.6015  1.4881
 5357SOL     OW27706   0.411   2.730  17.678 -0.0799  0.1442  0.5708
 5357SOL    HW127707   0.361   2.716   0.013  1.1020 -1.6988  0.9599
 5357SOL    HW227708   0.499   2.719  17.713  0.8257  2.3155 -0.9996
 5358SOL     OW27709   3.037   0.890  10.680  0.0793  0.1598 -0.5020
 5358SOL    HW127710   2.992   0.961  10.635 -0.7696 -0.0072  0.0959
 5358SOL    HW227711   3.059   0.932  10.763  0.2832  0.1385 -0.5443
 5359SOL     OW27712   2.653   2.734   9.015  0.1368 -0.1181 -0.3677
 5359SOL    HW127713   2.635   2.657   8.961  0.5009 -0.0924 -0.5226
 5359SOL    HW227714   2.739   2.705   9.045  0.2448 -0.9187 -1.4370
 5360SOL     OW27715   1.922   3.302   9.505 -0.2215 -0.0143 -0.0967
 5360SOL    HW127716   1.923   3.229   9.567  3.1649 -0.3730 -0.5655
 5360SOL    HW227717   1.989   3.355   9.549  0.4186  0.4668 -1.6245
 5361SOL     OW27718   0.231   3.640   5.392 -0.5309  0.2825 -0.3982
 5361SOL    HW127719   0.325   3.621   5.383 -1.0682 -1.8216 -1.7066
 5361SOL    HW227720   0.221   3.686   5.475  0.8608  0.4057 -0.2982
 5362SOL     OW27721   0.695   0.219   7.760  0.1085  0.2156 -0.0193
 5362SOL    HW127722   0.625   0.155   7.744 -0.5809  1.8045 -3.4065
 5362SOL    HW227723   0.644   0.299   7.751  0.7036  0.7645  1.5140
 5363SOL     OW27724   4.183   1.185   3.146  0.5237 -0.3793 -0.5236
 5363SOL    HW127725   4.209   1.110   3.199  3.0762  2.1377  1.7938
 5363SOL    HW227726   4.104   1.207   3.196  0.0477 -0.8317 -1.0723
 5364SOL     OW27727   3.311   0.820   7.733 -0.2901 -0.2793 -0.0520
 5364SOL    HW127728   3.362   0.739   7.728  1.1434  0.6340 -0.3207
 5364SOL    HW227729   3.279   0.817   7.643  0.5521 -2.6075 -0.2706
 5365SOL     OW27730   2.876   4.230   1.234  0.0758 -0.3494 -0.3706
 5365SOL    HW127731   2.932   4.273   1.168 -0.5848  0.1193 -0.6329
 5365SOL    HW227732   2.939   4.178   1.283  0.9806 -0.7531 -1.9364
 5366SOL     OW27733   0.955   0.987   5.840 -0.1965 -0.0979 -0.9487
 5366SOL    HW127734   0.899   1.062   5.821 -1.2750 -1.1616 -1.9625
 5366SOL    HW227735   1.028   1.017   5.785  0.4603  0.6292  0.3268
 5367SOL     OW27736   3.773   4.390   5.429  0.8860  0.3615  0.3754
 5367SOL    HW127737   3.856   4.431   5.451  0.1377  1.0025  1.9809
 5367SOL    HW227738   3.708   4.457   5.451 -0.4934 -1.0010  0.4594
 5368SOL     OW27739   3.470   1.298   3.243 -0.0633  0.2638 -0.0571
 5368SOL    HW127740   3.473   1.342   3.328 -1.0672 -1.2930  0.7719
 5368SOL    HW227741   3.392   1.342   3.206  1.0486  0.9107 -1.6518
 5369SOL     OW27742   4.011   3.867   4.050  0.0043  0.3605  0.5843
 5369SOL    HW127743   4.022   3.951   4.005 -0.4559  1.8035  3.1747
 5369SOL    HW227744   4.052   3.874   4.137 -0.5942 -1.0506  0.9817
 5370SOL     OW27745   3.518   3.451   7.266 -0.3335 -0.0162 -0.5017
 5370SOL    HW127746   3.453   3.516   7.240  0.2050  0.4406 -0.7198
 5370SOL    HW227747   3.596   3.505   7.254  0.8859 -1.8415 -0.8336
 5371SOL     OW27748   0.040   2.737   5.095  0.1258  0.6166  0.2867
 5371SOL    HW127749   0.082   2.717   5.011  0.7748 -0.6010  0.8887
 5371SOL    HW227750   0.039   2.652   5.140  0.2270  0.7088  0.4639
 5372SOL     OW27751   1.458   0.816   6.763  0.0587 -0.3925 -0.8935
 5372SOL    HW127752   1.461   0.900   6.807 -2.3484 -1.2101  0.8405
 5372SOL    HW227753   1.530   0.774   6.810 -0.5611  0.8648  1.1600
 5373SOL     OW27754   3.190   0.397   7.759 -0.3653  0.0763  0.1351
 5373SOL    HW127755   3.167   0.375   7.669  2.4020  2.0099 -1.0500
 5373SOL    HW227756   3.110   0.370   7.804 -0.2129 -0.1871  0.2479
 5374SOL     OW27757   3.085   0.099   1.476 -0.1623 -1.2865  0.5825
 5374SOL    HW127758   3.062   0.030   1.538 -1.5930 -1.0352  0.3286
 5374SOL    HW227759   3.116   0.044   1.403  0.1437  0.1218 -0.3512
 5375SOL     OW27760   3.908   4.692  10.487  0.3716  0.2339  0.5132
 5375SOL    HW127761   3.936   0.044  10.467  1.4904  0.0704  1.4187
 5375SOL    HW227762   3.980   4.629  10.488  0.4133  0.2180 -2.1141
 5376SOL     OW27763   0.084   1.247  10.174 -0.1436 -0.6040 -0.1961
 5376SOL    HW127764   0.165   1.249  10.226  0.1562 -0.7179 -0.6529
 5376SOL    HW227765   0.016   1.224  10.237  0.9024  0.5550  1.3687
 5377SOL     OW27766   1.149   1.938   4.480  0.4310 -0.4333 -0.1131
 5377SOL    HW127767   1.136   1.862   4.537 -0.3353 -0.1248  0.1238
 5377SOL    HW227768   1.237   1.966   4.506  1.1409 -0.3721 -2.5593
 5378SOL     OW27769   2.462   1.735   5.026 -0.5247 -0.3402 -0.0972
 5378SOL    HW127770   2.436   1.690   4.946 -0.1456 -0.1631 -0.3217
 5378SOL    HW227771   2.557   1.724   5.025 -0.4206  0.4987  0.7384
 5379SOL     OW27772   4.001   1.264   3.361 -0.0711  0.3865  0.2563
 5379SOL    HW127773   3.988   1.352   3.325  0.9524  0.9857  1.3514
 5379SOL    HW227774   4.046   1.272   3.445  1.7120  0.6039 -0.7266
 5380SOL     OW27775   0.851   2.129   6.600  0.4495  0.2198 -0.1838
 5380SOL    HW127776   0.899   2.192   6.654  0.8739 -0.2111 -0.0665
 5380SOL    HW227777   0.769   2.143   6.647  0.7964  0.6105  0.2993
 5381SOL     OW27778   1.224   1.543   6.022  0.2026 -0.3206  0.2720
 5381SOL    HW127779   1.142   1.507   5.991 -0.2956  0.7892  0.2863
 5381SOL    HW227780   1.275   1.468   5.990  1.5141 -0.2041  2.0628
 5382SOL     OW27781   1.034   4.455   8.809  0.6363  0.0822  0.1220
 5382SOL    HW127782   1.002   4.403   8.883  2.1194  0.7817  1.2810
 5382SOL    HW227783   1.004   4.404   8.734 -0.7126  0.9491  0.0775
 5383SOL     OW27784   1.294   1.978   9.731  0.0755 -0.7668 -0.0855
 5383SOL    HW127785   1.293   2.069   9.760 -2.1382 -0.5974 -0.6890
 5383SOL    HW227786   1.361   1.949   9.792 -1.0826 -2.1729  0.5176
 5384SOL     OW27787   4.590   0.701   2.037 -0.1912  0.2709 -0.4936
 5384SOL    HW127788   4.533   0.651   2.095  1.3246 -0.7305  0.1309
 5384SOL    HW227789   4.640   0.626   2.005  1.7915  1.1736  0.5167
 5385SOL     OW27790   4.666   1.244   1.614  0.0941  0.4921  0.2332
 5385SOL    HW127791   4.677   1.275   1.704  0.0853  0.1655  0.3461
 5385SOL    HW227792   4.691   1.152   1.625 -1.2837  0.2627  1.3884
 5386SOL     OW27793   4.361   1.444   6.580  0.2700 -0.2091 -0.0942
 5386SOL    HW127794   4.278   1.492   6.589 -0.5295 -1.6191 -0.0667
 5386SOL    HW227795   4.326   1.359   6.557  1.3047 -0.9619  1.0917
 5387SOL     OW27796   0.160   2.583  16.095 -0.0476  0.0883  0.7468
 5387SOL    HW127797   0.187   2.536  16.174 -1.4291 -1.3591  0.3488
 5387SOL    HW227798   0.210   2.664  16.108 -1.4351  1.0571  0.0067
 5388SOL     OW27799   1.662   3.752   5.888 -0.4666 -0.1833  0.3907
 5388SOL    HW127800   1.582   3.796   5.915  0.3637  1.2473  0.5408
 5388SOL    HW227801   1.718   3.830   5.892 -2.5598  1.4480 -1.5266
 5389SOL     OW27802   3.235   3.967   1.143 -0.8249  0.4877 -0.3036
 5389SOL    HW127803   3.150   3.958   1.098 -0.5941 -1.7772 -0.2617
 5389SOL    HW227804   3.288   3.904   1.095  0.9571  0.2641  1.9917
 5390SOL     OW27805   0.054   2.833   4.335  0.1688  0.0759 -0.0207
 5390SOL    HW127806   0.074   2.907   4.279  1.2455  0.7604  1.2700
 5390SOL    HW227807   0.118   2.767   4.308  0.0175 -0.7268  1.5494
 5391SOL     OW27808   1.530   1.103   8.501  0.1440 -0.2601  0.0679
 5391SOL    HW127809   1.577   1.030   8.461  0.7609 -0.0384  0.3900
 5391SOL    HW227810   1.594   1.174   8.510 -0.4720  0.3209 -0.1204
 5392SOL     OW27811   3.889   3.598   3.242  0.0841  0.2015 -0.1995
 5392SOL    HW127812   3.954   3.653   3.285  1.2159 -0.9461 -0.4310
 5392SOL    HW227813   3.942   3.544   3.184 -0.6725 -0.2838 -0.4396
 5393SOL     OW27814   4.333   1.175   6.471  0.2958  0.7678 -0.6850
 5393SOL    HW127815   4.403   1.131   6.518  0.1698  0.3122 -0.9249
 5393SOL    HW227816   4.284   1.109   6.422 -0.3375  0.6023  0.1562
 5394SOL     OW27817   0.889   4.612   5.287  0.2972  0.8915 -0.2464
 5394SOL    HW127818   0.932   4.649   5.364  0.1311  1.7296 -0.5577
 5394SOL    HW227819   0.870   4.698   5.251 -0.8537  0.3498 -0.9384
 5395SOL     OW27820   1.352   1.132   8.253 -0.3273  0.0802 -0.2211
 5395SOL    HW127821   1.397   1.211   8.223 -0.6313  1.2059  2.3032
 5395SOL    HW227822   1.429   1.079   8.271 -0.5863 -0.7275 -1.4383
 5396SOL     OW27823   1.788   2.238   3.474 -0.2642  0.7607  0.0718
 5396SOL    HW127824   1.712   2.181   3.467  0.4931 -0.3630  1.0140
 5396SOL    HW227825   1.836   2.202   3.548 -0.1375 -0.8534 -0.7914
 5397SOL     OW27826   2.945   3.484   5.351  0.2098 -0.5693  0.1627
 5397SOL    HW127827   2.906   3.428   5.418  0.6670  0.2484  1.1001
 5397SOL    HW227828   2.906   3.567   5.378  1.7385  1.2844 -3.3321
 5398SOL     OW27829   4.158   4.329   6.350  0.7106 -0.4302  0.1336
 5398SOL    HW127830   4.064   4.338   6.366  0.5269 -3.0605  0.5246
 5398SOL    HW227831   4.189   4.419   6.359  1.4277 -0.5864 -0.7839
 5399SOL     OW27832   4.542   1.649  17.370  0.8364  0.3940 -0.2288
 5399SOL    HW127833   4.499   1.567  17.396  2.2038  0.3011  1.7936
 5399SOL    HW227834   4.584   1.632  17.286 -0.9884  2.0263 -1.4529
 5400SOL     OW27835   0.777   2.305   0.010 -0.0477  0.0515 -0.3175
 5400SOL    HW127836   0.837   2.380   0.007 -1.2328  1.0540  1.3102
 5400SOL    HW227837   0.727   2.315  17.676 -0.7724 -0.7984  0.0212
 5401SOL     OW27838   2.188   4.234   7.541 -0.4767 -0.1739 -0.0330
 5401SOL    HW127839   2.196   4.202   7.451  2.7501  0.1515  0.1310
 5401SOL    HW227840   2.147   4.319   7.526 -0.4647 -0.2095 -0.2651
 5402SOL     OW27841   4.693   2.190   7.863 -0.1940 -0.1520 -0.1904
 5402SOL    HW127842   4.638   2.120   7.898 -3.0809  0.4696 -3.4704
 5402SOL    HW227843   4.691   2.251   7.936  0.4710 -0.1315 -0.1918
 5403SOL     OW27844   1.768   1.230  11.918 -0.6296  1.0149  0.6370
 5403SOL    HW127845   1.795   1.141  11.896  1.5928  2.2780 -1.7691
 5403SOL    HW227846   1.735   1.252  11.830 -0.9774  0.2682  0.5748
 5404SOL     OW27847   3.003   2.759   2.493  0.1507 -0.1706 -0.7554
 5404SOL    HW127848   3.070   2.718   2.547 -0.0566  1.9920  1.1223
 5404SOL    HW227849   2.931   2.740   2.552  0.4175  0.9245 -0.0708
 5405SOL     OW27850   2.372   3.961   8.619  0.3270 -0.0783 -0.6758
 5405SOL    HW127851   2.322   3.891   8.578 -1.2850 -0.0790  1.2623
 5405SOL    HW227852   2.436   3.915   8.673 -0.4869  0.8860  1.1120
 5406SOL     OW27853   0.317   2.183   3.641 -0.4137 -0.0325 -0.5580
 5406SOL    HW127854   0.310   2.168   3.546  0.1627 -0.4127 -0.5395
 5406SOL    HW227855   0.242   2.238   3.662  1.5201  2.7101 -0.8797
 5407SOL     OW27856   3.017   2.712   3.870 -0.1280 -0.3057  0.4814
 5407SOL    HW127857   3.051   2.801   3.879 -1.7965  0.5161 -1.3084
 5407SOL    HW227858   2.976   2.715   3.783  0.1842 -1.2711  0.2993
 5408SOL     OW27859   4.671   3.742  13.284  0.8048 -0.4789 -0.2611
 5408SOL    HW127860   4.689   3.681  13.356 -2.9810 -0.5105  0.6747
 5408SOL    HW227861   4.680   3.822  13.335 -0.5522 -1.1766  1.1005
 5409SOL     OW27862   2.768   3.286   5.049  0.0530  0.2816 -0.7025
 5409SOL    HW127863   2.708   3.276   5.123 -2.5779 -0.3478 -2.9641
 5409SOL    HW227864   2.716   3.349   5.000  1.2244  1.2404 -0.7235
 5410SOL     OW27865   3.963   2.392   3.435  0.1123  0.0659 -0.2079
 5410SOL    HW127866   3.888   2.446   3.459 -0.3360 -0.1687 -1.0682
 5410SOL    HW227867   3.974   2.415   3.343  1.9181 -0.9030 -0.2342
 5411SOL     OW27868   3.608   2.244   4.008 -0.1103  0.6678 -0.0491
 5411SOL    HW127869   3.700   2.261   3.988  0.1423  0.7956  1.2775
 5411SOL    HW227870   3.573   2.332   3.998 -1.4946 -0.0645 -1.7924
 5412SOL     OW27871   2.010   3.140   6.148 -0.7074  0.5204  0.5836
 5412SOL    HW127872   2.023   3.229   6.116  0.8521  0.7913  2.0110
 5412SOL    HW227873   2.036   3.135   6.240  2.3283  1.9926 -0.1960
 5413SOL     OW27874   2.951   3.795  13.933 -0.0780  0.1806 -0.3079
 5413SOL    HW127875   2.860   3.766  13.924  0.2848 -0.3227 -2.3445
 5413SOL    HW227876   2.944   3.879  13.889  0.7316  1.3274  1.7700
 5414SOL     OW27877   2.823   2.107   3.931  0.1082  0.3776  0.2993
 5414SOL    HW127878   2.768   2.030   3.916  0.5495  0.7302 -3.1347
 5414SOL    HW227879   2.846   2.109   4.023 -0.3917  0.0595  0.4355
 5415SOL     OW27880   2.251   2.945   1.664  0.0838 -0.0051  0.0945
 5415SOL    HW127881   2.158   2.964   1.649  0.5394  2.8070  0.8052
 5415SOL    HW227882   2.261   2.851   1.648  1.5166  0.1521  0.0408
 5416SOL     OW27883   2.630   0.357   2.691  0.8209 -0.1269 -0.3844
 5416SOL    HW127884   2.538   0.367   2.670  0.4094  0.3413  1.6491
 5416SOL    HW227885   2.643   0.442   2.733 -0.8166  0.5376 -1.2400
 5417SOL     OW27886   1.081   1.522   0.069  0.1106  0.0087  0.1289
 5417SOL    HW127887   1.127   1.452   0.114 -1.1656 -1.0623 -0.2483
 5417SOL    HW227888   1.010   1.533   0.132 -0.4860 -0.0030 -0.5425
 5418SOL     OW27889   1.767   3.887   4.373 -0.1880  0.1145  0.1450
 5418SOL    HW127890   1.843   3.940   4.397  1.2016 -3.7906  4.1321
 5418SOL    HW227891   1.789   3.837   4.295  0.6844  1.0304 -0.1995
 5419SOL     OW27892   4.517   1.346   1.009 -0.4544 -0.1080 -0.0284
 5419SOL    HW127893   4.430   1.349   1.049  0.1710  0.6753  1.2548
 5419SOL    HW227894   4.502   1.307   0.923 -2.8325 -0.2079  0.4073
 5420SOL     OW27895   2.312   4.372   9.699  0.2975  0.2176  0.2186
 5420SOL    HW127896   2.329   4.466   9.700 -0.1418  0.2719  2.4336
 5420SOL    HW227897   2.228   4.367   9.652 -0.4315  0.2192  1.5302
 5421SOL     OW27898   0.265   2.204   4.059  0.6053  0.0375 -0.1121
 5421SOL    HW127899   0.223   2.121   4.084  0.6910  0.0449  0.0544
 5421SOL    HW227900   0.188   2.259   4.075 -0.6396 -1.7200  0.0900
 5422SOL     OW27901   0.305   3.671  12.376  0.0588 -0.2454 -0.2639
 5422SOL    HW127902   0.308   3.641  12.286  0.0415 -1.3039  0.0844
 5422SOL    HW227903   0.388   3.719  12.378 -0.7620  1.1973 -1.4549
 5423SOL     OW27904   0.143   1.726   7.159  0.6611  0.1368  0.1893
 5423SOL    HW127905   0.084   1.686   7.223  1.9504 -1.0452  0.6427
 5423SOL    HW227906   0.223   1.750   7.206 -0.6296  2.9612  0.9353
 5424SOL     OW27907   4.456   1.843   6.532 -0.2118 -0.1532  0.3200
 5424SOL    HW127908   4.378   1.897   6.515 -0.5927 -0.7624  0.1352
 5424SOL    HW227909   4.518   1.898   6.484 -0.2313 -1.0394 -0.7154
 5425SOL     OW27910   4.584   0.564   4.036  0.4748 -0.3226  0.1820
 5425SOL    HW127911   4.591   0.535   4.127 -1.0467 -1.7964 -0.1576
 5425SOL    HW227912   4.489   0.573   4.030  0.4944 -0.5362 -0.4192
 5426SOL     OW27913   2.456   2.216   8.966 -0.2510  0.8878 -0.4284
 5426SOL    HW127914   2.418   2.288   8.916  0.6269  1.0442 -0.8623
 5426SOL    HW227915   2.516   2.265   9.022 -0.7001  1.5552 -0.5270
 5427SOL     OW27916   4.534   3.116   1.988  0.2207  0.0720 -0.3417
 5427SOL    HW127917   4.524   3.103   1.894 -1.2009 -0.0204 -0.1827
 5427SOL    HW227918   4.559   3.208   1.995 -0.9018  0.3389  0.1628
 5428SOL     OW27919   0.604   2.641  12.587 -0.2846  0.3635 -0.1284
 5428SOL    HW127920   0.636   2.552  12.574  0.1516  0.6799 -1.1579
 5428SOL    HW227921   0.669   2.665  12.654 -0.2370  1.6488 -0.6277
 5429SOL     OW27922   2.508   4.156   7.393  0.2251  0.0252  0.4667
 5429SOL    HW127923   2.499   4.240   7.437 -2.1024  1.2589 -2.3547
 5429SOL    HW227924   2.420   4.123   7.375  0.5000 -2.0418  2.9361
 5430SOL     OW27925   2.856   2.642   4.508 -0.4087  0.2572 -0.1679
 5430SOL    HW127926   2.951   2.641   4.503 -0.3980 -2.5084  0.3743
 5430SOL    HW227927   2.829   2.725   4.469  0.4952  0.3358 -0.6200
 5431SOL     OW27928   1.720   1.877   9.247  0.6623 -0.2653  0.2276
 5431SOL    HW127929   1.757   1.886   9.159  1.8708  0.1251  0.7808
 5431SOL    HW227930   1.650   1.942   9.249  3.0666  2.3004  1.4327
 5432SOL     OW27931   0.401   2.319   1.857 -0.2387 -0.0431 -0.1367
 5432SOL    HW127932   0.316   2.289   1.826 -0.8599 -1.1011  2.5187
 5432SOL    HW227933   0.447   2.353   1.781 -0.3812  0.3604 -0.0433
 5433SOL     OW27934   3.997   4.094   6.845 -0.6240  0.1777  0.2530
 5433SOL    HW127935   4.019   4.173   6.796  0.9047  0.5051  1.4387
 5433SOL    HW227936   4.051   4.027   6.804  0.0436  0.1562  1.1597
 5434SOL     OW27937   1.392   3.644   3.103 -0.3028  0.0721 -0.9531
 5434SOL    HW127938   1.463   3.586   3.077 -0.4636  0.2404 -1.7412
 5434SOL    HW227939   1.346   3.654   3.020 -1.7356 -0.0904 -0.1927
 5435SOL     OW27940   2.030   2.922  10.039  0.5650 -0.4412  0.3754
 5435SOL    HW127941   2.114   2.967  10.051 -0.4876  1.8401 -0.6472
 5435SOL    HW227942   1.971   2.995  10.021 -0.6916 -1.7297 -0.6769
 5436SOL     OW27943   4.652   4.220   8.552  0.0708 -0.8080  0.1576
 5436SOL    HW127944   4.600   4.170   8.490 -1.6745 -0.5864  1.4640
 5436SOL    HW227945   4.592   4.275   8.602 -0.6057  0.3230 -1.8994
 5437SOL     OW27946   2.362   4.310   0.571 -0.0886 -0.0864 -0.3367
 5437SOL    HW127947   2.432   4.354   0.620  0.3181  1.2144 -2.1028
 5437SOL    HW227948   2.339   4.242   0.634  1.7522 -0.6933 -0.3087
 5438SOL     OW27949   1.976   1.405   4.734 -0.4833 -0.2581 -0.4721
 5438SOL    HW127950   2.040   1.342   4.768 -0.2629 -0.6751 -1.6868
 5438SOL    HW227951   1.893   1.358   4.736  0.3737 -1.7015  1.6135
 5439SOL     OW27952   4.572   0.114  14.159 -0.0495  0.1827 -0.7095
 5439SOL    HW127953   4.476   0.112  14.161  0.0261 -3.0631 -1.7267
 5439SOL    HW227954   4.579   0.035  14.106 -0.9226  0.4525 -1.2333
 5440SOL     OW27955   2.574   4.166   1.871  0.0042  0.1538  0.7308
 5440SOL    HW127956   2.487   4.163   1.912 -0.1108  1.0030  0.5641
 5440SOL    HW227957   2.589   4.078   1.838  1.1024 -0.3555  2.6442
 5441SOL     OW27958   2.583   2.268   5.590  0.0010 -0.2724  0.6380
 5441SOL    HW127959   2.524   2.342   5.581 -2.2595 -2.1557 -0.1777
 5441SOL    HW227960   2.524   2.212   5.641 -1.4766  0.0820 -0.7029
 5442SOL     OW27961   3.519   1.734   6.603  0.1003 -0.0282 -0.1436
 5442SOL    HW127962   3.565   1.816   6.585 -1.6582  1.0348  0.2011
 5442SOL    HW227963   3.506   1.700   6.515  0.0286 -1.6617  0.4870
 5443SOL     OW27964   2.470   1.979   3.449  0.9099  0.5878  0.9778
 5443SOL    HW127965   2.411   1.904   3.448  0.0379  1.2847 -0.4593
 5443SOL    HW227966   2.461   2.013   3.359  0.9959  2.5128  1.6978
 5444SOL     OW27967   0.554   1.541   5.266  0.6676 -0.6583  0.1123
 5444SOL    HW127968   0.580   1.551   5.175  1.2668  0.1397  0.3638
 5444SOL    HW227969   0.591   1.619   5.308 -0.4042 -0.3346  0.4649
 5445SOL     OW27970   3.939   2.999  15.266  0.5185  0.1526 -0.6471
 5445SOL    HW127971   3.882   3.066  15.303  1.0908  0.0696  0.3831
 5445SOL    HW227972   3.983   3.044  15.193  1.1479  2.6064  1.2550
 5446SOL     OW27973   2.992   0.951   5.389  0.0582  0.0580  0.0056
 5446SOL    HW127974   2.972   1.027   5.335  0.7417 -0.7633 -1.3829
 5446SOL    HW227975   3.045   0.993   5.458  1.8210  0.0748 -1.3538
 5447SOL     OW27976   3.843   3.273   3.126  0.4471  0.1560 -0.2939
 5447SOL    HW127977   3.853   3.294   3.219 -0.9489 -2.3358  0.4384
 5447SOL    HW227978   3.931   3.275   3.089  0.7043 -0.3023  0.2783
 5448SOL     OW27979   0.559   3.495  13.428  0.9659 -0.2052  0.1757
 5448SOL    HW127980   0.502   3.419  13.422  1.7319 -0.7774  0.1933
 5448SOL    HW227981   0.486   3.557  13.429  1.2180  0.1152 -1.5849
 5449SOL     OW27982   4.374   1.528   8.337 -0.2618  0.3328 -0.0475
 5449SOL    HW127983   4.396   1.442   8.302 -0.8346  1.1948 -2.5112
 5449SOL    HW227984   4.360   1.500   8.428 -0.0136  0.7585  0.1214
 5450SOL     OW27985   3.172   2.753   8.704  0.0615  0.6400 -0.0500
 5450SOL    HW127986   3.104   2.710   8.755  0.1593 -0.7706 -1.1095
 5450SOL    HW227987   3.132   2.744   8.617  0.8173 -0.2754 -0.3039
 5451SOL     OW27988   1.075   4.726   2.342 -0.2453 -0.1015  0.2632
 5451SOL    HW127989   1.056   4.658   2.277 -1.0077  1.2086 -0.8980
 5451SOL    HW227990   0.985   0.022   2.332 -0.2614  0.0559  0.9570
 5452SOL     OW27991   0.684   1.878   9.605 -0.6038 -0.6154 -0.0012
 5452SOL    HW127992   0.697   1.968   9.575  0.6680 -0.1682  1.8924
 5452SOL    HW227993   0.726   1.834   9.530  1.6613 -0.6551  1.3051
 5453SOL     OW27994   1.069   2.887   8.774  0.1217 -0.0043  0.1123
 5453SOL    HW127995   1.153   2.929   8.757 -0.5729  0.5577 -1.8841
 5453SOL    HW227996   1.085   2.793   8.759 -2.7256  0.0846 -3.2852
 5454SOL     OW27997   1.216   4.654   2.747  0.1082  0.6788  0.2635
 5454SOL    HW127998   1.194   4.562   2.760 -2.0890  1.2696  0.8423
 5454SOL    HW227999   1.270   4.662   2.669 -0.0949  0.1568  0.0690
 5455SOL     OW28000   4.376   0.018   7.673 -0.3197  0.3654 -0.2456
 5455SOL    HW128001   4.327   4.683   7.711  0.9691 -1.0455 -1.2694
 5455SOL    HW228002   4.393   4.710   7.590  2.9735 -0.0208  0.6504
 5456SOL     OW28003   3.451   3.050   0.857 -0.5262  0.4797  0.2880
 5456SOL    HW128004   3.502   2.971   0.873  1.9564  2.0141  0.0639
 5456SOL    HW228005   3.415   3.076   0.941  1.1745  0.3745  1.0450
 5457SOL     OW28006   2.284   4.544  17.458  0.2292  0.2749 -0.1443
 5457SOL    HW128007   2.315   4.532  17.548  2.1141 -0.5835 -0.9078
 5457SOL    HW228008   2.363   4.588  17.426 -0.3657  0.5559 -1.2327
 5458SOL     OW28009   0.640   4.478   5.404  0.1400  0.1536 -0.0664
 5458SOL    HW128010   0.735   4.474   5.406  0.1442  0.1493 -0.2604
 5458SOL    HW228011   0.622   4.397   5.453 -0.6391  0.8043  0.7173
 5459SOL     OW28012   0.711   1.396   2.861  0.1080  0.2536  0.7197
 5459SOL    HW128013   0.765   1.429   2.933  1.9693 -3.5583  1.0792
 5459SOL    HW228014   0.624   1.403   2.901 -1.8436  0.3256 -3.5089
 5460SOL     OW28015   0.962   2.683   3.577  0.0378  0.2227  0.1561
 5460SOL    HW128016   0.969   2.707   3.485  2.2161  2.1846  0.8200
 5460SOL    HW228017   0.966   2.769   3.618  0.3161  0.3727 -0.1861
 5461SOL     OW28018   1.964   3.626   8.679  0.1850 -0.2574 -0.4671
 5461SOL    HW128019   2.026   3.605   8.749 -0.4154 -1.5420 -0.3152
 5461SOL    HW228020   1.888   3.580   8.716 -2.0740  1.7449 -2.6347
 5462SOL     OW28021   2.101   1.224   8.607 -0.4277 -0.0046  0.4108
 5462SOL    HW128022   2.158   1.147   8.605  0.4013  0.6849 -1.5727
 5462SOL    HW228023   2.145   1.279   8.671 -1.1798  2.6048 -1.3399
 5463SOL     OW28024   4.198   3.561  17.483 -0.6564 -0.1574  0.3471
 5463SOL    HW128025   4.245   3.612  17.549 -0.8435  0.7602 -0.2395
 5463SOL    HW228026   4.263   3.496  17.456 -0.1614  0.4044  0.2025
 5464SOL     OW28027   0.834   2.112   8.326  0.2822 -0.0337 -0.4683
 5464SOL    HW128028   0.854   2.093   8.235  0.8491  4.0782 -1.1960
 5464SOL    HW228029   0.852   2.026   8.364  2.8527  1.2744  1.2653
 5465SOL     OW28030   2.693   2.995   5.350 -0.4104 -0.1126  0.0935
 5465SOL    HW128031   2.784   2.965   5.353  0.4523  2.5425  0.9397
 5465SOL    HW228032   2.652   2.954   5.274 -1.2466  3.1770 -1.2502
 5466SOL     OW28033   0.257   1.782  14.106  0.0369  0.7332 -0.1268
 5466SOL    HW128034   0.259   1.843  14.033  3.1109  2.4983  1.4184
 5466SOL    HW228035   0.324   1.822  14.163 -1.8996  0.9120  2.0475
 5467SOL     OW28036   4.324   0.675   5.498  0.0071  0.0824  0.2638
 5467SOL    HW128037   4.320   0.591   5.454  1.1024  1.5250 -2.5627
 5467SOL    HW228038   4.320   0.717   5.413  0.8664 -2.8089 -1.2014
 5468SOL     OW28039   1.023   1.993   6.970 -0.3562  0.9756  0.0603
 5468SOL    HW128040   1.001   2.072   7.019  1.6930 -0.6357  3.5281
 5468SOL    HW228041   1.113   2.022   6.958 -0.4067  0.8188 -0.6699
 5469SOL     OW28042   3.928   2.297   8.303  0.0005 -0.4338 -0.3908
 5469SOL    HW128043   4.008   2.286   8.354  0.1197  0.9631 -0.2802
 5469SOL    HW228044   3.929   2.220   8.247  1.8038 -2.2388  2.0935
 5470SOL     OW28045   3.417   4.038   7.967 -0.2136  0.1354  0.1906
 5470SOL    HW128046   3.499   4.079   7.994 -0.8604  2.5755 -1.5845
 5470SOL    HW228047   3.411   3.965   8.029  2.1268  0.4910  0.8309
 5471SOL     OW28048   3.959   2.101   5.166 -0.9027 -0.2459  0.8683
 5471SOL    HW128049   3.905   2.171   5.202 -0.1765  1.9000 -2.2149
 5471SOL    HW228050   3.919   2.088   5.079 -0.6664 -2.7917  1.1180
 5472SOL     OW28051   0.750   4.146   6.277 -0.2033 -0.4580  0.0300
 5472SOL    HW128052   0.830   4.152   6.329  0.4428  1.9154 -1.2197
 5472SOL    HW228053   0.756   4.055   6.249 -0.5787 -0.0030 -1.5813
 5473SOL     OW28054   3.493   2.039   3.857  0.6373 -0.2868  0.1340
 5473SOL    HW128055   3.535   2.117   3.893  1.1911 -1.3633  1.8074
 5473SOL    HW228056   3.417   2.036   3.915  0.8134  4.6803  0.6251
 5474SOL     OW28057   2.363   3.856  12.738 -0.3000 -0.1028 -0.5961
 5474SOL    HW128058   2.355   3.762  12.721  0.1934 -0.6354  2.1959
 5474SOL    HW228059   2.270   3.879  12.744 -0.0154  0.3357  2.0557
 5475SOL     OW28060   1.685   2.075   8.066  0.5159  0.1809 -0.1312
 5475SOL    HW128061   1.729   2.030   7.993  0.0607  0.2862 -0.4684
 5475SOL    HW228062   1.594   2.045   8.074  1.1627 -1.3266  1.5609
 5476SOL     OW28063   0.925   3.495   4.792 -0.4325  0.6638  0.5787
 5476SOL    HW128064   0.938   3.578   4.838  0.8781 -0.5269  2.3403
 5476SOL    HW228065   1.003   3.500   4.735 -0.4201 -1.6660  0.4091
 5477SOL     OW28066   1.237   2.227   9.863  0.7338  0.1466  0.2856
 5477SOL    HW128067   1.170   2.277   9.818 -0.2445  0.9589  2.6469
 5477SOL    HW228068   1.183   2.204   9.939 -0.3676  1.7399 -0.0145
 5478SOL     OW28069   4.020   2.747   5.747  0.1201 -0.1971 -0.0085
 5478SOL    HW128070   4.105   2.788   5.760 -0.6362  0.5027  2.8420
 5478SOL    HW228071   3.971   2.805   5.805 -0.5890  0.7891 -1.6034
 5479SOL     OW28072   2.452   1.019   7.663  0.2701 -0.7118  0.4214
 5479SOL    HW128073   2.459   0.931   7.702  0.6267 -0.5448  0.7317
 5479SOL    HW228074   2.388   1.055   7.724  1.1288 -0.3169  1.0952
 5480SOL     OW28075   3.105   0.655   7.527 -0.4442  0.0734  0.1056
 5480SOL    HW128076   3.113   0.643   7.621 -1.4753  0.4683  0.2377
 5480SOL    HW228077   3.015   0.625   7.514  0.0946 -1.3134 -0.4214
 5481SOL     OW28078   3.701   1.926   8.291  0.1690  0.1479 -0.0046
 5481SOL    HW128079   3.625   1.871   8.270 -0.2357  1.2412 -1.4311
 5481SOL    HW228080   3.736   1.874   8.363  0.2041  0.2531  0.0552
 5482SOL     OW28081   1.886   2.393   8.808 -0.2360  0.0260  0.2004
 5482SOL    HW128082   1.814   2.371   8.868 -0.5208 -0.9525 -0.5011
 5482SOL    HW228083   1.915   2.466   8.862 -0.0969  0.9062 -1.0720
 5483SOL     OW28084   4.119   0.566   3.563 -0.2499 -0.2478  0.1427
 5483SOL    HW128085   4.121   0.518   3.646  0.9043  0.1806  0.3713
 5483SOL    HW228086   4.185   0.522   3.510  0.9357  0.9488  0.6214
 5484SOL     OW28087   3.721   0.414   0.729 -0.3404 -0.2177 -0.3062
 5484SOL    HW128088   3.798   0.461   0.761  0.3151 -1.3583 -0.1906
 5484SOL    HW228089   3.766   0.330   0.735  0.4596  0.2030 -0.3610
 5485SOL     OW28090   3.476   0.156  16.220  0.1113  0.2488  0.0752
 5485SOL    HW128091   3.480   0.065  16.248  1.6521  0.1006 -0.6572
 5485SOL    HW228092   3.493   0.199  16.304  0.9530 -1.0173  0.5409
 5486SOL     OW28093   3.050   2.151   6.125  0.0041 -0.1816 -0.1460
 5486SOL    HW128094   3.122   2.161   6.186 -1.4336 -1.2905  1.7326
 5486SOL    HW228095   3.095   2.083   6.075  0.0721 -0.4476  0.2788
 5487SOL     OW28096   3.466   1.441  11.231  0.8923  0.4540 -0.0807
 5487SOL    HW128097   3.490   1.472  11.144 -0.1460  1.5845  0.0296
 5487SOL    HW228098   3.513   1.358  11.239  1.8539  1.2681  2.9642
 5488SOL     OW28099   3.045   1.162   2.533 -0.0514  0.6146  0.8266
 5488SOL    HW128100   3.080   1.118   2.610 -3.2181 -2.0540  0.7288
 5488SOL    HW228101   3.083   1.250   2.542 -0.3618  0.6301  2.0720
 5489SOL     OW28102   2.484   0.795   8.707  0.4376  0.3757  0.5267
 5489SOL    HW128103   2.444   0.813   8.622 -0.7273 -0.5452  0.8808
 5489SOL    HW228104   2.499   0.883   8.741 -1.3634  1.5569 -1.6873
 5490SOL     OW28105   3.186   3.533  16.325  0.2453 -0.1833  0.0726
 5490SOL    HW128106   3.091   3.535  16.315  0.1498 -0.0845  1.0430
 5490SOL    HW228107   3.201   3.444  16.357 -1.9286 -0.7884 -0.5844
 5491SOL     OW28108   2.951   3.548   6.606  0.2927 -0.4399 -0.0410
 5491SOL    HW128109   2.880   3.505   6.559  0.9248 -1.6008  0.0350
 5491SOL    HW228110   3.027   3.539   6.549  0.2112  0.5374 -0.2913
 5492SOL     OW28111   1.950   1.912   7.706 -0.0515 -0.1753  0.3145
 5492SOL    HW128112   1.915   1.995   7.737 -0.0796 -0.2474  0.4780
 5492SOL    HW228113   1.869   1.862   7.721 -0.4093  0.3806  0.2396
 5493SOL     OW28114   0.790   3.768   4.059 -0.1767 -0.7870 -0.3415
 5493SOL    HW128115   0.882   3.747   4.079  0.5349  1.7320 -0.9979
 5493SOL    HW228116   0.795   3.857   4.094 -1.1220 -0.8645 -0.0297
 5494SOL     OW28117   0.406   3.185   5.606  0.8305 -0.0596 -0.5994
 5494SOL    HW128118   0.420   3.162   5.698  1.1009  0.6664 -0.4568
 5494SOL    HW228119   0.463   3.262   5.601 -0.1011  0.7092  0.6092
 5495SOL     OW28120   0.512   2.862   6.862  0.0133  0.2605 -0.5781
 5495SOL    HW128121   0.544   2.897   6.945 -1.5008  1.1462 -0.3727
 5495SOL    HW228122   0.478   2.935   6.810  0.8322  0.8257 -0.2981
 5496SOL     OW28123   2.553   0.107   5.539  0.0924  0.2194 -0.8950
 5496SOL    HW128124   2.522   0.019   5.520 -1.7052  1.0276 -1.7556
 5496SOL    HW228125   2.607   0.088   5.616 -2.2083 -1.0910  0.4077
 5497SOL     OW28126   4.688   0.395   5.533 -0.1858 -0.1962 -0.1182
 5497SOL    HW128127   0.019   0.330   5.513 -0.1054 -0.1095 -0.1284
 5497SOL    HW228128   4.726   0.434   5.612 -3.2186  1.4528  0.4869
 5498SOL     OW28129   4.671   1.187   2.152 -0.6574 -0.3202 -0.0830
 5498SOL    HW128130   4.661   1.092   2.162 -0.1614 -0.2142  1.3562
 5498SOL    HW228131   0.028   1.194   2.138 -0.5990 -0.4584  0.2397
 5499SOL     OW28132   3.091   4.133   5.461 -0.0631 -0.3750 -0.5007
 5499SOL    HW128133   3.102   4.134   5.366  0.7752  2.2360 -0.3888
 5499SOL    HW228134   3.039   4.214   5.468 -1.4014 -1.5625  2.8954
 5500SOL     OW28135   2.603   3.530   2.717 -0.0813  0.5090 -0.7726
 5500SOL    HW128136   2.588   3.481   2.636  1.4365 -0.0410 -0.7278
 5500SOL    HW228137   2.537   3.495   2.777  1.8768 -0.4673  0.8189
 5501SOL     OW28138   2.739   0.038   8.736  0.4034  0.6564 -0.6357
 5501SOL    HW128139   2.719   4.693   8.780  0.5060  1.3337  0.6959
 5501SOL    HW228140   2.793   0.002   8.666  2.1349 -0.7741  1.4360
 5502SOL     OW28141   3.267   0.805   1.239 -0.1136 -0.3557  0.4771
 5502SOL    HW128142   3.266   0.790   1.144  0.9433 -4.1776  1.0468
 5502SOL    HW228143   3.180   0.824   1.272  0.7088  0.3191  2.2211
 5503SOL     OW28144   0.069   2.383  15.213  0.0594 -0.8047 -0.0485
 5503SOL    HW128145   0.152   2.425  15.189 -1.2555  1.2570 -0.9362
 5503SOL    HW228146   0.097   2.292  15.215 -0.6146 -1.0042  0.0897
 5504SOL     OW28147   2.460   1.145   9.845 -0.1862  0.4882  0.4188
 5504SOL    HW128148   2.402   1.132   9.771  0.1405 -1.2590  0.4676
 5504SOL    HW228149   2.413   1.118   9.924 -1.6775 -1.5414 -1.1716
 5505SOL     OW28150   0.708   2.895   3.274  0.4063  0.4689 -0.1086
 5505SOL    HW128151   0.621   2.858   3.258  0.6174 -0.1241  0.0861
 5505SOL    HW228152   0.755   2.894   3.190  2.2768  0.5765  0.9441
 5506SOL     OW28153   3.728   4.643  10.720  0.4066  0.0662 -0.0162
 5506SOL    HW128154   3.748   4.659  10.628 -1.8808 -0.2360 -0.5708
 5506SOL    HW228155   3.767   4.720  10.762  0.3505  0.2750 -0.3522
 5507SOL     OW28156   1.873   3.064   9.673  0.0189  0.0335  0.0932
 5507SOL    HW128157   1.886   2.989   9.731  1.5014  1.2316  1.2832
 5507SOL    HW228158   1.794   3.028   9.631 -1.1381  2.3509  0.2624
 5508SOL     OW28159   3.434   2.353   5.080 -0.8672 -0.0618  0.0520
 5508SOL    HW128160   3.483   2.311   5.151 -0.9860  0.5761  0.5144
 5508SOL    HW228161   3.492   2.369   5.006  2.9035 -1.0269  2.7962
 5509SOL     OW28162   4.046   2.767   5.035  0.0072 -0.5950 -0.1906
 5509SOL    HW128163   4.004   2.849   5.010  1.3405  0.5005  1.1486
 5509SOL    HW228164   3.996   2.704   4.983 -2.0245 -0.0043  1.0719
 5510SOL     OW28165   2.910   2.720   0.447 -0.3603  0.1211 -0.1186
 5510SOL    HW128166   2.849   2.794   0.445 -0.4258  0.0579 -0.7139
 5510SOL    HW228167   2.983   2.760   0.399 -1.3870 -0.0842 -1.8876
 5511SOL     OW28168   4.044   4.041  11.013  0.3287  0.2759 -0.0760
 5511SOL    HW128169   4.105   4.115  11.012  0.7656 -0.0776  0.3349
 5511SOL    HW228170   3.960   4.081  11.033 -0.8621 -1.7665 -0.9866
 5512SOL     OW28171   1.674   1.906  13.048  0.0683 -0.1943  0.0089
 5512SOL    HW128172   1.615   1.834  13.069  0.1443 -0.3879 -0.4240
 5512SOL    HW228173   1.725   1.859  12.982  1.2708  1.4886 -0.2776
 5513SOL     OW28174   1.399   2.348   6.800  0.0107  0.2779 -0.0481
 5513SOL    HW128175   1.335   2.412   6.770  0.8432  0.7007 -0.9457
 5513SOL    HW228176   1.466   2.352   6.731 -0.5896 -1.4824 -0.7279
 5514SOL     OW28177   3.524   0.365  17.146 -0.8474  0.3552  0.0282
 5514SOL    HW128178   3.458   0.296  17.149 -0.8809  0.3855 -0.0159
 5514SOL    HW228179   3.496   0.416  17.222  1.2978  0.0354  1.0357
 5515SOL     OW28180   2.147   4.682   4.082  0.3730  0.0226  0.0034
 5515SOL    HW128181   2.051   4.684   4.094  0.4675 -2.1357  1.2683
 5515SOL    HW228182   2.146   4.663   3.988  1.7449  0.2677 -0.0557
 5516SOL     OW28183   4.096   2.905   8.475 -0.5619  0.1385 -0.2858
 5516SOL    HW128184   4.010   2.863   8.466 -0.3520 -0.0609 -1.2731
 5516SOL    HW228185   4.069   2.996   8.458 -0.1990  0.8987  3.1025
 5517SOL     OW28186   4.255   1.887  12.619 -0.3821  0.1057 -0.5379
 5517SOL    HW128187   4.324   1.877  12.553  0.5230 -1.5486  0.6593
 5517SOL    HW228188   4.182   1.841  12.577 -0.7811  0.3779 -0.1315
 5518SOL     OW28189   4.474   0.004  14.521 -0.2820  0.1669  0.4408
 5518SOL    HW128190   4.545   0.021  14.583 -0.3426  2.5774 -0.1688
 5518SOL    HW228191   4.486   0.070  14.453 -3.0314 -2.3350 -2.4822
 5519SOL     OW28192   1.767   0.332  16.532  0.2055  0.5446 -0.5878
 5519SOL    HW128193   1.842   0.358  16.478 -0.6361  0.6987 -1.6756
 5519SOL    HW228194   1.702   0.320  16.462  1.6084  0.4439 -1.8804
 5520SOL     OW28195   1.034   0.014   4.850 -0.4119  0.1134 -0.3181
 5520SOL    HW128196   1.121   0.019   4.890 -1.4002  0.1853  1.8292
 5520SOL    HW228197   1.002   0.096   4.887 -2.3557 -0.2497 -1.2368
 5521SOL     OW28198   2.269   2.406  16.350  0.2667 -0.4354  0.2789
 5521SOL    HW128199   2.335   2.473  16.369  0.8885 -0.3215 -2.2841
 5521SOL    HW228200   2.302   2.361  16.272  1.8578  1.4266 -0.1285
 5522SOL     OW28201   1.853   3.866  17.706 -0.1108 -0.9257  0.2024
 5522SOL    HW128202   1.883   3.863   0.051  0.2505 -2.1644  0.0422
 5522SOL    HW228203   1.786   3.797  17.707 -1.1798  0.1071 -0.1235
 5523SOL     OW28204   4.215   0.204   4.778 -0.1734  0.5435 -0.3960
 5523SOL    HW128205   4.282   0.137   4.765 -1.3063 -0.8774  1.1028
 5523SOL    HW228206   4.267   0.255   4.841  0.4230  1.9569 -2.0468
 5524SOL     OW28207   0.537   3.824   9.027  0.1156 -0.3142  0.3528
 5524SOL    HW128208   0.621   3.869   9.037  0.8956 -1.7638  0.2953
 5524SOL    HW228209   0.500   3.849   9.111 -0.2223 -0.0395  0.1201
 5525SOL     OW28210   3.493   0.395  12.288 -0.0134 -0.0974  0.5622
 5525SOL    HW128211   3.542   0.413  12.207  0.2019  0.6305  0.8533
 5525SOL    HW228212   3.404   0.418  12.260  0.9145  0.3967 -2.0317
 5526SOL     OW28213   0.566   1.617   4.291 -0.6018 -0.1358  0.5888
 5526SOL    HW128214   0.637   1.681   4.300 -0.5313 -0.3818  1.8733
 5526SOL    HW228215   0.589   1.572   4.210 -2.8143  0.5921 -0.4296
 5527SOL     OW28216   2.399   0.444   6.024 -0.5660  0.1604  0.4487
 5527SOL    HW128217   2.356   0.503   6.086 -2.2981 -0.2472 -0.3599
 5527SOL    HW228218   2.325   0.424   5.967  0.7220 -0.1821 -1.0905
 5528SOL     OW28219   3.377   2.248  11.071 -0.0550  0.4341  0.0689
 5528SOL    HW128220   3.469   2.273  11.068  0.3172 -0.7895  1.4572
 5528SOL    HW228221   3.379   2.195  10.992 -0.7829 -0.8630  0.9175
 5529SOL     OW28222   1.928   0.965   7.200  0.5500 -0.2852  0.0028
 5529SOL    HW128223   1.866   0.900   7.168 -0.7089  0.4291  0.9450
 5529SOL    HW228224   1.958   0.995   7.114 -0.3740  1.0350  0.1310
 5530SOL     OW28225   0.468   3.781   7.296  0.1008  0.0721 -1.0021
 5530SOL    HW128226   0.443   3.720   7.365  3.0602  0.5122  0.4696
 5530SOL    HW228227   0.424   3.735   7.225  0.6944  0.1413 -1.4147
 5531SOL     OW28228   4.406   4.022  11.221 -0.1415  0.2789 -0.5228
 5531SOL    HW128229   4.385   4.066  11.139  0.6807 -2.1855 -2.0305
 5531SOL    HW228230   4.496   3.991  11.213 -0.1170  0.5017 -1.0687
 5532SOL     OW28231   4.358   3.466   5.575 -0.0841  0.1476  0.1286
 5532SOL    HW128232   4.376   3.513   5.493 -0.9666 -1.9951 -1.2808
 5532SOL    HW228233   4.295   3.403   5.539  0.7772 -1.1073  0.8505
 5533SOL     OW28234   4.463   2.904  11.195  0.0235 -0.6291 -0.0123
 5533SOL    HW128235   4.460   2.961  11.118 -2.3502 -1.5978 -0.6606
 5533SOL    HW228236   4.557   2.886  11.190 -0.6214 -3.9736 -0.2106
 5534SOL     OW28237   0.426   2.436   2.170 -0.0105 -0.4866 -0.4028
 5534SOL    HW128238   0.402   2.402   2.084 -1.4474  1.8036 -0.9080
 5534SOL    HW228239   0.467   2.522   2.159  1.4238 -1.0440  0.5214
 5535SOL     OW28240   3.956   1.842   1.034 -0.4815  0.0542 -0.1654
 5535SOL    HW128241   3.948   1.899   1.111 -0.0640  0.4275 -0.4024
 5535SOL    HW228242   3.869   1.865   1.003 -1.5812 -2.6646  0.9041
 5536SOL     OW28243   1.327   1.543   5.321 -0.2600 -0.5329 -0.1620
 5536SOL    HW128244   1.347   1.632   5.349 -0.8835 -0.3443 -0.3210
 5536SOL    HW228245   1.245   1.549   5.273  0.1888  1.2096 -0.6917
 5537SOL     OW28246   3.473   3.767  15.357  0.2538  0.4000  0.6344
 5537SOL    HW128247   3.513   3.851  15.338 -2.1987  0.9318 -2.2720
 5537SOL    HW228248   3.556   3.720  15.362  0.7410  1.2958  0.8740
 5538SOL     OW28249   2.421   0.799   5.438 -0.1954 -0.2256  0.1809
 5538SOL    HW128250   2.362   0.778   5.366 -0.8810 -0.7262  0.8861
 5538SOL    HW228251   2.428   0.711   5.477  4.4672 -0.5402 -1.3021
 5539SOL     OW28252   0.699   1.091   0.861 -0.4904  0.2341  0.3977
 5539SOL    HW128253   0.700   1.157   0.930 -0.1291  1.3310 -0.6622
 5539SOL    HW228254   0.723   1.148   0.788  2.1343 -0.5345  0.6773
 5540SOL     OW28255   2.804   3.713   1.746  0.2347 -0.1217  0.1341
 5540SOL    HW128256   2.783   3.620   1.750 -2.6000  0.4944 -0.6560
 5540SOL    HW228257   2.865   3.705   1.673 -1.2816  1.8139 -1.3440
 5541SOL     OW28258   0.751   3.803  12.106 -0.1376 -1.0445 -0.1827
 5541SOL    HW128259   0.691   3.731  12.089 -0.2804 -1.1474  0.7873
 5541SOL    HW228260   0.791   3.823  12.021  1.6748 -0.6268  0.7693
 5542SOL     OW28261   3.945   3.015   7.778 -0.0775  0.2049 -0.3469
 5542SOL    HW128262   3.936   2.924   7.805  0.7613  0.5369  1.1085
 5542SOL    HW228263   4.036   3.013   7.747 -0.2138  0.3494 -0.7575
 5543SOL     OW28264   1.345   3.473  13.370  0.1565  0.3382  0.4260
 5543SOL    HW128265   1.410   3.504  13.433  1.9487 -0.2278 -1.1400
 5543SOL    HW228266   1.339   3.553  13.318  1.2945  1.0500  1.3872
 5544SOL     OW28267   4.165   1.998  16.218 -0.0290 -0.3078  0.1263
 5544SOL    HW128268   4.254   2.016  16.248 -0.0323 -1.0915  0.6101
 5544SOL    HW228269   4.168   2.045  16.134  1.4935 -0.5528  0.0504
 5545SOL     OW28270   0.594   1.507   3.101  0.0877 -0.1912  0.0533
 5545SOL    HW128271   0.686   1.501   3.128  0.3153  0.5855 -0.5423
 5545SOL    HW228272   0.550   1.524   3.185 -0.4490 -0.5858 -0.1533
 5546SOL     OW28273   2.402   3.338  14.694 -0.4776  0.1240 -0.6741
 5546SOL    HW128274   2.358   3.314  14.775  2.7160 -0.6711  0.8488
 5546SOL    HW228275   2.414   3.249  14.659 -2.0169  0.0284 -0.9409
 5547SOL     OW28276   1.654   3.210   2.719 -0.1633  0.0707 -0.0424
 5547SOL    HW128277   1.567   3.188   2.684 -0.4486  0.0291  0.6968
 5547SOL    HW228278   1.670   3.145   2.788 -0.9750 -1.3018 -1.1360
 5548SOL     OW28279   2.390   4.557   9.269 -0.0900  0.2485  0.0817
 5548SOL    HW128280   2.343   4.539   9.187 -0.4846 -1.3887  0.6655
 5548SOL    HW228281   2.308   4.564   9.318  0.5405 -0.4974  1.2255
 5549SOL     OW28282   0.538   1.499   3.370  0.3455  0.4693  0.3936
 5549SOL    HW128283   0.488   1.581   3.370  0.8560  0.7887 -2.2697
 5549SOL    HW228284   0.505   1.455   3.449 -0.0153 -0.0884 -0.0716
 5550SOL     OW28285   3.147   3.623   2.799  0.1004 -0.1886  0.1404
 5550SOL    HW128286   3.084   3.558   2.768 -0.4403  0.8303 -0.8970
 5550SOL    HW228287   3.106   3.704   2.768  1.8921  1.0099  0.8530
 5551SOL     OW28288   2.809   2.667   8.598 -0.5139  0.3775 -0.6470
 5551SOL    HW128289   2.878   2.608   8.568  0.0270  0.5682  0.2486
 5551SOL    HW228290   2.767   2.680   8.513  2.6088  3.0444 -1.8097
 5552SOL     OW28291   0.044   1.737   2.401 -0.1554  0.1836  0.0500
 5552SOL    HW128292   0.071   1.648   2.379 -0.5978  0.7552 -2.8660
 5552SOL    HW228293   0.094   1.756   2.480 -2.8840  0.7125  1.6488
 5553SOL     OW28294   3.717   2.762   2.464 -0.0871  0.5005  0.3696
 5553SOL    HW128295   3.742   2.705   2.391  0.7771  2.9092 -1.1954
 5553SOL    HW228296   3.713   2.695   2.532  0.0588  1.3969  1.2619
 5554SOL     OW28297   2.226   2.861  16.413 -0.1807 -0.1321 -0.0473
 5554SOL    HW128298   2.222   2.851  16.317 -2.1197 -0.3665  0.0689
 5554SOL    HW228299   2.134   2.876  16.434  1.2514  6.4639  1.4791
 5555SOL     OW28300   3.438   3.170   5.294  0.2856  0.2792 -0.8864
 5555SOL    HW128301   3.412   3.262   5.286  0.5279  0.4520  0.2234
 5555SOL    HW228302   3.406   3.141   5.209 -0.5664 -0.6709 -0.2440
 5556SOL     OW28303   2.757   3.330   2.091  0.3683 -0.0380  0.1348
 5556SOL    HW128304   2.830   3.310   2.032 -0.5505 -1.2931 -0.5925
 5556SOL    HW228305   2.697   3.257   2.076 -1.5687  1.5197  0.4044
 5557SOL     OW28306   3.189   0.431   1.746 -0.3029  0.8537 -0.8778
 5557SOL    HW128307   3.110   0.482   1.762 -0.9406 -0.2298 -0.5727
 5557SOL    HW228308   3.186   0.420   1.651  2.5881 -0.5280 -0.8137
 5558SOL     OW28309   3.246   2.104   7.310  0.5259  0.0427 -0.2271
 5558SOL    HW128310   3.239   2.030   7.370  0.1621  1.5447  1.5906
 5558SOL    HW228311   3.338   2.125   7.321  0.0417  1.6137  0.8533
 5559SOL     OW28312   1.157   1.041   7.592  0.4189 -0.1991  0.1863
 5559SOL    HW128313   1.095   1.109   7.565 -0.6333 -0.7195  1.3052
 5559SOL    HW228314   1.234   1.073   7.545 -0.3418 -2.7627 -2.8478
 5560SOL     OW28315   3.109   3.347   2.572  0.4852 -0.2605  0.6428
 5560SOL    HW128316   3.057   3.271   2.544 -0.3924  0.1929  1.0256
 5560SOL    HW228317   3.135   3.321   2.660  0.0670  1.8588  1.3960
 5561SOL     OW28318   1.884   2.465   7.282 -0.2067  0.1662  0.6221
 5561SOL    HW128319   1.890   2.373   7.258 -0.1699 -0.1689  1.9267
 5561SOL    HW228320   1.799   2.482   7.240 -0.4756 -3.8524 -0.4033
 5562SOL     OW28321   1.049   3.699   2.009  0.2810 -0.3426  0.6272
 5562SOL    HW128322   1.041   3.685   1.914 -0.4977  0.1702  0.6062
 5562SOL    HW228323   0.955   3.715   2.023  0.7342  0.5857  2.5541
 5563SOL     OW28324   2.693   0.631   8.557  0.2759 -0.0977  0.1371
 5563SOL    HW128325   2.689   0.601   8.648 -0.2608  0.4056  0.2835
 5563SOL    HW228326   2.756   0.703   8.563 -0.3405  0.5302 -0.9936
 5564SOL     OW28327   3.061   0.840   1.944  0.4141 -0.2240 -0.6159
 5564SOL    HW128328   2.968   0.820   1.947  0.4103  0.1246  1.1203
 5564SOL    HW228329   3.065   0.903   1.872 -4.1888  1.0009  0.2214
 5565SOL     OW28330   2.946   0.534   2.277  0.2005  0.3257 -0.3075
 5565SOL    HW128331   2.894   0.453   2.271 -0.7358  0.9364 -0.3499
 5565SOL    HW228332   3.028   0.512   2.233 -1.2268 -1.2805 -2.1878
 5566SOL     OW28333   0.590   3.274   2.425 -0.1919 -0.5742 -0.4087
 5566SOL    HW128334   0.638   3.206   2.378 -2.7159 -2.7465  0.1701
 5566SOL    HW228335   0.535   3.317   2.360  0.5700  0.3601 -0.4295
 5567SOL     OW28336   2.680   1.089  16.919 -0.2355  0.0213 -0.3270
 5567SOL    HW128337   2.710   1.155  16.981  0.2050 -1.5055  1.0903
 5567SOL    HW228338   2.624   1.142  16.862 -0.0697  0.1494 -0.3701
 5568SOL     OW28339   0.582   2.320   4.717 -0.0746  0.2024  0.4184
 5568SOL    HW128340   0.502   2.274   4.692  0.5425  1.4668 -3.9498
 5568SOL    HW228341   0.647   2.250   4.703  1.3611  1.3981  1.1672
 5569SOL     OW28342   1.447   2.975   1.219 -0.6462 -0.0615 -0.1685
 5569SOL    HW128343   1.469   3.051   1.272 -1.8317 -1.6521  2.5997
 5569SOL    HW228344   1.441   2.917   1.294 -3.1550 -2.0312 -1.9068
 5570SOL     OW28345   0.336   2.822   6.459 -0.1770  0.5249 -0.5665
 5570SOL    HW128346   0.378   2.742   6.426  0.2502  1.0320 -1.2486
 5570SOL    HW228347   0.314   2.788   6.546 -1.0762 -0.6322 -1.2578
 5571SOL     OW28348   1.701   4.728   8.780  0.2413 -0.3660  0.0829
 5571SOL    HW128349   1.721   0.038   8.700  0.8777  3.1929  2.3257
 5571SOL    HW228350   1.771   0.031   8.831  0.1406 -1.6768  1.2664
 5572SOL     OW28351   3.732   1.422   8.705 -0.2930 -0.0882  0.0557
 5572SOL    HW128352   3.741   1.381   8.619  3.7291  1.0573 -0.0379
 5572SOL    HW228353   3.646   1.465   8.709 -0.2741 -0.1057  0.7767
 5573SOL     OW28354   2.149   3.632   7.769  0.3288 -0.2241  0.6510
 5573SOL    HW128355   2.216   3.690   7.805  0.7946 -1.3703  1.6220
 5573SOL    HW228356   2.131   3.656   7.678  3.0177 -1.0863 -0.1045
 5574SOL     OW28357   3.965   1.844  14.904  0.5199 -0.1756  0.0205
 5574SOL    HW128358   4.056   1.848  14.934  0.6596 -2.3159 -0.1211
 5574SOL    HW228359   3.912   1.893  14.968 -1.2948 -0.2404 -1.4472
 5575SOL     OW28360   3.711   3.786   5.607 -0.5531  0.2805  0.0320
 5575SOL    HW128361   3.676   3.832   5.683 -0.8087  1.3188 -0.7162
 5575SOL    HW228362   3.749   3.713   5.655 -0.3609  0.7887  0.6580
 5576SOL     OW28363   0.164   3.781  13.131  0.2516 -0.0781  0.1789
 5576SOL    HW128364   0.077   3.769  13.169 -0.6079  1.8858 -1.1911
 5576SOL    HW228365   0.148   3.834  13.053 -2.3575 -0.8225  0.1923
 5577SOL     OW28366   0.116   2.817   2.504  0.3529 -0.3316  0.0223
 5577SOL    HW128367   0.178   2.746   2.522 -0.8526 -1.1539  0.9853
 5577SOL    HW228368   0.045   2.777   2.452  0.9340 -1.2632 -0.0541
 5578SOL     OW28369   3.983   2.464   5.378  0.1610 -0.0555  0.4553
 5578SOL    HW128370   4.038   2.454   5.455  1.0557  1.0892 -0.0348
 5578SOL    HW228371   3.934   2.543   5.401  0.6649  0.2632  0.4292
 5579SOL     OW28372   4.715   3.014   3.470 -0.7128  0.1027 -0.3401
 5579SOL    HW128373   0.020   3.099   3.487  1.5874 -1.3712  1.4453
 5579SOL    HW228374   4.684   3.043   3.385  2.4732  0.6565 -1.3266
 5580SOL     OW28375   2.769   3.620   6.057  0.3750 -0.3772  0.1499
 5580SOL    HW128376   2.751   3.710   6.030 -1.1862 -0.5584  0.5773
 5580SOL    HW228377   2.726   3.615   6.142  0.2737  2.1876  0.2565
 5581SOL     OW28378   4.547   0.858   1.592 -0.9572  0.5302  0.1362
 5581SOL    HW128379   4.568   0.922   1.524 -1.4980 -1.0147 -1.4913
 5581SOL    HW228380   4.510   0.788   1.539  0.7664 -0.5941  0.4032
 5582SOL     OW28381   3.266   4.282   0.961 -0.3402  0.0259 -0.4422
 5582SOL    HW128382   3.331   4.240   1.018 -0.8237  1.1818  0.9727
 5582SOL    HW228383   3.325   4.346   0.921 -0.9250  1.5422  1.0872
 5583SOL     OW28384   4.730   2.301   4.157  0.4497  0.3461  0.6190
 5583SOL    HW128385   4.661   2.238   4.177  0.3092  0.3362  0.0923
 5583SOL    HW228386   0.057   2.283   4.226  1.5341  1.7106 -0.0385
 5584SOL     OW28387   3.569   3.557  16.793 -0.0112  0.2784  0.4451
 5584SOL    HW128388   3.646   3.611  16.811 -0.7299  1.4425  0.0195
 5584SOL    HW228389   3.503   3.601  16.847  0.6373  1.1855  0.4986
 5585SOL     OW28390   3.821   3.889  17.141  0.0336  0.0570  0.8815
 5585SOL    HW128391   3.913   3.875  17.122  0.0475  0.4179  0.6777
 5585SOL    HW228392   3.816   3.984  17.129  1.1002 -0.1944 -1.5837
 5586SOL     OW28393   2.944   1.543   6.937 -0.1681  0.0394 -0.4488
 5586SOL    HW128394   2.856   1.513   6.913 -1.0431  2.2210  0.0669
 5586SOL    HW228395   2.921   1.590   7.016 -0.8452  1.4087 -1.4691
 5587SOL     OW28396   4.184   0.108   9.104 -0.0623 -0.0417  0.0019
 5587SOL    HW128397   4.208   0.044   9.037  3.1904  2.0306 -0.8191
 5587SOL    HW228398   4.100   0.135   9.069 -0.4306 -0.4318  0.5890
 5588SOL     OW28399   1.858   2.817   3.636  0.1097  0.3885  0.5264
 5588SOL    HW128400   1.886   2.885   3.696  2.2171 -1.1252  1.2264
 5588SOL    HW228401   1.774   2.792   3.676 -0.5047  1.4760 -0.0850
 5589SOL     OW28402   2.018   3.037  13.194 -0.0232 -0.3194  0.3658
 5589SOL    HW128403   1.952   2.997  13.137  1.0638  0.0818 -1.1648
 5589SOL    HW228404   1.983   3.017  13.281  3.3315  0.8327  1.9675
 5590SOL     OW28405   0.919   3.623  10.079 -0.1369 -0.4401 -0.4346
 5590SOL    HW128406   0.879   3.537  10.094 -1.4741 -0.0553 -1.8219
 5590SOL    HW228407   0.880   3.628   9.992 -0.0091  1.6607 -0.3662
 5591SOL     OW28408   2.776   2.204   8.294 -0.0396  0.1752 -0.2033
 5591SOL    HW128409   2.707   2.262   8.263 -0.5093 -0.1062  0.3280
 5591SOL    HW228410   2.727   2.161   8.364  1.8563  0.0668  1.0793
 5592SOL     OW28411   1.636   4.118  16.533 -0.0053 -0.2924  0.0647
 5592SOL    HW128412   1.640   4.206  16.572  2.2111  0.5538 -2.0684
 5592SOL    HW228413   1.708   4.128  16.471  0.6947 -0.0037  0.9223
 5593SOL     OW28414   2.793   4.331   4.633  0.1901  0.3789 -0.2195
 5593SOL    HW128415   2.698   4.341   4.627 -0.0416 -0.3581  2.2003
 5593SOL    HW228416   2.807   4.252   4.581 -0.6309 -0.5019  0.9066
 5594SOL     OW28417   1.117   0.055   5.760  0.4745  0.3396  0.3671
 5594SOL    HW128418   1.031   0.097   5.767  0.1496 -0.5725  1.6376
 5594SOL    HW228419   1.165   0.129   5.798 -1.8165  0.3991  3.1693
 5595SOL     OW28420   0.598   3.173   4.925  0.2506  0.0688  0.2138
 5595SOL    HW128421   0.534   3.201   4.991  3.2436  3.8959  1.5658
 5595SOL    HW228422   0.671   3.217   4.970 -2.4328  3.3442  1.3467
 5596SOL     OW28423   1.862   1.307  10.924  0.4313 -0.8175  0.5838
 5596SOL    HW128424   1.842   1.214  10.938  2.4071 -1.5895 -1.7402
 5596SOL    HW228425   1.856   1.349  11.010 -0.3095  0.5067 -0.1112
 5597SOL     OW28426   3.868   1.375   0.843  0.6720  0.0795  0.4349
 5597SOL    HW128427   3.899   1.462   0.869 -0.3252  0.6762 -0.3317
 5597SOL    HW228428   3.944   1.321   0.866  1.3911  1.6829  1.7961
 5598SOL     OW28429   1.027   0.693   1.948 -0.0616 -0.4866  0.0748
 5598SOL    HW128430   0.933   0.675   1.958 -0.0632 -0.1885  0.6120
 5598SOL    HW228431   1.038   0.671   1.856 -0.0093 -1.5708  0.3397
 5599SOL     OW28432   1.203   3.813   5.888 -0.6118  0.2475  0.2484
 5599SOL    HW128433   1.184   3.903   5.861  0.7553  0.0091 -1.5645
 5599SOL    HW228434   1.123   3.762   5.898 -2.3915  2.3954 -2.9177
 5600SOL     OW28435   3.481   2.190   7.679 -0.7816 -0.1200 -0.1583
 5600SOL    HW128436   3.576   2.187   7.689 -0.6525 -0.5340 -1.4512
 5600SOL    HW228437   3.457   2.250   7.750 -1.7493  0.0680 -0.6384
 5601SOL     OW28438   1.606   2.091   6.442  0.0576  0.0454  0.1210
 5601SOL    HW128439   1.647   2.019   6.490 -0.8319  0.5593  1.6504
 5601SOL    HW228440   1.583   2.035   6.368 -2.3981  0.9291  0.1946
 5602SOL     OW28441   2.972   1.214  12.048 -0.2902  0.0225 -0.5806
 5602SOL    HW128442   3.012   1.186  11.966  0.5352  2.8518 -1.1252
 5602SOL    HW228443   3.016   1.155  12.109 -0.7385  0.7837  0.4800
 5603SOL     OW28444   2.994   4.030  16.550 -0.3254 -0.2611 -0.2860
 5603SOL    HW128445   2.985   4.073  16.635  2.7489  0.5329 -0.3615
 5603SOL    HW228446   2.994   4.111  16.498  1.5318  0.9978  1.6593
 5604SOL     OW28447   2.917   0.666   2.524 -0.1911 -0.2513  0.4411
 5604SOL    HW128448   3.000   0.699   2.557 -1.5221  2.6035  0.8848
 5604SOL    HW228449   2.928   0.637   2.433  1.9126  0.1555  0.5752
 5605SOL     OW28450   2.393   3.824   5.857 -0.0888  0.7999 -0.1238
 5605SOL    HW128451   2.341   3.841   5.779 -1.2141 -0.6795  0.3102
 5605SOL    HW228452   2.375   3.731   5.870 -0.9322  1.2599  1.9235
 5606SOL     OW28453   2.362   3.539   4.641 -0.7132  0.3273  0.3190
 5606SOL    HW128454   2.319   3.525   4.726 -0.8099 -2.9026 -0.2874
 5606SOL    HW228455   2.433   3.600   4.661  0.5186 -0.8233 -0.5630
 5607SOL     OW28456   4.499   2.284   6.371 -0.4560  0.2358 -0.1926
 5607SOL    HW128457   4.452   2.229   6.307  0.8976 -0.5981 -0.4857
 5607SOL    HW228458   4.584   2.240   6.372 -1.1340 -1.1352 -1.1484
 5608SOL     OW28459   2.538   2.864   7.998 -0.4357 -0.1758 -0.2581
 5608SOL    HW128460   2.443   2.862   7.987 -0.2532 -1.8779 -1.6307
 5608SOL    HW228461   2.569   2.791   7.944  1.3585 -1.0814  2.0433
 5609SOL     OW28462   0.000   2.884  10.588 -0.2500 -0.2289  0.1369
 5609SOL    HW128463   4.650   2.920  10.602  0.3864  0.7597  1.6255
 5609SOL    HW228464   0.012   2.851  10.677  1.9194  2.4375  0.8399
 5610SOL     OW28465   3.380   3.825   0.950  0.1903  0.0692 -0.2637
 5610SOL    HW128466   3.366   3.730   0.961  2.3321 -0.2220 -0.1297
 5610SOL    HW228467   3.337   3.832   0.865 -0.8689 -1.7763  0.1089
 5611SOL     OW28468   4.158   0.840   8.708  0.4729 -0.3864 -0.3253
 5611SOL    HW128469   4.070   0.866   8.735 -0.2648 -2.0004 -1.2014
 5611SOL    HW228470   4.167   0.870   8.617 -1.2329  0.2761 -0.2677
 5612SOL     OW28471   0.746   2.065   4.200  0.0892 -0.1089 -0.1556
 5612SOL    HW128472   0.778   2.101   4.118  0.1012 -2.1017 -1.0290
 5612SOL    HW228473   0.823   2.057   4.256  0.0504 -2.7356 -0.4908
 5613SOL     OW28474   3.959   2.526   3.196  0.4311  0.3153 -0.5283
 5613SOL    HW128475   3.929   2.609   3.161  0.5136  0.3750 -0.4586
 5613SOL    HW228476   4.044   2.512   3.154  0.6676 -2.8284  0.9487
 5614SOL     OW28477   1.629   1.831   1.612  0.1416 -0.3926  0.0750
 5614SOL    HW128478   1.718   1.807   1.637 -0.2321 -0.0241  1.7706
 5614SOL    HW228479   1.612   1.793   1.526  1.0928  0.6574 -0.5717
 5615SOL     OW28480   2.441   3.395  16.282 -0.0432  0.0533 -0.1331
 5615SOL    HW128481   2.387   3.322  16.312  0.3547 -0.8372 -1.5619
 5615SOL    HW228482   2.520   3.341  16.275  0.2848  0.4526  0.5882
 5616SOL     OW28483   4.042   2.976   2.068  0.3574  0.3722  0.5290
 5616SOL    HW128484   4.035   3.000   1.976 -1.7119  0.7350  0.7719
 5616SOL    HW228485   3.991   2.894   2.061 -1.6559  1.6768 -0.1674
 5617SOL     OW28486   3.730   0.009   3.000  0.2613  0.0004 -0.3524
 5617SOL    HW128487   3.675   4.712   3.071  0.0819  1.3943  0.1736
 5617SOL    HW228488   3.813   4.699   3.006 -0.4462 -1.1474  0.5638
 5618SOL     OW28489   3.432   1.005   9.935  0.6279  0.6151 -0.0482
 5618SOL    HW128490   3.424   1.047  10.021  1.1868 -1.8541  1.2330
 5618SOL    HW228491   3.522   1.024   9.911  1.3584  0.5915  2.6076
 5619SOL     OW28492   3.417   4.326  10.591 -0.4783 -0.5667 -0.5815
 5619SOL    HW128493   3.359   4.395  10.622 -0.6670 -0.2270 -1.6631
 5619SOL    HW228494   3.485   4.333  10.658  0.5390  0.2213 -1.6778
 5620SOL     OW28495   3.406   2.652   1.974 -0.3391 -0.8179 -0.1791
 5620SOL    HW128496   3.427   2.735   2.018  0.2086 -0.2430 -1.4960
 5620SOL    HW228497   3.364   2.689   1.896 -0.7636 -1.5274 -0.2851
 5621SOL     OW28498   4.099   1.627   0.924  0.6347 -0.6905  0.2016
 5621SOL    HW128499   4.127   1.654   0.837 -0.2128  0.3424  0.2496
 5621SOL    HW228500   4.061   1.709   0.955 -2.1897 -1.0451 -2.3552
 5622SOL     OW28501   4.621   1.032   5.146  0.1812  0.1157 -0.5629
 5622SOL    HW128502   4.526   1.023   5.155 -0.0353  2.2068 -0.7390
 5622SOL    HW228503   4.634   1.093   5.218  2.1491  2.7486 -3.1320
 5623SOL     OW28504   1.166   4.275  16.875  0.0601 -0.1739 -0.0355
 5623SOL    HW128505   1.217   4.276  16.794 -0.0718 -1.3389 -0.1289
 5623SOL    HW228506   1.109   4.352  16.867  1.2360  0.4265 -2.3685
 5624SOL     OW28507   1.748   3.158   1.967 -0.2626  0.4103 -0.0977
 5624SOL    HW128508   1.826   3.157   2.023  1.6165  0.5992 -2.6679
 5624SOL    HW228509   1.771   3.238   1.918  0.9407  0.3930  0.4403
 5625SOL     OW28510   4.256   2.209  14.365 -0.0763  0.0412  0.1310
 5625SOL    HW128511   4.227   2.155  14.439  1.1172 -2.3319 -1.1370
 5625SOL    HW228512   4.194   2.187  14.297 -0.5897  2.3154 -0.1359
 5626SOL     OW28513   1.452   2.285   2.787  0.2028  0.5943  0.5867
 5626SOL    HW128514   1.542   2.312   2.767  0.6672 -1.6010 -0.2488
 5626SOL    HW228515   1.418   2.270   2.699  0.6915  0.5078  0.4127
 5627SOL     OW28516   4.701   2.610   7.331 -0.0743 -0.2432  0.7710
 5627SOL    HW128517   0.029   2.671   7.365 -0.3105 -0.5368  1.7490
 5627SOL    HW228518   4.647   2.669   7.279  1.5057 -0.3833 -1.0039
 5628SOL     OW28519   4.347   2.643   3.754 -0.1173 -0.3633 -0.4183
 5628SOL    HW128520   4.344   2.614   3.845 -0.3379  1.5426  0.1791
 5628SOL    HW228521   4.354   2.737   3.766  0.2225 -0.6814  1.8437
 5629SOL     OW28522   2.092   2.609  11.710 -0.1467 -0.1617 -0.2000
 5629SOL    HW128523   2.037   2.532  11.694 -3.3788  1.5353  2.6603
 5629SOL    HW228524   2.142   2.608  11.628  0.4279  0.5311  0.1454
 5630SOL     OW28525   2.022   2.358   3.332 -0.3678  0.0415  0.0295
 5630SOL    HW128526   1.934   2.353   3.369  0.6375 -2.7073  2.0472
 5630SOL    HW228527   2.070   2.326   3.408 -0.8335  1.2571  0.8422
 5631SOL     OW28528   0.637   0.685   2.577 -0.4641 -0.9638 -0.0484
 5631SOL    HW128529   0.692   0.645   2.644  0.3584  0.7267  0.2816
 5631SOL    HW228530   0.569   0.726   2.631 -0.6888  0.0086 -1.0644
 5632SOL     OW28531   1.846   4.084   7.222 -0.3424  0.3918 -0.1915
 5632SOL    HW128532   1.903   4.139   7.168  1.5082  0.1835  1.5738
 5632SOL    HW228533   1.859   4.004   7.171  0.7215 -0.0860  0.8203
 5633SOL     OW28534   4.660   3.452   3.527 -0.1877 -0.4950 -0.4138
 5633SOL    HW128535   4.615   3.529   3.562  1.1957 -0.9786  2.4709
 5633SOL    HW228536   0.016   3.469   3.544 -0.2066  0.3440 -1.1195
 5634SOL     OW28537   3.287   0.607   6.472  0.8423  0.4155  0.4542
 5634SOL    HW128538   3.337   0.688   6.485  0.4047  0.8104 -0.3246
 5634SOL    HW228539   3.302   0.581   6.381  0.4432 -0.7096  0.7132
 5635SOL     OW28540   3.273   0.528  15.178 -0.1251  0.1965  0.6686
 5635SOL    HW128541   3.238   0.617  15.184  0.5881  0.6076 -0.9882
 5635SOL    HW228542   3.349   0.549  15.124 -0.4908 -1.3512 -0.4497
 5636SOL     OW28543   0.094   4.482   0.106  0.0666  0.2578 -0.0202
 5636SOL    HW128544   0.130   4.517   0.188  0.6325  1.1357 -0.6445
 5636SOL    HW228545   0.008   4.455   0.141  0.6348 -1.8541 -0.2311
 5637SOL     OW28546   0.856   1.052   4.686 -0.3082 -0.3230  0.5310
 5637SOL    HW128547   0.870   1.033   4.778 -1.0959  0.1303  0.7430
 5637SOL    HW228548   0.929   1.115   4.681 -1.3437  0.7742 -0.7896
 5638SOL     OW28549   2.844   2.922   5.647  0.4667 -0.3728  0.2041
 5638SOL    HW128550   2.927   2.888   5.679 -0.0548 -3.1291 -1.3611
 5638SOL    HW228551   2.867   2.935   5.555  0.0983 -0.4389  0.1051
 5639SOL     OW28552   4.590   3.203   7.289 -0.2005  0.2265 -0.2241
 5639SOL    HW128553   4.564   3.293   7.267 -2.5268 -0.7143 -1.2814
 5639SOL    HW228554   4.518   3.154   7.250  0.4412  0.9671 -2.3478
 5640SOL     OW28555   1.537   0.289  13.774 -0.3401 -0.5177 -0.0040
 5640SOL    HW128556   1.594   0.221  13.740  0.4360  0.5091 -0.7537
 5640SOL    HW228557   1.598   0.334  13.833 -1.5100  0.0231  0.7811
 5641SOL     OW28558   4.251   0.803  17.325 -0.4116 -0.2348 -0.0144
 5641SOL    HW128559   4.263   0.894  17.298 -1.2313 -0.5790 -1.5293
 5641SOL    HW228560   4.335   0.763  17.301 -0.5200  0.8400 -2.1372
 5642SOL     OW28561   0.847   0.723   5.783 -0.7715 -0.2140 -0.2366
 5642SOL    HW128562   0.903   0.800   5.790 -1.4008  0.1111  1.1546
 5642SOL    HW228563   0.904   0.649   5.762  0.0013  0.3304 -0.0605
 5643SOL     OW28564   1.023   4.063  14.100  0.3292  0.1632 -0.5008
 5643SOL    HW128565   1.052   4.068  14.009  0.6799 -0.0077 -0.3998
 5643SOL    HW228566   0.931   4.056  14.075  0.4476 -0.9989 -0.6149
 5644SOL     OW28567   4.640   4.502   5.955  0.7481  0.2638 -0.0093
 5644SOL    HW128568   4.680   4.416   5.968 -1.1777 -1.0882 -2.9173
 5644SOL    HW228569   4.654   4.510   5.860  0.2330 -1.8196 -0.2557
 5645SOL     OW28570   0.554   2.691   4.896  0.5554  0.2439 -0.3792
 5645SOL    HW128571   0.497   2.717   4.969 -1.4332 -0.7954 -1.5584
 5645SOL    HW228572   0.565   2.602   4.928  0.5587 -0.1026 -1.3456
 5646SOL     OW28573   2.183   0.905   9.439 -0.3822 -0.2060  0.1816
 5646SOL    HW128574   2.221   0.838   9.382 -1.8945 -0.2779 -0.7493
 5646SOL    HW228575   2.088   0.901   9.431 -0.5642  3.0196  1.0611
 5647SOL     OW28576   2.780   1.315   8.378  0.0683  0.2327  0.5826
 5647SOL    HW128577   2.861   1.307   8.429  0.8763 -0.3825 -0.7966
 5647SOL    HW228578   2.748   1.225   8.377 -1.5949  0.8646 -2.3470
 5648SOL     OW28579   0.475   3.236  11.885 -1.1045 -0.4749 -0.2215
 5648SOL    HW128580   0.480   3.310  11.825 -0.2983 -1.1868 -1.0389
 5648SOL    HW228581   0.445   3.278  11.965 -0.7703  0.6488 -0.6943
 5649SOL     OW28582   4.009   4.066   7.953 -0.7728  0.3978  0.4991
 5649SOL    HW128583   3.988   4.087   8.044 -0.8818  2.0652  0.1016
 5649SOL    HW228584   3.934   4.104   7.909 -0.7578 -1.5275 -1.1535
 5650SOL     OW28585   4.512   3.579  14.124  0.4249  0.4492  0.3957
 5650SOL    HW128586   4.557   3.656  14.159 -0.2008 -0.5177  3.3075
 5650SOL    HW228587   4.509   3.522  14.201 -2.1763  0.4255  0.2717
 5651SOL     OW28588   1.511   2.966   4.129  0.3942 -0.1847 -0.2735
 5651SOL    HW128589   1.504   2.924   4.214  1.3896  1.4114  0.5899
 5651SOL    HW228590   1.425   2.952   4.090  0.8689 -2.2773 -0.5916
 5652SOL     OW28591   0.942   3.395   4.120 -0.0950 -0.6186 -0.1432
 5652SOL    HW128592   0.859   3.352   4.141  0.1175 -0.7176  0.4770
 5652SOL    HW228593   0.927   3.430   4.032  1.1967 -0.8212 -0.4423
 5653SOL     OW28594   0.837   4.280  11.311  0.4262 -0.9301 -0.1977
 5653SOL    HW128595   0.862   4.188  11.323 -0.6206 -0.9158  2.0308
 5653SOL    HW228596   0.750   4.276  11.271 -0.0530  3.2512  0.4899
 5654SOL     OW28597   1.876   1.676   2.961 -0.5574 -0.2479 -0.3579
 5654SOL    HW128598   1.835   1.742   2.905 -0.4962 -1.8914 -2.3033
 5654SOL    HW228599   1.805   1.617   2.986  0.1036 -0.7895  0.2322
 5655SOL     OW28600   3.304   2.625   2.297 -0.4765  0.1283 -0.4029
 5655SOL    HW128601   3.377   2.595   2.244 -0.2650  0.4190 -0.2771
 5655SOL    HW228602   3.277   2.707   2.255 -1.4976 -0.8354 -1.6228
 5656SOL     OW28603   0.935   2.220  10.352 -0.3830  0.0327 -0.2189
 5656SOL    HW128604   0.969   2.195  10.266  1.1690 -1.6076  0.8696
 5656SOL    HW228605   1.001   2.213  10.421 -0.2551 -1.1738 -0.4722
 5657SOL     OW28606   4.445   3.996   3.775  0.4072 -0.1846  0.3568
 5657SOL    HW128607   4.440   4.083   3.734  0.8497 -0.5102 -0.4034
 5657SOL    HW228608   4.475   3.950   3.696  2.3252  1.4614  0.1183
 5658SOL     OW28609   1.586   1.143   3.114  0.2770  0.1622 -0.4172
 5658SOL    HW128610   1.635   1.135   3.032  0.7298  0.2404 -0.1578
 5658SOL    HW228611   1.516   1.201   3.086  1.4698  2.1624  0.7415
 5659SOL     OW28612   0.491   3.744   6.811  0.1716  0.2823  0.5952
 5659SOL    HW128613   0.566   3.686   6.819  2.5259  3.0520 -0.9607
 5659SOL    HW228614   0.544   3.820   6.785  0.4916  0.2850  1.2741
 5660SOL     OW28615   0.306   2.190   6.374 -0.2381  0.2723  0.3323
 5660SOL    HW128616   0.268   2.116   6.421  0.9199  0.3411  1.4025
 5660SOL    HW228617   0.234   2.252   6.382  1.6487  2.5175 -0.2084
 5661SOL     OW28618   4.271   3.680  17.239  0.3575 -0.5651  0.1530
 5661SOL    HW128619   4.215   3.610  17.271  0.2203  0.3680  1.9453
 5661SOL    HW228620   4.305   3.714  17.321  0.9844 -0.4673 -0.1482
 5662SOL     OW28621   3.800   3.248   2.133  0.2747 -0.2613  0.2762
 5662SOL    HW128622   3.844   3.287   2.208  3.2122  1.3584 -2.2563
 5662SOL    HW228623   3.715   3.234   2.174 -0.5311  0.5971 -1.1069
 5663SOL     OW28624   2.090   1.427   7.780 -0.1972  0.1125 -0.0314
 5663SOL    HW128625   2.117   1.483   7.708  1.7890 -0.7529  0.0258
 5663SOL    HW228626   2.061   1.350   7.730  0.0767 -0.4682  0.7032
 5664SOL     OW28627   0.439   1.276  17.670  0.3853  0.8061 -0.5894
 5664SOL    HW128628   0.355   1.320  17.684 -0.0334  0.4267 -1.8341
 5664SOL    HW228629   0.498   1.344  17.637 -0.7617  1.4528 -1.3160
 5665SOL     OW28630   0.743   3.796   3.499 -0.0425 -0.3846  0.2837
 5665SOL    HW128631   0.830   3.835   3.501 -0.3492  0.3072  0.1458
 5665SOL    HW228632   0.747   3.774   3.592 -0.7160 -1.5261  0.0386
 5666SOL     OW28633   0.383   2.433   8.549 -0.3053  0.2829  0.3353
 5666SOL    HW128634   0.397   2.515   8.502 -0.2345 -0.6243 -1.2460
 5666SOL    HW228635   0.468   2.391   8.535 -0.1898  0.1135  1.5594
 5667SOL     OW28636   3.390   1.960   5.570  0.0268 -0.5478  0.1233
 5667SOL    HW128637   3.343   1.880   5.593 -2.0430 -0.3238 -3.2971
 5667SOL    HW228638   3.329   1.991   5.502  0.6866  1.5831  0.4840
 5668SOL     OW28639   1.775   2.138   6.793  0.1015  1.1771  0.2601
 5668SOL    HW128640   1.765   2.056   6.744 -0.2338  0.5446  1.4062
 5668SOL    HW228641   1.696   2.137   6.847  0.2013  0.0550  0.3681
 5669SOL     OW28642   0.867   3.066   9.107  0.3541  0.3222  0.2671
 5669SOL    HW128643   0.896   3.059   9.198  1.6056  1.2659 -0.0725
 5669SOL    HW228644   0.939   3.056   9.044 -0.8438 -1.3961 -0.8390
 5670SOL     OW28645   1.185   4.258  17.568  0.2023  0.0387 -0.7556
 5670SOL    HW128646   1.178   4.221  17.479  0.8710 -1.8907 -0.0072
 5670SOL    HW228647   1.142   4.343  17.559 -2.3630 -1.4101 -2.3608
 5671SOL     OW28648   3.726   1.519   6.665 -0.7008  0.3311  0.1766
 5671SOL    HW128649   3.671   1.597   6.660  1.1796  1.6720  0.3842
 5671SOL    HW228650   3.674   1.463   6.607 -2.6009  3.0118 -0.6811
 5672SOL     OW28651   3.795   2.176  11.773  0.1276  0.2949 -0.5879
 5672SOL    HW128652   3.727   2.113  11.797 -0.6803  1.9154  1.4285
 5672SOL    HW228653   3.867   2.129  11.814 -0.6989  0.9223  1.6057
 5673SOL     OW28654   4.039   0.467  12.006 -0.4165  0.4008  0.1405
 5673SOL    HW128655   4.068   0.496  11.920  1.6000 -1.1401  0.2690
 5673SOL    HW228656   4.085   0.516  12.074 -0.9521  3.0440 -1.4371
 5674SOL     OW28657   1.662   1.942   2.262  0.6979  0.0206 -0.2142
 5674SOL    HW128658   1.723   1.916   2.331  1.3621 -0.8200 -1.1066
 5674SOL    HW228659   1.580   1.953   2.309 -0.0833  1.8666 -1.9792
 5675SOL     OW28660   2.260   4.187   5.824 -0.5772 -0.0807  0.0290
 5675SOL    HW128661   2.252   4.110   5.881  1.6581 -0.2452  0.1069
 5675SOL    HW228662   2.170   4.216   5.810 -0.3930  0.9654  1.0755
 5676SOL     OW28663   2.468   1.696   2.604  0.1027 -0.0324  0.1933
 5676SOL    HW128664   2.415   1.776   2.614 -0.1852 -0.1207 -0.6043
 5676SOL    HW228665   2.510   1.700   2.689  1.4245 -2.3053 -0.3723
 5677SOL     OW28666   1.691   0.913  12.114 -0.7631  0.0991 -0.3263
 5677SOL    HW128667   1.601   0.904  12.084 -0.4368 -0.3265 -1.1967
 5677SOL    HW228668   1.683   0.898  12.208 -1.8956  1.0345 -0.2752
 5678SOL     OW28669   3.280   1.435  13.090  0.4707 -0.3542  0.1786
 5678SOL    HW128670   3.359   1.436  13.035  0.7790  0.0610  0.6188
 5678SOL    HW228671   3.301   1.505  13.153 -0.7345  0.6742 -0.5554
 5679SOL     OW28672   2.397   1.216  12.459  0.3501  0.0552 -0.2151
 5679SOL    HW128673   2.307   1.183  12.465 -0.1905  1.1473 -1.9506
 5679SOL    HW228674   2.370   1.305  12.434 -2.0090 -1.1362 -1.9167
 5680SOL     OW28675   0.907   3.661  15.777 -0.2728 -0.0291 -0.0857
 5680SOL    HW128676   0.954   3.738  15.745  1.1951 -0.2285  1.6190
 5680SOL    HW228677   0.919   3.605  15.700 -0.6081 -0.5034  0.2149
 5681SOL     OW28678   0.526   2.632   3.938  0.2588 -0.1875 -0.0879
 5681SOL    HW128679   0.501   2.547   3.976  0.0719 -1.2574 -2.6139
 5681SOL    HW228680   0.603   2.654   3.989 -1.2237  0.3519  1.9126
 5682SOL     OW28681   3.243   1.152   2.297  0.0068 -0.0928 -0.3687
 5682SOL    HW128682   3.326   1.139   2.343  1.5768  1.1887 -2.8079
 5682SOL    HW228683   3.184   1.122   2.365  0.7394 -1.8973 -0.5223
 5683SOL     OW28684   2.697   1.517  15.126 -0.3211 -0.1785 -0.0885
 5683SOL    HW128685   2.787   1.510  15.158 -0.8116  1.2205  1.6150
 5683SOL    HW228686   2.658   1.572  15.195 -0.3490 -1.0029  0.5496
 5684SOL     OW28687   0.616   4.342  13.464  0.0898  0.2922  0.3834
 5684SOL    HW128688   0.595   4.283  13.391 -0.0623 -1.0436  1.5086
 5684SOL    HW228689   0.532   4.352  13.509  0.9152  0.2081  1.9425
 5685SOL     OW28690   3.510   2.683   0.672 -0.3376  0.6728  0.4264
 5685SOL    HW128691   3.426   2.700   0.715  0.2004  1.2349  1.2750
 5685SOL    HW228692   3.475   2.628   0.602 -0.0017  0.3061  0.5486
 5686SOL     OW28693   4.014   4.253   7.589 -0.0945 -0.2616 -0.1013
 5686SOL    HW128694   3.921   4.248   7.564 -0.8455 -1.2342  2.9125
 5686SOL    HW228695   4.031   4.344   7.563 -0.2709 -0.5506 -1.2095
 5687SOL     OW28696   3.643   0.280   5.009 -0.0130 -0.0680 -0.0563
 5687SOL    HW128697   3.630   0.315   5.097  0.5928 -0.3797  0.1534
 5687SOL    HW228698   3.614   0.352   4.952 -1.0119 -0.1578  0.3267
 5688SOL     OW28699   3.269   1.061   0.655 -0.2750  0.7436  0.6510
 5688SOL    HW128700   3.354   1.095   0.626  0.0219 -0.0141  0.6509
 5688SOL    HW228701   3.273   1.083   0.748  0.2823  1.4736  0.4557
 5689SOL     OW28702   0.115   1.152   2.874 -0.2525 -0.2130  0.0658
 5689SOL    HW128703   0.082   1.078   2.925  2.4819  0.7039  3.1910
 5689SOL    HW228704   0.206   1.177   2.889 -0.4210  0.7370 -0.4884
 5690SOL     OW28705   1.989   2.500  12.729 -0.4640  0.0503 -0.0637
 5690SOL    HW128706   1.907   2.478  12.685 -3.3872 -0.0116  5.3042
 5690SOL    HW228707   2.008   2.585  12.689 -2.0784  1.7257  2.6670
 5691SOL     OW28708   0.387   3.304   5.068 -0.3297  0.0343 -0.0253
 5691SOL    HW128709   0.292   3.293   5.063 -0.3075  0.5411 -1.4089
 5691SOL    HW228710   0.414   3.271   5.154 -0.5722 -0.9563 -0.3310
 5692SOL     OW28711   1.412   0.870  13.265  0.5412 -0.4359 -0.0681
 5692SOL    HW128712   1.470   0.944  13.281  1.9577 -0.8729 -3.0660
 5692SOL    HW228713   1.330   0.908  13.296  0.5488 -1.3023  1.0005
 5693SOL     OW28714   2.498   3.965   2.636  0.5356 -0.2283 -0.0461
 5693SOL    HW128715   2.431   3.912   2.678 -0.6890  1.4649  0.1342
 5693SOL    HW228716   2.549   3.902   2.584  2.3609  0.0608  1.3727
 5694SOL     OW28717   1.239   2.504   8.927  0.2810  0.1580 -0.0260
 5694SOL    HW128718   1.286   2.524   8.847  0.7294  0.4271  0.3034
 5694SOL    HW228719   1.177   2.438   8.894 -0.9504  0.6741  1.2334
 5695SOL     OW28720   3.115   2.296   8.382  0.0320  0.0597 -0.6995
 5695SOL    HW128721   3.085   2.315   8.293 -2.0598  2.1342  0.4199
 5695SOL    HW228722   3.187   2.238   8.358 -0.0641  0.0712 -1.0178
 5696SOL     OW28723   4.608   0.016   1.211 -0.0660  0.2072 -0.4528
 5696SOL    HW128724   4.600   4.728   1.303 -0.0071 -0.5998 -0.6666
 5696SOL    HW228725   4.518   0.034   1.183 -0.5962 -2.2094 -0.2786
 5697SOL     OW28726   0.528   1.789   2.949 -0.1148 -0.2608  0.4521
 5697SOL    HW128727   0.458   1.845   2.981  0.3132 -1.0450  2.7218
 5697SOL    HW228728   0.598   1.803   3.013  0.4606 -0.2305 -0.1818
 5698SOL     OW28729   4.718   3.711   9.206 -0.1799  0.1285  0.2881
 5698SOL    HW128730   0.063   3.691   9.251  1.3696  0.2626 -2.4528
 5698SOL    HW228731   0.004   3.734   9.116 -0.2144  1.2732  0.5795
 5699SOL     OW28732   1.734   0.089   6.677 -0.1503 -0.3465  0.1109
 5699SOL    HW128733   1.737   0.182   6.655 -0.0978 -0.8013 -1.7780
 5699SOL    HW228734   1.740   0.046   6.592  1.5450  2.7583 -1.3361
 5700SOL     OW28735   0.960   2.380   8.163  0.6112  0.0187 -0.6442
 5700SOL    HW128736   0.877   2.424   8.179 -0.4663 -1.9125 -0.8300
 5700SOL    HW228737   0.930   2.302   8.115 -0.0907  0.6574 -1.2592
 5701SOL     OW28738   0.396   2.384  12.492  0.0608 -0.6228 -0.2349
 5701SOL    HW128739   0.487   2.410  12.504 -0.5367  0.3675  2.0816
 5701SOL    HW228740   0.382   2.329  12.569 -0.0897  2.1208  1.7071
 5702SOL     OW28741   3.365   3.022   6.062  0.0415  0.0832 -0.3412
 5702SOL    HW128742   3.424   2.957   6.099 -0.1196  0.0152 -0.2053
 5702SOL    HW228743   3.284   2.973   6.047  0.9451 -1.6535  0.5948
 5703SOL     OW28744   2.417   0.712  11.666  0.4519 -0.3867 -0.1814
 5703SOL    HW128745   2.478   0.674  11.602 -0.0733 -1.5212 -0.0016
 5703SOL    HW228746   2.389   0.628  11.703  2.6125 -0.6319  0.8976
 5704SOL     OW28747   1.877   0.917   6.307 -0.3583  0.0184  0.4207
 5704SOL    HW128748   1.958   0.946   6.266 -1.3950 -0.5497 -2.0183
 5704SOL    HW228749   1.890   0.938   6.399  1.2132 -1.6586  0.5664
 5705SOL     OW28750   0.900   4.100  17.711  0.2742 -0.1809  0.0047
 5705SOL    HW128751   0.864   4.062  17.631 -2.0160 -0.9074  1.3877
 5705SOL    HW228752   0.837   4.068   0.029 -1.7215  2.9998 -0.3475
 5706SOL     OW28753   2.844   0.944   4.227 -0.0337 -0.1053  0.3024
 5706SOL    HW128754   2.763   0.912   4.186 -2.1187  2.9987  2.0563
 5706SOL    HW228755   2.840   0.874   4.293  0.4283  0.2098  0.6579
 5707SOL     OW28756   3.994   0.564   6.730 -0.2636  0.1541 -0.0486
 5707SOL    HW128757   3.984   0.478   6.689 -2.2764  0.6635 -0.6727
 5707SOL    HW228758   4.049   0.533   6.802  2.5670  1.2553 -1.7540
 5708SOL     OW28759   3.752   0.383   6.251 -0.6083 -0.0912 -0.3400
 5708SOL    HW128760   3.730   0.471   6.280  0.0365 -0.1584  0.3720
 5708SOL    HW228761   3.708   0.386   6.167 -2.3300  2.2901  0.6792
 5709SOL     OW28762   3.578   2.037   7.037  0.2746 -0.5074  0.1766
 5709SOL    HW128763   3.497   1.989   7.056  0.5408 -1.0614 -0.0789
 5709SOL    HW228764   3.557   2.037   6.944  0.9258 -1.8736  0.0221
 5710SOL     OW28765   1.359   0.537  15.331 -0.2691 -0.1148  0.6647
 5710SOL    HW128766   1.430   0.510  15.389  0.4204 -2.5432 -1.2969
 5710SOL    HW228767   1.328   0.455  15.293 -1.6527  0.6064  0.2269
 5711SOL     OW28768   3.664   1.810   0.741  0.1478  0.2045  0.3560
 5711SOL    HW128769   3.679   1.840   0.652 -0.1787  1.3060  0.6681
 5711SOL    HW228770   3.573   1.784   0.730  0.6253 -2.5682  3.0162
 5712SOL     OW28771   2.165   0.190   8.853  0.2932  0.2129  0.2698
 5712SOL    HW128772   2.198   0.176   8.942  2.1399  1.1992 -0.2443
 5712SOL    HW228773   2.242   0.176   8.798  0.3148 -2.2771  0.9515
 5713SOL     OW28774   1.188   1.220   0.522  0.0537  0.4278  0.6025
 5713SOL    HW128775   1.205   1.294   0.581 -1.8260  0.7428  0.7445
 5713SOL    HW228776   1.237   1.249   0.445  2.0698  0.8048  2.0160
 5714SOL     OW28777   1.677   3.030  11.170  0.0272  0.4585 -0.2093
 5714SOL    HW128778   1.589   3.062  11.147 -0.5269  0.4544  1.9187
 5714SOL    HW228779   1.691   2.956  11.111  0.4579  1.2458 -1.0903
 5715SOL     OW28780   2.966   3.692   3.463  0.5902 -0.3979 -0.2179
 5715SOL    HW128781   2.956   3.597   3.463 -0.0187 -0.3219  1.4104
 5715SOL    HW228782   3.035   3.689   3.397 -0.4902  0.5925 -1.3947
 5716SOL     OW28783   1.663   1.621  12.089  0.4640  0.5127  0.8207
 5716SOL    HW128784   1.653   1.624  11.994  2.2774 -1.3853  0.5417
 5716SOL    HW228785   1.612   1.700  12.108  0.7780  0.6607  1.0671
 5717SOL     OW28786   2.050   3.241   5.128 -0.0793  0.4921  0.0370
 5717SOL    HW128787   1.970   3.278   5.091  0.2281  0.0732 -1.0618
 5717SOL    HW228788   2.122   3.268   5.070 -0.5661 -2.7511 -2.1288
 5718SOL     OW28789   3.054   1.751   0.918 -0.1059  0.0144 -0.4540
 5718SOL    HW128790   3.001   1.673   0.937  0.8320 -0.8910 -1.5485
 5718SOL    HW228791   3.037   1.791   1.003  0.2597 -2.4596  0.7760
 5719SOL     OW28792   2.767   1.339  16.107 -0.1432  0.2410 -0.4339
 5719SOL    HW128793   2.805   1.262  16.064 -0.9739 -0.2908 -0.2275
 5719SOL    HW228794   2.681   1.304  16.133 -0.7775  1.5400 -0.7680
 5720SOL     OW28795   1.282   2.036   5.252 -0.3194 -0.0277 -0.1009
 5720SOL    HW128796   1.187   2.026   5.246 -0.1177 -1.9600  0.0455
 5720SOL    HW228797   1.291   2.129   5.275 -0.6791  0.1202 -0.5701
 5721SOL     OW28798   1.635   3.112   9.092  0.0693  0.6406  0.3387
 5721SOL    HW128799   1.612   3.140   9.181  0.2049 -0.2307  0.6430
 5721SOL    HW228800   1.640   3.017   9.102  0.4850  0.8361  2.0264
 5722SOL     OW28801   2.037   0.555  17.026  0.2871 -0.4961 -0.2970
 5722SOL    HW128802   2.113   0.497  17.033  1.0785  0.8290  2.3928
 5722SOL    HW228803   1.975   0.494  16.986 -0.1699 -0.9488  1.1187
 5723SOL     OW28804   4.571   1.409   8.774  0.3268  0.3373 -0.3812
 5723SOL    HW128805   4.545   1.420   8.866  0.3046 -0.0105 -0.3431
 5723SOL    HW228806   4.658   1.368   8.781 -0.3958 -1.0003  0.6690
 5724SOL     OW28807   3.469   1.931   2.316  0.2322  0.7671  0.4565
 5724SOL    HW128808   3.546   1.906   2.368  1.1240  1.4281 -0.5618
 5724SOL    HW228809   3.489   1.887   2.234  1.0838  2.9585 -0.5040
 5725SOL     OW28810   2.044   2.315   0.389  0.3727 -0.0935  0.2755
 5725SOL    HW128811   1.957   2.353   0.379 -0.1789 -1.6017 -0.6785
 5725SOL    HW228812   2.055   2.279   0.300  0.0686 -1.9790  0.9951
 5726SOL     OW28813   1.387   1.827  17.420 -0.5019  0.0555 -0.5454
 5726SOL    HW128814   1.424   1.913  17.400 -0.0192 -0.4051 -1.6578
 5726SOL    HW228815   1.405   1.832  17.514 -0.9972  0.9955 -0.5002
 5727SOL     OW28816   0.786   4.161   5.897  0.0595 -0.6393 -0.2064
 5727SOL    HW128817   0.723   4.220   5.939 -0.4571 -1.5730  0.3408
 5727SOL    HW228818   0.727   4.099   5.855  0.9671 -1.1994 -0.6443
 5728SOL     OW28819   2.819   2.079   2.800  0.3586  0.1336  0.6917
 5728SOL    HW128820   2.894   2.098   2.857  1.0866 -0.5768 -0.0266
 5728SOL    HW228821   2.789   1.993   2.829  0.1945 -0.0591 -0.0633
 5729SOL     OW28822   1.176   1.673   0.332 -0.1990  0.4417  0.4955
 5729SOL    HW128823   1.159   1.719   0.250  0.1633 -0.7577 -0.2606
 5729SOL    HW228824   1.271   1.671   0.323 -0.0911 -2.6800  2.0988
 5730SOL     OW28825   1.441   0.398   6.802 -0.4829 -0.1898  0.6791
 5730SOL    HW128826   1.482   0.326   6.850 -1.0420 -0.9417  0.0284
 5730SOL    HW228827   1.366   0.415   6.859  1.6792  1.7403  2.9225
 5731SOL     OW28828   2.071   3.394   6.009 -0.2869 -0.2347 -0.2978
 5731SOL    HW128829   2.063   3.483   6.044 -0.3263 -0.9154  1.4327
 5731SOL    HW228830   2.013   3.387   5.934  0.3191 -3.3383 -0.4763
 5732SOL     OW28831   2.156   2.475   8.064 -0.0729  0.2045 -0.0215
 5732SOL    HW128832   2.104   2.526   8.126 -0.1553  1.2927 -0.9895
 5732SOL    HW228833   2.124   2.388   8.087 -1.0897  0.9156  1.2751
 5733SOL     OW28834   0.789   2.166  11.425 -0.0251  0.1504 -0.3365
 5733SOL    HW128835   0.848   2.106  11.471 -0.3402 -0.9907 -1.4070
 5733SOL    HW228836   0.819   2.244  11.472  2.9019 -2.1894  1.7218
 5734SOL     OW28837   0.189   3.368  10.791  0.0814 -0.3071 -0.3366
 5734SOL    HW128838   0.123   3.300  10.800  3.3044 -3.5993 -1.7687
 5734SOL    HW228839   0.252   3.333  10.728 -1.5030  0.9766 -2.6370
 5735SOL     OW28840   4.451   0.921   5.878  0.0154  0.5767  0.1330
 5735SOL    HW128841   4.357   0.905   5.888  0.1183 -0.5001 -0.5847
 5735SOL    HW228842   4.482   0.867   5.951  1.9258  0.2641 -0.9281
 5736SOL     OW28843   4.435   0.674   2.380 -0.5399  0.1048 -0.5176
 5736SOL    HW128844   4.497   0.734   2.422 -2.9421  2.5406 -0.3882
 5736SOL    HW228845   4.481   0.593   2.358 -0.3243 -0.4489  1.9646
 5737SOL     OW28846   1.321   1.390   2.824 -0.5483  0.3900 -0.3062
 5737SOL    HW128847   1.329   1.330   2.898 -0.7404  1.1878  0.3563
 5737SOL    HW228848   1.230   1.385   2.795 -0.7255  3.0870 -0.2316
 5738SOL     OW28849   3.210   1.568   6.223  0.1782 -0.5559  0.2106
 5738SOL    HW128850   3.151   1.643   6.220  0.7843 -0.0950 -0.0373
 5738SOL    HW228851   3.215   1.537   6.132 -0.1247 -2.6980  0.9292
 5739SOL     OW28852   2.656   1.522  10.268  0.4363  0.3215 -0.6972
 5739SOL    HW128853   2.595   1.569  10.211  1.7748  0.3452 -2.1074
 5739SOL    HW228854   2.710   1.591  10.307  2.0206 -1.9366  1.1178
 5740SOL     OW28855   3.570   0.987   0.907 -0.7879  0.4307  0.4659
 5740SOL    HW128856   3.617   1.061   0.944 -0.4726  0.2706  0.3829
 5740SOL    HW228857   3.528   0.938   0.978 -0.1420  0.8468  1.1212
 5741SOL     OW28858   4.406   0.030   6.268 -0.0344 -0.3092  0.1270
 5741SOL    HW128859   4.325   0.059   6.227  0.9952 -1.9675 -3.1508
 5741SOL    HW228860   4.422   4.684   6.223  1.2438 -0.2599  0.4846
 5742SOL     OW28861   4.503   4.383  17.036  0.5577 -0.1246 -0.9192
 5742SOL    HW128862   4.419   4.388  16.992 -1.2289 -1.0826  2.3596
 5742SOL    HW228863   4.551   4.382  16.953  2.6172 -0.2902  0.2608
 5743SOL     OW28864   1.687   1.078   3.378 -0.0379  0.1290 -0.4230
 5743SOL    HW128865   1.652   1.101   3.292  1.4442 -0.3039 -1.1419
 5743SOL    HW228866   1.640   1.133   3.440  0.3100 -0.4462  0.3383
 5744SOL     OW28867   3.952   0.149  14.711 -0.1201  0.5753 -0.4522
 5744SOL    HW128868   3.911   0.121  14.629 -1.6295 -0.7463  0.7740
 5744SOL    HW228869   3.891   0.115  14.776  0.8538  0.2745  0.2972
 5745SOL     OW28870   1.486   4.263  12.589  0.1560  0.3745 -0.6267
 5745SOL    HW128871   1.458   4.190  12.644 -0.8553 -0.6491 -2.5052
 5745SOL    HW228872   1.423   4.252  12.518 -0.0381  1.2312 -0.6003
 5746SOL     OW28873   3.434   4.374   7.455 -0.0969  0.0137  0.1605
 5746SOL    HW128874   3.345   4.409   7.460  0.8041  2.0530  1.7331
 5746SOL    HW228875   3.468   4.425   7.382  0.9520 -0.1895  0.5092
 5747SOL     OW28876   0.968   3.785   0.887  0.6245 -0.2428  0.0071
 5747SOL    HW128877   0.908   3.856   0.909  0.1775 -0.9833  1.2005
 5747SOL    HW228878   1.049   3.819   0.923  0.4648  0.0670  0.0759
 5748SOL     OW28879   2.687   2.662   4.255 -0.0769 -0.0245 -0.0743
 5748SOL    HW128880   2.740   2.717   4.313 -1.6615 -0.3940  1.7492
 5748SOL    HW228881   2.751   2.645   4.186  0.4619  0.6911  0.2549
 5749SOL     OW28882   3.421   2.857   5.615 -0.2399 -0.3491 -0.6691
 5749SOL    HW128883   3.399   2.948   5.594 -0.7192 -0.1112  0.8499
 5749SOL    HW228884   3.347   2.804   5.583 -0.4474 -0.0032 -0.7649
 5750SOL     OW28885   3.286   2.627   7.805 -1.0757  0.2324  0.0470
 5750SOL    HW128886   3.220   2.570   7.765 -0.6105  0.1083 -0.5584
 5750SOL    HW228887   3.242   2.711   7.798 -3.2219 -0.9360 -0.3687
 5751SOL     OW28888   4.225   1.971  14.543 -0.2883 -0.1202 -0.1578
 5751SOL    HW128889   4.307   1.923  14.556 -0.8506 -1.5947 -1.9670
 5751SOL    HW228890   4.167   1.898  14.520  0.8228 -1.1162  0.1994
 5752SOL     OW28891   2.542   4.648   3.083  0.8851  0.3540  0.0367
 5752SOL    HW128892   2.451   4.644   3.112  1.3176 -2.8900  0.9446
 5752SOL    HW228893   2.530   4.691   2.998  0.4862  1.8932  0.8823
 5753SOL     OW28894   2.718   0.676   1.413  0.8637  0.2685  0.0014
 5753SOL    HW128895   2.776   0.639   1.480  2.1635  0.4591 -1.0248
 5753SOL    HW228896   2.698   0.600   1.358  0.8827 -0.3674  0.8747
 5754SOL     OW28897   1.986   1.461  15.858  0.1511  0.7972 -0.2275
 5754SOL    HW128898   1.953   1.549  15.840  0.1412  1.1890  1.7010
 5754SOL    HW228899   1.925   1.402  15.814  0.1820  0.1199  0.6335
 5755SOL     OW28900   1.002   2.233  12.516 -0.8919 -0.1775  0.3246
 5755SOL    HW128901   0.916   2.191  12.511  0.1505 -2.0741 -1.7643
 5755SOL    HW228902   1.040   2.181  12.587  1.3967  2.3556  0.9297
 5756SOL     OW28903   4.001   3.624   4.764  0.5506  0.4741 -0.0319
 5756SOL    HW128904   4.037   3.700   4.810 -2.3114  1.6712  0.2394
 5756SOL    HW228905   4.037   3.548   4.810 -1.4686  0.4526  1.5026
 5757SOL     OW28906   3.131   2.238  11.178 -0.0823  0.3062 -0.0709
 5757SOL    HW128907   3.216   2.246  11.133 -0.8654 -0.2793 -1.6579
 5757SOL    HW228908   3.069   2.223  11.107 -0.9850 -0.0052  0.7973
 5758SOL     OW28909   0.443   2.099   0.393 -0.3194 -0.1567 -0.7286
 5758SOL    HW128910   0.457   2.193   0.407  1.1361 -0.6793  1.3112
 5758SOL    HW228911   0.433   2.092   0.298  0.7013 -0.4676 -0.8107
 5759SOL     OW28912   4.390   2.525  14.027  0.4695  0.1696 -0.2404
 5759SOL    HW128913   4.395   2.495  14.118 -1.4099  0.1509 -0.1472
 5759SOL    HW228914   4.382   2.619  14.045  0.1951 -0.1573  1.3348
 5760SOL     OW28915   3.541   3.804   4.650 -0.4089  0.6973 -0.2799
 5760SOL    HW128916   3.569   3.893   4.633  0.9691  0.7335  2.1977
 5760SOL    HW228917   3.623   3.755   4.650 -0.1594  1.1240  0.1020
 5761SOL     OW28918   0.059   4.324   6.562  0.9917  0.3283  0.0066
 5761SOL    HW128919   0.101   4.276   6.633  1.4147  1.6618  0.6719
 5761SOL    HW228920   4.709   4.285   6.565 -1.5460  5.9299 -0.3723
 5762SOL     OW28921   0.215   2.288   1.623  0.8962 -0.4952 -0.1166
 5762SOL    HW128922   0.122   2.270   1.607 -0.3282  3.3428  2.5692
 5762SOL    HW228923   0.230   2.345   1.547  0.9897  2.4465  2.1071
 5763SOL     OW28924   4.174   3.512   1.904 -0.0056 -0.1622 -0.0198
 5763SOL    HW128925   4.250   3.568   1.892 -0.2788  0.2039 -0.0606
 5763SOL    HW228926   4.197   3.439   1.848 -1.7649 -0.0824 -0.8593
 5764SOL     OW28927   2.105   2.011  16.366 -0.0461 -0.3506 -0.1384
 5764SOL    HW128928   2.124   2.018  16.459 -0.9322 -1.6756  0.1501
 5764SOL    HW228929   2.171   1.946  16.343 -0.1448 -0.1085 -1.1380
 5765SOL     OW28930   4.364   3.045   7.167 -0.5680 -0.1570 -0.1886
 5765SOL    HW128931   4.350   2.975   7.229  1.5305  0.0232  0.4923
 5765SOL    HW228932   4.277   3.072   7.138 -0.7312 -2.1694 -1.5275
 5766SOL     OW28933   2.135   1.964   2.024  0.0224 -0.7552 -0.2878
 5766SOL    HW128934   2.193   1.923   1.960  0.9823  1.9207 -1.1582
 5766SOL    HW228935   2.096   1.887   2.066  0.9587 -0.0537  1.8796
 5767SOL     OW28936   4.331   4.468   5.801  0.0258 -0.0652  0.4438
 5767SOL    HW128937   4.386   4.540   5.771  1.8168 -1.0222  1.4452
 5767SOL    HW228938   4.297   4.444   5.715 -0.4542  3.1279 -0.2431
 5768SOL     OW28939   4.574   4.119   6.579  0.1874 -0.9504  0.5955
 5768SOL    HW128940   4.522   4.049   6.540 -1.8020  0.4402  0.7690
 5768SOL    HW228941   4.551   4.189   6.519 -0.9957 -2.8654 -1.2048
 5769SOL     OW28942   3.822   2.740   8.075  0.2522  0.4388 -0.0563
 5769SOL    HW128943   3.751   2.804   8.075 -0.0112  0.1466 -1.2855
 5769SOL    HW228944   3.848   2.739   7.983 -0.5505  0.4109 -0.2916
 5770SOL     OW28945   0.634   4.036  12.078 -0.0292  0.0461  0.2599
 5770SOL    HW128946   0.671   3.948  12.088  0.0852  0.0314 -0.2649
 5770SOL    HW228947   0.569   4.035  12.148 -1.3789  0.4419 -0.9943
 5771SOL     OW28948   1.904   3.716   6.806  0.5635  0.2469  0.3837
 5771SOL    HW128949   1.855   3.744   6.729  1.9299 -0.2040 -0.6539
 5771SOL    HW228950   1.900   3.797   6.858 -0.5866  0.6992 -0.4081
 5772SOL     OW28951   4.117   0.859   0.735 -0.0243  0.6599 -0.3176
 5772SOL    HW128952   4.148   0.898   0.816  2.2528  0.5344 -1.1317
 5772SOL    HW228953   4.054   0.923   0.702 -0.9872 -0.0022  0.2157
 5773SOL     OW28954   4.510   1.967   8.694  0.3025  0.3669  0.1027
 5773SOL    HW128955   4.479   1.885   8.656 -1.3936  0.1796  1.8958
 5773SOL    HW228956   4.456   1.966   8.773 -0.1763 -3.1665 -0.2622
 5774SOL     OW28957   0.323   3.494  17.348  0.5696 -0.2084 -0.1311
 5774SOL    HW128958   0.362   3.414  17.382  2.5397  0.7427 -0.1609
 5774SOL    HW228959   0.262   3.509  17.420 -0.2193 -0.8708 -0.6565
 5775SOL     OW28960   0.626   1.082   5.626  0.3093 -0.4470  0.5418
 5775SOL    HW128961   0.648   1.125   5.543  1.8558 -0.6545  0.8420
 5775SOL    HW228962   0.630   0.990   5.598  0.4142 -0.1240 -0.4970
 5776SOL     OW28963   3.657   3.738  10.145 -0.4154 -0.5234  0.2725
 5776SOL    HW128964   3.659   3.825  10.104  1.3336 -1.2753 -1.2318
 5776SOL    HW228965   3.718   3.746  10.218 -0.4515  0.3959  0.2078
 5777SOL     OW28966   3.995   1.004  11.211  1.3769  0.1922  0.0748
 5777SOL    HW128967   4.012   0.947  11.136 -0.6896 -0.1915 -0.1043
 5777SOL    HW228968   3.955   0.944  11.274  0.1796  1.1384  0.2003
 5778SOL     OW28969   3.769   0.789   6.016 -0.1032  0.5570  0.2011
 5778SOL    HW128970   3.711   0.798   5.940 -0.1828 -0.9482  0.0861
 5778SOL    HW228971   3.823   0.867   6.009 -0.7269  0.9035 -0.7238
 5779SOL     OW28972   1.023   0.748   6.817  0.1423 -0.4049 -0.0416
 5779SOL    HW128973   0.974   0.822   6.781 -0.8432 -0.7482  0.6034
 5779SOL    HW228974   0.962   0.676   6.805 -1.9125  1.5886 -1.6481
 5780SOL     OW28975   0.673   4.122  10.179  0.6054 -0.1573  0.5121
 5780SOL    HW128976   0.741   4.173  10.222 -0.6001  2.0410 -0.1855
 5780SOL    HW228977   0.727   4.046  10.159  0.5040 -0.6369  2.0564
 5781SOL     OW28978   1.929   3.839  16.366 -0.0051 -0.0804  0.4434
 5781SOL    HW128979   1.925   3.763  16.308 -0.8223  0.2048  0.1235
 5781SOL    HW228980   1.873   3.903  16.322 -0.6218 -1.1019 -0.2367
 5782SOL     OW28981   3.333   4.257   1.401  0.6132  0.2330  0.4472
 5782SOL    HW128982   3.369   4.232   1.486  1.1604 -1.1682 -0.2019
 5782SOL    HW228983   3.336   4.353   1.403 -0.6658  0.2990 -0.9431
 5783SOL     OW28984   3.763   0.248   5.759 -0.1015 -0.2276  0.1312
 5783SOL    HW128985   3.834   0.255   5.823 -1.1101  0.8365  1.1335
 5783SOL    HW228986   3.729   0.338   5.758 -0.9215 -0.5682 -3.5146
 5784SOL     OW28987   1.717   4.579   6.861  0.4616 -0.5006 -0.6221
 5784SOL    HW128988   1.792   4.638   6.872 -0.4876  0.2887  1.6202
 5784SOL    HW228989   1.664   4.597   6.938 -0.2109 -0.0752 -1.1874
 5785SOL     OW28990   4.205   1.107   2.236  0.1971  0.3258  0.0017
 5785SOL    HW128991   4.220   1.012   2.232  0.2126  0.3592 -0.7058
 5785SOL    HW228992   4.289   1.148   2.254 -0.2450  1.4249 -0.4798
 5786SOL     OW28993   2.062   0.811  14.085 -0.1866  0.4588  0.5397
 5786SOL    HW128994   2.128   0.761  14.134  2.6788  2.6562 -1.0910
 5786SOL    HW228995   1.998   0.822  14.156  1.3821 -3.8295  2.6242
 5787SOL     OW28996   3.404   2.046   4.320 -0.6034  0.2996  0.3544
 5787SOL    HW128997   3.355   2.073   4.243 -0.5721  1.0328  0.5923
 5787SOL    HW228998   3.476   1.991   4.287  0.2249  1.6407 -0.0499
 5788SOL     OW28999   0.441   0.293   3.509  0.0730 -0.7842  0.0252
 5788SOL    HW129000   0.429   0.237   3.433  1.8801 -1.3643  0.1814
 5788SOL    HW229001   0.356   0.335   3.526  1.0813  0.1190  2.8370
 5789SOL     OW29002   2.799   1.916  16.614  0.3757  0.7975  0.1600
 5789SOL    HW129003   2.848   1.839  16.587 -2.5925 -1.2596  0.5914
 5789SOL    HW229004   2.714   1.875  16.630 -0.9871  2.2158 -3.3108
 5790SOL     OW29005   4.392   0.336   6.049 -0.1175  0.4945  0.2246
 5790SOL    HW129006   4.487   0.334   6.065 -0.2278 -1.1307  0.6340
 5790SOL    HW229007   4.391   0.414   5.994 -0.0165  0.7474  0.5765
 5791SOL     OW29008   0.587   2.958  13.184  0.1760  0.0482  0.0085
 5791SOL    HW129009   0.659   2.899  13.204 -0.0553 -0.2081  0.0881
 5791SOL    HW229010   0.563   2.931  13.096 -2.6424 -1.0476  1.1157
 5792SOL     OW29011   2.489   3.001   5.131 -0.2063  0.4618 -0.0585
 5792SOL    HW129012   2.444   3.073   5.088 -0.6937 -0.1197 -0.5232
 5792SOL    HW229013   2.428   2.987   5.204  0.0646 -0.3932  0.0126
 5793SOL     OW29014   1.520   2.997  15.819  0.2694  0.0413  0.7534
 5793SOL    HW129015   1.526   3.061  15.890 -0.4352  2.0486 -0.9899
 5793SOL    HW229016   1.428   2.971  15.824 -0.9100  3.4059 -2.9564
 5794SOL     OW29017   0.692   2.935  10.921 -0.3226  0.1029  0.3736
 5794SOL    HW129018   0.722   2.893  10.840 -2.8502 -0.1367 -0.4607
 5794SOL    HW229019   0.694   2.866  10.987 -3.3898  0.6206  1.0241
 5795SOL     OW29020   3.068   2.203  14.588  0.1391 -0.0077  0.3762
 5795SOL    HW129021   3.102   2.115  14.603  2.3217  0.8697  0.5748
 5795SOL    HW229022   3.142   2.257  14.561 -0.6806  1.1075  0.3617
 5796SOL     OW29023   1.772   4.449   5.789  0.1634  0.0096 -0.1858
 5796SOL    HW129024   1.681   4.436   5.815 -0.0747  0.1770 -0.9207
 5796SOL    HW229025   1.767   4.411   5.701 -0.4847  0.1903 -0.2215
 5797SOL     OW29026   2.709   3.433   7.402  0.3829  0.0717 -0.4558
 5797SOL    HW129027   2.785   3.474   7.360 -1.6491 -0.2413 -4.4594
 5797SOL    HW229028   2.655   3.416   7.325  0.3226  0.0029 -0.3976
 5798SOL     OW29029   4.437   0.890   3.858  0.2323  0.6830 -0.0800
 5798SOL    HW129030   4.455   0.900   3.764 -0.1554  0.8114 -0.1389
 5798SOL    HW229031   4.514   0.937   3.892  2.1037 -0.6778 -2.4224
 5799SOL     OW29032   2.863   4.275   0.340 -0.2790  0.2099 -0.2182
 5799SOL    HW129033   2.857   4.355   0.288 -0.3857  0.7919  0.6805
 5799SOL    HW229034   2.772   4.244   0.338 -0.2419  0.1550 -1.0104
 5800SOL     OW29035   0.981   4.726   8.379 -0.2721  0.4547  0.2560
 5800SOL    HW129036   1.034   0.051   8.329 -1.6337 -0.3555 -2.1706
 5800SOL    HW229037   0.956   0.045   8.453  0.1995  0.8267  0.1331
 5801SOL     OW29038   4.661   0.266   7.220  0.5344 -0.1052  0.2767
 5801SOL    HW129039   0.012   0.232   7.203 -0.1330 -1.2352 -0.8965
 5801SOL    HW229040   4.622   0.263   7.133 -1.2927  2.1290  1.0373
 5802SOL     OW29041   2.836   1.538   5.602 -0.4635 -0.0159 -0.6170
 5802SOL    HW129042   2.744   1.559   5.620  0.3951  3.8573 -0.8525
 5802SOL    HW229043   2.828   1.544   5.507 -4.1161  0.6176 -0.2641
 5803SOL     OW29044   1.416   3.863   1.998  0.0796  0.1656  0.3239
 5803SOL    HW129045   1.486   3.908   2.045  0.1396 -0.7371  1.0980
 5803SOL    HW229046   1.461   3.779   1.992  1.4502  0.7798  2.0548
 5804SOL     OW29047   2.616   4.408   8.523 -0.6610  0.1955 -0.6609
 5804SOL    HW129048   2.687   4.432   8.464 -0.3950 -2.3693 -1.3565
 5804SOL    HW229049   2.654   4.327   8.557 -2.4816  0.0608  1.0256
 5805SOL     OW29050   4.324   1.765  12.869  0.1035 -0.1105 -0.2587
 5805SOL    HW129051   4.284   1.795  12.788  1.3308  0.4915 -0.6323
 5805SOL    HW229052   4.277   1.683  12.882 -0.9409  0.3463 -1.1917
 5806SOL     OW29053   1.174   2.022  12.085 -0.3242  0.1211  0.4214
 5806SOL    HW129054   1.255   2.012  12.135 -0.3970 -1.1126  0.2972
 5806SOL    HW229055   1.178   1.932  12.051 -2.0161  0.6167 -1.0682
 5807SOL     OW29056   1.988   0.072   3.433  0.1230  0.3367  0.5840
 5807SOL    HW129057   1.906   0.052   3.387 -0.9279 -1.0506  3.0041
 5807SOL    HW229058   1.965   0.154   3.477 -1.1325 -0.8772  2.2136
 5808SOL     OW29059   0.465   2.921   6.102 -0.3000 -0.1881  0.0979
 5808SOL    HW129060   0.397   2.985   6.126  1.1015  1.1392  0.5393
 5808SOL    HW229061   0.418   2.874   6.033  0.1884  1.9985 -1.7414
 5809SOL     OW29062   0.060   1.025  15.555 -0.7262  0.6743  0.3984
 5809SOL    HW129063   0.013   1.080  15.492  0.4852  0.1991 -0.9148
 5809SOL    HW229064   0.137   1.015  15.500 -1.0807  0.0771  0.0052
 5810SOL     OW29065   3.908   1.956   2.892  0.3864 -0.1386  1.0648
 5810SOL    HW129066   3.952   1.897   2.830 -2.4521 -1.0086 -0.1299
 5810SOL    HW229067   3.817   1.939   2.871  0.6575 -1.2466  0.7698
 5811SOL     OW29068   4.451   2.488   1.540  0.0679  0.2977  0.6042
 5811SOL    HW129069   4.389   2.425   1.577  0.2592  0.2647  0.8717
 5811SOL    HW229070   4.423   2.494   1.449 -0.7169 -0.4829  0.7940
 5812SOL     OW29071   1.117   3.630   4.653  0.3036  0.1811 -0.9131
 5812SOL    HW129072   1.082   3.638   4.565  1.3073  3.2928 -1.0097
 5812SOL    HW229073   1.098   3.715   4.691 -0.6184 -0.0955 -0.7660
 5813SOL     OW29074   2.085   2.855   4.615  0.8462  0.1377 -0.0271
 5813SOL    HW129075   2.103   2.836   4.523 -1.3953  1.7865 -0.7974
 5813SOL    HW229076   2.036   2.937   4.615 -1.4096 -1.2190 -0.2830
 5814SOL     OW29077   2.227   0.401   4.514  0.2447 -0.1348  0.4950
 5814SOL    HW129078   2.223   0.493   4.488 -1.0970 -0.2806  0.1548
 5814SOL    HW229079   2.309   0.365   4.480  0.4171  1.4339 -0.7526
 5815SOL     OW29080   2.802   4.572   1.853  0.2676  0.2923 -0.0116
 5815SOL    HW129081   2.884   4.528   1.829 -0.6399 -0.9917 -0.7294
 5815SOL    HW229082   2.805   4.527   1.938  1.2301 -1.0852 -0.7650
 5816SOL     OW29083   2.554   3.738  13.559 -0.2581 -0.0877  0.4346
 5816SOL    HW129084   2.527   3.650  13.532  4.5643 -0.2617 -3.6803
 5816SOL    HW229085   2.470   3.762  13.600  0.9661  1.8919  1.7882
 5817SOL     OW29086   0.462   2.032   6.205 -0.4607 -0.4120  0.2676
 5817SOL    HW129087   0.502   1.979   6.274  0.7208  0.1868  0.0415
 5817SOL    HW229088   0.430   2.100   6.265  0.8562  1.7830 -1.5413
 5818SOL     OW29089   4.078   4.398  12.743 -0.1348  0.4179  0.3283
 5818SOL    HW129090   4.103   4.474  12.796  0.3695  2.7236 -3.1201
 5818SOL    HW229091   3.990   4.381  12.776  0.0519 -0.3040  0.4405
 5819SOL     OW29092   3.199   0.769   8.476  0.2055 -0.0256  0.2337
 5819SOL    HW129093   3.217   0.738   8.565 -0.8295 -2.5992 -0.4511
 5819SOL    HW229094   3.119   0.720   8.455  0.8813 -0.6090 -0.9211
 5820SOL     OW29095   2.039   0.104   2.041 -0.2863  0.6549  0.7279
 5820SOL    HW129096   2.106   0.152   2.090  0.7736  0.4973 -0.5780
 5820SOL    HW229097   2.069   0.130   1.954 -1.8856  0.9837  0.2873
 5821SOL     OW29098   1.893   1.123  15.585  0.6921  0.3985 -0.2546
 5821SOL    HW129099   1.918   1.079  15.503 -0.5080 -1.8464  0.5813
 5821SOL    HW229100   1.982   1.128  15.619  0.1953 -1.7554  1.3877
 5822SOL     OW29101   3.305   1.105   4.608  0.0295 -0.0421 -0.1787
 5822SOL    HW129102   3.218   1.115   4.571  1.1049 -0.6260 -2.8376
 5822SOL    HW229103   3.290   1.030   4.666  0.4681 -0.1589 -0.2154
 5823SOL     OW29104   0.134   3.736   6.751  0.3479 -0.3525  0.4721
 5823SOL    HW129105   0.182   3.682   6.688 -0.1004  0.7160 -0.7918
 5823SOL    HW229106   0.062   3.682   6.784 -0.4673  0.2417 -0.3293
 5824SOL     OW29107   3.899   4.729  11.567 -0.3875  0.5798  0.2856
 5824SOL    HW129108   3.929   0.022  11.653  0.9052 -1.6292  0.6075
 5824SOL    HW229109   3.979   0.005  11.516 -1.1464 -0.1141 -1.0513
 5825SOL     OW29110   3.188   2.105   6.776 -0.3519  0.1352  0.5622
 5825SOL    HW129111   3.184   2.122   6.871  1.3558  0.0823  0.6477
 5825SOL    HW229112   3.098   2.078   6.757 -0.4944  0.3870  0.8724
 5826SOL     OW29113   0.094   0.939   3.059 -0.1061 -0.0341 -0.0235
 5826SOL    HW129114   0.005   0.940   3.094  0.0678 -1.4361  0.4701
 5826SOL    HW229115   0.090   0.847   3.033 -1.1833  0.2431 -0.8063
 5827SOL     OW29116   4.148   0.573   8.805  0.0397  0.2629  0.2518
 5827SOL    HW129117   4.179   0.518   8.733  1.8869 -1.1841  2.1584
 5827SOL    HW229118   4.159   0.658   8.762  1.9323  0.1572  0.5346
 5828SOL     OW29119   1.263   2.994   1.552 -0.7887  0.2678  0.1225
 5828SOL    HW129120   1.284   2.909   1.514  1.8034  0.8920  0.0905
 5828SOL    HW229121   1.326   3.011   1.622  0.2795  0.5195 -0.8830
 5829SOL     OW29122   2.820   2.307  14.574  0.4386 -0.2240 -0.3925
 5829SOL    HW129123   2.854   2.361  14.504  1.5592 -0.1890  0.1866
 5829SOL    HW229124   2.899   2.256  14.593 -1.1936 -1.6571  2.6825
 5830SOL     OW29125   3.532   1.450   0.965  0.0894  0.5829  0.4709
 5830SOL    HW129126   3.598   1.435   0.897 -0.4293  0.5923 -0.0403
 5830SOL    HW229127   3.552   1.382   1.029 -0.2736  3.4349  3.5904
 5831SOL     OW29128   2.545   1.072   9.214 -0.7138 -0.0401 -0.0770
 5831SOL    HW129129   2.489   1.103   9.285 -1.4981  1.6918 -1.4257
 5831SOL    HW229130   2.551   1.144   9.151 -1.6285 -1.3340 -1.6420
 5832SOL     OW29131   2.166   0.318   5.837  0.4939 -0.0210 -0.0694
 5832SOL    HW129132   2.163   0.279   5.749 -0.4827 -1.6791  0.6917
 5832SOL    HW229133   2.104   0.269   5.891  2.3838  0.1386  2.1965
 5833SOL     OW29134   2.699   2.047  11.608  0.2825  0.4114  0.2928
 5833SOL    HW129135   2.670   1.958  11.588 -0.3872  1.2589 -2.4819
 5833SOL    HW229136   2.761   2.062  11.536  0.2686 -1.5096 -0.1086
 5834SOL     OW29137   4.246   3.552   7.846  0.7419 -0.0355  0.0790
 5834SOL    HW129138   4.182   3.523   7.782  0.5303  1.7693 -0.5408
 5834SOL    HW229139   4.327   3.569   7.797  1.8776 -2.2526  1.1551
 5835SOL     OW29140   2.370   3.014  17.256  0.6833  0.7588  0.1835
 5835SOL    HW129141   2.282   3.019  17.218 -0.0957  1.0971  1.9918
 5835SOL    HW229142   2.409   2.952  17.195  0.7181  2.7064 -1.7770
 5836SOL     OW29143   4.574   0.473   4.295 -0.0161  0.1113  0.4417
 5836SOL    HW129144   4.656   0.494   4.339 -0.4706  0.2359  1.2295
 5836SOL    HW229145   4.572   0.380   4.317  1.5832 -0.1250 -0.4531
 5837SOL     OW29146   0.552   2.358   2.409 -0.5962  0.0237  0.3662
 5837SOL    HW129147   0.499   2.290   2.451 -0.7231 -0.5546 -0.7159
 5837SOL    HW229148   0.518   2.363   2.319  1.1443 -0.7921 -0.3360
 5838SOL     OW29149   1.030   1.187  16.633 -0.3888 -0.0739 -0.1350
 5838SOL    HW129150   1.100   1.170  16.697  0.6288  1.8846 -0.7151
 5838SOL    HW229151   0.968   1.121  16.662 -2.6478  1.5448 -1.3237
 5839SOL     OW29152   3.373   0.543  15.893 -0.2135 -0.2449 -0.6508
 5839SOL    HW129153   3.456   0.535  15.846 -1.1302 -1.2113 -2.1365
 5839SOL    HW229154   3.354   0.459  15.936  1.7399 -0.6769 -0.6446
 5840SOL     OW29155   4.058   1.331   3.659 -0.9513 -0.0215 -0.2010
 5840SOL    HW129156   4.106   1.343   3.741  0.5588 -0.9899 -0.9464
 5840SOL    HW229157   4.006   1.411   3.667 -0.3359  0.5982 -2.4925
 5841SOL     OW29158   3.721   1.416   4.390  0.6969  0.2387 -0.5961
 5841SOL    HW129159   3.783   1.447   4.456 -0.1875  0.4245  0.1662
 5841SOL    HW229160   3.664   1.491   4.372  1.5865  0.8020 -1.0309
 5842SOL     OW29161   4.311   2.223   4.885 -0.2892 -0.2903 -0.0027
 5842SOL    HW129162   4.352   2.171   4.954  0.4936 -1.5783 -1.4402
 5842SOL    HW229163   4.235   2.170   4.859  0.1846 -1.6943  1.4268
 5843SOL     OW29164   0.105   1.983   4.053 -0.4103  0.5755  0.2251
 5843SOL    HW129165   0.102   1.961   3.960 -1.6946  0.5658  0.2671
 5843SOL    HW229166   0.031   1.930   4.085  0.4435  0.2965  1.7539
 5844SOL     OW29167   1.419   1.460   1.933 -0.1728  0.2230  0.2360
 5844SOL    HW129168   1.472   1.530   1.895 -0.5062  0.3522  0.0131
 5844SOL    HW229169   1.479   1.386   1.925  0.2218  0.7204 -1.2438
 5845SOL     OW29170   2.888   4.343   9.479 -0.2174  0.5346 -0.1857
 5845SOL    HW129171   2.918   4.405   9.547 -0.9805 -1.0239  1.5707
 5845SOL    HW229172   2.868   4.401   9.405 -2.6701  0.4057  0.3864
 5846SOL     OW29173   0.156   0.995   9.851  0.3414 -0.8808 -0.1778
 5846SOL    HW129174   0.213   0.922   9.828  2.2963  0.7924 -0.6610
 5846SOL    HW229175   0.224   1.061   9.866 -1.4627  0.7315  0.8959
 5847SOL     OW29176   3.942   0.215  13.443  0.2101  0.2659  0.3545
 5847SOL    HW129177   4.033   0.245  13.443  0.5468 -0.7429 -1.3641
 5847SOL    HW229178   3.898   0.252  13.366  1.0383 -2.1563 -1.2996
 5848SOL     OW29179   1.760   3.375   6.076  0.2868  0.0606 -0.4528
 5848SOL    HW129180   1.746   3.295   6.025 -0.3321  0.1903 -0.4881
 5848SOL    HW229181   1.685   3.383   6.134  0.8579 -0.0497  0.2960
 5849SOL     OW29182   2.533   1.867   6.838  0.1886  0.3710  0.0643
 5849SOL    HW129183   2.461   1.860   6.776  1.4268  0.3101 -1.3441
 5849SOL    HW229184   2.551   1.774   6.854 -0.5794  0.2473  0.1822
 5850SOL     OW29185   4.378   3.297   5.907  0.3437  0.9710  0.1953
 5850SOL    HW129186   4.356   3.237   5.837  1.0430 -0.6107  1.3212
 5850SOL    HW229187   4.461   3.332   5.874  1.2652 -3.1291 -1.7880
 5851SOL     OW29188   1.470   2.964   8.477 -0.2311 -0.0704  0.1627
 5851SOL    HW129189   1.422   2.944   8.557  0.0091  0.6871  0.4919
 5851SOL    HW229190   1.424   3.038   8.437  1.1695  0.3349 -0.7107
 5852SOL     OW29191   2.699   3.796  17.122  0.4888  0.5310 -0.5113
 5852SOL    HW129192   2.666   3.707  17.135 -3.8789  2.2283 -0.0489
 5852SOL    HW229193   2.664   3.826  17.038 -1.8960 -2.1741 -0.5044
 5853SOL     OW29194   0.072   2.343   6.519 -0.1170  0.5424 -0.5331
 5853SOL    HW129195   0.035   2.417   6.472 -1.1720  0.3470 -0.0134
 5853SOL    HW229196   4.735   2.282   6.527  0.1526  0.0823 -1.4605
 5854SOL     OW29197   2.916   4.046  16.895 -0.0345 -0.0617 -0.4313
 5854SOL    HW129198   2.933   4.117  16.834  1.5220 -0.4476 -0.4398
 5854SOL    HW229199   3.004   4.013  16.914 -0.1312 -1.0622 -1.7947
 5855SOL     OW29200   0.631   4.441   4.129 -0.4963  0.1168  0.1227
 5855SOL    HW129201   0.668   4.367   4.081 -1.6785  0.4844 -1.3697
 5855SOL    HW229202   0.571   4.477   4.063 -0.7702 -3.2680 -1.4845
 5856SOL     OW29203   4.248   3.339   0.570  0.0760  0.2302  0.2334
 5856SOL    HW129204   4.327   3.365   0.619  0.5961  0.6405 -0.8041
 5856SOL    HW229205   4.260   3.253   0.531 -1.8848  0.2237 -0.3513
 5857SOL     OW29206   3.573   4.375   5.097 -0.2268 -1.2746  0.2247
 5857SOL    HW129207   3.668   4.384   5.108 -0.3143  1.1099 -1.1753
 5857SOL    HW229208   3.549   4.445   5.157  2.4519 -0.3836  0.2656
 5858SOL     OW29209   3.672   0.074  14.748 -0.2883  0.6833 -0.0267
 5858SOL    HW129210   3.639   0.144  14.692 -2.0739  0.5319  0.8208
 5858SOL    HW229211   3.637   4.732  14.708  1.1506 -0.3352  0.7422
 5859SOL     OW29212   0.554   2.225   6.682  0.3311  0.0616  0.1208
 5859SOL    HW129213   0.593   2.272   6.756  1.6777 -1.0395  0.1249
 5859SOL    HW229214   0.475   2.279   6.672 -0.8683 -1.8002 -0.4264
 5860SOL     OW29215   3.681   2.838   3.528 -0.4401  0.1157  0.0488
 5860SOL    HW129216   3.680   2.871   3.438 -1.8925 -1.0454 -0.3572
 5860SOL    HW229217   3.657   2.918   3.573  0.2877 -0.0465  0.7220
 5861SOL     OW29218   3.106   1.176   4.174 -0.3417  0.2955 -0.6414
 5861SOL    HW129219   3.101   1.119   4.098  0.8244  0.8411 -1.1332
 5861SOL    HW229220   3.015   1.202   4.184 -1.4071 -3.1098 -1.3443
 5862SOL     OW29221   3.754   1.352   1.463  0.3448 -0.3054 -0.2574
 5862SOL    HW129222   3.713   1.285   1.518 -0.4580  1.2436  1.0434
 5862SOL    HW229223   3.773   1.419   1.529 -3.8950  0.7062 -0.0420
 5863SOL     OW29224   3.632   3.588   4.913  0.3694  0.1137 -0.4482
 5863SOL    HW129225   3.546   3.630   4.917  1.4155  2.1112  1.4422
 5863SOL    HW229226   3.679   3.639   4.846  1.3951 -1.9113 -1.2497
 5864SOL     OW29227   0.048   2.065   4.439  0.2317 -0.4148 -0.8812
 5864SOL    HW129228   0.085   1.986   4.400  1.5447 -0.4289  0.3960
 5864SOL    HW229229   0.084   2.072   4.528 -1.0947  1.3430 -0.4807
 5865SOL     OW29230   4.286   3.458   2.636 -0.0940 -0.1141 -0.1211
 5865SOL    HW129231   4.288   3.403   2.558  1.3752 -1.0997  0.6125
 5865SOL    HW229232   4.207   3.412   2.665  0.3245 -0.4222  0.5397
 5866SOL     OW29233   4.318   2.145   7.026  0.4392  0.3236  0.1697
 5866SOL    HW129234   4.378   2.211   6.993  1.4579 -1.0792 -0.7828
 5866SOL    HW229235   4.277   2.187   7.102 -2.6783 -1.4087 -0.5633
 5867SOL     OW29236   2.301   1.491  12.428  0.7583 -0.5533 -0.3439
 5867SOL    HW129237   2.232   1.487  12.362  0.2194  0.2831  0.1711
 5867SOL    HW229238   2.252   1.556  12.478  1.3485 -0.7745  0.5205
 5868SOL     OW29239   0.864   4.338  13.420 -0.3196 -0.3251 -0.4357
 5868SOL    HW129240   0.771   4.351  13.437  0.3630  0.5460  2.6682
 5868SOL    HW229241   0.871   4.306  13.330 -0.1714 -3.2916  0.6281
 5869SOL     OW29242   3.765   1.230   1.745 -0.0886  0.2491 -0.0432
 5869SOL    HW129243   3.686   1.188   1.777  0.5754 -1.9931 -1.2984
 5869SOL    HW229244   3.763   1.314   1.790  0.2181  1.0994 -1.6032
 5870SOL     OW29245   2.455   2.318  15.371 -0.2178 -0.3184  0.2668
 5870SOL    HW129246   2.495   2.396  15.410 -0.7475 -0.3562  0.8825
 5870SOL    HW229247   2.417   2.360  15.293  2.1869  0.6729 -0.3849
 5871SOL     OW29248   1.404   1.356  15.051  0.1415  0.6350 -0.1918
 5871SOL    HW129249   1.415   1.272  15.006  0.1028 -0.0755  1.1230
 5871SOL    HW229250   1.349   1.331  15.125  1.6394 -1.4240  0.2132
 5872SOL     OW29251   2.059   4.156  11.234 -0.1799 -0.1268 -0.2560
 5872SOL    HW129252   2.123   4.218  11.268 -1.7280  0.4151  1.6656
 5872SOL    HW229253   2.103   4.076  11.262 -1.9402 -0.6917  0.9059
 5873SOL     OW29254   1.764   0.782   2.676 -0.1636 -0.4384 -0.3188
 5873SOL    HW129255   1.695   0.793   2.741 -1.6718 -0.9564 -1.8333
 5873SOL    HW229256   1.715   0.790   2.594  0.6287 -2.2741 -0.9684
 5874SOL     OW29257   2.155   4.657   9.374  0.2325  0.2887 -0.1996
 5874SOL    HW129258   2.147   0.011   9.343  0.0676  1.0837  2.1562
 5874SOL    HW229259   2.092   4.610   9.320 -0.7673 -1.9505  2.9294
 5875SOL     OW29260   3.488   2.009   6.794 -0.3384  0.0054  0.6834
 5875SOL    HW129261   3.503   1.983   6.703 -0.1217  0.1482  0.6795
 5875SOL    HW229262   3.397   2.039   6.796 -0.0818  0.6890  1.7982
 5876SOL     OW29263   1.088   1.103   8.255  0.2917  0.2156 -0.0335
 5876SOL    HW129264   1.088   1.008   8.267  2.4881  0.2186 -0.0770
 5876SOL    HW229265   1.183   1.114   8.246  0.5127 -0.6964  1.1528
 5877SOL     OW29266   0.424   4.387   2.352 -0.3284 -0.4911 -0.1974
 5877SOL    HW129267   0.375   4.305   2.354  1.0576 -1.3389 -1.0732
 5877SOL    HW229268   0.381   4.433   2.424 -1.6756  1.1621 -2.0478
 5878SOL     OW29269   3.041   1.094   5.611  0.5455  0.6158  0.4688
 5878SOL    HW129270   2.958   1.135   5.634  0.3633 -0.7939  2.3858
 5878SOL    HW229271   3.091   1.171   5.583  1.7780  0.7512  2.9616
 5879SOL     OW29272   1.752   3.019   2.920  0.0892 -0.3869 -0.2650
 5879SOL    HW129273   1.772   2.966   2.998  1.0406  0.7436  0.2484
 5879SOL    HW229274   1.659   3.033   2.940  0.0643 -1.0878  0.1387
 5880SOL     OW29275   3.767   4.236   4.050 -0.2805  0.5469 -0.5631
 5880SOL    HW129276   3.692   4.289   4.080 -0.2087  0.6088 -0.4938
 5880SOL    HW229277   3.807   4.199   4.129  0.2026  0.9913 -0.6000
 5881SOL     OW29278   0.182   4.647  16.601  0.2849 -0.5137  0.7854
 5881SOL    HW129279   0.116   4.582  16.575 -0.3631 -0.8126  3.2095
 5881SOL    HW229280   0.268   4.620  16.569  1.1223 -1.1458  3.5546
 5882SOL     OW29281   3.069   2.345   9.362 -0.2986 -0.0009 -0.2780
 5882SOL    HW129282   3.148   2.313   9.317  0.6889  1.8380  0.1429
 5882SOL    HW229283   3.087   2.422   9.417 -2.0362  0.9254 -0.9988
 5883SOL     OW29284   1.391   4.342   1.759  0.1032 -0.0925  0.1970
 5883SOL    HW129285   1.354   4.316   1.843  0.8402 -0.0629  0.5290
 5883SOL    HW229286   1.472   4.292   1.766  0.7415  1.2422  2.2678
 5884SOL     OW29287   0.606   4.267   5.575  0.2143  0.2664 -0.0723
 5884SOL    HW129288   0.530   4.298   5.625  0.1512 -1.3176  0.8017
 5884SOL    HW229289   0.579   4.192   5.522  0.5883 -0.2238  0.4444
 5885SOL     OW29290   2.952   0.890  10.383 -0.2656  0.0042  0.2069
 5885SOL    HW129291   2.970   0.805  10.343  0.5904  0.0535  0.5000
 5885SOL    HW229292   2.859   0.874  10.402 -0.2911  1.4315  1.3206
 5886SOL     OW29293   0.989   2.019   9.294 -0.3583  0.4057  0.1661
 5886SOL    HW129294   0.921   2.014   9.361 -0.0141 -1.0495  0.3898
 5886SOL    HW229295   0.992   1.928   9.266 -1.3499  1.3836 -3.1498
 5887SOL     OW29296   2.593   4.244  15.257 -1.1062  0.3490  0.5936
 5887SOL    HW129297   2.587   4.302  15.181 -0.1237 -2.1483 -1.4052
 5887SOL    HW229298   2.671   4.287  15.292 -0.1036  0.4556 -1.7780
 5888SOL     OW29299   0.165   4.717   2.724 -0.5527 -0.5707  0.1010
 5888SOL    HW129300   0.171   4.660   2.800  0.3843 -1.9164 -0.9673
 5888SOL    HW229301   0.071   4.733   2.727 -0.3395  0.5612  0.4368
 5889SOL     OW29302   3.766   0.895   5.145  0.3648 -0.6053 -0.0826
 5889SOL    HW129303   3.735   0.819   5.195 -3.7672  0.0471 -1.6413
 5889SOL    HW229304   3.687   0.942   5.119  0.4888  0.3832  1.3069
 5890SOL     OW29305   0.526   2.845   8.849  0.5455 -0.6484 -0.0270
 5890SOL    HW129306   0.570   2.790   8.785 -0.1498 -0.2627 -0.8320
 5890SOL    HW229307   0.477   2.901   8.789 -1.4733 -0.6254  1.6161
 5891SOL     OW29308   3.917   1.914   7.608  0.0788 -0.3152  0.4708
 5891SOL    HW129309   3.879   1.829   7.630  0.5076 -0.6439 -0.0518
 5891SOL    HW229310   4.005   1.894   7.639  0.6255 -0.5353 -1.2108
 5892SOL     OW29311   1.820   3.707  14.628  0.0562  0.9193  0.5136
 5892SOL    HW129312   1.823   3.781  14.689  0.8277  0.0439  1.5391
 5892SOL    HW229313   1.888   3.649  14.662  0.8112  0.8965 -1.0553
 5893SOL     OW29314   3.959   3.284  17.552 -0.4465 -0.3882 -0.0410
 5893SOL    HW129315   4.041   3.262  17.596 -0.3727 -0.2646 -0.1157
 5893SOL    HW229316   3.963   3.222  17.478  0.1610  1.3634 -1.4787
 5894SOL     OW29317   0.747   0.423   5.905  0.2377 -0.1412 -0.1769
 5894SOL    HW129318   0.828   0.456   5.942 -0.1522  0.1119  0.4599
 5894SOL    HW229319   0.724   0.498   5.849 -2.0462 -2.2925 -2.1436
 5895SOL     OW29320   3.615   2.475   3.392 -0.0812 -0.0013 -0.2643
 5895SOL    HW129321   3.654   2.518   3.468 -0.4240  2.1397 -1.3006
 5895SOL    HW229322   3.538   2.531   3.398 -0.4271 -0.3845 -1.1452
 5896SOL     OW29323   0.363   3.632   2.281  0.4598  0.5594  0.4869
 5896SOL    HW129324   0.330   3.700   2.222 -0.2031 -0.2263 -0.0358
 5896SOL    HW229325   0.290   3.571   2.289  0.5832  0.5145  1.2602
 5897SOL     OW29326   0.110   0.912   1.335 -0.2708  0.2721 -0.1000
 5897SOL    HW129327   0.158   0.931   1.416  1.5405 -2.5324 -0.5278
 5897SOL    HW229328   0.023   0.947   1.356 -1.5541 -2.1943 -1.2150
 5898SOL     OW29329   1.583   2.379   5.179  0.2251 -0.1501  0.3154
 5898SOL    HW129330   1.512   2.337   5.228  0.9799 -0.1274  1.4399
 5898SOL    HW229331   1.554   2.374   5.088 -1.2529  1.9589  0.6661
 5899SOL     OW29332   1.270   2.517   5.467  0.6385 -0.6044 -0.2402
 5899SOL    HW129333   1.255   2.610   5.487 -1.5555 -1.0552  0.1336
 5899SOL    HW229334   1.185   2.480   5.490 -0.9965  3.2250 -0.1154
 5900SOL     OW29335   4.337   1.181   6.045 -0.0874  0.0461  0.4918
 5900SOL    HW129336   4.395   1.111   6.016 -1.8411 -0.7991 -1.0103
 5900SOL    HW229337   4.400   1.251   6.032 -0.8695  0.4934 -0.9182
 5901SOL     OW29338   2.926   0.560   1.747  0.0220  0.1789  0.1262
 5901SOL    HW129339   2.843   0.514   1.746  0.5895 -0.8421  0.7400
 5901SOL    HW229340   2.916   0.590   1.837 -0.1432  0.7118 -0.0633
 5902SOL     OW29341   0.051   0.293  15.112  0.0203 -0.5465  0.1560
 5902SOL    HW129342   0.126   0.236  15.126 -1.1786 -1.4185  3.0661
 5902SOL    HW229343   4.709   0.249  15.144  1.0752 -1.0037  2.1653
 5903SOL     OW29344   0.798   3.079  12.808 -0.4557  0.5606 -0.5345
 5903SOL    HW129345   0.859   3.141  12.848 -0.4341  0.2383 -0.0730
 5903SOL    HW229346   0.863   3.010  12.791 -0.1521  0.5710  0.6247
 5904SOL     OW29347   4.355   4.405   2.581  0.4194 -0.1641 -0.3397
 5904SOL    HW129348   4.334   4.328   2.634  2.2423  0.9500  2.0075
 5904SOL    HW229349   4.326   4.477   2.637  1.6442  0.2978 -0.2903
 5905SOL     OW29350   4.545   0.021   8.873  0.0575 -0.2890 -0.4758
 5905SOL    HW129351   4.458   4.732   8.904  1.0270  0.1039  2.5915
 5905SOL    HW229352   4.593   4.677   8.861 -1.3218 -0.5873 -3.7460
 5906SOL     OW29353   4.534   0.503   1.817 -1.1492 -0.0679 -0.0489
 5906SOL    HW129354   4.598   0.557   1.771  0.0800 -1.6798 -0.2260
 5906SOL    HW229355   4.592   0.466   1.884 -0.6284  0.7662 -0.0377
 5907SOL     OW29356   4.356   3.632   3.884 -0.1560  0.6248  0.6709
 5907SOL    HW129357   4.333   3.541   3.862  3.5995 -0.1497 -0.0462
 5907SOL    HW229358   4.328   3.676   3.803 -2.3214 -1.8741  0.0526
 5908SOL     OW29359   2.044   1.279   8.339 -0.3789 -0.0420 -0.6526
 5908SOL    HW129360   2.011   1.362   8.304  2.8015  1.9028  1.0230
 5908SOL    HW229361   2.025   1.295   8.431  1.7355  1.5769 -0.5153
 5909SOL     OW29362   4.357   4.303   5.365  0.6146  0.5272  0.4876
 5909SOL    HW129363   4.310   4.325   5.285 -0.7555  2.4364  1.8369
 5909SOL    HW229364   4.280   4.297   5.421  0.8285 -1.1704  0.5903
 5910SOL     OW29365   0.722   0.355   2.967  0.2027  0.1175  0.1218
 5910SOL    HW129366   0.656   0.423   2.957 -2.1143 -1.8401  2.1558
 5910SOL    HW229367   0.746   0.368   3.058 -0.3196  0.6147  0.1855
 5911SOL     OW29368   4.287   2.520   1.313 -0.3479 -0.1546 -0.0221
 5911SOL    HW129369   4.233   2.595   1.287 -2.4220 -0.8495  2.2708
 5911SOL    HW229370   4.224   2.449   1.314 -0.3201 -0.1777  0.0467
 5912SOL     OW29371   4.692   1.652   7.719  0.4439  0.0854 -0.0811
 5912SOL    HW129372   4.691   1.656   7.815 -0.1600 -0.2653 -0.0694
 5912SOL    HW229373   4.650   1.567   7.703  0.6694  0.0219 -0.3284
 5913SOL     OW29374   0.980   4.221   4.611 -0.3684  0.5124  0.4341
 5913SOL    HW129375   0.994   4.165   4.535 -1.5606  2.0451 -0.9284
 5913SOL    HW229376   0.885   4.233   4.605 -0.0984  3.2844  1.6617
 5914SOL     OW29377   3.519   0.171   1.862  0.6414 -0.1441 -0.2501
 5914SOL    HW129378   3.506   0.264   1.845  0.9526 -0.2711 -1.1917
 5914SOL    HW229379   3.605   0.175   1.904  0.3346  2.6922  0.0858
 5915SOL     OW29380   4.036   3.515   5.949 -0.2163  0.0335  0.8570
 5915SOL    HW129381   3.978   3.591   5.953  3.4807  2.9593 -1.5552
 5915SOL    HW229382   4.120   3.551   5.920 -0.0480 -1.1506 -0.1243
 5916SOL     OW29383   4.171   3.500  13.867 -0.3384  0.3621 -0.0296
 5916SOL    HW129384   4.136   3.563  13.804  0.5812 -2.5177 -3.4527
 5916SOL    HW229385   4.130   3.421  13.833  4.4133 -1.7367 -1.0075
 5917SOL     OW29386   3.774   2.984   3.200  0.0403  0.4735  0.1245
 5917SOL    HW129387   3.868   2.972   3.208  0.1539  1.5432  0.4160
 5917SOL    HW229388   3.766   3.080   3.204  0.3427  0.4417  1.3653
 5918SOL     OW29389   4.622   1.185   5.675  0.2290 -0.0490 -0.3291
 5918SOL    HW129390   4.583   1.172   5.762 -2.1817  0.6982 -1.2933
 5918SOL    HW229391   4.713   1.157   5.684  0.4484  0.2265 -1.7330
 5919SOL     OW29392   4.261   0.386   0.917  0.2159  0.0480  0.5056
 5919SOL    HW129393   4.233   0.477   0.915 -2.8759 -0.8342  2.5414
 5919SOL    HW229394   4.263   0.370   0.823  3.8316  1.5189  0.3315
 5920SOL     OW29395   3.455   4.571  16.621  0.4469 -0.2177  0.0888
 5920SOL    HW129396   3.550   4.566  16.614  0.4596  0.3499 -0.1448
 5920SOL    HW229397   3.425   4.610  16.539 -0.7389  1.5750  1.3779
 5921SOL     OW29398   4.468   0.793   8.683  0.2817 -0.2812 -0.3979
 5921SOL    HW129399   4.435   0.774   8.771  0.6013  1.7224  0.1580
 5921SOL    HW229400   4.549   0.843   8.694 -1.0509  1.7451  0.2000
 5922SOL     OW29401   3.434   3.306   5.933  0.3689 -0.3593 -0.2579
 5922SOL    HW129402   3.369   3.346   5.875  0.4385  0.9774  0.5936
 5922SOL    HW229403   3.406   3.215   5.935 -2.5731  0.5457  0.3684
 5923SOL     OW29404   1.310   4.116   4.882  0.3048 -0.2267 -0.0508
 5923SOL    HW129405   1.245   4.103   4.951  0.4999 -1.3977 -0.0772
 5923SOL    HW229406   1.377   4.053   4.909  1.3362  0.7198 -0.3988
 5924SOL     OW29407   3.228   3.150  10.500 -0.2664  0.4788  0.3988
 5924SOL    HW129408   3.305   3.112  10.459  0.5215  1.5739  0.8671
 5924SOL    HW229409   3.235   3.239  10.464  2.6908 -0.2677 -0.8478
 5925SOL     OW29410   1.998   2.318   9.727 -0.4342  0.1330  0.1994
 5925SOL    HW129411   2.059   2.358   9.666  0.9698 -2.2166  0.0637
 5925SOL    HW229412   2.057   2.297   9.800  1.6064  2.6149 -0.7238
 5926SOL     OW29413   3.799   2.057  10.216 -0.3756 -0.4648  0.0243
 5926SOL    HW129414   3.809   1.971  10.256  2.0946 -0.3298 -0.3245
 5926SOL    HW229415   3.851   2.118  10.268 -1.3205 -1.5290  2.2280
 5927SOL     OW29416   0.376   0.837   8.780 -0.2590 -0.2949 -0.2683
 5927SOL    HW129417   0.454   0.875   8.742  0.2207 -1.0749 -0.0564
 5927SOL    HW229418   0.365   0.762   8.722 -0.9860  0.9791 -1.7944
 5928SOL     OW29419   0.314   0.543   3.240  0.6704  0.1564 -0.0810
 5928SOL    HW129420   0.292   0.631   3.270  0.8279  0.5569 -1.1539
 5928SOL    HW229421   0.281   0.493   3.314 -1.5806 -0.0349 -1.2402
 5929SOL     OW29422   4.386   1.155   0.077 -0.1354 -0.7420  0.1461
 5929SOL    HW129423   4.337   1.084   0.119  1.2546 -0.7866  1.6761
 5929SOL    HW229424   4.359   1.144  17.732 -0.4170  0.5291  0.0623
 5930SOL     OW29425   4.059   0.885  12.955 -0.8744  0.2850 -0.1584
 5930SOL    HW129426   4.138   0.872  12.902  0.9674 -1.7613  3.0936
 5930SOL    HW229427   4.044   0.792  12.971 -0.5925  0.0337 -1.3722
 5931SOL     OW29428   2.317   2.124   1.365 -0.6253 -0.1508 -0.7388
 5931SOL    HW129429   2.370   2.073   1.303 -2.6767 -1.6910 -1.2105
 5931SOL    HW229430   2.231   2.138   1.326 -0.9797 -1.1912 -0.3154
 5932SOL     OW29431   0.364   3.010   8.712  0.4200 -0.2484  0.0792
 5932SOL    HW129432   0.333   2.942   8.651  0.1145  1.7210 -1.9574
 5932SOL    HW229433   0.354   3.083   8.651  0.8993 -0.1661  0.1010
 5933SOL     OW29434   0.399   2.050  14.236  0.2276  0.0966  0.4301
 5933SOL    HW129435   0.432   1.987  14.300 -2.4714 -1.4561  0.2935
 5933SOL    HW229436   0.463   2.120  14.227 -0.1268  0.1611 -1.5166
 5934SOL     OW29437   1.009   0.509   1.710  0.4830 -0.0413 -0.0578
 5934SOL    HW129438   0.959   0.520   1.628  3.1846  0.0529 -1.7005
 5934SOL    HW229439   0.942   0.473   1.767  0.4067 -1.0972 -0.8143
 5935SOL     OW29440   0.382   4.534   1.276 -0.0365  0.1412 -0.0833
 5935SOL    HW129441   0.414   4.579   1.354 -1.4838  2.0252 -0.5800
 5935SOL    HW229442   0.287   4.525   1.289 -0.0493  0.7645  0.2270
 5936SOL     OW29443   0.189   1.015  15.311  0.3316 -0.2906 -0.5269
 5936SOL    HW129444   0.209   0.936  15.261  1.4223 -2.8367  3.8937
 5936SOL    HW229445   0.174   1.076  15.238 -1.2044 -0.0969 -0.0501
 5937SOL     OW29446   2.453   0.698  10.679  0.3317 -0.3089 -0.8031
 5937SOL    HW129447   2.499   0.619  10.707  0.5610 -0.6311 -2.0658
 5937SOL    HW229448   2.491   0.753  10.748  0.1876 -0.5542 -0.5298
 5938SOL     OW29449   3.574   1.284   6.571  0.0429  0.5704 -0.1484
 5938SOL    HW129450   3.647   1.254   6.517 -0.9665  1.2485 -1.8877
 5938SOL    HW229451   3.507   1.275   6.503  0.0497  3.0746 -0.4690
 5939SOL     OW29452   3.403   1.896   5.159 -0.0305 -0.3877 -0.8986
 5939SOL    HW129453   3.348   1.965   5.198  1.7455  0.9526 -0.7553
 5939SOL    HW229454   3.370   1.823   5.211  1.6887  0.3341  1.2259
 5940SOL     OW29455   2.749   1.214  11.215 -0.2853  0.0855  0.0560
 5940SOL    HW129456   2.672   1.247  11.169 -1.2513 -3.0331 -0.5944
 5940SOL    HW229457   2.816   1.273  11.178 -1.0429  2.3051  2.2175
 5941SOL     OW29458   1.953   3.663  16.885 -0.1936  0.5220 -0.5072
 5941SOL    HW129459   1.894   3.705  16.823 -0.9099 -1.0130 -0.8746
 5941SOL    HW229460   1.949   3.715  16.965 -0.1113 -0.7144  0.3001
 5942SOL     OW29461   4.074   0.638   0.547  0.7292 -0.7197 -0.0561
 5942SOL    HW129462   3.995   0.629   0.599  1.7171  0.3458  1.6422
 5942SOL    HW229463   4.120   0.699   0.605  0.7880  2.7873 -3.7366
 5943SOL     OW29464   2.365   2.148   5.700 -0.4618  0.3542 -0.2698
 5943SOL    HW129465   2.383   2.059   5.733  0.0058 -0.0614 -1.6374
 5943SOL    HW229466   2.309   2.169   5.774 -1.1413 -0.0559 -0.6647
 5944SOL     OW29467   0.630   3.142   9.888  0.2983 -0.0071  0.2479
 5944SOL    HW129468   0.659   3.097   9.968  0.1240 -0.2035  0.1996
 5944SOL    HW229469   0.655   3.074   9.825  0.0520  1.7477 -1.7413
 5945SOL     OW29470   2.008   1.629   9.522 -0.2446 -0.4346 -0.2936
 5945SOL    HW129471   1.975   1.648   9.610 -0.3307 -2.0420  0.0131
 5945SOL    HW229472   2.004   1.719   9.491 -1.2409 -0.7807 -1.1643
 5946SOL     OW29473   2.858   3.258   4.004 -0.3776  0.0181 -0.2573
 5946SOL    HW129474   2.808   3.181   4.030  0.2808 -1.6315 -3.9435
 5946SOL    HW229475   2.802   3.317   3.952 -0.6754 -1.0201 -1.1089
 5947SOL     OW29476   1.355   2.272   7.674  0.1049 -0.0600  0.0573
 5947SOL    HW129477   1.349   2.178   7.689  3.6834 -0.2380  0.4834
 5947SOL    HW229478   1.263   2.292   7.658  0.6611  0.2962 -2.6396
 5948SOL     OW29479   4.512   3.963   4.658 -0.4836 -0.1904 -0.2663
 5948SOL    HW129480   4.439   4.008   4.702  0.1988  0.3032  0.3449
 5948SOL    HW229481   4.526   4.024   4.585 -1.1173  2.3547  1.7315
 5949SOL     OW29482   3.604   1.045  14.606 -0.2645 -0.2487 -0.5952
 5949SOL    HW129483   3.634   1.076  14.691  2.3900 -2.3459 -0.7600
 5949SOL    HW229484   3.615   1.131  14.566  0.2628  0.4273  1.0261
 5950SOL     OW29485   0.119   2.242   7.069  0.1008  0.3257 -0.3610
 5950SOL    HW129486   0.169   2.160   7.068  1.1045  0.9011  3.0958
 5950SOL    HW229487   0.049   2.234   7.134 -0.0241 -1.2493 -0.6858
 5951SOL     OW29488   3.646   3.247   7.074  0.0775  0.7307  0.2908
 5951SOL    HW129489   3.738   3.268   7.057 -0.0225 -0.4023 -1.6145
 5951SOL    HW229490   3.617   3.322   7.126 -0.9701 -0.7717  1.9025
 5952SOL     OW29491   3.709   0.929   4.597 -0.2794  0.0675  0.0554
 5952SOL    HW129492   3.741   0.949   4.509  1.5828 -1.0966  0.4707
 5952SOL    HW229493   3.776   0.872   4.634  0.0172 -0.0998 -0.7648
 5953SOL     OW29494   1.716   3.641  12.517  0.0644  0.3658  0.4574
 5953SOL    HW129495   1.717   3.597  12.601 -0.0277  1.1320  0.8648
 5953SOL    HW229496   1.696   3.731  12.545  0.1524  1.1674 -2.0468
 5954SOL     OW29497   4.376   2.862   8.775 -0.0868 -0.3021 -0.6359
 5954SOL    HW129498   4.435   2.788   8.760 -0.3446 -0.9937  1.7683
 5954SOL    HW229499   4.297   2.816   8.800  0.9235 -1.1758  0.9399
 5955SOL     OW29500   1.055   3.521  16.710 -0.4074 -0.4037 -0.0197
 5955SOL    HW129501   1.000   3.550  16.637  2.0023  1.2516 -1.1843
 5955SOL    HW229502   1.005   3.544  16.788  1.6935 -1.0280  1.4852
 5956SOL     OW29503   2.830   2.501   4.736 -0.0471 -0.1978  0.5416
 5956SOL    HW129504   2.830   2.544   4.650 -1.5316  0.9279  1.1040
 5956SOL    HW229505   2.739   2.507   4.765  0.2934 -0.8397  1.7397
 5957SOL     OW29506   3.958   0.220   3.321  0.1620  0.0292  0.4023
 5957SOL    HW129507   3.963   0.277   3.398  0.3320  0.2703  0.2125
 5957SOL    HW229508   3.960   0.281   3.247 -2.0340 -2.1050 -1.4094
 5958SOL     OW29509   4.158   1.930   1.628 -0.1860  0.0417 -0.0242
 5958SOL    HW129510   4.108   1.957   1.705 -0.6182 -1.1252  0.0981
 5958SOL    HW229511   4.173   1.836   1.640 -0.1489 -0.1359 -1.4945
 5959SOL     OW29512   3.691   4.576   3.219  0.1780  0.2377 -0.2967
 5959SOL    HW129513   3.645   4.538   3.294 -1.0077  0.9767 -0.6578
 5959SOL    HW229514   3.763   4.616   3.269  1.4613 -0.2356 -1.7622
 5960SOL     OW29515   4.054   2.776   4.026 -0.4850  0.2419 -0.0539
 5960SOL    HW129516   4.032   2.836   4.098 -1.5309 -1.5357  1.1251
 5960SOL    HW229517   4.006   2.702   4.065 -1.8966  0.5608 -1.1825
 5961SOL     OW29518   0.414   2.120   2.425  0.1581  0.3787  0.1807
 5961SOL    HW129519   0.399   2.053   2.491 -3.5292 -0.4720 -1.5354
 5961SOL    HW229520   0.337   2.139   2.371  0.5214 -0.2647 -0.5580
 5962SOL     OW29521   0.654   2.593   2.028  0.0034 -0.4224 -0.3555
 5962SOL    HW129522   0.670   2.663   2.091 -1.9769  0.8937 -1.3108
 5962SOL    HW229523   0.716   2.526   2.057  1.2332  0.8591 -0.0372
 5963SOL     OW29524   3.072   4.668   3.126  0.2525  0.2029 -0.2571
 5963SOL    HW129525   3.006   4.603   3.148  0.6876 -0.3110 -0.4714
 5963SOL    HW229526   3.024   4.731   3.072 -1.0899  1.6619  2.6323
 5964SOL     OW29527   0.971   3.145   0.631 -0.1269 -0.3886 -0.3545
 5964SOL    HW129528   0.976   3.063   0.681  0.1285 -0.0336  0.2043
 5964SOL    HW229529   0.875   3.141   0.623 -0.1496  0.9394 -0.7196
 5965SOL     OW29530   0.640   3.198  10.938  0.3796 -0.6104 -0.9802
 5965SOL    HW129531   0.647   3.103  10.924 -0.5525 -0.6299 -1.3207
 5965SOL    HW229532   0.563   3.209  10.994  0.6894  2.1645 -1.1391
 5966SOL     OW29533   4.578   2.965   5.172  0.1715 -0.1503  0.3798
 5966SOL    HW129534   4.600   2.903   5.103  0.4048 -1.1109  1.3170
 5966SOL    HW229535   4.599   2.906   5.244 -1.5421 -1.4941 -0.2125
 5967SOL     OW29536   4.716   3.148  15.023 -0.6528  0.0391  0.0476
 5967SOL    HW129537   4.644   3.170  15.083  0.3020 -1.0471  1.5916
 5967SOL    HW229538   4.661   3.109  14.955 -0.3156  0.2269 -0.3333
 5968SOL     OW29539   4.724   2.103   8.705 -0.3056  0.4581  0.2977
 5968SOL    HW129540   4.636   2.064   8.711  0.1892 -1.0778 -2.4793
 5968SOL    HW229541   4.709   2.193   8.676  0.8505  0.6940  0.4308
 5969SOL     OW29542   3.801   2.739   3.036  0.4109  0.7769  0.0101
 5969SOL    HW129543   3.803   2.763   3.129  1.7657 -0.9119  0.4245
 5969SOL    HW229544   3.803   2.827   2.998 -0.7090  0.1987 -1.4067
 5970SOL     OW29545   3.801   3.603   3.739 -0.4960  0.3227  0.0538
 5970SOL    HW129546   3.867   3.612   3.808 -0.6846  2.3960 -0.0307
 5970SOL    HW229547   3.827   3.688   3.703 -0.2940  1.4588  2.9196
 5971SOL     OW29548   2.920   1.651  16.811  0.5576 -0.1525  0.0112
 5971SOL    HW129549   2.972   1.671  16.733  0.4647 -0.7355 -0.1998
 5971SOL    HW229550   2.880   1.736  16.830 -2.0126 -1.4967  0.6044
 5972SOL     OW29551   1.883   1.754   6.066 -0.2349 -0.1737 -0.2075
 5972SOL    HW129552   1.934   1.679   6.096 -1.0819  0.0079  1.7173
 5972SOL    HW229553   1.792   1.724   6.063  0.2424 -1.3404 -2.6272
 5973SOL     OW29554   3.195   3.756   7.880 -0.2782  0.3636  0.0138
 5973SOL    HW129555   3.286   3.730   7.869  0.2816  0.9288  3.1309
 5973SOL    HW229556   3.170   3.766   7.788 -0.8462 -0.5647  0.0715
 5974SOL     OW29557   1.488   0.688  13.078  0.3975  0.1852 -0.3024
 5974SOL    HW129558   1.538   0.632  13.138 -1.3735 -0.3943  0.6187
 5974SOL    HW229559   1.460   0.748  13.147  0.8946 -0.8530  0.7976
 5975SOL     OW29560   3.608   1.981   9.116  0.2518 -0.2856 -0.3777
 5975SOL    HW129561   3.546   1.944   9.178 -1.1319  2.4397 -0.1094
 5975SOL    HW229562   3.685   1.999   9.169 -0.4796 -1.4710  1.0732
 5976SOL     OW29563   2.352   1.112   4.602  0.0909 -0.1180 -0.1239
 5976SOL    HW129564   2.380   1.052   4.533 -0.3651  0.6568 -0.9967
 5976SOL    HW229565   2.324   1.184   4.545  0.3073 -0.9407 -1.2636
 5977SOL     OW29566   3.683   3.517  16.328 -0.2233  0.2443 -0.0219
 5977SOL    HW129567   3.725   3.511  16.414 -1.0875 -2.2085  0.2408
 5977SOL    HW229568   3.722   3.599  16.297  0.2172 -0.0431 -0.2398
 5978SOL     OW29569   3.436   4.562  14.860  0.1692 -0.6708 -0.1530
 5978SOL    HW129570   3.527   4.565  14.832  0.4357 -0.4286  0.7379
 5978SOL    HW229571   3.447   4.511  14.941  2.9611 -1.0276 -0.7538
 5979SOL     OW29572   0.071   0.950   8.095 -0.0580  0.0639 -0.5505
 5979SOL    HW129573   0.079   0.876   8.156 -1.1468  0.0092 -0.4834
 5979SOL    HW229574   0.040   0.904   8.017  2.6427  0.8347 -2.1035
 5980SOL     OW29575   0.524   3.709  10.542 -0.1112  0.4605 -0.2396
 5980SOL    HW129576   0.431   3.724  10.528  0.0562  1.0041 -0.7758
 5980SOL    HW229577   0.549   3.799  10.522  1.9764  0.2409  1.3890
 5981SOL     OW29578   1.699   1.328   8.516 -0.1540  0.0731  0.4295
 5981SOL    HW129579   1.712   1.387   8.442  1.5137  0.3719  0.9527
 5981SOL    HW229580   1.736   1.381   8.586  2.0834 -3.5984  2.0342
 5982SOL     OW29581   0.680   1.287  16.382 -0.2601 -0.1123  0.2781
 5982SOL    HW129582   0.584   1.284  16.388 -0.2462  0.4188  0.7472
 5982SOL    HW229583   0.687   1.372  16.339 -2.6140  0.6338  1.3873
 5983SOL     OW29584   3.029   0.923   6.539 -0.2824 -0.0075  0.1111
 5983SOL    HW129585   3.094   0.916   6.610 -0.0932  1.6775  0.1108
 5983SOL    HW229586   3.077   0.919   6.457  0.3967 -0.9594  0.5590
 5984SOL     OW29587   1.814   3.053   4.534  0.6543 -0.3656  0.4142
 5984SOL    HW129588   1.769   3.138   4.533  1.1073 -0.1575 -2.6655
 5984SOL    HW229589   1.854   3.066   4.448 -0.4663 -1.9656 -0.3528
 5985SOL     OW29590   4.107   4.703   2.780 -0.2142 -0.0365  0.8797
 5985SOL    HW129591   4.075   0.048   2.744  0.5127  0.5742  1.6042
 5985SOL    HW229592   4.203   4.711   2.774 -0.3561  1.0598  0.2098
 5986SOL     OW29593   0.609   0.812  15.915 -0.2259  0.2075 -0.1914
 5986SOL    HW129594   0.663   0.781  15.988 -0.8194  1.2883  0.7032
 5986SOL    HW229595   0.608   0.907  15.918  3.6302  0.2711 -0.5314
 5987SOL     OW29596   0.507   1.750   1.965 -0.5523 -0.2175  0.7093
 5987SOL    HW129597   0.471   1.786   1.883 -1.7715  0.1281  1.3950
 5987SOL    HW229598   0.599   1.767   1.947  0.0917 -2.5517  1.7979
 5988SOL     OW29599   3.679   1.354   3.069 -0.4165  0.2489 -0.3615
 5988SOL    HW129600   3.617   1.294   3.110 -0.2024  0.7011  0.6039
 5988SOL    HW229601   3.755   1.297   3.056 -0.1349  0.1428  1.7906
 5989SOL     OW29602   0.474   0.711   7.653  0.2564 -0.1938  0.8694
 5989SOL    HW129603   0.421   0.709   7.573  0.5693 -1.2943  0.6924
 5989SOL    HW229604   0.423   0.782   7.692 -0.3673  0.0241 -0.3473
 5990SOL     OW29605   1.310   1.622  13.661 -0.0152 -0.7420  0.6638
 5990SOL    HW129606   1.383   1.679  13.637 -1.0499 -0.4538 -1.7496
 5990SOL    HW229607   1.235   1.677  13.639 -2.1129 -3.3984  1.1484
 5991SOL     OW29608   2.659   2.808   2.532 -0.0340 -0.5460  0.1587
 5991SOL    HW129609   2.646   2.752   2.456 -0.2490  1.6726 -1.4509
 5991SOL    HW229610   2.723   2.752   2.576  0.0513 -0.8369 -0.3434
 5992SOL     OW29611   1.325   3.094  16.926  0.3257 -0.0017  0.1175
 5992SOL    HW129612   1.272   3.171  16.945 -0.0484  0.0278 -1.0117
 5992SOL    HW229613   1.408   3.113  16.969  1.1535  0.3243 -1.6257
 5993SOL     OW29614   0.120   4.382   4.471 -0.4817  0.4240  0.0480
 5993SOL    HW129615   0.192   4.445   4.476 -2.0176  2.4113 -3.4566
 5993SOL    HW229616   0.146   4.304   4.422 -0.2244 -0.2515  1.2460
 5994SOL     OW29617   0.797   2.110  15.053 -0.0814 -0.4388  0.1775
 5994SOL    HW129618   0.749   2.172  14.999 -2.5760 -1.4004  1.2796
 5994SOL    HW229619   0.888   2.137  15.045 -1.3687  3.4882 -1.2176
 5995SOL     OW29620   0.585   3.860   5.928  0.5491 -0.0924  0.9327
 5995SOL    HW129621   0.583   3.815   5.844 -2.0256  0.0792  0.8957
 5995SOL    HW229622   0.527   3.933   5.907 -0.2947 -0.8419  0.6246
 5996SOL     OW29623   2.085   1.714   4.452  0.0147  0.6431 -0.4788
 5996SOL    HW129624   2.092   1.772   4.528  2.3996  0.7585 -0.7739
 5996SOL    HW229625   2.146   1.765   4.398  2.6348 -0.2530  1.6579
 5997SOL     OW29626   3.886   0.204   7.378  0.5665  0.4057 -0.0058
 5997SOL    HW129627   3.886   0.184   7.285  2.8496 -0.2902  0.1509
 5997SOL    HW229628   3.796   0.182   7.404 -0.0722  0.6206 -2.0639
 5998SOL     OW29629   2.680   3.323  16.566  0.4628 -0.3222 -0.3930
 5998SOL    HW129630   2.645   3.311  16.654  2.0474 -0.0389  0.2817
 5998SOL    HW229631   2.676   3.419  16.558 -0.8619 -0.2237  1.4886
 5999SOL     OW29632   1.669   2.775  14.448 -0.2844 -0.5897 -0.2797
 5999SOL    HW129633   1.605   2.797  14.380 -1.1931  2.2952  1.5093
 5999SOL    HW229634   1.675   2.682  14.425  1.4111 -0.2814 -1.0368
 6000SOL     OW29635   4.493   1.385  17.527  0.5941  0.1666 -0.3530
 6000SOL    HW129636   4.463   1.422  17.611 -1.2823 -1.7382 -0.1852
 6000SOL    HW229637   4.454   1.298  17.530  1.4850 -0.2577 -1.2091
 6001SOL     OW29638   4.191   4.588  10.501 -0.0622  0.7344 -0.0420
 6001SOL    HW129639   4.212   4.513  10.445 -1.6810  1.0223 -1.0320
 6001SOL    HW229640   4.276   4.631  10.501  0.5824 -0.5375  0.1695
 6002SOL     OW29641   4.311   2.250   7.870 -0.2819  0.6845 -0.0230
 6002SOL    HW129642   4.341   2.260   7.780  0.1783 -0.8828 -0.0493
 6002SOL    HW229643   4.235   2.307   7.880  0.9690  2.1290  1.1716
 6003SOL     OW29644   1.078   4.198   6.189  0.1618  0.4812 -0.4342
 6003SOL    HW129645   1.073   4.145   6.110  2.0024  0.6886 -0.6717
 6003SOL    HW229646   1.065   4.280   6.142  1.4264  0.8866 -0.0565
 6004SOL     OW29647   1.330   4.361   3.786 -0.2624 -0.1101 -0.9632
 6004SOL    HW129648   1.423   4.381   3.773  0.4026 -1.4663  1.7751
 6004SOL    HW229649   1.288   4.372   3.700  1.4436 -2.6157 -2.1048
 6005SOL     OW29650   1.993   4.117   9.147  0.1059 -0.1148  0.8470
 6005SOL    HW129651   1.911   4.166   9.143 -0.5288 -1.3572 -1.3893
 6005SOL    HW229652   1.987   4.076   9.061 -0.0346 -2.0612  1.7860
 6006SOL     OW29653   0.037   1.641  14.212  0.1249  0.2006 -0.0261
 6006SOL    HW129654   0.106   1.695  14.175 -1.3001  1.8088 -0.3167
 6006SOL    HW229655   0.014   1.597  14.129 -2.1653  1.4386 -0.0274
 6007SOL     OW29656   2.860   1.131   8.943  0.1743 -0.4043  0.2553
 6007SOL    HW129657   2.777   1.164   8.979 -0.3052 -2.5706  1.1523
 6007SOL    HW229658   2.836   1.119   8.852 -0.7537 -0.8241  0.5487
 6008SOL     OW29659   1.697   3.523  16.004 -0.2308 -0.1465  0.4078
 6008SOL    HW129660   1.625   3.557  16.057 -0.6902  0.3465 -0.5369
 6008SOL    HW229661   1.689   3.579  15.928  0.8343  0.4068  0.7000
 6009SOL     OW29662   0.382   0.174   9.740  0.2496 -0.0710  0.6405
 6009SOL    HW129663   0.304   0.121   9.721 -0.6037  0.7607  1.8405
 6009SOL    HW229664   0.368   0.254   9.688 -1.9988 -1.3006 -0.6376
 6010SOL     OW29665   0.342   1.711   0.155  0.3860  0.0731 -0.3410
 6010SOL    HW129666   0.296   1.745   0.232 -0.8647 -1.9066 -0.2149
 6010SOL    HW229667   0.285   1.734   0.082 -1.5154 -0.8291  0.8386
 6011SOL     OW29668   4.079   1.167   0.929 -0.4909 -0.3460 -0.4783
 6011SOL    HW129669   4.128   1.087   0.907 -0.6333 -0.2485 -1.1573
 6011SOL    HW229670   4.127   1.173   1.011 -0.1155 -1.9817 -0.5637
 6012SOL     OW29671   4.012   1.762  14.645  0.3370 -0.3849  0.2816
 6012SOL    HW129672   4.009   1.806  14.730  2.4203  0.0494  0.1397
 6012SOL    HW229673   4.048   1.680  14.678  1.1682  0.8043  2.3231
 6013SOL     OW29674   3.120   3.158  15.320 -0.1716 -0.0198 -0.0538
 6013SOL    HW129675   3.156   3.187  15.404  1.6753 -0.6599 -0.6163
 6013SOL    HW229676   3.190   3.098  15.296  0.6083  1.3939 -1.3057
 6014SOL     OW29677   4.329   1.069  12.328 -0.4723 -0.3924  0.0553
 6014SOL    HW129678   4.283   1.151  12.308  1.6445  1.2257  1.7207
 6014SOL    HW229679   4.281   1.005  12.277  0.0992 -1.5307  0.9542
 6015SOL     OW29680   0.667   3.145   7.290  0.3938  0.3314  0.6290
 6015SOL    HW129681   0.627   3.063   7.262 -0.0008 -0.0853  2.4614
 6015SOL    HW229682   0.715   3.163   7.209 -0.7997  0.8380  0.0325
 6016SOL     OW29683   3.893   1.004  15.985 -0.1282 -0.6782  0.0913
 6016SOL    HW129684   3.929   0.958  15.909 -1.1992 -0.4161 -0.5704
 6016SOL    HW229685   3.950   1.080  15.977  0.1397 -0.8438  0.3936
 6017SOL     OW29686   2.849   0.629   2.028 -0.3799 -0.1133 -0.3168
 6017SOL    HW129687   2.759   0.620   2.060  0.0156 -0.3276  0.7069
 6017SOL    HW229688   2.892   0.605   2.109  0.7849 -0.3136 -1.0000
 6018SOL     OW29689   2.981   1.666   4.391 -0.1861  0.4987  0.2283
 6018SOL    HW129690   2.910   1.618   4.434  0.3331 -1.3593 -1.0040
 6018SOL    HW229691   3.009   1.729   4.457  0.7245  1.1634 -0.7949
 6019SOL     OW29692   3.736   3.105   6.671  0.4357 -0.0698  0.4109
 6019SOL    HW129693   3.714   3.189   6.711  0.9292 -0.2402  1.0475
 6019SOL    HW229694   3.678   3.110   6.595 -1.5388  0.8668  1.9869
 6020SOL     OW29695   3.288   2.931   3.840  0.5251  0.3530  0.6788
 6020SOL    HW129696   3.271   3.005   3.782 -0.6797 -1.0168 -0.7241
 6020SOL    HW229697   3.221   2.938   3.908  0.5934  2.5720  0.4989
 6021SOL     OW29698   3.503   4.179  15.819 -0.1566 -0.0539  0.0807
 6021SOL    HW129699   3.580   4.233  15.801 -0.7523  0.7004 -0.2122
 6021SOL    HW229700   3.529   4.162  15.909 -0.5001 -0.2847  0.1398
 6022SOL     OW29701   3.361   1.567   8.311  0.1652 -0.4610  0.0184
 6022SOL    HW129702   3.270   1.560   8.281 -0.8979  2.4833  2.5424
 6022SOL    HW229703   3.402   1.633   8.254 -1.3686  1.0034  0.5955
 6023SOL     OW29704   1.720   2.473   6.110 -0.5123  0.4676 -0.1556
 6023SOL    HW129705   1.707   2.391   6.157  0.6831 -0.2181 -1.0076
 6023SOL    HW229706   1.671   2.533   6.165 -0.6743  1.9416 -1.9008
 6024SOL     OW29707   4.507   1.338   2.831  0.5892  0.2856  0.2604
 6024SOL    HW129708   4.419   1.374   2.824 -0.7738 -2.8131  1.2715
 6024SOL    HW229709   4.513   1.333   2.927 -0.9717  0.9887  0.3972
 6025SOL     OW29710   0.586   3.602  11.232 -0.0296  0.3870 -0.2837
 6025SOL    HW129711   0.552   3.618  11.144  0.2230  0.4613 -0.3655
 6025SOL    HW229712   0.635   3.523  11.209 -2.3962 -0.8502 -1.1199
 6026SOL     OW29713   4.393   4.139  16.844 -0.3462 -0.5389  0.2944
 6026SOL    HW129714   4.475   4.097  16.870  0.1531  2.4868  3.6645
 6026SOL    HW229715   4.329   4.091  16.896 -2.8625  1.0795 -1.3319
 6027SOL     OW29716   0.043   1.259   8.838  0.4595 -0.4276  0.1104
 6027SOL    HW129717   0.101   1.216   8.775 -0.3616 -0.4718 -0.6062
 6027SOL    HW229718   0.097   1.253   8.917  1.2458  2.8485 -0.1961
 6028SOL     OW29719   1.118   0.974  14.587 -0.6991  0.0472 -0.3218
 6028SOL    HW129720   1.136   1.043  14.651  0.6544 -1.0130  0.4276
 6028SOL    HW229721   1.026   0.996  14.573 -0.8161 -1.0045 -1.2480
 6029SOL     OW29722   4.557   3.592   1.635  0.0438  0.0036  0.4624
 6029SOL    HW129723   4.578   3.652   1.564 -1.6510  0.2494  0.1726
 6029SOL    HW229724   4.495   3.532   1.594 -0.2980  2.0025 -1.8805
 6030SOL     OW29725   1.004   2.511  10.432  0.1663  0.5850 -1.1675
 6030SOL    HW129726   0.917   2.490  10.399 -0.8089  2.0029  0.5222
 6030SOL    HW229727   1.036   2.422  10.444 -1.3363  0.1237 -0.5924
 6031SOL     OW29728   2.645   1.970   1.458  0.1588 -0.7367  0.4984
 6031SOL    HW129729   2.726   2.018   1.441 -0.2807 -0.1429  0.0750
 6031SOL    HW229730   2.590   2.022   1.399 -0.5967 -0.3019  1.5922
 6032SOL     OW29731   0.536   1.537  13.098 -0.4561  0.3760 -0.0300
 6032SOL    HW129732   0.506   1.474  13.033 -1.3447 -0.0077  0.7369
 6032SOL    HW229733   0.627   1.540  13.071  0.1510  0.3734  1.9820
 6033SOL     OW29734   3.490   2.799   4.005  0.5493 -0.0781  0.8024
 6033SOL    HW129735   3.398   2.796   4.030  0.4206  0.7225  0.4216
 6033SOL    HW229736   3.487   2.839   3.918 -0.4554 -3.2197 -0.5836
 6034SOL     OW29737   3.514   2.550   7.642 -0.0297  0.1965  0.0928
 6034SOL    HW129738   3.565   2.622   7.679  3.7146 -3.1172  1.3622
 6034SOL    HW229739   3.428   2.563   7.683  0.1594 -4.5240  1.8906
 6035SOL     OW29740   4.532   4.663  10.308 -0.0651  0.2577  0.4034
 6035SOL    HW129741   4.487   0.009  10.320  0.2707  0.5211 -0.1562
 6035SOL    HW229742   4.534   4.666  10.213  2.7936  2.4717  0.5324
 6036SOL     OW29743   1.545   3.710   5.070 -0.4776 -0.4134  0.0814
 6036SOL    HW129744   1.633   3.728   5.038 -0.7403 -3.2502 -2.2411
 6036SOL    HW229745   1.541   3.782   5.132 -0.3084  1.1520 -1.7309
 6037SOL     OW29746   4.008   3.778   5.828  0.2308 -0.2775  0.4434
 6037SOL    HW129747   4.065   3.836   5.879  0.1505  0.8969 -0.7959
 6037SOL    HW229748   3.924   3.815   5.856 -0.3203 -0.9051 -0.3833
 6038SOL     OW29749   3.063   2.414   4.662  0.0869  0.0149  0.0555
 6038SOL    HW129750   3.070   2.342   4.725 -0.7846 -0.5540 -0.5037
 6038SOL    HW229751   2.986   2.463   4.692  0.5025  1.4039 -1.1196
 6039SOL     OW29752   3.113   1.032  11.126  0.5145  0.1131  0.2193
 6039SOL    HW129753   3.036   1.017  11.181 -1.1222 -3.1848 -2.9631
 6039SOL    HW229754   3.177   1.000  11.189 -0.2422 -1.5771  0.1296
 6040SOL     OW29755   3.929   1.664   4.640  0.8486  0.1319 -0.2900
 6040SOL    HW129756   3.993   1.597   4.618  1.1718  0.1139  0.6960
 6040SOL    HW229757   3.916   1.712   4.558  2.4621  2.4107  0.7553
 6041SOL     OW29758   2.624   0.989   1.656 -0.4539  0.3338  0.1148
 6041SOL    HW129759   2.615   0.970   1.750 -1.1808  2.2949  0.4433
 6041SOL    HW229760   2.689   1.059   1.659  0.1655 -0.1918 -1.6292
 6042SOL     OW29761   2.345   2.717  12.695 -0.7579 -0.1275  0.1098
 6042SOL    HW129762   2.308   2.783  12.637  0.7765  0.1536 -0.5426
 6042SOL    HW229763   2.426   2.754  12.731 -0.3653 -0.5136 -0.3700
 6043SOL     OW29764   1.530   2.826   0.879 -0.2427  0.8924 -0.2304
 6043SOL    HW129765   1.537   2.731   0.873 -0.2297  0.9172 -0.6295
 6043SOL    HW229766   1.516   2.847   0.787  0.3386  0.3445 -0.4462
 6044SOL     OW29767   2.246   3.182  16.332 -0.2478  0.3457  0.1244
 6044SOL    HW129768   2.150   3.180  16.334 -0.2217 -1.2069 -0.2387
 6044SOL    HW229769   2.259   3.145  16.419 -0.0064 -0.0482 -0.0806
 6045SOL     OW29770   2.758   1.355   3.094 -0.3713 -0.4362  0.4145
 6045SOL    HW129771   2.692   1.425   3.095 -1.9121 -1.9062  0.6025
 6045SOL    HW229772   2.713   1.292   3.150 -4.5252  1.9543 -0.2039
 6046SOL     OW29773   3.525   3.225   0.074  0.0439  0.3210  0.6355
 6046SOL    HW129774   3.568   3.231  17.735  2.9826  3.5689  2.3496
 6046SOL    HW229775   3.501   3.132   0.080  0.3206  0.2904  1.2356
 6047SOL     OW29776   2.054   0.234   5.338 -0.2022 -0.1935  0.0369
 6047SOL    HW129777   1.996   0.160   5.317  1.2444 -1.3576  0.1805
 6047SOL    HW229778   2.127   0.206   5.283 -1.7387 -2.3953 -0.8686
 6048SOL     OW29779   2.958   4.488   2.894 -0.0849  0.0168 -0.2874
 6048SOL    HW129780   2.975   4.475   2.987  0.9023  0.6597 -0.3667
 6048SOL    HW229781   2.923   4.404   2.866 -1.6634  0.8791 -0.8613
 6049SOL     OW29782   2.793   0.746   9.459  0.3212 -0.0235  0.0213
 6049SOL    HW129783   2.829   0.830   9.429 -1.8114  0.8126 -0.1348
 6049SOL    HW229784   2.850   0.739   9.536  0.7151 -1.3185 -0.3875
 6050SOL     OW29785   0.608   0.301   5.366 -0.9584 -0.4897 -0.6531
 6050SOL    HW129786   0.625   0.207   5.378  1.0545  0.2917  2.6168
 6050SOL    HW229787   0.689   0.327   5.323 -2.4711  1.9645 -1.9618
 6051SOL     OW29788   1.337   3.734  13.634  0.1556 -0.1361  0.9660
 6051SOL    HW129789   1.391   3.767  13.563 -0.1894 -3.0742 -0.6600
 6051SOL    HW229790   1.253   3.774  13.613 -0.9335 -2.5362  0.7089
 6052SOL     OW29791   1.813   3.446   4.792 -0.3210  0.6252 -0.1282
 6052SOL    HW129792   1.772   3.528   4.762 -3.8960 -0.9873  0.4067
 6052SOL    HW229793   1.859   3.431   4.709 -1.4338  0.9347 -0.7989
 6053SOL     OW29794   0.733   4.692   3.229  0.0092  0.7877 -0.0579
 6053SOL    HW129795   0.798   4.734   3.286  2.0624 -1.5350 -0.6992
 6053SOL    HW229796   0.780   4.704   3.146  1.6935  0.6611  0.8871
 6054SOL     OW29797   0.296   1.933   0.561  0.0427 -0.1084 -0.1745
 6054SOL    HW129798   0.346   1.997   0.511  0.7326 -0.0831  0.5553
 6054SOL    HW229799   0.358   1.909   0.630  0.0453  1.4811  0.3635
 6055SOL     OW29800   1.522   1.978   2.040  0.2420  0.8927  0.3014
 6055SOL    HW129801   1.574   2.000   1.963 -2.1585  1.3875 -1.1972
 6055SOL    HW229802   1.589   1.955   2.104 -0.2768  0.3567  0.6466
 6056SOL     OW29803   1.334   1.797   0.114 -0.7314 -0.6966  0.4854
 6056SOL    HW129804   1.368   1.874   0.067  1.3065 -0.1587  2.8358
 6056SOL    HW229805   1.263   1.848   0.154 -1.3840 -0.7869 -0.5543
 6057SOL     OW29806   2.193   0.236   2.214 -0.0697  0.0212  0.1840
 6057SOL    HW129807   2.190   0.328   2.190 -0.8605  0.3452  1.5413
 6057SOL    HW229808   2.271   0.201   2.171 -0.7728  0.9483 -1.8166
 6058SOL     OW29809   4.161   4.229   2.337 -0.5227  0.0112  0.4173
 6058SOL    HW129810   4.218   4.219   2.261 -0.8702 -0.4130  0.2161
 6058SOL    HW229811   4.110   4.309   2.322  1.8402  1.3945 -0.3188
 6059SOL     OW29812   1.488   0.115   3.296  0.5652 -0.1552  0.0248
 6059SOL    HW129813   1.498   0.189   3.236 -0.0137 -0.0789  0.0287
 6059SOL    HW229814   1.415   0.070   3.254  0.6166  0.6324 -0.8945
 6060SOL     OW29815   1.883   0.929  11.779 -0.3201  0.3976  0.7790
 6060SOL    HW129816   1.966   0.977  11.777  0.7721 -1.5336 -0.4958
 6060SOL    HW229817   1.831   0.970  11.710 -1.2300 -2.0427  0.0088
 6061SOL     OW29818   1.440   3.601  17.703  0.2913  0.3496  0.4897
 6061SOL    HW129819   1.373   3.669  17.712  0.6433  0.6789  0.5989
 6061SOL    HW229820   1.518   3.653  17.682  0.0730  0.4613 -0.0336
 6062SOL     OW29821   3.784   4.351   7.249 -0.1818  0.2519  0.9151
 6062SOL    HW129822   3.835   4.293   7.192 -1.1394 -0.1342  0.4627
 6062SOL    HW229823   3.761   4.290   7.320 -1.3856 -0.8598 -0.4506
 6063SOL     OW29824   0.093   1.501   8.192  0.1646  0.2525  0.8891
 6063SOL    HW129825   0.184   1.522   8.216  0.9601 -2.0817 -0.0767
 6063SOL    HW229826   0.102   1.411   8.160 -0.7849  0.0107  1.2944
 6064SOL     OW29827   1.469   1.814   0.463 -0.0462 -0.3561 -0.3201
 6064SOL    HW129828   1.559   1.812   0.429  0.0383 -1.0145 -0.0501
 6064SOL    HW229829   1.445   1.903   0.435 -0.1127 -0.4639 -0.5978
 6065SOL     OW29830   1.171   2.233   4.120  0.1978  0.8071  0.0117
 6065SOL    HW129831   1.123   2.208   4.199  0.9819 -0.7671 -0.0140
 6065SOL    HW229832   1.174   2.146   4.079  0.5940  1.0296 -0.4275
 6066SOL     OW29833   1.270   4.277   9.350  0.3175  0.0657 -0.0898
 6066SOL    HW129834   1.253   4.353   9.407  1.9771  0.8545 -0.6265
 6066SOL    HW229835   1.285   4.220   9.425 -0.3232  1.0547  0.7915
 6067SOL     OW29836   2.993   4.676  14.454 -0.3290  0.1396 -0.5437
 6067SOL    HW129837   2.904   4.709  14.469 -1.0768 -2.2134  0.2299
 6067SOL    HW229838   3.028   0.002  14.391  0.3174  0.0247 -0.2894
 6068SOL     OW29839   3.300   1.472  10.155  0.7302  0.0587 -0.4840
 6068SOL    HW129840   3.304   1.565  10.177  0.0162 -0.0703  0.1804
 6068SOL    HW229841   3.222   1.446  10.204  1.5457 -1.0223  0.2224
 6069SOL     OW29842   1.311   3.543  13.059  0.4641  0.3601  0.0308
 6069SOL    HW129843   1.405   3.523  13.066  0.4001  0.2644  0.6690
 6069SOL    HW229844   1.297   3.612  13.124 -0.9959 -0.8880  1.0485
 6070SOL     OW29845   3.397   0.564   7.730 -0.2147  0.0634 -0.0307
 6070SOL    HW129846   3.316   0.517   7.747  0.0715 -0.7856 -1.0488
 6070SOL    HW229847   3.467   0.509   7.765  0.6644  0.2109 -1.5449
 6071SOL     OW29848   4.029   2.289   2.848  0.3760  0.2866  0.3865
 6071SOL    HW129849   3.999   2.378   2.865 -3.3804 -0.2059 -3.5353
 6071SOL    HW229850   4.037   2.284   2.753 -0.0486  0.2202  0.3534
 6072SOL     OW29851   1.142   4.200  11.567  0.0286 -0.1849  0.3397
 6072SOL    HW129852   1.121   4.212  11.474 -0.2884  3.3512  0.8891
 6072SOL    HW229853   1.119   4.285  11.603  0.1702  0.4047 -0.9489
 6073SOL     OW29854   3.185   4.069   3.697  0.1671  0.4464  0.0444
 6073SOL    HW129855   3.170   3.980   3.664 -0.8967  0.9314 -0.7767
 6073SOL    HW229856   3.092   4.094   3.699 -0.0998 -0.3666 -2.5430
 6074SOL     OW29857   3.588   4.352   1.144  0.3337 -0.3333 -0.5310
 6074SOL    HW129858   3.522   4.403   1.097  0.9562 -0.5803 -1.6796
 6074SOL    HW229859   3.575   4.261   1.116 -1.0922 -0.2790 -0.0542
 6075SOL     OW29860   3.401   1.729  10.924  0.7542  0.5326 -0.8883
 6075SOL    HW129861   3.436   1.812  10.956  1.1811  0.2519 -0.6164
 6075SOL    HW229862   3.469   1.672  10.961  0.6092 -0.1854 -1.7217
 6076SOL     OW29863   0.563   4.408  12.562 -0.3743 -0.6460 -0.1547
 6076SOL    HW129864   0.503   4.483  12.567  0.2025 -0.1848 -0.1497
 6076SOL    HW229865   0.608   4.404  12.647 -0.3867  0.0749 -0.1139
 6077SOL     OW29866   1.279   1.834  15.502  0.3516 -0.0904 -0.7008
 6077SOL    HW129867   1.271   1.923  15.535  1.3921  0.5863 -2.3072
 6077SOL    HW229868   1.374   1.823  15.501  0.7447  3.4431 -0.0297
 6078SOL     OW29869   2.105   3.227   5.409 -0.0628  0.2634  0.2623
 6078SOL    HW129870   2.077   3.153   5.462  0.4008  0.1654  0.3735
 6078SOL    HW229871   2.049   3.220   5.332  2.3317  0.9084 -1.5505
 6079SOL     OW29872   3.807   0.955   4.363 -0.4158  0.6608  0.7736
 6079SOL    HW129873   3.740   0.931   4.300  0.6567  1.1895 -0.5667
 6079SOL    HW229874   3.815   1.047   4.338  1.0240  0.4911  0.5913
 6080SOL     OW29875   1.721   0.735   4.366  0.1402  0.2906 -0.2945
 6080SOL    HW129876   1.694   0.645   4.386  0.4152 -0.0372 -1.3936
 6080SOL    HW229877   1.651   0.766   4.309 -1.3022 -0.2502  1.1817
 6081SOL     OW29878   4.520   1.103   7.958 -0.3262 -0.1991  0.2105
 6081SOL    HW129879   4.432   1.116   7.924  0.1477 -0.1255 -1.0146
 6081SOL    HW229880   4.563   1.110   7.872 -1.7014 -1.4275 -0.5893
 6082SOL     OW29881   3.524   0.972   5.401  0.6209  0.1676  0.4843
 6082SOL    HW129882   3.458   0.903   5.394  0.6839  0.0881  0.6902
 6082SOL    HW229883   3.602   0.922   5.379 -0.3960 -0.4161 -1.9085
 6083SOL     OW29884   2.110   3.895   6.073 -0.0408 -0.6103 -0.4394
 6083SOL    HW129885   2.187   3.861   6.027  0.1567 -1.4458  0.5184
 6083SOL    HW229886   2.127   3.899   6.167 -3.7376 -0.3217  0.1868
 6084SOL     OW29887   4.001   4.522   7.891 -0.0308  0.1693  0.0167
 6084SOL    HW129888   3.979   4.527   7.984 -0.0072  1.2753 -0.0465
 6084SOL    HW229889   3.911   4.533   7.860  0.0848 -0.4027 -0.5252
 6085SOL     OW29890   4.384   2.185   7.372 -1.0978 -0.7228  0.1392
 6085SOL    HW129891   4.311   2.181   7.311 -1.8467  1.5972  0.8799
 6085SOL    HW229892   4.464   2.195   7.320 -0.0896 -2.6109  1.3594
 6086SOL     OW29893   2.004   0.929   1.799  0.5272 -0.0096  0.2504
 6086SOL    HW129894   2.041   0.991   1.736  0.3034  0.3798  0.5026
 6086SOL    HW229895   2.059   0.961   1.871  0.0067 -0.6507  0.9391
 6087SOL     OW29896   3.122   4.309   5.787 -0.6342  0.2130 -0.1650
 6087SOL    HW129897   3.119   4.336   5.879  0.4940  1.0053 -0.3676
 6087SOL    HW229898   3.084   4.222   5.800  2.0330 -0.7197  1.5677
 6088SOL     OW29899   1.731   2.079   0.871 -0.2640  0.0113  0.2694
 6088SOL    HW129900   1.823   2.103   0.872  0.3275 -2.3338  0.9685
 6088SOL    HW229901   1.734   2.014   0.941  0.7356  2.1491  2.2278
 6089SOL     OW29902   1.082   1.887   5.486 -0.3292  0.0026 -0.1867
 6089SOL    HW129903   1.160   1.925   5.527  1.8840 -2.7553 -1.8873
 6089SOL    HW229904   1.015   1.908   5.551  2.4133  2.5244  1.8589
 6090SOL     OW29905   1.776   3.220   8.730 -0.0436  0.3221  0.3197
 6090SOL    HW129906   1.749   3.251   8.643 -0.6279 -1.3741 -0.1098
 6090SOL    HW229907   1.861   3.263   8.735  0.2837 -0.0804 -1.7017
 6091SOL     OW29908   3.819   1.918   5.325  0.1694 -0.1435 -0.4219
 6091SOL    HW129909   3.747   1.936   5.385  1.7337  0.6749  1.2238
 6091SOL    HW229910   3.835   2.000   5.279  0.1582 -0.1031 -0.3540
 6092SOL     OW29911   1.747   1.837   1.122  0.0906 -0.1126  0.4567
 6092SOL    HW129912   1.842   1.831   1.114  0.1654 -0.1372  1.3065
 6092SOL    HW229913   1.714   1.777   1.055  1.3278  0.3300 -0.5193
 6093SOL     OW29914   3.065   2.491   2.307  0.4436 -0.2648  0.3888
 6093SOL    HW129915   3.155   2.522   2.320  0.4227  0.6944 -1.7971
 6093SOL    HW229916   3.023   2.567   2.346 -3.2791 -1.7583 -0.6894
 6094SOL     OW29917   0.088   0.652   2.682 -0.0958 -0.0241 -0.3308
 6094SOL    HW129918   0.001   0.673   2.647 -0.1635  0.5330  0.1613
 6094SOL    HW229919   0.151   0.668   2.612 -0.3180  0.7793 -0.3524
 6095SOL     OW29920   3.853   2.005   2.570  0.1369  0.3481 -0.2172
 6095SOL    HW129921   3.860   1.922   2.616  0.7525 -0.3521 -1.5774
 6095SOL    HW229922   3.758   2.013   2.556 -0.2311 -0.3413  1.8722
 6096SOL     OW29923   2.747   1.929   6.535  0.0070 -0.5542  0.1189
 6096SOL    HW129924   2.693   1.852   6.551  1.8043 -1.5526  1.2982
 6096SOL    HW229925   2.831   1.885   6.523  0.3312  0.1868 -0.3317
 6097SOL     OW29926   0.747   1.086   8.402  0.1933 -0.0212 -0.1747
 6097SOL    HW129927   0.812   1.048   8.343  0.7300  0.8242 -0.1205
 6097SOL    HW229928   0.681   1.083   8.334  0.5586  2.1733 -0.6247
 6098SOL     OW29929   0.887   1.821   8.731 -0.1145  0.0204 -0.7938
 6098SOL    HW129930   0.882   1.748   8.669 -1.7977 -0.0021 -0.6370
 6098SOL    HW229931   0.825   1.800   8.801 -1.0529 -1.8335 -2.1738
 6099SOL     OW29932   3.732   2.635   9.412 -0.0515  0.2035 -0.3008
 6099SOL    HW129933   3.820   2.630   9.374  0.3915  1.1648  0.6161
 6099SOL    HW229934   3.691   2.704   9.360 -0.0621  1.1339  0.9592
 6100SOL     OW29935   2.607   0.625   2.151 -0.0558  0.0688  0.3950
 6100SOL    HW129936   2.542   0.561   2.180  0.0746 -0.2233  0.0433
 6100SOL    HW229937   2.563   0.650   2.069 -0.8844 -0.3613  0.7145
 6101SOL     OW29938   4.290   2.846   7.325 -0.3693  0.8157 -0.4731
 6101SOL    HW129939   4.310   2.790   7.250  0.0506  2.2167 -1.4015
 6101SOL    HW229940   4.254   2.777   7.381  0.5837 -0.0650 -0.9428
 6102SOL     OW29941   2.885   3.490   2.723 -0.1773  0.2728  0.3229
 6102SOL    HW129942   2.795   3.522   2.732 -0.6479 -0.4906 -1.8401
 6102SOL    HW229943   2.892   3.471   2.630  0.7557  1.1186  0.2155
 6103SOL     OW29944   0.181   1.047  11.176 -0.5313  0.5026 -0.4673
 6103SOL    HW129945   0.134   0.967  11.154  0.6671 -0.7328  1.4787
 6103SOL    HW229946   0.223   1.069  11.093 -0.1278 -0.5527 -0.5389
 6104SOL     OW29947   4.652   0.322  15.483 -0.2515 -0.4943 -0.0391
 6104SOL    HW129948   4.708   0.314  15.560 -0.0776  2.9467  0.1934
 6104SOL    HW229949   4.712   0.382  15.438 -0.2806 -0.5143 -0.1041
 6105SOL     OW29950   3.908   0.726  12.709  0.4221  0.3309 -0.6484
 6105SOL    HW129951   3.942   0.638  12.691 -2.7865 -1.1946  0.8099
 6105SOL    HW229952   3.985   0.779  12.688  0.4131  0.2505 -0.8907
 6106SOL     OW29953   0.231   3.053  12.938  0.9705 -0.4416  0.2693
 6106SOL    HW129954   0.320   3.017  12.927  0.7349 -0.7982 -0.4752
 6106SOL    HW229955   0.171   2.980  12.924  1.2090 -0.4970 -0.4871
 6107SOL     OW29956   1.146   3.305   6.752  0.6023 -0.0018  0.4045
 6107SOL    HW129957   1.137   3.292   6.658  0.2629  1.9628  0.1666
 6107SOL    HW229958   1.205   3.230   6.764 -2.6053 -2.4644  0.8152
 6108SOL     OW29959   4.663   1.005  14.290 -0.0177  0.7590  0.0194
 6108SOL    HW129960   4.606   1.006  14.214 -0.4400  0.9219  0.3366
 6108SOL    HW229961   4.693   1.096  14.302 -3.0186  1.6436  0.9459
 6109SOL     OW29962   3.280   3.875   5.104  0.2149 -0.7476  0.4369
 6109SOL    HW129963   3.362   3.849   5.062  1.3952 -1.0951  3.0135
 6109SOL    HW229964   3.212   3.857   5.038  0.1258  2.0497 -0.2331
 6110SOL     OW29965   0.186   1.849   0.335  0.3708 -0.3428  0.4554
 6110SOL    HW129966   0.234   1.872   0.414  3.4199 -1.4902 -1.0538
 6110SOL    HW229967   0.186   1.928   0.282 -0.3548 -0.0181  0.9473
 6111SOL     OW29968   3.462   0.469   3.753 -0.1276 -1.0953  0.1563
 6111SOL    HW129969   3.444   0.477   3.660 -0.5563 -0.0358  0.3309
 6111SOL    HW229970   3.546   0.512   3.771 -1.0310  1.0087 -0.7511
 6112SOL     OW29971   4.690   3.348   1.702  0.3326 -0.0170 -0.3675
 6112SOL    HW129972   4.661   3.324   1.613  0.7440  2.3891 -1.1390
 6112SOL    HW229973   4.673   3.442   1.698 -2.0358 -0.4628 -0.8634
 6113SOL     OW29974   0.663   0.131  15.495 -0.3251  0.3112 -1.0712
 6113SOL    HW129975   0.715   0.057  15.465  0.3474  1.1088 -1.8770
 6113SOL    HW229976   0.652   0.108  15.587  1.9903  3.4675  0.0014
 6114SOL     OW29977   0.848   4.229   6.888  0.4786  0.5090 -0.0408
 6114SOL    HW129978   0.753   4.219   6.883  0.4003  2.1619 -1.6476
 6114SOL    HW229979   0.875   4.218   6.979  1.3317 -2.8026 -0.7088
 6115SOL     OW29980   4.236   1.620   4.479 -0.0648 -0.2636 -0.3617
 6115SOL    HW129981   4.202   1.531   4.492  0.2607 -0.4984 -1.1203
 6115SOL    HW229982   4.319   1.605   4.525 -0.6855 -0.4062  0.7230
 6116SOL     OW29983   0.479   4.588  15.126 -0.4207 -0.5323 -0.1418
 6116SOL    HW129984   0.512   4.669  15.164  0.4590 -0.4157 -1.1676
 6116SOL    HW229985   0.439   4.550  15.204 -2.2853  0.3299 -0.6825
 6117SOL     OW29986   2.020   4.612   7.466  0.0651 -0.3738  0.0264
 6117SOL    HW129987   2.035   4.613   7.371  0.1380 -1.1903  0.0261
 6117SOL    HW229988   1.931   4.647   7.470  0.2346  0.1569 -0.8980
 6118SOL     OW29989   3.767   4.657   4.578 -0.3151 -0.0570 -0.2020
 6118SOL    HW129990   3.796   4.706   4.655 -0.1038 -3.1161  1.6473
 6118SOL    HW229991   3.781   4.568   4.609 -0.4383 -0.4608 -1.3480
 6119SOL     OW29992   2.630   2.469   5.384  0.5918  0.1554 -0.1046
 6119SOL    HW129993   2.680   2.392   5.412 -0.7730 -0.3634  0.9035
 6119SOL    HW229994   2.686   2.536   5.423  1.0371 -0.1509 -0.2154
 6120SOL     OW29995   1.501   3.655   9.139  0.1991  0.0001  0.0272
 6120SOL    HW129996   1.469   3.612   9.060  2.1455 -2.1787  0.4101
 6120SOL    HW229997   1.528   3.579   9.191 -2.9883 -1.4834 -0.4313
 6121SOL     OW29998   4.341   3.040   3.085 -0.2774 -0.3145 -0.2177
 6121SOL    HW129999   4.296   2.958   3.065 -0.3326  0.2598 -2.3973
 6121SOL    HW230000   4.434   3.017   3.082  0.1190  1.1735  0.5053
 6122SOL     OW30001   0.718   1.040   6.232  0.4276 -0.1758 -0.4118
 6122SOL    HW130002   0.803   1.045   6.275  0.2434 -0.6652  0.0173
 6122SOL    HW230003   0.675   1.081   6.307 -0.6240 -0.4027 -0.8909
 6123SOL     OW30004   2.733   2.057  16.861  0.4033  0.2311  0.4215
 6123SOL    HW130005   2.810   2.109  16.839 -1.2293  1.9717 -1.3371
 6123SOL    HW230006   2.722   2.017  16.774 -2.2637  1.1501  0.3073
 6124SOL     OW30007   2.250   3.909  16.727  0.3834 -0.1410  0.1944
 6124SOL    HW130008   2.261   3.825  16.683  1.1698 -0.2968  0.6849
 6124SOL    HW230009   2.190   3.949  16.664  1.9076  0.4796 -0.8859
 6125SOL     OW30010   2.995   1.670   9.174 -0.6175  0.0431  0.1035
 6125SOL    HW130011   3.035   1.594   9.216 -0.6640 -0.5822 -0.9834
 6125SOL    HW230012   2.996   1.635   9.084  1.0748 -1.0833  0.5579
 6126SOL     OW30013   4.734   3.440   4.177  0.0133 -0.0958  0.1325
 6126SOL    HW130014   0.042   3.510   4.129 -4.5983  2.8307  0.0081
 6126SOL    HW230015   0.056   3.437   4.252  0.2517 -1.2583 -0.1098
 6127SOL     OW30016   2.069   3.556  17.578  0.1680 -0.1978 -0.4337
 6127SOL    HW130017   2.128   3.485  17.553 -0.1040  0.1632 -2.1151
 6127SOL    HW230018   1.983   3.515  17.582  0.4517 -0.6284  1.5661
 6128SOL     OW30019   0.867   2.804   7.131 -0.2684 -0.5910 -0.0411
 6128SOL    HW130020   0.921   2.875   7.095 -0.8606 -0.0502  0.1283
 6128SOL    HW230021   0.781   2.845   7.118 -0.0346 -0.5573 -1.4071
 6129SOL     OW30022   1.674   4.049   3.080 -0.1152 -0.5661  0.3828
 6129SOL    HW130023   1.604   4.111   3.064 -0.4876 -0.8036  1.0905
 6129SOL    HW230024   1.682   4.022   2.988  0.8943 -0.2858  0.3863
 6130SOL     OW30025   1.789   0.527  12.612  0.0488 -0.4996  0.0147
 6130SOL    HW130026   1.713   0.572  12.576 -1.0450 -1.5446  1.0120
 6130SOL    HW230027   1.822   0.476  12.538 -1.7167  0.5577 -1.5036
 6131SOL     OW30028   1.631   0.364   9.494  0.0478  0.3568 -0.3930
 6131SOL    HW130029   1.618   0.439   9.552 -0.6507 -0.1998  0.1661
 6131SOL    HW230030   1.586   0.391   9.413 -1.4007  0.4179  0.4207
 6132SOL     OW30031   2.692   4.107   2.324 -0.1431  0.3078 -0.0094
 6132SOL    HW130032   2.743   4.050   2.382  0.0256  1.3859  0.9011
 6132SOL    HW230033   2.739   4.107   2.241  2.9271  1.3130  1.7360
 6133SOL     OW30034   1.282   3.465   9.270  0.6040 -0.0852 -0.2669
 6133SOL    HW130035   1.377   3.466   9.253  0.8181  2.6205  1.1037
 6133SOL    HW230036   1.279   3.535   9.335  1.4590  1.3493 -1.7611
 6134SOL     OW30037   0.849   1.488  14.184 -0.2680  0.4682  0.0836
 6134SOL    HW130038   0.884   1.445  14.105  1.9429  0.6112  0.9841
 6134SOL    HW230039   0.919   1.454  14.240 -3.6355 -2.4614  2.4960
 6135SOL     OW30040   2.036   0.230   3.939  0.4520 -0.2674  0.2035
 6135SOL    HW130041   2.122   0.220   3.981  0.1789  0.2957  0.8919
 6135SOL    HW230042   1.976   0.234   4.014 -0.2113 -2.9454 -0.1873
 6136SOL     OW30043   2.703   1.480   7.137  0.1596 -0.1544 -0.1215
 6136SOL    HW130044   2.655   1.545   7.189  2.0799  1.3491 -0.1964
 6136SOL    HW230045   2.789   1.503   7.172 -0.1725  2.0902 -0.7717
 6137SOL     OW30046   0.175   0.162   1.704  0.4946 -0.4366 -0.2385
 6137SOL    HW130047   0.267   0.170   1.678  0.1096  0.8167 -1.2165
 6137SOL    HW230048   0.142   0.238   1.656  0.0163  1.4215  3.0279
 6138SOL     OW30049   1.931   2.048   5.336  0.1196 -0.0054 -0.4813
 6138SOL    HW130050   1.919   2.123   5.395  4.0476  0.1021  0.1707
 6138SOL    HW230051   1.857   2.061   5.277 -0.6318  0.7512  0.6424
 6139SOL     OW30052   0.193   2.460   4.723  0.2636 -0.3877  0.4510
 6139SOL    HW130053   0.115   2.504   4.758  0.8607 -0.4246  1.8621
 6139SOL    HW230054   0.256   2.531   4.735 -1.8841  1.0618  3.3154
 6140SOL     OW30055   4.563   4.475   0.403  0.1969 -0.0388  0.1682
 6140SOL    HW130056   4.653   4.481   0.435  0.4087 -0.9738 -0.2661
 6140SOL    HW230057   4.540   4.567   0.417  0.8299  0.6181 -3.1993
 6141SOL     OW30058   1.301   2.263   6.019 -0.0515  0.3240 -0.5027
 6141SOL    HW130059   1.365   2.266   5.948 -1.5127  0.1542 -1.8203
 6141SOL    HW230060   1.226   2.228   5.971 -0.6515  0.9246 -0.0037
 6142SOL     OW30061   4.610   2.383  13.903 -0.3598 -0.1850 -0.2862
 6142SOL    HW130062   4.526   2.394  13.948 -0.9788  2.6423 -2.1124
 6142SOL    HW230063   4.571   2.400  13.817  1.9676  0.2633 -1.2526
 6143SOL     OW30064   0.049   1.122   4.102 -0.4826 -0.1301  0.3578
 6143SOL    HW130065   0.009   1.084   4.024  0.3223  0.1322 -0.1863
 6143SOL    HW230066   0.141   1.098   4.111 -0.2317  1.3213  1.6356
 6144SOL     OW30067   0.754   4.029  14.077  0.2276 -0.1000 -0.4242
 6144SOL    HW130068   0.721   4.103  14.026  0.5199  1.7845  2.1308
 6144SOL    HW230069   0.700   3.953  14.054 -0.4198  0.1191  0.3912
 6145SOL     OW30070   0.092   4.389   9.223 -0.4025 -0.2645  0.0581
 6145SOL    HW130071   0.032   4.393   9.298 -0.8881 -0.1179 -0.3390
 6145SOL    HW230072   0.173   4.413   9.268 -1.4243  2.2701  0.5441
 6146SOL     OW30073   1.793   3.880   2.625  0.1626  0.3437  0.0932
 6146SOL    HW130074   1.838   3.797   2.642 -0.9740  0.0758  1.8104
 6146SOL    HW230075   1.746   3.855   2.546 -0.8424 -0.1403  0.8588
 6147SOL     OW30076   3.435   3.431   4.428  0.2026  0.1202 -0.0167
 6147SOL    HW130077   3.528   3.453   4.417  0.2646 -0.3743 -0.4477
 6147SOL    HW230078   3.443   3.361   4.492 -1.5444  1.5062  1.7551
 6148SOL     OW30079   2.242   0.433  13.190  0.4497  0.1614 -0.3843
 6148SOL    HW130080   2.276   0.376  13.120  3.4176  0.6224  0.6624
 6148SOL    HW230081   2.184   0.488  13.138 -0.1072  0.8539  0.9892
 6149SOL     OW30082   2.117   4.196   3.380  0.5389  0.3507 -0.4626
 6149SOL    HW130083   2.030   4.204   3.341 -0.5657 -2.1381  1.5084
 6149SOL    HW230084   2.166   4.143   3.318 -0.5267  2.9535 -3.4893
 6150SOL     OW30085   1.498   3.427  11.303 -0.6826  0.0021 -0.2735
 6150SOL    HW130086   1.546   3.506  11.278 -0.3330 -0.5055 -1.2024
 6150SOL    HW230087   1.444   3.409  11.226 -0.9007 -1.3567  0.1991
 6151SOL     OW30088   2.062   2.213   1.967  0.1712 -0.3739  0.0569
 6151SOL    HW130089   2.080   2.121   1.983  0.8876  0.2460  2.8282
 6151SOL    HW230090   1.978   2.212   1.922 -1.5966 -2.9706  3.3849
 6152SOL     OW30091   2.936   2.727   1.950  0.1136  0.3255 -0.6224
 6152SOL    HW130092   2.888   2.650   1.979 -0.2535 -0.1586 -2.5594
 6152SOL    HW230093   2.988   2.738   2.030  1.3571 -1.1490 -1.2402
 6153SOL     OW30094   3.787   1.963   3.619  0.3838 -0.4189  0.0691
 6153SOL    HW130095   3.787   2.055   3.593  2.8612  0.0117  1.5601
 6153SOL    HW230096   3.879   1.940   3.633 -0.0009 -2.3684 -0.6722
 6154SOL     OW30097   1.816   4.518   0.394  0.1692  0.1237  0.1245
 6154SOL    HW130098   1.813   4.443   0.453 -1.5544 -1.2555 -1.7364
 6154SOL    HW230099   1.804   4.472   0.312 -2.6848  1.8484 -0.4359
 6155SOL     OW30100   3.447   1.753   8.949 -0.4088  0.2047 -0.1329
 6155SOL    HW130101   3.505   1.792   9.015  0.1374 -0.5835 -0.1454
 6155SOL    HW230102   3.470   1.661   8.952 -2.0295 -0.1911  0.3962
 6156SOL     OW30103   0.717   3.223   0.273  0.1114  0.7368  0.2953
 6156SOL    HW130104   0.813   3.219   0.276 -0.0680 -1.8872  2.3935
 6156SOL    HW230105   0.700   3.200   0.182  0.6817 -1.3923  0.7307
 6157SOL     OW30106   4.621   2.647  11.130  0.0925  0.7239  0.2108
 6157SOL    HW130107   4.591   2.639  11.040  0.6716  1.3892 -0.0453
 6157SOL    HW230108   4.700   2.696  11.110  1.4365 -0.7928  1.7896
 6158SOL     OW30109   3.060   3.467   3.666 -0.3379 -0.2237  0.1853
 6158SOL    HW130110   3.009   3.513   3.733 -0.3100 -1.4876  1.0814
 6158SOL    HW230111   3.005   3.438   3.593  0.3726 -0.3555 -0.2945
 6159SOL     OW30112   3.894   0.499   7.644  0.3646 -0.4300 -0.3866
 6159SOL    HW130113   3.814   0.548   7.628  0.5078 -0.5272 -1.4084
 6159SOL    HW230114   3.909   0.529   7.734  0.2834  0.0161 -0.5181
 6160SOL     OW30115   3.701   2.994   7.179 -0.7508  0.1629  0.0787
 6160SOL    HW130116   3.791   2.975   7.152 -0.3542  0.9149  0.9016
 6160SOL    HW230117   3.687   3.087   7.159 -0.1208  0.1418 -0.4699
 6161SOL     OW30118   1.611   1.077   8.117 -0.1555 -0.6473  0.5634
 6161SOL    HW130119   1.566   0.999   8.149 -3.0062  0.0425 -1.8537
 6161SOL    HW230120   1.681   1.080   8.182 -1.3949  2.9319  1.6933
 6162SOL     OW30121   4.720   1.497   6.237  0.1331 -0.6316 -0.2544
 6162SOL    HW130122   0.066   1.480   6.191  2.1997  1.0286  2.8696
 6162SOL    HW230123   4.714   1.431   6.306 -1.9413  1.0330  1.1427
 6163SOL     OW30124   1.833   3.366  16.393  0.2261 -0.7724  0.7560
 6163SOL    HW130125   1.861   3.288  16.442 -0.7639 -1.2927  0.4977
 6163SOL    HW230126   1.882   3.422  16.452 -0.1633 -0.1075  0.4460
 6164SOL     OW30127   2.886   4.535  11.873  0.2704  0.5449  0.5599
 6164SOL    HW130128   2.982   4.534  11.876  0.3521  1.1456 -1.6006
 6164SOL    HW230129   2.866   4.449  11.910 -0.0309  0.2741 -0.2325
 6165SOL     OW30130   0.400   0.183   3.253 -0.0438 -0.3272 -0.1728
 6165SOL    HW130131   0.425   0.092   3.270 -0.0019 -0.0010  1.4694
 6165SOL    HW230132   0.371   0.171   3.163  0.3022  1.1181 -0.4739
 6166SOL     OW30133   0.678   1.421   7.032 -0.4246 -0.5553 -0.2469
 6166SOL    HW130134   0.660   1.355   7.099 -0.1081 -1.3893 -0.9848
 6166SOL    HW230135   0.739   1.471   7.087 -2.2054  0.8458  0.4521
 6167SOL     OW30136   0.041   1.592  15.715 -0.2421  0.0558 -0.5219
 6167SOL    HW130137   0.052   1.667  15.773  0.9617 -0.1256 -0.5049
 6167SOL    HW230138   4.682   1.591  15.710 -0.1497 -2.9556 -1.8142
 6168SOL     OW30139   3.376   3.790   9.345 -0.1589  0.6494  0.3114
 6168SOL    HW130140   3.417   3.809   9.429  0.3467  0.8405  0.0215
 6168SOL    HW230141   3.298   3.741   9.370  0.6221 -1.0567 -0.5947
 6169SOL     OW30142   0.129   0.695  13.885  0.0044  0.2889  0.1183
 6169SOL    HW130143   0.116   0.613  13.934 -0.2116  1.0471  1.3363
 6169SOL    HW230144   0.104   0.658  13.800  0.3333  0.2849  0.0229
 6170SOL     OW30145   1.366   2.599   8.703 -0.5415  0.2719  0.4044
 6170SOL    HW130146   1.452   2.563   8.682 -0.8391 -0.1792 -0.0241
 6170SOL    HW230147   1.333   2.648   8.627  1.7537  0.2609 -0.6103
 6171SOL     OW30148   3.875   4.684   3.373  0.0120  0.0780  0.5048
 6171SOL    HW130149   3.912   0.021   3.325  1.1197 -1.4203 -0.9196
 6171SOL    HW230150   3.838   4.728   3.450  1.2381 -0.9911  1.7079
 6172SOL     OW30151   1.565   1.441   3.749  0.4565 -0.4020 -0.1138
 6172SOL    HW130152   1.575   1.536   3.755 -1.4155 -0.2587  0.5050
 6172SOL    HW230153   1.555   1.421   3.842 -0.5315 -2.2942 -0.6309
 6173SOL     OW30154   3.106   4.432   2.359 -0.2829 -0.1480  0.0262
 6173SOL    HW130155   3.014   4.452   2.341  0.2623  0.9465 -1.5327
 6173SOL    HW230156   3.095   4.387   2.443 -2.7755  2.0929  0.8688
 6174SOL     OW30157   4.445   0.180   5.254  0.4182  0.4315  0.4088
 6174SOL    HW130158   4.457   0.168   5.349 -1.1551 -1.8066  0.3171
 6174SOL    HW230159   4.484   0.267   5.242  1.2567 -0.4261 -3.0116
 6175SOL     OW30160   4.225   1.370   4.600  0.0155 -0.2969  0.8414
 6175SOL    HW130161   4.296   1.308   4.618  0.1375 -0.5614 -0.5539
 6175SOL    HW230162   4.231   1.420   4.681  0.1883 -1.4039  1.5169
 6176SOL     OW30163   0.444   2.628   7.756  0.0782  0.3177  0.7425
 6176SOL    HW130164   0.436   2.720   7.780 -0.9403 -0.1383  2.1259
 6176SOL    HW230165   0.509   2.632   7.686  2.1952 -2.6963  2.5346
 6177SOL     OW30166   2.571   0.351   6.783  0.5480  0.0838  0.1027
 6177SOL    HW130167   2.511   0.426   6.777  0.8891  0.4381  1.2670
 6177SOL    HW230168   2.585   0.330   6.691  0.4411 -1.4873  0.4361
 6178SOL     OW30169   1.309   2.500   6.169 -0.3527  0.2831 -0.9838
 6178SOL    HW130170   1.307   2.460   6.256  0.9459 -0.7351 -1.4198
 6178SOL    HW230171   1.285   2.424   6.115  0.2961  0.2723 -1.2517
 6179SOL     OW30172   0.523   1.825   0.728 -0.0410  0.1799 -0.0263
 6179SOL    HW130173   0.587   1.888   0.761  0.9052 -2.0991  2.4081
 6179SOL    HW230174   0.497   1.782   0.809 -1.1223  0.7465 -0.0708
 6180SOL     OW30175   4.287   0.659   1.866  0.1739 -0.4838  0.4759
 6180SOL    HW130176   4.372   0.615   1.869 -1.1212 -3.0562 -0.5946
 6180SOL    HW230177   4.311   0.749   1.845 -1.1296 -0.3746 -0.5908
 6181SOL     OW30178   1.357   0.535   3.391 -0.2744 -0.1125  0.3113
 6181SOL    HW130179   1.439   0.557   3.348 -0.1919  0.3550  0.7044
 6181SOL    HW230180   1.380   0.466   3.452 -2.1932 -1.1171 -0.0903
 6182SOL     OW30181   0.621   1.294   9.223  0.1394 -0.1269  0.0539
 6182SOL    HW130182   0.636   1.228   9.156  2.5765  0.2995  0.1767
 6182SOL    HW230183   0.662   1.252   9.299  0.1198  0.0522  0.1630
 6183SOL     OW30184   2.167   3.919  13.475  0.6386  0.2401  0.4293
 6183SOL    HW130185   2.135   3.947  13.389 -1.4826  1.0382  1.4746
 6183SOL    HW230186   2.148   3.825  13.476 -1.3427  0.6127 -0.7628
 6184SOL     OW30187   3.398   3.558  15.959 -0.3121 -0.5034 -0.0493
 6184SOL    HW130188   3.448   3.511  16.027 -0.2566 -1.3461 -0.6699
 6184SOL    HW230189   3.332   3.489  15.974 -1.5504  0.5832 -0.4745
 6185SOL     OW30190   4.428   1.542  16.842  0.5279 -0.2856  1.1669
 6185SOL    HW130191   4.403   1.462  16.795 -0.6482  1.0629 -0.5055
 6185SOL    HW230192   4.520   1.517  16.840  0.6315  0.3384 -1.1726
 6186SOL     OW30193   3.888   3.282   8.499 -0.0788  0.1775 -1.2391
 6186SOL    HW130194   3.837   3.261   8.577  1.7445 -0.9694 -0.3541
 6186SOL    HW230195   3.941   3.355   8.532  0.5020 -0.3977 -0.8795
 6187SOL     OW30196   2.557   2.273  15.672  0.3495 -0.7156 -0.4574
 6187SOL    HW130197   2.577   2.179  15.675 -1.3114 -1.0442  0.3433
 6187SOL    HW230198   2.515   2.280  15.586 -0.5060 -1.0303 -0.0631
 6188SOL     OW30199   4.188   0.811  10.813  0.0526  0.1883  0.3827
 6188SOL    HW130200   4.192   0.903  10.840 -1.6681 -0.5782  3.2146
 6188SOL    HW230201   4.274   0.822  10.771  0.1804  0.6116  0.7563
 6189SOL     OW30202   0.653   4.081  14.340  0.0173  0.3047 -0.0091
 6189SOL    HW130203   0.606   4.002  14.367  1.4471 -0.6452 -0.3151
 6189SOL    HW230204   0.668   4.054  14.250 -1.3932  0.8480 -0.4036
 6190SOL     OW30205   2.062   3.593  13.751 -0.4854  0.0063 -0.1773
 6190SOL    HW130206   2.034   3.669  13.801  0.5925  0.3280 -0.0508
 6190SOL    HW230207   1.986   3.535  13.752 -2.4873  2.6610  0.5347
 6191SOL     OW30208   4.691   2.143   2.089 -0.3096 -0.3994 -0.1620
 6191SOL    HW130209   4.631   2.208   2.050 -2.6414 -1.7095  1.2820
 6191SOL    HW230210   0.027   2.145   2.028 -0.2293  1.8392 -0.0251
 6192SOL     OW30211   0.147   4.178   8.846  0.0879  0.3516  0.6309
 6192SOL    HW130212   0.218   4.176   8.783 -2.4868  1.5457 -2.3085
 6192SOL    HW230213   0.074   4.143   8.794  2.5317 -2.0438 -1.1556
 6193SOL     OW30214   0.005   1.032  15.086 -0.0335  0.3837 -0.2144
 6193SOL    HW130215   0.047   1.097  15.030 -0.1573  1.9842  1.5251
 6193SOL    HW230216   4.686   0.989  15.022 -1.3645  0.4414  0.8854
 6194SOL     OW30217   4.734   0.718   7.952  0.4403  0.3542 -0.2897
 6194SOL    HW130218   4.710   0.643   8.008  0.1917  0.0815 -0.7684
 6194SOL    HW230219   0.081   0.694   7.912  0.7606 -1.2318  1.3109
 6195SOL     OW30220   0.787   2.584   3.312 -0.5574  0.4496  0.6809
 6195SOL    HW130221   0.817   2.529   3.239 -0.9052 -0.4157  1.1957
 6195SOL    HW230222   0.836   2.665   3.296 -1.2949  0.6150 -0.7520
 6196SOL     OW30223   2.710   3.607   2.034  0.4130  0.0099  0.1818
 6196SOL    HW130224   2.730   3.524   2.077  0.7390 -0.8006 -1.5533
 6196SOL    HW230225   2.690   3.570   1.948 -0.9199  0.5183  0.2827
 6197SOL     OW30226   0.519   3.509  10.736 -0.5741  0.1593 -0.1597
 6197SOL    HW130227   0.539   3.577  10.671  0.6673  1.1738  1.3047
 6197SOL    HW230228   0.446   3.464  10.693 -0.3951 -0.0670 -0.2258
 6198SOL     OW30229   1.235   0.893   1.771  1.1780  0.2750 -0.5795
 6198SOL    HW130230   1.281   0.946   1.706 -0.2290  3.1600  0.8127
 6198SOL    HW230231   1.156   0.872   1.721  2.2917 -1.7786 -1.4910
 6199SOL     OW30232   2.887   0.770  16.106  0.2047 -0.2996  0.3293
 6199SOL    HW130233   2.980   0.750  16.118  0.1985 -1.3991 -1.3999
 6199SOL    HW230234   2.905   0.862  16.126  2.4223 -0.7759  0.4808
 6200SOL     OW30235   2.466   3.162   8.205  0.0448  0.4348  0.3940
 6200SOL    HW130236   2.390   3.153   8.262  1.8775  0.7055  2.9011
 6200SOL    HW230237   2.425   3.171   8.119  0.3015 -1.6915  0.0484
 6201SOL     OW30238   0.145   4.187  14.429  0.2010 -0.0536 -0.2897
 6201SOL    HW130239   0.194   4.142  14.497  0.6573  1.0966  0.1483
 6201SOL    HW230240   0.168   4.279  14.446 -0.1855  0.2389 -1.3750
 6202SOL     OW30241   2.548   3.547   8.236 -0.2395 -0.4381 -0.1315
 6202SOL    HW130242   2.456   3.571   8.231 -0.5068 -1.1359  1.6404
 6202SOL    HW230243   2.558   3.529   8.142  0.2765 -0.7253 -0.0199
 6203SOL     OW30244   0.562   4.302  15.491  0.4015  0.3110 -0.5529
 6203SOL    HW130245   0.599   4.215  15.481  0.2521  0.3051 -1.0521
 6203SOL    HW230246   0.534   4.308  15.400  1.1677  1.6695 -0.7049
 6204SOL     OW30247   3.152   1.117  13.315 -0.2132  0.1083 -0.3991
 6204SOL    HW130248   3.243   1.092  13.326 -0.0153  1.0742  0.0949
 6204SOL    HW230249   3.144   1.078  13.227  0.5231  0.5410 -0.6582
 6205SOL     OW30250   3.399   0.246  15.711  0.3637  0.0733 -0.3761
 6205SOL    HW130251   3.377   0.165  15.756  0.1342  0.4792  0.2388
 6205SOL    HW230252   3.493   0.255  15.729  0.2376  1.3003 -0.3173
 6206SOL     OW30253   2.538   4.572   5.836 -0.1952 -0.0557  0.6922
 6206SOL    HW130254   2.548   4.634   5.909 -0.9707  1.2532 -0.3247
 6206SOL    HW230255   2.542   4.489   5.884  0.5718 -1.4102 -1.7073
 6207SOL     OW30256   0.544   1.129  17.203  0.4612 -0.2442 -0.0197
 6207SOL    HW130257   0.636   1.112  17.224  0.8570  0.3872 -1.2690
 6207SOL    HW230258   0.512   1.046  17.240 -2.5524  1.5567  1.4821
 6208SOL     OW30259   0.258   1.697   2.065  0.0484 -0.0172  0.2552
 6208SOL    HW130260   0.338   1.713   2.015 -0.5684  1.6638 -0.1916
 6208SOL    HW230261   0.255   1.764   2.133 -0.3436 -0.0611  0.2775
 6209SOL     OW30262   2.244   4.209   3.896  0.1022 -0.0020  0.6331
 6209SOL    HW130263   2.166   4.223   3.950 -0.1300  1.0609  0.0196
 6209SOL    HW230264   2.203   4.162   3.823  0.3557  2.5520 -1.1580
 6210SOL     OW30265   2.797   4.565   4.320  0.2706  0.4367  0.2780
 6210SOL    HW130266   2.844   4.583   4.401 -3.6490  1.4859  2.3194
 6210SOL    HW230267   2.824   4.480   4.287 -3.3739 -0.2957 -0.8474
 6211SOL     OW30268   4.098   2.152   2.032 -0.4101 -0.7162 -0.4881
 6211SOL    HW130269   4.158   2.221   2.004 -0.1991 -0.0715  1.5268
 6211SOL    HW230270   4.069   2.120   1.947 -0.5161  1.3684 -1.2335
 6212SOL     OW30271   4.538   2.289   5.132 -0.0223 -0.1132 -0.3456
 6212SOL    HW130272   4.528   2.250   5.219  2.3127 -1.4243 -0.6411
 6212SOL    HW230273   4.560   2.210   5.082 -0.8767 -1.0519  0.7581
 6213SOL     OW30274   1.379   1.435   6.981  0.2730 -0.0902 -0.6318
 6213SOL    HW130275   1.415   1.354   7.017  0.4809  0.2754 -0.0128
 6213SOL    HW230276   1.370   1.414   6.888  0.3948  2.2998 -1.1853
 6214SOL     OW30277   1.311   4.371   6.075 -0.4785  0.2254 -0.1301
 6214SOL    HW130278   1.287   4.463   6.087 -1.9111 -0.3507  1.4858
 6214SOL    HW230279   1.293   4.363   5.982  1.5510  1.0733 -0.5984
 6215SOL     OW30280   2.301   0.909   6.338  0.0597 -0.0846 -0.1713
 6215SOL    HW130281   2.375   0.910   6.399 -0.6591  0.0147  0.7002
 6215SOL    HW230282   2.280   1.001   6.324  2.6129  0.3922 -0.9306
 6216SOL     OW30283   3.394   2.043   6.513  0.1345 -0.4576  0.0806
 6216SOL    HW130284   3.332   1.969   6.517 -0.2340 -0.0247  2.4617
 6216SOL    HW230285   3.341   2.120   6.492  0.6002 -0.0867  0.2908
 6217SOL     OW30286   1.436   2.925   3.760 -0.8130 -0.1208  0.2391
 6217SOL    HW130287   1.395   2.882   3.686  1.9135  1.3620 -2.1384
 6217SOL    HW230288   1.509   2.863   3.763 -1.2480 -0.5805  1.5750
 6218SOL     OW30289   0.189   3.689   7.699  0.1505 -0.7787  0.2770
 6218SOL    HW130290   0.127   3.697   7.626 -0.6761  2.6741  1.3742
 6218SOL    HW230291   0.255   3.757   7.687 -0.4167 -0.5445 -1.5561
 6219SOL     OW30292   4.737   3.020   7.708  0.3326 -0.0241 -0.4542
 6219SOL    HW130293   0.009   2.960   7.781 -0.7224  1.5398  0.9599
 6219SOL    HW230294   0.020   3.103   7.751 -0.7576  0.7237 -1.3867
 6220SOL     OW30295   0.714   0.833  12.288 -0.0721  0.6228 -0.0575
 6220SOL    HW130296   0.661   0.826  12.367 -0.4913 -2.7567 -0.6439
 6220SOL    HW230297   0.661   0.900  12.244 -2.0014 -0.5811  0.4444
 6221SOL     OW30298   4.426   2.155   5.370  0.3076 -0.0885 -0.2980
 6221SOL    HW130299   4.382   2.083   5.415  0.6279 -0.3061 -0.3336
 6221SOL    HW230300   4.348   2.184   5.321 -0.1290  1.2222  1.1494
 6222SOL     OW30301   2.100   4.373  13.576  0.3717  1.0107 -0.4255
 6222SOL    HW130302   2.109   4.450  13.520 -0.8624 -0.0850 -2.1532
 6222SOL    HW230303   2.095   4.406  13.666  0.7115 -3.0044  1.0801
 6223SOL     OW30304   2.352   4.566  13.665  0.2900  0.1778  0.0802
 6223SOL    HW130305   2.306   4.582  13.583  1.7041 -0.1301 -0.7687
 6223SOL    HW230306   2.278   4.553  13.724 -0.9530  0.1732 -1.4885
 6224SOL     OW30307   1.471   4.071   7.584  0.2239 -0.2010 -0.3134
 6224SOL    HW130308   1.515   4.050   7.502 -0.7262 -2.8857 -0.1537
 6224SOL    HW230309   1.543   4.121   7.622 -0.9728  0.6258  0.8671
 6225SOL     OW30310   0.120   3.591   3.995 -0.4770  0.2723 -0.2747
 6225SOL    HW130311   0.049   3.615   3.936 -0.7667 -0.8437 -0.3737
 6225SOL    HW230312   0.166   3.519   3.953 -2.6993 -0.3156 -1.6945
 6226SOL     OW30313   3.193   2.856   2.211  0.0925 -0.0836  0.0026
 6226SOL    HW130314   3.219   2.940   2.249 -0.3669  0.0336  0.0582
 6226SOL    HW230315   3.098   2.872   2.209  0.5177  2.2561 -1.9368
 6227SOL     OW30316   0.978   3.116   2.615  0.5923  0.0481 -0.9305
 6227SOL    HW130317   1.029   3.190   2.647  3.5942 -1.5024 -2.2000
 6227SOL    HW230318   1.051   3.073   2.570 -0.7581  0.0286 -3.1103
 6228SOL     OW30319   1.504   0.808  12.387  0.1245  0.1684  0.1905
 6228SOL    HW130320   1.495   0.887  12.335  0.3737 -0.4478 -0.7889
 6228SOL    HW230321   1.505   0.839  12.478 -0.6601  0.1658  0.1970
 6229SOL     OW30322   0.281   1.985   7.041 -0.0127 -0.0259  1.1439
 6229SOL    HW130323   0.247   1.913   7.093  0.2505  0.2825  1.7554
 6229SOL    HW230324   0.375   1.974   7.058  0.3943  1.9126  0.1809
 6230SOL     OW30325   2.900   1.565  13.812 -0.1267 -0.2359  0.5078
 6230SOL    HW130326   2.956   1.632  13.851 -1.6775  1.0088  0.5990
 6230SOL    HW230327   2.945   1.486  13.841 -0.3363 -0.6227 -0.2169
 6231SOL     OW30328   1.834   1.914   2.493  0.3349  0.1374  0.3585
 6231SOL    HW130329   1.870   1.920   2.581 -0.0400  1.3051  0.4300
 6231SOL    HW230330   1.917   1.900   2.448  0.4822  1.1588  0.3019
 6232SOL     OW30331   1.277   1.233  13.831  1.3002 -0.3084  0.1683
 6232SOL    HW130332   1.240   1.317  13.856  0.3275 -0.6208 -0.2259
 6232SOL    HW230333   1.271   1.240  13.736  0.3004  0.6845  0.3074
 6233SOL     OW30334   2.986   0.698   6.044  0.6731  0.1668  0.1671
 6233SOL    HW130335   3.034   0.780   6.029 -2.5927  2.0483  0.1573
 6233SOL    HW230336   3.033   0.671   6.123 -1.4414  0.7488  1.6109
 6234SOL     OW30337   1.081   2.500   6.317  0.0749 -0.4643 -0.0591
 6234SOL    HW130338   1.074   2.595   6.327 -1.0246 -0.4196 -1.1193
 6234SOL    HW230339   1.004   2.481   6.263 -0.3585  1.1416 -0.0203
 6235SOL     OW30340   4.214   3.732   8.045  0.3164 -0.2641 -0.2921
 6235SOL    HW130341   4.238   3.655   7.992 -0.7900 -0.5250 -0.4164
 6235SOL    HW230342   4.121   3.711   8.033  0.2907  0.9540 -2.2182
 6236SOL     OW30343   3.555   3.200   1.111 -0.3039 -0.1753  0.0659
 6236SOL    HW130344   3.551   3.270   1.176  1.0217  1.0911 -1.2289
 6236SOL    HW230345   3.604   3.236   1.038  0.1906 -0.3503  0.3124
 6237SOL     OW30346   1.134   0.919   4.931 -0.6249  0.0360 -0.7650
 6237SOL    HW130347   1.116   0.939   5.023 -0.8717 -1.6348 -0.4502
 6237SOL    HW230348   1.091   0.833   4.930  0.6328 -0.6354  2.0415
 6238SOL     OW30349   1.208   0.057  15.186  0.4921 -0.0305  0.0008
 6238SOL    HW130350   1.175   0.015  15.265 -0.8740 -0.3049 -0.7146
 6238SOL    HW230351   1.211   4.725  15.120 -0.1580 -2.7068  2.7395
 6239SOL     OW30352   4.001   1.064   1.215 -0.2384  0.5303 -0.5101
 6239SOL    HW130353   3.929   1.122   1.190 -1.7920 -1.2540 -0.2392
 6239SOL    HW230354   4.051   1.124   1.269 -0.1887 -0.5576  0.6625
 6240SOL     OW30355   3.067   0.566   4.300  0.3784 -0.2984 -0.4209
 6240SOL    HW130356   3.152   0.583   4.259  0.1101  0.1800 -0.7716
 6240SOL    HW230357   3.074   0.475   4.328  2.7006 -0.2063 -0.6770
 6241SOL     OW30358   1.730   0.486   5.090  1.0089 -0.3738  0.0206
 6241SOL    HW130359   1.814   0.490   5.136  0.6727 -1.2207  0.6978
 6241SOL    HW230360   1.705   0.394   5.098  1.7885 -0.5515  0.3284
 6242SOL     OW30361   1.325   1.351   6.286  0.6449 -0.0564  0.0700
 6242SOL    HW130362   1.266   1.426   6.290  0.6555  0.0867 -2.5171
 6242SOL    HW230363   1.388   1.373   6.217 -0.0724 -0.0453 -0.5766
 6243SOL     OW30364   1.315   3.836  10.011  0.0841 -0.2925 -0.7706
 6243SOL    HW130365   1.269   3.815  10.092 -1.2582  0.7425 -1.2778
 6243SOL    HW230366   1.407   3.850  10.033  0.6965 -1.3459 -2.6329
 6244SOL     OW30367   2.917   2.878   5.380 -0.1595 -0.4338  0.6584
 6244SOL    HW130368   2.992   2.923   5.341 -1.6616 -0.6717 -2.5629
 6244SOL    HW230369   2.901   2.804   5.321 -2.3919 -0.1695  0.9296
 6245SOL     OW30370   4.462   4.484  10.763  0.4036 -0.2143  0.4270
 6245SOL    HW130371   4.536   4.537  10.793 -0.2492  0.7779  0.2765
 6245SOL    HW230372   4.402   4.549  10.728 -0.2140 -1.3103 -0.5358
 6246SOL     OW30373   2.092   3.444   2.825 -0.3068 -0.5479  0.0630
 6246SOL    HW130374   2.174   3.406   2.858  0.3823  1.4039  0.5665
 6246SOL    HW230375   2.025   3.379   2.847 -0.0593 -0.7772  0.1516
 6247SOL     OW30376   2.501   1.391   4.769  0.0617  0.2684  0.2014
 6247SOL    HW130377   2.429   1.452   4.784 -0.9531 -1.0018  0.5160
 6247SOL    HW230378   2.571   1.449   4.798 -0.3655  0.4600  0.8217
 6248SOL     OW30379   4.297   3.697   5.693 -0.1785  0.3285  0.4402
 6248SOL    HW130380   4.205   3.677   5.710  0.4640 -0.0204  3.6149
 6248SOL    HW230381   4.332   3.614   5.660 -0.6979  0.6271 -0.8461
 6249SOL     OW30382   1.235   1.959   3.297  0.2796 -0.2991  0.2385
 6249SOL    HW130383   1.142   1.955   3.277 -0.0579 -4.7006  2.8702
 6249SOL    HW230384   1.235   2.008   3.380 -1.1484 -0.8968  0.5829
 6250SOL     OW30385   1.163   4.258  17.287  0.0129 -0.2510  0.3962
 6250SOL    HW130386   1.072   4.288  17.275  0.7252  1.9444  0.4097
 6250SOL    HW230387   1.210   4.332  17.250 -2.0824  1.6580  1.5303
 6251SOL     OW30388   1.961   2.718  10.227 -0.3887 -0.4415 -0.3268
 6251SOL    HW130389   2.030   2.753  10.170  0.0096 -1.2021 -0.3079
 6251SOL    HW230390   1.900   2.790  10.243  0.6535  0.2240  0.6362
 6252SOL     OW30391   1.571   0.850   6.516 -0.0453 -0.4577  0.1259
 6252SOL    HW130392   1.526   0.821   6.595 -1.8065 -1.7609 -1.3612
 6252SOL    HW230393   1.490   0.859   6.466 -0.9685 -1.4238  1.4407
 6253SOL     OW30394   3.203   4.313  16.855 -0.4671 -0.4764 -0.3800
 6253SOL    HW130395   3.241   4.401  16.859 -0.4035 -0.3130 -4.6890
 6253SOL    HW230396   3.211   4.278  16.944 -0.3176 -1.9983 -0.9892
 6254SOL     OW30397   1.906   0.837   8.931 -0.4173 -0.0452 -0.1161
 6254SOL    HW130398   1.934   0.765   8.988 -1.1069  0.4788  0.8811
 6254SOL    HW230399   1.857   0.880   9.001  0.3817  1.2109 -0.3336
 6255SOL     OW30400   3.999   2.918   1.661  0.1337 -0.6839  0.2356
 6255SOL    HW130401   4.089   2.946   1.646 -0.4284  1.2325  0.3883
 6255SOL    HW230402   4.016   2.825   1.674  2.3442 -0.2919  0.1096
 6256SOL     OW30403   3.965   2.513   3.797 -0.2277 -0.0401 -0.5109
 6256SOL    HW130404   3.964   2.608   3.800 -0.3774 -0.1459  2.5251
 6256SOL    HW230405   4.052   2.496   3.835 -0.7682 -0.0439  0.7281
 6257SOL     OW30406   4.590   4.173   4.977  0.3218 -0.2655  0.8199
 6257SOL    HW130407   4.643   4.248   4.951  0.0873 -0.0683  0.9129
 6257SOL    HW230408   4.544   4.152   4.896  0.6208 -0.5164  0.7119
 6258SOL     OW30409   4.003   3.263   0.948  0.1612  0.3859 -0.0215
 6258SOL    HW130410   4.007   3.167   0.949  3.0567  0.5139 -0.1890
 6258SOL    HW230411   3.974   3.277   1.038  1.3125  0.6202  0.3196
 6259SOL     OW30412   2.399   1.233   1.883 -0.1756 -0.2724 -0.3303
 6259SOL    HW130413   2.371   1.324   1.883  1.0636  0.0942  2.9250
 6259SOL    HW230414   2.446   1.230   1.966  0.0950 -2.0354 -0.5414
 6260SOL     OW30415   2.830   0.435   6.821  0.8497  0.2093 -0.4593
 6260SOL    HW130416   2.853   0.486   6.743  2.4405  2.1440  1.2752
 6260SOL    HW230417   2.749   0.388   6.802  1.4670 -0.1251 -2.2366
 6261SOL     OW30418   2.194   2.678   1.600  0.5689 -0.2748 -0.4308
 6261SOL    HW130419   2.227   2.616   1.535  2.8131  1.3282 -0.7801
 6261SOL    HW230420   2.112   2.707   1.560  0.2358 -2.5502 -1.4135
 6262SOL     OW30421   2.301   1.153   4.131 -0.4477  0.5398 -0.2935
 6262SOL    HW130422   2.367   1.086   4.117  0.2528  1.5536 -1.9036
 6262SOL    HW230423   2.232   1.097   4.166  0.2905 -0.9036 -1.1626
 6263SOL     OW30424   1.314   4.374   8.763  0.0614 -0.3680  0.0138
 6263SOL    HW130425   1.222   4.389   8.786 -0.1259 -1.5132  0.0233
 6263SOL    HW230426   1.323   4.414   8.676 -0.8711  0.1319  0.1435
 6264SOL     OW30427   1.082   3.864  15.712  0.2461  1.0005 -0.1550
 6264SOL    HW130428   1.112   3.854  15.621 -1.1173 -0.5407 -0.4323
 6264SOL    HW230429   1.047   3.953  15.708 -0.0406  0.9955  2.4655
 6265SOL     OW30430   2.101   2.770   6.268  0.1140 -0.0247  0.1114
 6265SOL    HW130431   2.109   2.792   6.175 -0.3250 -2.2663 -0.4541
 6265SOL    HW230432   2.057   2.685   6.270  0.0304 -0.0366 -2.0847
 6266SOL     OW30433   4.687   3.613   8.149 -0.0781  0.8645 -0.0096
 6266SOL    HW130434   4.712   3.530   8.189 -2.0985  0.3192  0.1328
 6266SOL    HW230435   0.016   3.679   8.173 -1.8398  1.7401  2.3730
 6267SOL     OW30436   0.948   4.466   6.747 -0.3975 -0.3092  0.7679
 6267SOL    HW130437   1.017   4.524   6.781  0.3065 -1.3417  1.1295
 6267SOL    HW230438   0.959   4.389   6.804  3.8032 -2.6505 -3.2258
 6268SOL     OW30439   0.644   1.107   3.930  0.1073  0.2820 -0.2269
 6268SOL    HW130440   0.687   1.167   3.868  0.4709 -0.9008 -1.1323
 6268SOL    HW230441   0.666   1.147   4.014 -1.6639  1.1416 -0.1693
 6269SOL     OW30442   3.838   0.224   2.839 -0.0225  0.0073  0.5882
 6269SOL    HW130443   3.794   0.164   2.899 -0.1814  1.0256  1.4909
 6269SOL    HW230444   3.805   0.178   2.761 -0.2961  1.5750 -0.2334
 6270SOL     OW30445   2.421   2.221   2.378 -0.7293 -0.2663 -0.2102
 6270SOL    HW130446   2.433   2.288   2.446  0.2752 -0.5545 -0.1095
 6270SOL    HW230447   2.469   2.144   2.409 -0.6001 -0.4324 -0.8302
 6271SOL     OW30448   4.193   2.564   2.611 -0.5851  0.1245  0.3897
 6271SOL    HW130449   4.163   2.608   2.690 -0.3056  2.0066 -0.5493
 6271SOL    HW230450   4.147   2.623   2.552 -2.2245  0.2331  1.7680
 6272SOL     OW30451   3.915   2.645   1.218  0.4079  0.0913  0.1729
 6272SOL    HW130452   4.009   2.647   1.236  0.2329  0.2733  1.0668
 6272SOL    HW230453   3.916   2.690   1.134  0.8652 -0.8264 -0.3073
 6273SOL     OW30454   3.122   4.337   7.114  0.3756 -0.3268 -0.0898
 6273SOL    HW130455   3.029   4.338   7.094 -0.5465  0.0854  4.2103
 6273SOL    HW230456   3.127   4.423   7.154  0.2453 -0.4598  0.2121
 6274SOL     OW30457   0.808   2.012   2.486  0.1333 -0.1900  0.2981
 6274SOL    HW130458   0.765   2.049   2.408  0.9050 -1.7750 -0.8931
 6274SOL    HW230459   0.787   1.919   2.480  1.0926 -0.4046  0.2447
 6275SOL     OW30460   2.378   0.497  12.395  0.4008 -0.5158  0.3516
 6275SOL    HW130461   2.346   0.466  12.310 -0.4790  2.7234 -0.4925
 6275SOL    HW230462   2.300   0.546  12.422  1.3490  0.7604  0.7092
 6276SOL     OW30463   1.062   3.821   6.381  0.1393 -0.0088 -0.0287
 6276SOL    HW130464   1.097   3.756   6.442  0.7433 -1.7334 -2.2245
 6276SOL    HW230465   1.120   3.810   6.305  1.7533  3.8290  0.6328
 6277SOL     OW30466   0.346   4.703   8.435  0.4469  0.1574 -0.2842
 6277SOL    HW130467   0.356   0.028   8.508 -0.0842 -0.4446  0.3076
 6277SOL    HW230468   0.285   4.643   8.478  0.9963 -0.5455 -0.4881
 6278SOL     OW30469   2.956   1.775   3.877 -0.2257 -0.8090 -0.6316
 6278SOL    HW130470   2.861   1.783   3.865 -0.0922  1.9563  0.0823
 6278SOL    HW230471   2.965   1.681   3.891 -1.0161 -0.5682  1.6069
 6279SOL     OW30472   0.882   4.295   5.608 -0.3073 -0.0403  0.2670
 6279SOL    HW130473   0.793   4.272   5.632 -0.8125 -0.3664 -1.8678
 6279SOL    HW230474   0.889   4.226   5.541 -1.6752 -1.2838  1.4406
 6280SOL     OW30475   3.531   1.425   7.854 -0.0403  0.0009  0.7294
 6280SOL    HW130476   3.599   1.394   7.913 -0.5029  1.1687  1.8576
 6280SOL    HW230477   3.491   1.496   7.904 -2.1306  0.2179 -1.2338
 6281SOL     OW30478   1.809   2.924  13.074 -0.6557  0.1943 -0.5069
 6281SOL    HW130479   1.816   2.987  13.003 -1.2657 -0.4718 -1.1579
 6281SOL    HW230480   1.730   2.877  13.045 -0.8275  0.4080 -0.3862
 6282SOL     OW30481   4.041   0.714   3.099 -0.1437  0.2200 -0.0563
 6282SOL    HW130482   3.990   0.745   3.173 -1.9060  0.5875 -1.4392
 6282SOL    HW230483   4.128   0.740   3.130 -0.9215 -0.1537  2.4051
 6283SOL     OW30484   3.805   0.940  16.681  0.1733  0.1967  0.1845
 6283SOL    HW130485   3.751   0.873  16.639 -0.6856  0.2691  1.1586
 6283SOL    HW230486   3.832   0.884  16.753  0.4013  0.4153  0.2649
 6284SOL     OW30487   3.726   3.240   9.472 -0.1261 -0.2576  0.6406
 6284SOL    HW130488   3.766   3.153   9.479  0.8452 -0.0101 -1.6856
 6284SOL    HW230489   3.799   3.301   9.460  0.0221 -1.1429 -3.1527
 6285SOL     OW30490   4.117   2.406   5.610  0.0498  1.2915 -0.1698
 6285SOL    HW130491   4.043   2.347   5.623  0.9058 -0.2608 -2.2700
 6285SOL    HW230492   4.142   2.436   5.697 -0.1522  1.7806 -0.2808
 6286SOL     OW30493   3.780   0.633   3.020 -0.2486 -0.5155 -0.3568
 6286SOL    HW130494   3.764   0.719   3.058  0.1638 -0.1026 -1.0981
 6286SOL    HW230495   3.821   0.664   2.939  1.7180  3.9063  2.3157
 6287SOL     OW30496   2.524   2.663   5.582 -0.2574  0.3540 -0.1081
 6287SOL    HW130497   2.484   2.587   5.541 -0.8457  1.6001 -1.8527
 6287SOL    HW230498   2.475   2.726   5.530  1.0112  0.8159 -0.7369
 6288SOL     OW30499   3.965   0.630   4.243 -0.2101  0.0029 -0.8930
 6288SOL    HW130500   3.873   0.658   4.244  0.3466  1.7272  1.0906
 6288SOL    HW230501   3.942   0.545   4.279 -2.7008  1.1587  0.2913
 6289SOL     OW30502   1.643   3.419   5.206  0.3292 -1.3237  0.2043
 6289SOL    HW130503   1.641   3.493   5.145 -1.6280 -0.5199  1.2409
 6289SOL    HW230504   1.550   3.403   5.220  0.1990  0.7411  1.6887
 6290SOL     OW30505   1.667   2.065   3.143 -0.0337  0.4346 -0.2151
 6290SOL    HW130506   1.744   2.114   3.114  0.4123 -0.9979 -1.5131
 6290SOL    HW230507   1.605   2.134   3.119 -0.5350  0.6191  1.6042
 6291SOL     OW30508   1.409   4.624  16.771  0.6393  0.1439 -0.1137
 6291SOL    HW130509   1.420   4.546  16.826  0.6415  0.0358 -0.2684
 6291SOL    HW230510   1.322   4.606  16.736  1.4279 -0.4229 -1.7804
 6292SOL     OW30511   2.530   3.682  15.241 -0.2286 -0.0037 -0.5960
 6292SOL    HW130512   2.611   3.629  15.240  0.3563  0.8774  0.0423
 6292SOL    HW230513   2.470   3.609  15.256 -1.0126  0.3373 -2.0855
 6293SOL     OW30514   3.469   3.944   1.774 -0.1631 -0.0005  0.2971
 6293SOL    HW130515   3.407   3.877   1.802 -0.8147  0.5348  0.1264
 6293SOL    HW230516   3.450   4.000   1.849  0.6205  0.1863  0.3551
 6294SOL     OW30517   3.502   0.722   3.989 -0.7525 -0.0760  0.1495
 6294SOL    HW130518   3.412   0.700   4.016 -1.3500 -0.2823 -2.0275
 6294SOL    HW230519   3.480   0.736   3.897 -0.7200 -1.0996 -0.0138
 6295SOL     OW30520   3.768   2.448   8.691 -0.5442  0.1647 -0.0512
 6295SOL    HW130521   3.686   2.398   8.690 -1.2637  1.3041  1.2209
 6295SOL    HW230522   3.790   2.465   8.599  1.0361 -0.3377  0.2392
 6296SOL     OW30523   2.680   2.567   7.327 -0.5823  0.0367 -0.6290
 6296SOL    HW130524   2.611   2.633   7.332 -1.8751 -1.4674  1.6423
 6296SOL    HW230525   2.676   2.538   7.418  0.0231  0.0697 -0.5950
 6297SOL     OW30526   1.169   4.001   4.646 -0.3154  0.7279 -0.5653
 6297SOL    HW130527   1.190   4.072   4.707 -0.4792  0.3679 -0.0910
 6297SOL    HW230528   1.175   4.044   4.561  0.9353 -2.9592 -2.3057
 6298SOL     OW30529   1.330   1.921   6.665  0.1178 -0.0959 -0.0368
 6298SOL    HW130530   1.248   1.952   6.628  1.7931  0.6494 -3.1293
 6298SOL    HW230531   1.386   1.921   6.587 -0.1960  0.5569 -0.2612
 6299SOL     OW30532   4.002   0.189   8.765  0.2960 -0.2611  0.3506
 6299SOL    HW130533   4.020   0.223   8.853  0.6262  1.0736 -0.2440
 6299SOL    HW230534   3.943   0.116   8.784  1.1094 -1.1807 -0.7142
 6300SOL     OW30535   3.135   2.598   4.472  0.2612  0.1612 -0.3065
 6300SOL    HW130536   3.142   2.544   4.551 -2.4055 -0.5957 -0.6010
 6300SOL    HW230537   3.218   2.645   4.482  1.4118 -2.1863  1.2916
 6301SOL     OW30538   0.730   1.458  14.721 -0.1872  0.6099  0.7707
 6301SOL    HW130539   0.704   1.416  14.803 -1.4353 -3.3569 -1.6429
 6301SOL    HW230540   0.798   1.401  14.684 -0.4671  0.9255 -0.2451
 6302SOL     OW30541   0.537   4.248   9.724  0.0492  0.3709  0.3165
 6302SOL    HW130542   0.568   4.247   9.815  0.9327 -1.1314 -0.0007
 6302SOL    HW230543   0.539   4.339   9.696 -0.4825  0.3607  0.2379
 6303SOL     OW30544   0.186   2.855   2.831 -0.4585 -0.7053 -0.2683
 6303SOL    HW130545   0.167   2.771   2.873 -4.2054  0.7092  0.8727
 6303SOL    HW230546   0.096   2.877   2.808 -0.0204  0.7549 -0.5758
 6304SOL     OW30547   3.489   3.512  15.702 -0.3133  0.0885 -0.4528
 6304SOL    HW130548   3.405   3.509  15.657 -1.7272  0.6130  2.1635
 6304SOL    HW230549   3.460   3.516  15.793  0.4150 -0.8304 -0.1776
 6305SOL     OW30550   3.635   1.949   2.917  0.7527  0.1636  0.6832
 6305SOL    HW130551   3.675   1.974   3.000  1.1159  0.7094  0.3386
 6305SOL    HW230552   3.571   2.020   2.913 -2.7135 -3.0484 -1.5743
 6306SOL     OW30553   0.303   3.310   6.240 -0.3710 -0.1644  0.2448
 6306SOL    HW130554   0.241   3.382   6.238  0.6437  0.6987 -0.2092
 6306SOL    HW230555   0.296   3.283   6.332 -2.1345  1.7006  0.6469
 6307SOL     OW30556   2.726   3.488  15.238 -0.5162 -0.0164  0.1474
 6307SOL    HW130557   2.808   3.466  15.282  0.2603  0.5666 -1.0196
 6307SOL    HW230558   2.680   3.405  15.225 -0.3516  0.2106 -1.7999
 6308SOL     OW30559   1.251   0.240   2.531  0.4435  0.4586  0.0355
 6308SOL    HW130560   1.296   0.269   2.611  0.7735 -1.5751  0.6042
 6308SOL    HW230561   1.235   0.148   2.552  1.7960 -0.0972 -1.3825
 6309SOL     OW30562   2.684   3.526  17.046 -0.4477  0.0552  0.5679
 6309SOL    HW130563   2.622   3.458  17.070 -1.0497  0.2102 -0.6031
 6309SOL    HW230564   2.753   3.470  17.011 -1.4609 -0.1321 -1.1198
 6310SOL     OW30565   2.407   1.819  15.991 -0.0829 -0.5427  0.0850
 6310SOL    HW130566   2.397   1.862  15.906 -1.0215  0.6250  0.7913
 6310SOL    HW230567   2.452   1.887  16.042  1.9322 -3.0985  1.6735
 6311SOL     OW30568   0.931   1.544   7.777 -0.3767 -0.4181  0.4604
 6311SOL    HW130569   0.964   1.634   7.783 -2.5406  0.1530  3.3255
 6311SOL    HW230570   0.936   1.520   7.869  0.9159 -0.0486  0.4975
 6312SOL     OW30571   3.257   2.049   5.344  0.3248 -0.3432 -0.6377
 6312SOL    HW130572   3.311   2.128   5.350 -0.3466  0.1380 -0.8072
 6312SOL    HW230573   3.177   2.087   5.305  0.0471 -0.5599 -0.2767
 6313SOL     OW30574   1.662   3.886   5.230 -0.7169 -0.0435  0.0478
 6313SOL    HW130575   1.645   3.969   5.186 -1.2315  0.7264  1.7133
 6313SOL    HW230576   1.618   3.892   5.315  1.9804 -1.2146  1.5221
 6314SOL     OW30577   1.972   4.408   5.964  0.2807  0.4002  0.4941
 6314SOL    HW130578   1.911   4.442   5.898  0.3881  0.0298  0.2051
 6314SOL    HW230579   1.989   4.320   5.930  0.4769  0.3635  0.6922
 6315SOL     OW30580   0.289   4.462  12.235 -0.3302  0.6773  0.2989
 6315SOL    HW130581   0.234   4.526  12.280 -1.5775  2.0637 -3.2427
 6315SOL    HW230582   0.328   4.524  12.174  3.0291 -2.2357 -0.5021
 6316SOL     OW30583   2.560   1.597   5.627  0.2253  0.0590 -0.7609
 6316SOL    HW130584   2.572   1.502   5.622 -0.1547 -0.1242  1.8854
 6316SOL    HW230585   2.466   1.600   5.640  0.2809  1.7978 -0.7206
 6317SOL     OW30586   4.461   0.521   4.677 -0.3448  0.0779  0.5031
 6317SOL    HW130587   4.488   0.587   4.613 -0.0039  0.9708  1.5750
 6317SOL    HW230588   4.542   0.490   4.717 -0.1234  2.8995  2.2522
 6318SOL     OW30589   0.066   0.693  15.501 -0.3753 -0.0199 -0.5506
 6318SOL    HW130590   0.060   0.613  15.448 -0.7267 -0.0662 -0.4408
 6318SOL    HW230591   0.016   0.753  15.447 -0.3835 -0.0150 -0.5378
 6319SOL     OW30592   2.804   2.986   6.787 -0.1423 -0.0832 -0.0672
 6319SOL    HW130593   2.848   2.925   6.846 -0.9473 -0.2626  0.3520
 6319SOL    HW230594   2.713   2.958   6.780 -0.3438  0.1617  1.5956
 6320SOL     OW30595   4.158   1.879   7.725  0.5853  0.1035 -0.2840
 6320SOL    HW130596   4.249   1.854   7.739  0.7492  1.2813  0.7271
 6320SOL    HW230597   4.146   1.925   7.808  0.1292 -0.7283  0.1199
 6321SOL     OW30598   4.352   3.576   0.430 -0.4205  0.3863  0.4204
 6321SOL    HW130599   4.269   3.530   0.443  0.1142 -0.0205  2.3162
 6321SOL    HW230600   4.375   3.615   0.514  1.2252 -0.3887  0.3283
 6322SOL     OW30601   1.679   3.661  16.528  0.2129 -0.4693  0.3323
 6322SOL    HW130602   1.661   3.745  16.486  1.5455 -0.2573  0.1965
 6322SOL    HW230603   1.737   3.688  16.599  1.4988 -0.0963 -0.8661
 6323SOL     OW30604   0.818   1.291   1.678  0.1427 -0.3890  0.2220
 6323SOL    HW130605   0.762   1.250   1.612 -1.5479 -0.6325  1.8031
 6323SOL    HW230606   0.899   1.241   1.670  0.0581 -0.4954  0.0301
 6324SOL     OW30607   2.299   4.617   6.442  0.0791  0.4498 -0.1929
 6324SOL    HW130608   2.224   4.557   6.445  0.0781  0.4088 -0.9071
 6324SOL    HW230609   2.261   4.698   6.408 -1.6158 -0.8126 -1.3092
 6325SOL     OW30610   2.187   0.948  11.178  0.5640  0.6059 -0.1903
 6325SOL    HW130611   2.253   0.883  11.203  0.4253  0.1489 -1.0220
 6325SOL    HW230612   2.239   1.004  11.121  3.0137  0.2433  1.6534
 6326SOL     OW30613   0.817   2.242  12.845  0.2070  0.2028 -0.5458
 6326SOL    HW130614   0.858   2.156  12.839  0.7176  0.4116 -0.1310
 6326SOL    HW230615   0.850   2.273  12.930  1.4766 -4.6443  0.7222
 6327SOL     OW30616   2.090   0.942   5.667 -0.2864 -0.1517  0.0419
 6327SOL    HW130617   2.060   0.868   5.614 -1.2125  0.2855 -0.0454
 6327SOL    HW230618   2.050   0.913   5.749  0.5199 -1.8927 -0.1819
 6328SOL     OW30619   2.407   1.419  17.565 -0.5687  0.0265 -0.3096
 6328SOL    HW130620   2.457   1.369  17.630  0.3225  1.6105  0.1950
 6328SOL    HW230621   2.337   1.450  17.623 -0.2317  1.2793 -0.5821
 6329SOL     OW30622   3.902   2.173   4.344 -0.1044 -0.2223  0.0212
 6329SOL    HW130623   3.908   2.269   4.337  0.5113 -0.3492 -1.2044
 6329SOL    HW230624   3.812   2.164   4.376 -0.7189 -0.1846 -1.6497
 6330SOL     OW30625   3.966   0.943   4.094  0.1610 -0.0598  0.7834
 6330SOL    HW130626   3.957   0.848   4.101  0.6988 -0.2625 -1.4383
 6330SOL    HW230627   3.902   0.971   4.160 -0.4031 -1.1262  0.6836
 6331SOL     OW30628   3.741   2.229   3.531 -0.4175  0.1453  0.3449
 6331SOL    HW130629   3.836   2.225   3.540 -0.3156 -0.8872 -1.0549
 6331SOL    HW230630   3.716   2.298   3.470  0.2133  0.4770  0.4671
 6332SOL     OW30631   3.434   4.631   2.257  0.3452 -0.6779  0.0596
 6332SOL    HW130632   3.364   4.695   2.248 -0.3923 -1.2951  1.3370
 6332SOL    HW230633   3.385   4.549   2.267 -1.5600  0.3248 -0.9975
 6333SOL     OW30634   4.561   0.374  10.774  0.0259  0.0065  0.4760
 6333SOL    HW130635   4.519   0.378  10.860  0.3004  0.6168  0.5781
 6333SOL    HW230636   4.625   0.304  10.781 -0.3467 -0.3723  0.1570
 6334SOL     OW30637   0.610   4.350   1.327  0.1094 -0.1440 -0.1619
 6334SOL    HW130638   0.535   4.404   1.351 -0.0108  0.1198 -1.1170
 6334SOL    HW230639   0.673   4.383   1.390 -0.1000 -0.1406  0.0433
 6335SOL     OW30640   0.337   2.125   5.629 -0.6557 -0.4715  0.3808
 6335SOL    HW130641   0.275   2.135   5.556 -0.8091 -0.7477  0.4743
 6335SOL    HW230642   0.283   2.084   5.697  0.1029 -0.4419  0.9987
 6336SOL     OW30643   3.430   4.533   3.621 -0.3984 -0.3116 -0.1562
 6336SOL    HW130644   3.383   4.450   3.633 -0.7042  0.0117  0.8638
 6336SOL    HW230645   3.471   4.538   3.707 -1.0217 -4.2865  0.4078
 6337SOL     OW30646   4.116   0.426   2.811  0.3284 -0.3143  0.2151
 6337SOL    HW130647   4.170   0.393   2.739  0.0033  1.3848 -0.7912
 6337SOL    HW230648   4.038   0.371   2.804 -0.8296  1.7789 -3.2119
 6338SOL     OW30649   3.173   0.614   7.082 -0.4511 -0.3245 -0.5004
 6338SOL    HW130650   3.220   0.538   7.116 -0.6159 -0.3214 -0.2629
 6338SOL    HW230651   3.081   0.591   7.092  0.5105 -3.6644  0.4508
 6339SOL     OW30652   4.257   2.034   6.574 -0.0588 -0.2108 -0.4442
 6339SOL    HW130653   4.175   2.037   6.623 -0.2590 -0.7296 -0.7562
 6339SOL    HW230654   4.300   2.101   6.629 -3.0248 -0.1814  1.8204
 6340SOL     OW30655   0.792   4.068  12.906  0.0329  0.7342 -0.0267
 6340SOL    HW130656   0.752   4.005  12.966  1.4283  1.2712  1.4576
 6340SOL    HW230657   0.835   4.125  12.970  0.2832  0.9620 -0.3980
 6341SOL     OW30658   2.062   1.426   4.451  0.0195 -0.8791  0.1859
 6341SOL    HW130659   2.006   1.426   4.529 -1.3500  0.0734 -0.8009
 6341SOL    HW230660   2.087   1.518   4.462 -1.0871 -0.6765  1.0369
 6342SOL     OW30661   0.061   0.684   2.964 -0.1565  0.9086  0.7698
 6342SOL    HW130662   0.062   0.674   2.868  1.1269  1.6412  0.7048
 6342SOL    HW230663   0.048   0.594   2.995 -1.0076  0.6552 -0.3388
 6343SOL     OW30664   1.675   4.105   4.736 -0.1644 -0.3188 -0.1208
 6343SOL    HW130665   1.635   4.152   4.663  2.2986 -0.3537 -1.5145
 6343SOL    HW230666   1.714   4.180   4.782  2.8872 -2.9702  1.6491
 6344SOL     OW30667   1.434   1.374   9.379  0.2172 -0.0423  0.3231
 6344SOL    HW130668   1.373   1.447   9.380  0.7852  0.4359  0.0278
 6344SOL    HW230669   1.505   1.428   9.345 -0.9114  1.8402  0.9474
 6345SOL     OW30670   3.598   3.073   4.000  0.1535  0.6717 -0.2493
 6345SOL    HW130671   3.594   3.057   4.094 -0.8404  1.1361 -0.2072
 6345SOL    HW230672   3.559   2.993   3.965 -1.8334  0.5805  2.1962
 6346SOL     OW30673   3.669   0.007  15.021  0.3418 -0.0352 -0.3054
 6346SOL    HW130674   3.687   4.737  14.927  0.4975 -0.0759 -0.2719
 6346SOL    HW230675   3.751   0.035  15.061  1.1978 -1.8627 -0.7460
 6347SOL     OW30676   2.588   2.136   6.502 -0.1099  0.3750  0.2667
 6347SOL    HW130677   2.592   2.142   6.597  0.4296 -0.2068  0.2825
 6347SOL    HW230678   2.638   2.055   6.493 -0.7784  0.2313 -2.0211
 6348SOL     OW30679   3.627   2.134   4.448 -0.5248  0.2597  0.1214
 6348SOL    HW130680   3.544   2.133   4.400 -0.4377 -2.0890  0.0418
 6348SOL    HW230681   3.633   2.051   4.494 -0.6326 -0.5002 -1.2450
 6349SOL     OW30682   0.507   0.314   5.752  0.9080  0.1023 -0.4696
 6349SOL    HW130683   0.591   0.356   5.733  0.5416  0.5346 -1.1557
 6349SOL    HW230684   0.452   0.350   5.682  0.7667 -0.6766 -0.7638
 6350SOL     OW30685   0.706   1.254  16.002 -0.0031 -0.8257  0.3869
 6350SOL    HW130686   0.782   1.272  15.948 -1.9152  1.4703 -1.5272
 6350SOL    HW230687   0.710   1.322  16.069  0.7023 -1.6130  1.1386
 6351SOL     OW30688   4.653   3.724   3.877 -0.0872  0.3737 -0.4585
 6351SOL    HW130689   4.613   3.698   3.794 -1.1004 -1.0260  0.4647
 6351SOL    HW230690   4.583   3.752   3.937 -1.8105 -0.2749 -2.1671
 6352SOL     OW30691   2.337   4.189  11.334  0.0681  0.1338  0.0864
 6352SOL    HW130692   2.363   4.214  11.423  1.0995  0.1446 -0.2190
 6352SOL    HW230693   2.337   4.093  11.334 -0.6970  0.1371 -0.3498
 6353SOL     OW30694   3.960   2.353  12.025  0.2526 -0.1596  0.2620
 6353SOL    HW130695   3.951   2.308  12.109  1.0736 -0.1117  0.3673
 6353SOL    HW230696   3.933   2.281  11.967 -0.3065  1.8452 -1.9490
 6354SOL     OW30697   4.296   4.261   3.664 -0.1220 -0.0398  0.1343
 6354SOL    HW130698   4.251   4.203   3.603  1.9415 -0.9678 -0.5230
 6354SOL    HW230699   4.374   4.268   3.609  1.5907  0.4332  2.6113
 6355SOL     OW30700   0.984   4.691   3.924  0.6266  0.0349  0.0438
 6355SOL    HW130701   0.889   4.686   3.931  0.6895  0.2633  1.0619
 6355SOL    HW230702   1.017   4.607   3.955 -1.4862 -0.8338 -0.0572
 6356SOL     OW30703   3.171   4.700   5.903 -0.2713 -0.3114  0.0904
 6356SOL    HW130704   3.093   4.644   5.898 -1.6028  1.6104 -0.4490
 6356SOL    HW230705   3.225   4.674   5.829  0.3950 -0.4680  0.6299
 6357SOL     OW30706   3.829   0.464   2.116  0.1388  0.3975  0.2364
 6357SOL    HW130707   3.912   0.434   2.080  0.8097 -1.5411  3.4061
 6357SOL    HW230708   3.842   0.465   2.211  0.2926  0.9346  0.2110
 6358SOL     OW30709   3.256   1.736   4.983  0.6015 -0.2435 -0.0356
 6358SOL    HW130710   3.220   1.769   4.900  0.6479 -0.7553 -0.2605
 6358SOL    HW230711   3.305   1.810   5.018 -1.1791 -0.4790  2.9519
 6359SOL     OW30712   0.685   1.365  13.935 -0.7799 -0.3394 -0.0856
 6359SOL    HW130713   0.698   1.271  13.950  0.4299 -0.2539 -0.6639
 6359SOL    HW230714   0.613   1.354  13.873 -2.0053  0.5585  1.1698
 6360SOL     OW30715   1.330   3.396  17.572  0.1658  0.3131 -0.0726
 6360SOL    HW130716   1.379   3.469  17.610  2.2361 -0.5225 -1.0974
 6360SOL    HW230717   1.237   3.418  17.578 -0.3448 -1.6892 -0.7813
 6361SOL     OW30718   2.775   0.340   4.101  0.0124  0.0222  0.3479
 6361SOL    HW130719   2.706   0.279   4.126 -0.4775  0.1289 -0.7312
 6361SOL    HW230720   2.785   0.410   4.166 -0.9322 -1.8798  2.5295
 6362SOL     OW30721   4.460   1.111   3.578  0.0679 -0.1013  0.0925
 6362SOL    HW130722   4.371   1.117   3.613  0.0877  1.4237 -0.1070
 6362SOL    HW230723   4.478   1.017   3.582  0.5304  0.0633  1.7940
 6363SOL     OW30724   1.632   0.923  15.451 -0.2187  0.0532  0.3512
 6363SOL    HW130725   1.680   0.852  15.408  0.2623 -0.1068  1.1544
 6363SOL    HW230726   1.691   0.999  15.440  0.7074 -0.8057 -0.6380
 6364SOL     OW30727   1.651   1.345   5.346  0.9292  0.2931  0.4407
 6364SOL    HW130728   1.709   1.415   5.317 -0.6491  1.1326 -0.7107
 6364SOL    HW230729   1.613   1.313   5.264  2.6678 -0.9460  0.1293
 6365SOL     OW30730   3.699   4.419   7.797 -0.2989 -0.0326 -0.1890
 6365SOL    HW130731   3.715   4.474   7.720  3.7375 -1.9553 -0.7114
 6365SOL    HW230732   3.699   4.482   7.869  2.5893 -0.6660  0.3470
 6366SOL     OW30733   1.278   0.500   1.805 -0.3453 -0.5848 -0.8853
 6366SOL    HW130734   1.185   0.506   1.782 -1.1057 -2.1618  1.7217
 6366SOL    HW230735   1.271   0.414   1.847  0.5898  0.2829  1.0881
 6367SOL     OW30736   2.709   1.484   2.222  0.2347  0.0628 -0.5797
 6367SOL    HW130737   2.663   1.565   2.243 -2.2638 -0.8388 -2.5308
 6367SOL    HW230738   2.637   1.421   2.224  1.4676 -1.2674  1.3226
 6368SOL     OW30739   2.169   3.325   8.181 -0.2505 -0.4201 -0.7873
 6368SOL    HW130740   2.171   3.230   8.169 -0.3868 -0.4175 -0.8316
 6368SOL    HW230741   2.186   3.355   8.092 -1.2526 -1.9410 -1.5005
 6369SOL     OW30742   3.276   2.233   6.258 -0.2660 -0.3280  0.0028
 6369SOL    HW130743   3.351   2.283   6.224 -0.4750 -0.3924 -0.5594
 6369SOL    HW230744   3.266   2.269   6.346  0.7273  0.1530 -0.0871
 6370SOL     OW30745   1.302   0.063   5.448  0.0850  0.2846 -0.1788
 6370SOL    HW130746   1.388   0.098   5.423 -0.9464  3.5531  0.9483
 6370SOL    HW230747   1.273   0.117   5.521 -1.0028 -0.3394 -0.1506
 6371SOL     OW30748   3.964   3.199   5.177  0.0940  0.0009  0.2399
 6371SOL    HW130749   3.925   3.260   5.240  0.6285  0.0596  0.5115
 6371SOL    HW230750   3.890   3.138   5.173 -0.5179  0.6988  0.9158
 6372SOL     OW30751   2.289   0.676   1.385 -0.3107  0.1411 -0.3356
 6372SOL    HW130752   2.362   0.717   1.433  1.4652 -3.7054  0.2433
 6372SOL    HW230753   2.255   0.763   1.364  0.8393  0.7005  0.1113
 6373SOL     OW30754   0.513   1.400  10.560 -0.1923 -0.1407 -0.5583
 6373SOL    HW130755   0.599   1.396  10.518 -0.0145 -1.0285 -0.1067
 6373SOL    HW230756   0.514   1.487  10.599 -1.3111  0.2576 -1.4011
 6374SOL     OW30757   1.775   0.356  13.130 -0.1679 -0.0119  0.0697
 6374SOL    HW130758   1.723   0.402  13.195 -0.9586  1.8796 -1.9225
 6374SOL    HW230759   1.774   0.414  13.054  4.5934 -0.7801 -0.6203
 6375SOL     OW30760   3.113   2.845   3.094 -0.3106  0.3817  0.5751
 6375SOL    HW130761   3.201   2.824   3.065 -1.5521 -0.7787 -2.3475
 6375SOL    HW230762   3.078   2.862   3.007  1.4472  1.9435  0.1811
 6376SOL     OW30763   3.977   1.068   1.751 -0.7194 -0.2035  0.1427
 6376SOL    HW130764   3.997   1.102   1.838  1.5858  2.4049 -1.3923
 6376SOL    HW230765   3.899   1.122   1.735 -1.2379 -0.7289  0.9245
 6377SOL     OW30766   0.868   3.552   4.333  0.5174  0.1916 -0.8333
 6377SOL    HW130767   0.891   3.504   4.253  0.9332 -1.3729  0.2378
 6377SOL    HW230768   0.859   3.478   4.392  1.6225  1.8424  1.3729
 6378SOL     OW30769   3.000   2.527   5.759  0.5075 -0.6519  0.0661
 6378SOL    HW130770   2.915   2.554   5.726 -0.0791 -1.5728  0.8252
 6378SOL    HW230771   2.974   2.451   5.811  1.3914 -0.1449  1.2658
 6379SOL     OW30772   2.292   0.649   3.435 -0.3755  0.4463 -0.0435
 6379SOL    HW130773   2.288   0.717   3.502  0.1648 -0.2318  0.6751
 6379SOL    HW230774   2.283   0.575   3.495 -1.1726 -0.1530 -0.8955
 6380SOL     OW30775   2.109   3.948   5.031 -0.0598  0.1592 -0.4098
 6380SOL    HW130776   2.134   4.040   5.033  0.8103 -0.0908 -0.1443
 6380SOL    HW230777   2.119   3.934   4.937  0.2106 -0.5111 -0.2786
 6381SOL     OW30778   2.865   3.591   8.000 -0.5645  0.0555 -0.4498
 6381SOL    HW130779   2.794   3.529   7.985 -1.3071  0.4467  1.3705
 6381SOL    HW230780   2.926   3.552   7.938 -0.5766 -1.3021  0.4063
 6382SOL     OW30781   2.973   3.610  13.589  0.3384  0.4866 -0.0268
 6382SOL    HW130782   2.921   3.529  13.583  0.8087  0.2347 -0.6181
 6382SOL    HW230783   2.918   3.688  13.591  1.0233  0.9386  1.0325
 6383SOL     OW30784   2.214   2.976   8.459  0.1859  0.1722 -0.3684
 6383SOL    HW130785   2.122   2.965   8.481  0.2727 -0.6457 -0.4031
 6383SOL    HW230786   2.203   3.019   8.374 -0.0719 -0.9743 -0.9080
 6384SOL     OW30787   2.570   1.779  16.398 -0.6691  0.1086 -0.1855
 6384SOL    HW130788   2.646   1.721  16.388  0.8263  2.0434 -0.0210
 6384SOL    HW230789   2.583   1.851  16.337  2.2731 -1.3775 -1.2864
 6385SOL     OW30790   0.623   0.137  15.789  0.2029  0.6442  0.1468
 6385SOL    HW130791   0.622   0.052  15.835  1.2326  0.3532 -0.3606
 6385SOL    HW230792   0.530   0.156  15.780  0.0353  0.5602  1.5605
 6386SOL     OW30793   0.024   4.216   1.836 -0.5060 -0.2965  0.1224
 6386SOL    HW130794   0.034   4.300   1.880  1.4816 -0.0291 -0.8273
 6386SOL    HW230795   0.008   4.169   1.918  1.1824  0.6183  0.9685
 6387SOL     OW30796   1.724   0.597   7.603 -0.3847  0.3244  0.0223
 6387SOL    HW130797   1.672   0.530   7.647 -1.3110  1.2529  0.3525
 6387SOL    HW230798   1.689   0.676   7.645  0.2000  0.1656  0.7984
 6388SOL     OW30799   3.593   2.423   2.151  0.0823 -0.0208  0.1471
 6388SOL    HW130800   3.665   2.413   2.213 -0.4060  0.7308  0.8403
 6388SOL    HW230801   3.521   2.401   2.210 -0.8822  1.2380 -0.5704
 6389SOL     OW30802   2.876   2.111   6.692 -0.1581 -0.0449  0.1001
 6389SOL    HW130803   2.822   2.052   6.639  0.0515 -0.0855 -0.0694
 6389SOL    HW230804   2.817   2.186   6.703  1.0782  0.9566 -0.0470
 6390SOL     OW30805   1.511   1.773  16.584  0.0250 -0.2254 -0.5062
 6390SOL    HW130806   1.563   1.767  16.504  0.6597  1.4128 -0.2036
 6390SOL    HW230807   1.442   1.710  16.562  1.6337 -2.0089 -0.4765
 6391SOL     OW30808   3.057   2.486   6.515 -0.1894  0.3747  0.4309
 6391SOL    HW130809   3.022   2.468   6.427 -0.3283 -1.4536  0.8678
 6391SOL    HW230810   3.034   2.578   6.524  0.5001  0.3490  2.4207
 6392SOL     OW30811   3.423   4.383   7.746 -0.2993  0.8598 -0.1708
 6392SOL    HW130812   3.444   4.375   7.653 -2.2528  0.5806 -0.5832
 6392SOL    HW230813   3.504   4.415   7.787  0.6951  0.9603 -2.2179
 6393SOL     OW30814   1.771   2.174   2.254  0.3622  0.6080 -0.0121
 6393SOL    HW130815   1.730   2.091   2.230  0.3013  0.9508 -1.0932
 6393SOL    HW230816   1.700   2.205   2.310  1.0501  3.3923 -0.6658
 6394SOL     OW30817   2.879   4.016   4.928 -0.5560 -0.3686 -0.4800
 6394SOL    HW130818   2.969   3.984   4.930 -0.5949 -0.5807 -2.0186
 6394SOL    HW230819   2.886   4.076   4.853  0.6127 -0.6298 -0.5815
 6395SOL     OW30820   4.609   1.641   5.991  0.2243  0.5068 -0.0089
 6395SOL    HW130821   4.661   1.644   6.071 -0.9471 -0.4980  0.7903
 6395SOL    HW230822   4.679   1.632   5.926  0.8327 -2.7670  1.0816
 6396SOL     OW30823   1.658   2.451   2.737  0.1452  0.1589 -0.1466
 6396SOL    HW130824   1.751   2.454   2.758  0.2423  2.2105 -0.8703
 6396SOL    HW230825   1.662   2.484   2.648 -0.3669 -0.2367 -0.3158
 6397SOL     OW30826   2.413   0.462   4.164 -0.0820 -0.3203  0.1367
 6397SOL    HW130827   2.318   0.456   4.170 -0.2432 -1.3016 -3.3589
 6397SOL    HW230828   2.441   0.381   4.121  0.0528  0.2395 -0.8230
 6398SOL     OW30829   1.332   1.853   6.938  0.0286 -0.0314 -0.6671
 6398SOL    HW130830   1.333   1.869   6.844  0.5884 -0.9176 -0.8148
 6398SOL    HW230831   1.309   1.942   6.964 -0.9618 -0.1590 -1.1482
 6399SOL     OW30832   0.195   2.982   5.916  0.0482  0.6073 -0.0544
 6399SOL    HW130833   0.192   2.993   6.011 -1.9887  1.8701 -0.2750
 6399SOL    HW230834   0.186   3.073   5.886 -0.2210  0.4292 -0.5186
 6400SOL     OW30835   3.914   1.526   4.166 -0.0133 -0.9765  0.4333
 6400SOL    HW130836   3.859   1.596   4.130  1.4715  0.1672  0.4192
 6400SOL    HW230837   3.876   1.448   4.125  0.9253 -1.7751  1.0716
 6401SOL     OW30838   1.268   1.274  12.405  0.3260  0.2572 -0.7120
 6401SOL    HW130839   1.174   1.280  12.422  0.2093 -1.4436 -0.6821
 6401SOL    HW230840   1.301   1.314  12.485  0.1884  0.8386 -0.9475
 6402SOL     OW30841   0.266   3.275   6.607 -0.1201  0.2741 -0.4177
 6402SOL    HW130842   0.294   3.355   6.652  0.0049 -0.0502  0.0850
 6402SOL    HW230843   0.178   3.269   6.645  0.4201  1.0355  0.9766
 6403SOL     OW30844   0.016   0.463  14.305  0.2444 -0.2936  0.3947
 6403SOL    HW130845   0.103   0.453  14.268  1.0021 -0.6014  2.2724
 6403SOL    HW230846   0.006   0.558  14.295 -1.1526 -0.2393  2.1835
 6404SOL     OW30847   1.550   1.074   5.549 -1.0045  0.2989  0.9105
 6404SOL    HW130848   1.514   1.050   5.634 -1.0500  0.5102  0.9491
 6404SOL    HW230849   1.585   1.163   5.554 -1.9877  0.6007  2.3629
 6405SOL     OW30850   3.917   3.187   7.437 -0.0845  0.4023  0.4498
 6405SOL    HW130851   3.986   3.120   7.444 -0.8147 -0.3624  0.3289
 6405SOL    HW230852   3.839   3.144   7.470 -0.6301  0.3957 -0.8492
 6406SOL     OW30853   0.385   1.095   1.867 -0.8642 -0.7697 -0.4509
 6406SOL    HW130854   0.371   1.022   1.927  2.7827 -2.1052 -1.2050
 6406SOL    HW230855   0.329   1.160   1.908  1.2690  0.7164  0.1256
 6407SOL     OW30856   3.344   3.077   5.058  0.1557 -0.1178  0.3268
 6407SOL    HW130857   3.407   3.032   5.001  0.6853  3.6370 -2.0128
 6407SOL    HW230858   3.321   3.151   5.002  3.2297  0.5051 -0.1352
 6408SOL     OW30859   3.152   3.871   8.956  0.3039 -0.2138 -0.0304
 6408SOL    HW130860   3.075   3.861   9.011  0.0097  0.4326 -0.3278
 6408SOL    HW230861   3.125   3.816   8.882 -0.8735 -0.2720  0.4570
 6409SOL     OW30862   0.132   4.084   3.697  0.5610 -0.2879 -0.2228
 6409SOL    HW130863   0.068   4.127   3.753  1.0901  1.2249 -0.7556
 6409SOL    HW230864   0.135   3.996   3.734  1.0664 -0.8818 -1.6701
 6410SOL     OW30865   2.345   3.301   6.956  0.0558 -0.4143  0.0108
 6410SOL    HW130866   2.382   3.220   6.990  0.2382 -0.6297 -0.6897
 6410SOL    HW230867   2.381   3.301   6.867 -2.2016  1.9168 -0.9241
 6411SOL     OW30868   3.179   0.573   9.417 -0.4000  0.5783  0.6249
 6411SOL    HW130869   3.186   0.668   9.431 -0.1220  0.2927  2.5163
 6411SOL    HW230870   3.246   0.554   9.352  1.1985  1.2212  2.0802
 6412SOL     OW30871   1.180   2.999   2.481 -0.3200  0.2924  0.7940
 6412SOL    HW130872   1.195   2.910   2.512 -0.3778 -0.6552 -1.9245
 6412SOL    HW230873   1.234   2.996   2.402  1.4629  1.9315  1.9639
 6413SOL     OW30874   3.887   0.384   1.727 -0.3156  0.1832 -0.3898
 6413SOL    HW130875   3.940   0.462   1.746  1.3240 -1.2436  0.9319
 6413SOL    HW230876   3.933   0.349   1.652  1.6533  0.8156  0.5154
 6414SOL     OW30877   2.325   3.584   3.290  0.3269  0.6388 -0.8291
 6414SOL    HW130878   2.346   3.549   3.376  1.1562  1.7409 -0.5832
 6414SOL    HW230879   2.392   3.652   3.281  0.4430  0.9910  2.7981
 6415SOL     OW30880   2.055   3.156   3.496 -0.1309  0.6590 -0.0709
 6415SOL    HW130881   1.985   3.200   3.448  1.8262  1.2639 -2.3621
 6415SOL    HW230882   2.036   3.066   3.469 -0.0992  1.2295 -1.9913
 6416SOL     OW30883   0.656   1.250   7.272 -0.0897  0.0766 -0.5484
 6416SOL    HW130884   0.600   1.219   7.342 -1.1382  0.4112 -1.2427
 6416SOL    HW230885   0.712   1.174   7.254  0.3681  0.6075 -1.4057
 6417SOL     OW30886   4.346   2.750   5.771  0.9508  0.0105  0.4321
 6417SOL    HW130887   4.382   2.679   5.719 -0.0413 -0.2678  0.1212
 6417SOL    HW230888   4.416   2.779   5.830  1.2326 -0.8592  0.5317
 6418SOL     OW30889   0.653   3.138   1.656 -0.1772 -0.0175 -0.1925
 6418SOL    HW130890   0.629   3.183   1.738  1.6340  0.0911  0.2741
 6418SOL    HW230891   0.745   3.119   1.676 -0.1307 -0.0044 -0.3977
 6419SOL     OW30892   4.576   2.948   4.031  0.0393 -0.4480  0.4019
 6419SOL    HW130893   4.622   2.996   4.100 -0.2559 -1.5057  1.3272
 6419SOL    HW230894   4.644   2.927   3.968  0.5530  2.2904  0.0468
 6420SOL     OW30895   4.595   0.961   1.977 -0.5476  0.4710  0.0604
 6420SOL    HW130896   4.512   0.934   1.938  0.0867  0.2608 -1.1455
 6420SOL    HW230897   4.624   0.873   1.998 -3.7409 -0.4559  0.6236
 6421SOL     OW30898   3.580   4.460   3.932  0.0276  0.0182  0.1396
 6421SOL    HW130899   3.516   4.531   3.936 -1.4019 -1.2354 -0.3454
 6421SOL    HW230900   3.653   4.493   3.985 -1.1628  0.6195  1.4097
 6422SOL     OW30901   2.936   2.755   2.237 -0.1041 -0.1016 -0.2168
 6422SOL    HW130902   2.972   2.762   2.326 -3.7362 -0.9966  1.3222
 6422SOL    HW230903   2.848   2.718   2.245  0.1965 -0.9770 -1.0239
 6423SOL     OW30904   2.368   0.769  12.147 -0.0099 -0.0437 -0.3005
 6423SOL    HW130905   2.296   0.813  12.192  2.1459  2.7436  0.4176
 6423SOL    HW230906   2.339   0.780  12.057 -1.4559  0.6745  0.2625
 6424SOL     OW30907   1.747   1.802  14.319 -0.3854 -0.3620  0.3980
 6424SOL    HW130908   1.839   1.778  14.316 -0.2711  0.0121  1.1159
 6424SOL    HW230909   1.703   1.730  14.273  2.1726 -0.3757 -2.0226
 6425SOL     OW30910   0.949   4.514   2.189  0.0281 -0.0444  0.1896
 6425SOL    HW130911   0.867   4.523   2.237 -0.2579  1.7914 -0.6796
 6425SOL    HW230912   0.935   4.589   2.132  2.2625 -0.2700 -0.6739
 6426SOL     OW30913   2.255   3.818   5.393  0.0524 -0.5893  0.4332
 6426SOL    HW130914   2.254   3.881   5.466 -0.4725  0.3645 -0.4032
 6426SOL    HW230915   2.287   3.882   5.330 -0.1720 -0.4282  0.4827
 6427SOL     OW30916   0.232   0.634   7.468 -0.3040  0.3550  0.8547
 6427SOL    HW130917   0.180   0.586   7.403 -0.8820  1.8440  0.2315
 6427SOL    HW230918   0.256   0.561   7.525 -0.9680  0.3185  1.0894
 6428SOL     OW30919   0.899   4.171  14.858  0.5432 -0.0794 -0.5001
 6428SOL    HW130920   0.870   4.184  14.949  0.2252 -2.0603 -0.3164
 6428SOL    HW230921   0.863   4.248  14.814 -1.8574 -1.1879 -0.4498
 6429SOL     OW30922   1.863   4.023   7.877 -0.5746  0.1441  0.1389
 6429SOL    HW130923   1.890   3.932   7.864  1.8096  0.7945  0.5372
 6429SOL    HW230924   1.939   4.075   7.904  1.3514 -2.0316 -1.0447
 6430SOL     OW30925   3.638   0.269   8.672  0.2016 -0.2043 -0.2072
 6430SOL    HW130926   3.704   0.334   8.649 -1.3684  0.4377 -2.8655
 6430SOL    HW230927   3.557   0.311   8.642 -0.7507  0.5156  3.3797
 6431SOL     OW30928   3.747   0.482   2.424 -0.1588 -0.0374 -0.4432
 6431SOL    HW130929   3.759   0.483   2.519  2.6034  1.1077 -0.8088
 6431SOL    HW230930   3.692   0.560   2.411  1.9519  1.3874 -0.7626
 6432SOL     OW30931   0.926   0.239   1.983 -0.6798  0.2630 -0.1014
 6432SOL    HW130932   0.884   0.310   2.032  0.4594 -1.3280  3.1144
 6432SOL    HW230933   1.013   0.279   1.979 -0.3778 -0.2062  1.8076
 6433SOL     OW30934   0.320   2.633  15.478 -0.5669  0.4186  0.5115
 6433SOL    HW130935   0.247   2.593  15.526 -1.4741  0.2786 -0.9909
 6433SOL    HW230936   0.393   2.643  15.540  0.7377 -3.9415 -0.3369
 6434SOL     OW30937   3.464   4.326   8.214  0.0142 -0.2474  0.0922
 6434SOL    HW130938   3.528   4.258   8.192  3.6380  2.8736  1.0130
 6434SOL    HW230939   3.524   4.381   8.264  1.4124 -1.4806 -0.2368
 6435SOL     OW30940   1.731   4.226  15.178 -0.0908  0.0022  0.0811
 6435SOL    HW130941   1.722   4.151  15.118 -0.6310  0.8488 -0.8921
 6435SOL    HW230942   1.802   4.202  15.236 -0.0193  0.3473  0.1359
 6436SOL     OW30943   1.364   4.122   8.013 -0.2891 -0.0195  0.2504
 6436SOL    HW130944   1.448   4.109   7.968 -0.7143 -0.2198 -0.4810
 6436SOL    HW230945   1.383   4.128   8.106 -0.9841 -1.9428  0.5071
 6437SOL     OW30946   4.265   0.841   2.295 -0.3701 -0.4646 -0.1643
 6437SOL    HW130947   4.196   0.789   2.255  1.9867 -1.5536 -2.7621
 6437SOL    HW230948   4.325   0.769   2.311 -2.2662 -2.1791 -0.7805
 6438SOL     OW30949   2.880   1.936  10.774 -0.7861  0.4126  0.2610
 6438SOL    HW130950   2.899   1.855  10.822 -2.1966  0.3574  0.7140
 6438SOL    HW230951   2.923   1.915  10.692  0.6832  0.7809  0.9229
 6439SOL     OW30952   0.334   0.534   1.920 -0.2458 -0.4209 -0.2471
 6439SOL    HW130953   0.371   0.524   2.008  0.6080 -1.1167 -0.6857
 6439SOL    HW230954   0.403   0.517   1.856  1.7395  0.7222  1.5844
 6440SOL     OW30955   4.499   4.224  11.446 -0.3454  0.5503  0.3683
 6440SOL    HW130956   4.460   4.236  11.359 -3.6547  3.4645  2.2891
 6440SOL    HW230957   4.585   4.190  11.421 -0.9784 -0.2689 -0.6700
 6441SOL     OW30958   4.683   3.568   6.876  0.0053 -0.5546  0.4085
 6441SOL    HW130959   4.714   3.484   6.909  0.5982 -0.8152 -0.7966
 6441SOL    HW230960   4.629   3.522   6.811  1.3481 -0.3118 -0.8735
 6442SOL     OW30961   2.599   1.811   4.190  0.0898  0.5313  0.2284
 6442SOL    HW130962   2.569   1.813   4.282 -0.5427  0.9356  0.0167
 6442SOL    HW230963   2.597   1.717   4.171 -2.5853  0.5766  0.2456
 6443SOL     OW30964   0.241   3.927   5.116  0.1592 -0.5790 -0.4831
 6443SOL    HW130965   0.155   3.948   5.152 -1.3113 -2.3812 -2.9196
 6443SOL    HW230966   0.211   3.868   5.046 -1.4138 -0.8269  0.4057
 6444SOL     OW30967   0.360   3.221  13.150  0.2163 -0.0062 -0.7186
 6444SOL    HW130968   0.333   3.171  13.073 -1.3914 -2.9635  1.7689
 6444SOL    HW230969   0.313   3.305  13.156  1.0650  0.2621  1.8158
 6445SOL     OW30970   3.545   0.896   8.453 -0.5058 -0.0978  0.5925
 6445SOL    HW130971   3.471   0.838   8.475 -0.5022 -0.0131  0.8298
 6445SOL    HW230972   3.562   0.871   8.363 -1.8761  0.8056  0.0822
 6446SOL     OW30973   2.796   1.015   9.706  0.5515 -0.7142 -0.2399
 6446SOL    HW130974   2.749   1.064   9.639  2.5416 -1.3586 -2.1068
 6446SOL    HW230975   2.864   1.077   9.731  0.5718 -0.5981 -0.5858
 6447SOL     OW30976   2.151   2.039   8.340  0.0555 -0.4485  0.4825
 6447SOL    HW130977   2.144   2.134   8.335 -1.9386 -0.4312  3.4716
 6447SOL    HW230978   2.088   2.018   8.272  1.9498  0.7733 -1.6392
 6448SOL     OW30979   2.881   2.795   7.694 -0.4758  0.8468 -0.1821
 6448SOL    HW130980   2.851   2.874   7.649  0.7783 -0.1236 -2.7724
 6448SOL    HW230981   2.941   2.764   7.625 -0.1843 -2.0866  1.3869
 6449SOL     OW30982   1.356   4.288   6.772 -0.2478 -0.3425 -0.0609
 6449SOL    HW130983   1.266   4.264   6.753  0.2394 -0.7435 -1.7907
 6449SOL    HW230984   1.399   4.203   6.768 -1.2099 -0.7214 -2.4230
 6450SOL     OW30985   3.980   3.662  13.374  0.7130  0.9117 -0.1235
 6450SOL    HW130986   3.920   3.666  13.448  1.6739 -3.6417  0.9093
 6450SOL    HW230987   3.929   3.701  13.304 -0.7003  0.8090  0.8453
 6451SOL     OW30988   0.224   3.790   6.424 -0.0469  0.2877 -0.0204
 6451SOL    HW130989   0.298   3.785   6.484 -0.7957 -0.6773  0.8244
 6451SOL    HW230990   0.160   3.839   6.476  0.2530  1.2389 -0.5518
 6452SOL     OW30991   0.251   2.833   2.124  0.4492  0.1437 -0.3836
 6452SOL    HW130992   0.204   2.916   2.122  0.5159  0.1635 -1.1675
 6452SOL    HW230993   0.328   2.860   2.175 -0.6490  3.1057 -0.3130
 6453SOL     OW30994   3.768   0.453   2.675 -0.1356  0.3811 -0.2492
 6453SOL    HW130995   3.812   0.385   2.728 -0.9798  1.0814  1.3444
 6453SOL    HW230996   3.803   0.534   2.711  0.5790  0.6418 -1.5320
 6454SOL     OW30997   0.650   1.092  14.720  0.1016  0.5379 -0.3313
 6454SOL    HW130998   0.715   1.069  14.653 -0.7849 -1.9494 -0.3690
 6454SOL    HW230999   0.648   1.011  14.771 -1.1607  1.6267  1.3660
 6455SOL     OW31000   0.256   0.576   0.003  0.3720  0.1661 -0.8381
 6455SOL    HW131001   0.287   0.607   0.088 -2.3858  0.6157 -0.0080
 6455SOL    HW231002   0.301   0.493  17.737 -1.1521 -0.7226 -0.4112
 6456SOL     OW31003   4.215   0.747   4.242  0.0721 -0.1090 -0.0094
 6456SOL    HW131004   4.146   0.682   4.232  0.4892 -0.5666  0.0678
 6456SOL    HW231005   4.168   0.808   4.299 -0.4412 -0.3680 -0.1568
 6457SOL     OW31006   2.127   4.084   9.464  0.9804  0.6119 -0.5837
 6457SOL    HW131007   2.066   4.092   9.537  2.4572  1.1891  0.5811
 6457SOL    HW231008   2.196   4.028   9.500  1.5840 -0.1832 -2.8998
 6458SOL     OW31009   4.419   0.109   5.517 -0.0403  0.3950 -0.0310
 6458SOL    HW131010   4.491   0.099   5.580 -0.2084  1.6850  0.3718
 6458SOL    HW231011   4.390   0.018   5.508 -1.4014  0.7943  0.3336
 6459SOL     OW31012   0.090   3.228   4.536 -0.2868  0.0522  0.4006
 6459SOL    HW131013   0.118   3.260   4.450 -0.3900  0.3130  0.4632
 6459SOL    HW231014   0.025   3.296   4.555 -0.0679  1.0133 -2.2362
 6460SOL     OW31015   4.689   1.453   3.768  0.4304  0.4122 -0.3971
 6460SOL    HW131016   4.691   1.425   3.859 -0.5387  1.9838  0.1047
 6460SOL    HW231017   4.694   1.371   3.719 -0.6567 -0.2862  0.6737
 6461SOL     OW31018   2.872   4.360  13.024  0.0495  0.4807 -0.4557
 6461SOL    HW131019   2.914   4.309  13.093  0.9546  0.3026 -1.1337
 6461SOL    HW231020   2.822   4.421  13.078  0.5295  0.5953 -0.1411
 6462SOL     OW31021   2.556   1.191  12.678 -0.2038  0.3941  0.1797
 6462SOL    HW131022   2.594   1.269  12.719 -1.3903  0.6945  0.7227
 6462SOL    HW231023   2.489   1.226  12.620 -0.4725 -2.6894 -1.3556
 6463SOL     OW31024   1.885   0.311   9.063 -0.2283 -0.0795  0.0058
 6463SOL    HW131025   1.856   0.396   9.031  2.9604  0.5410 -1.2730
 6463SOL    HW231026   1.849   0.305   9.152  1.0335 -0.5776  0.4953
 6464SOL     OW31027   3.191   4.174   4.287 -0.5298  0.1315 -0.0648
 6464SOL    HW131028   3.227   4.090   4.258  1.3392  1.1974 -0.8572
 6464SOL    HW231029   3.220   4.233   4.216 -1.4717  0.8582  0.1575
 6465SOL     OW31030   0.501   2.109   9.198  0.0402 -0.3748  0.1325
 6465SOL    HW131031   0.469   2.138   9.113 -2.3537  1.0537  1.5330
 6465SOL    HW231032   0.438   2.153   9.255  1.9417  1.0084  1.1946
 6466SOL     OW31033   4.411   4.407  11.649 -0.6362  0.1307  0.3276
 6466SOL    HW131034   4.408   4.337  11.583 -3.5826 -0.0399  0.6355
 6466SOL    HW231035   4.481   4.463  11.615  0.5242 -2.2856 -1.2659
 6467SOL     OW31036   4.652   3.806  14.206 -0.8159 -0.1804 -0.2693
 6467SOL    HW131037   4.715   3.876  14.221 -1.5536  0.8398 -1.9485
 6467SOL    HW231038   4.573   3.853  14.178 -2.2807 -1.5134  1.5690
 6468SOL     OW31039   3.841   4.417   1.103 -0.5706  0.7963 -0.4944
 6468SOL    HW131040   3.845   4.512   1.099 -0.6712  0.6743 -4.0522
 6468SOL    HW231041   3.747   4.406   1.121  0.0713  1.5196  3.1566
 6469SOL     OW31042   3.531   2.313   5.342 -0.0246  0.3049  0.4992
 6469SOL    HW131043   3.549   2.407   5.331 -0.0975  0.3613  0.8750
 6469SOL    HW231044   3.461   2.331   5.405  0.8375  0.2028  1.4910
 6470SOL     OW31045   1.586   0.060   2.471  0.0369  0.1249  0.3356
 6470SOL    HW131046   1.509   0.074   2.527  1.0258 -0.0779  1.7390
 6470SOL    HW231047   1.655   0.037   2.533  1.9579 -0.3455 -1.9984
 6471SOL     OW31048   0.991   1.242   5.025 -0.0737  0.5733  0.1923
 6471SOL    HW131049   0.921   1.178   5.013  0.7369  0.4057 -3.5692
 6471SOL    HW231050   0.936   1.316   5.052 -0.8174  0.3534 -0.7295
 6472SOL     OW31051   0.486   4.158   3.520  0.1890 -0.5364  0.0771
 6472SOL    HW131052   0.393   4.145   3.498 -0.6567  0.3512  3.0440
 6472SOL    HW231053   0.527   4.112   3.447 -0.7607  0.2553 -0.9621
 6473SOL     OW31054   2.547   0.922  12.805 -0.2833  0.3721 -0.4944
 6473SOL    HW131055   2.630   0.891  12.770 -0.2909  1.8918 -1.8692
 6473SOL    HW231056   2.539   1.015  12.786 -0.2568  0.5028  0.1367
 6474SOL     OW31057   3.621   4.423   3.003  0.4368 -0.2150  0.0573
 6474SOL    HW131058   3.669   4.476   3.067 -1.3782  0.9933  0.4321
 6474SOL    HW231059   3.661   4.456   2.923 -2.1486  0.5025 -0.9109
 6475SOL     OW31060   2.292   3.086   9.591 -0.0181  0.1732  0.4097
 6475SOL    HW131061   2.292   3.175   9.626 -0.5912  0.4925 -0.4131
 6475SOL    HW231062   2.351   3.092   9.516 -2.3416  1.0210 -1.3307
 6476SOL     OW31063   2.154   0.029   4.451 -0.2636  0.3873 -0.0026
 6476SOL    HW131064   2.163   4.703   4.523  0.3182  1.8106  1.1576
 6476SOL    HW231065   2.242   0.016   4.418 -0.0255  0.0063  0.7696
 6477SOL     OW31066   3.906   0.738   9.042  0.0013  0.5515 -0.1644
 6477SOL    HW131067   3.872   0.680   8.973  0.9332 -0.0625 -0.1146
 6477SOL    HW231068   3.844   0.810   9.033 -1.0229 -0.0677  2.0459
 6478SOL     OW31069   1.758   4.374   8.454  0.4946  0.1240  0.2832
 6478SOL    HW131070   1.779   4.410   8.541 -0.7895 -0.5622  0.8723
 6478SOL    HW231071   1.720   4.450   8.410  0.3799  0.1008  0.3419
 6479SOL     OW31072   0.627   0.279   9.417  0.0181 -0.4192 -0.0606
 6479SOL    HW131073   0.634   0.369   9.386 -0.4144  0.2529  1.7472
 6479SOL    HW231074   0.553   0.249   9.364 -1.6524 -0.4499  2.2707
 6480SOL     OW31075   2.947   0.132   5.494  0.0526 -0.5019 -0.0051
 6480SOL    HW131076   3.029   0.083   5.482 -0.7745 -1.6229 -1.0661
 6480SOL    HW231077   2.915   0.149   5.406  0.2107 -3.2071 -0.5809
 6481SOL     OW31078   3.146   2.047   8.857 -0.3822 -0.0289 -0.2536
 6481SOL    HW131079   3.090   1.970   8.842  0.8486 -0.8295 -0.6704
 6481SOL    HW231080   3.177   2.018   8.943  0.1646 -0.4320 -0.5905
 6482SOL     OW31081   2.777   2.942   8.711 -0.2111  0.1420 -0.1692
 6482SOL    HW131082   2.756   3.003   8.640  1.7786  1.4297  0.3199
 6482SOL    HW231083   2.782   2.862   8.660  0.6844  0.3516 -0.4027
 6483SOL     OW31084   3.819   4.234   2.464  0.6493  0.4314 -0.2954
 6483SOL    HW131085   3.740   4.180   2.457  0.4313  0.5669  1.1448
 6483SOL    HW231086   3.792   4.303   2.403 -1.9036 -0.8796 -0.6458
 6484SOL     OW31087   4.217   1.993   2.457 -0.3794 -0.8029  0.1460
 6484SOL    HW131088   4.141   1.950   2.419 -0.6942 -0.1534  0.0543
 6484SOL    HW231089   4.284   2.002   2.389  1.1233 -0.6072  1.6281
 6485SOL     OW31090   4.665   0.056   1.782 -0.5120  0.1238  0.3706
 6485SOL    HW131091   4.676   4.700   1.803 -1.8185  0.0588  0.7680
 6485SOL    HW231092   0.019   0.085   1.784  0.0260 -1.5725  0.0665
 6486SOL     OW31093   0.549   1.226  16.654 -0.1292  0.4625  0.4084
 6486SOL    HW131094   0.630   1.270  16.682  1.1657 -1.2513 -0.6727
 6486SOL    HW231095   0.490   1.301  16.645  1.3260  1.8027  1.8849
 6487SOL     OW31096   2.118   1.828  12.215 -0.4831  0.1142 -0.4828
 6487SOL    HW131097   2.166   1.756  12.256  1.7646  1.5001 -0.6896
 6487SOL    HW231098   2.027   1.801  12.230 -0.6466  0.3040 -1.1092
 6488SOL     OW31099   0.967   1.103   4.331  0.6166 -0.2609  0.1332
 6488SOL    HW131100   1.026   1.179   4.332 -0.1497  0.3198  0.9659
 6488SOL    HW231101   1.009   1.050   4.399  1.4385 -0.5055 -0.5606
 6489SOL     OW31102   0.501   3.547   5.095 -0.3397 -0.1284 -0.1983
 6489SOL    HW131103   0.448   3.469   5.083  0.6354 -0.9139  0.5823
 6489SOL    HW231104   0.466   3.595   5.020  2.2189  1.6500 -0.2577
 6490SOL     OW31105   1.557   2.269   0.691 -0.1448  0.4983  0.0125
 6490SOL    HW131106   1.612   2.212   0.744 -0.1457 -0.2815 -0.8244
 6490SOL    HW231107   1.487   2.204   0.686  1.0726 -0.8994  1.3377
 6491SOL     OW31108   4.724   0.147   0.254  0.1490  0.4332 -0.2985
 6491SOL    HW131109   4.701   0.070   0.202 -0.9769  1.6191 -1.5729
 6491SOL    HW231110   4.711   0.213   0.186 -1.0616 -1.4978 -1.9484
 6492SOL     OW31111   0.660   4.049   3.716 -1.0317 -0.0193 -0.4445
 6492SOL    HW131112   0.613   3.969   3.741  3.5948 -1.9951  1.9202
 6492SOL    HW231113   0.597   4.079   3.651  0.7591  0.6388 -1.8579
 6493SOL     OW31114   0.997   1.347   5.947 -0.3255  0.1220 -0.0967
 6493SOL    HW131115   0.939   1.314   5.879  0.4759 -1.7001  0.0837
 6493SOL    HW231116   0.955   1.424   5.983 -0.2859 -1.1857  2.7565
 6494SOL     OW31117   3.982   2.985   7.158 -0.6637  0.3673 -0.9264
 6494SOL    HW131118   4.009   2.933   7.083  2.1431  2.2421 -1.2425
 6494SOL    HW231119   4.024   3.065   7.126 -0.9485  0.8906 -0.0088
 6495SOL     OW31120   2.919   3.539   7.280  0.0894 -0.6977  0.5704
 6495SOL    HW131121   2.896   3.530   7.187 -0.6088 -1.0057  0.7726
 6495SOL    HW231122   3.014   3.529   7.291  0.5604  3.2111 -0.0769
 6496SOL     OW31123   4.672   0.291   6.475 -0.1422  0.4067  0.7757
 6496SOL    HW131124   0.013   0.263   6.522 -0.1232  1.3483  1.3047
 6496SOL    HW231125   4.622   0.209   6.476 -0.3982  0.5445 -2.2992
 6497SOL     OW31126   0.187   4.494   2.897 -0.4672  0.2752 -0.0639
 6497SOL    HW131127   0.274   4.470   2.867 -1.0967 -0.7590 -1.0525
 6497SOL    HW231128   0.135   4.415   2.884  0.9241 -0.6583  0.0865
 6498SOL     OW31129   0.322   0.345  10.640  0.3839  0.0156  0.4890
 6498SOL    HW131130   0.332   0.283  10.712  1.6835 -2.2988 -1.6871
 6498SOL    HW231131   0.320   0.433  10.680 -1.0283 -0.4507  1.4509
 6499SOL     OW31132   0.340   2.900  10.179 -0.3890 -0.0481 -0.6997
 6499SOL    HW131133   0.275   2.886  10.110  0.3922 -0.0065 -1.4381
 6499SOL    HW231134   0.343   2.993  10.200 -0.5350 -0.0852 -0.5121
 6500SOL     OW31135   2.134   1.126  14.993  0.2582 -0.4290 -0.1209
 6500SOL    HW131136   2.160   1.114  15.085  0.7397 -1.1283 -0.3513
 6500SOL    HW231137   2.186   1.204  14.972  0.5109 -0.0911  1.7002
 6501SOL     OW31138   4.212   1.118   2.895  0.6885  0.3869  0.0834
 6501SOL    HW131139   4.207   1.146   2.986  0.0341  1.5914 -0.3177
 6501SOL    HW231140   4.198   1.203   2.853  0.0208  0.0879 -0.3067
 6502SOL     OW31141   2.849   3.847   7.908 -0.0866 -0.0574  0.1913
 6502SOL    HW131142   2.922   3.884   7.957 -0.0370 -1.1144  0.9375
 6502SOL    HW231143   2.869   3.754   7.918 -4.5059 -0.9638  0.8830
 6503SOL     OW31144   0.326   3.345   7.382 -0.1205 -0.0656  0.5898
 6503SOL    HW131145   0.238   3.315   7.405 -0.9988  1.1571 -1.2437
 6503SOL    HW231146   0.375   3.300   7.450  1.0770  2.4063  1.3536
 6504SOL     OW31147   0.316   4.063   7.986  0.1131  0.2912  0.4536
 6504SOL    HW131148   0.323   4.079   8.080 -1.4774 -0.3801  0.6966
 6504SOL    HW231149   0.407   4.075   7.961 -0.3609  0.2637 -1.2887
 6505SOL     OW31150   2.907   2.236   2.215 -0.4244 -0.0243 -0.2931
 6505SOL    HW131151   2.923   2.321   2.175 -0.5315  0.9691  1.7846
 6505SOL    HW231152   2.991   2.191   2.211  0.1204  0.9134  0.6275
 6506SOL     OW31153   0.802   0.915   3.005 -0.2362 -0.4090 -0.3889
 6506SOL    HW131154   0.727   0.864   3.035 -0.6829 -0.1468 -1.0581
 6506SOL    HW231155   0.774   1.001   3.038  0.2598  0.2018 -1.5633
 6507SOL     OW31156   4.668   4.685   0.021  0.3266  0.4714 -0.1523
 6507SOL    HW131157   4.714   0.020  17.725  0.7677  1.1143  1.4432
 6507SOL    HW231158   0.000   4.619   0.029  0.1679  0.1989 -0.9237
 6508SOL     OW31159   1.811   2.679   7.620 -0.2584 -0.5759 -0.1328
 6508SOL    HW131160   1.893   2.711   7.582  0.8718 -0.8032  2.0935
 6508SOL    HW231161   1.827   2.719   7.706  0.0873 -0.0072 -0.4535
 6509SOL     OW31162   3.431   3.994   1.365  0.0361  0.2937 -0.0708
 6509SOL    HW131163   3.399   4.082   1.383 -1.2428 -0.1198 -0.2711
 6509SOL    HW231164   3.407   3.988   1.272 -0.4149  2.0183 -0.0511
 6510SOL     OW31165   4.048   0.439   5.749 -0.3235 -0.5636  0.5800
 6510SOL    HW131166   4.108   0.510   5.769 -0.2358 -0.2865 -0.7294
 6510SOL    HW231167   4.004   0.438   5.834  3.0352 -3.8177  2.2882
 6511SOL     OW31168   1.987   1.725   6.651 -0.4987  0.3200 -0.0668
 6511SOL    HW131169   1.954   1.684   6.572 -0.7466  0.3146  0.0412
 6511SOL    HW231170   2.083   1.719   6.646 -0.4987 -0.0205  0.2963
 6512SOL     OW31171   4.381   3.955   6.453 -0.1692 -0.1568  0.2189
 6512SOL    HW131172   4.374   3.985   6.363 -0.2072  3.1922  1.3131
 6512SOL    HW231173   4.332   3.873   6.449 -1.6420  0.6976  0.6977
 6513SOL     OW31174   1.278   2.082   9.440 -0.3978  0.0002  0.3288
 6513SOL    HW131175   1.276   2.057   9.532  1.5448  1.8360  0.8801
 6513SOL    HW231176   1.236   2.011   9.392  2.8531 -1.1681 -0.8418
 6514SOL     OW31177   2.795   4.300   5.677  0.1561  0.0506 -0.0465
 6514SOL    HW131178   2.841   4.217   5.691 -1.9467 -1.0263  0.3879
 6514SOL    HW231179   2.805   4.299   5.582 -1.4200 -0.6242 -0.2002
 6515SOL     OW31180   1.102   1.101   3.883  0.3420 -0.1244  0.2078
 6515SOL    HW131181   1.112   1.191   3.913 -1.0117 -0.9287  3.0608
 6515SOL    HW231182   1.020   1.077   3.927  0.4609  1.0991  1.1031
 6516SOL     OW31183   2.575   0.330   6.503  0.1618  0.2310  0.2639
 6516SOL    HW131184   2.638   0.329   6.431  0.9649 -1.0506  0.9658
 6516SOL    HW231185   2.548   0.241   6.527 -0.2525  0.4870  0.7498
 6517SOL     OW31186   2.604   2.580  16.269  0.1462  0.3370 -0.1626
 6517SOL    HW131187   2.537   2.603  16.334 -2.1013 -0.7144 -2.0995
 6517SOL    HW231188   2.667   2.651  16.260  0.2447  0.3796  0.8955
 6518SOL     OW31189   3.345   1.134  12.000  0.1227 -0.3262 -0.5291
 6518SOL    HW131190   3.371   1.111  12.089  0.4645 -1.0237 -0.8133
 6518SOL    HW231191   3.306   1.050  11.979  0.2312 -0.9134  1.6474
 6519SOL     OW31192   0.377   0.266  16.543  0.1505 -0.2590 -0.2425
 6519SOL    HW131193   0.470   0.280  16.562 -0.2158 -0.4438  1.6648
 6519SOL    HW231194   0.341   0.351  16.566 -1.1268 -0.9940  0.4915
 6520SOL     OW31195   4.162   0.924   9.676  0.3981 -0.4970 -0.4433
 6520SOL    HW131196   4.118   0.882   9.602 -1.5298  3.0503 -1.3003
 6520SOL    HW231197   4.209   0.996   9.633  1.4792 -0.0322  1.4892
 6521SOL     OW31198   0.466   1.845   3.624  0.7581  0.3153 -0.6672
 6521SOL    HW131199   0.413   1.827   3.547  1.8403  2.1339 -1.8468
 6521SOL    HW231200   0.407   1.906   3.667 -0.4842 -0.2724 -1.5550
 6522SOL     OW31201   1.619   1.892  14.543  0.0263  0.4599 -0.1230
 6522SOL    HW131202   1.693   1.928  14.592 -1.5551  1.9276  1.1773
 6522SOL    HW231203   1.663   1.842  14.474 -2.0395 -0.9884 -0.3996
 6523SOL     OW31204   3.253   3.528   4.797 -0.3125 -0.0863  0.5303
 6523SOL    HW131205   3.258   3.493   4.708 -0.2811  0.3536  0.3579
 6523SOL    HW231206   3.166   3.505   4.828 -0.0948  1.8241  2.5736
 6524SOL     OW31207   4.150   1.391   7.714  0.2207  0.2222 -0.5681
 6524SOL    HW131208   4.069   1.382   7.663 -0.5924 -1.1189  0.9598
 6524SOL    HW231209   4.188   1.466   7.669  1.7072  1.5756  2.9406
 6525SOL     OW31210   3.757   2.719   5.011 -0.3485  0.2584 -0.2134
 6525SOL    HW131211   3.762   2.764   5.096 -1.4679  2.1979 -1.1684
 6525SOL    HW231212   3.773   2.782   4.941 -0.2089 -0.5505 -0.9068
 6526SOL     OW31213   3.939   4.309   8.419  0.2616  0.1462  0.6158
 6526SOL    HW131214   4.021   4.275   8.455 -0.5655 -2.1927  0.2664
 6526SOL    HW231215   3.883   4.267   8.485 -1.4750 -0.6117 -1.3543
 6527SOL     OW31216   0.325   0.776  15.484 -0.0994  0.0953  0.0122
 6527SOL    HW131217   0.342   0.849  15.543  2.0875 -0.6609  0.2889
 6527SOL    HW231218   0.236   0.752  15.509 -1.1449  1.9763 -1.8264
 6528SOL     OW31219   4.613   3.290   5.627  0.1593 -0.4090 -0.1072
 6528SOL    HW131220   4.633   3.289   5.533 -0.2211  0.8003 -0.2018
 6528SOL    HW231221   4.518   3.284   5.626  0.1674 -0.4235 -3.7591
 6529SOL     OW31222   1.292   1.617  16.463  0.2296  0.2259 -0.5089
 6529SOL    HW131223   1.272   1.552  16.396 -0.8579 -0.5465  0.5652
 6529SOL    HW231224   1.267   1.694  16.411 -1.2584  2.1416  3.0306
 6530SOL     OW31225   0.492   0.737   1.723 -0.0915 -0.3514  0.1712
 6530SOL    HW131226   0.528   0.826   1.727  0.5129 -0.4865 -2.3388
 6530SOL    HW231227   0.566   0.681   1.702 -2.8046 -3.4086 -1.1889
 6531SOL     OW31228   0.741   4.222   2.956 -0.7206 -0.5272 -0.6421
 6531SOL    HW131229   0.782   4.142   2.922 -0.6818  0.2466 -2.3730
 6531SOL    HW231230   0.705   4.188   3.038  1.9921 -1.9294 -0.0280
 6532SOL     OW31231   3.134   3.842  10.642 -0.1309  0.4549  0.0058
 6532SOL    HW131232   3.096   3.870  10.725 -1.6306 -0.2076 -0.4710
 6532SOL    HW231233   3.228   3.835  10.660 -0.4347 -0.6683  1.1426
 6533SOL     OW31234   3.681   0.887   4.101 -0.4024 -0.0664  0.3582
 6533SOL    HW131235   3.621   0.826   4.059 -0.4284  0.5111 -0.4457
 6533SOL    HW231236   3.725   0.931   4.028 -0.5224 -0.2201  0.1934
 6534SOL     OW31237   2.152   0.000   6.764  0.7287  0.1590  0.3750
 6534SOL    HW131238   2.236   0.038   6.792  1.7964 -1.2031 -1.0236
 6534SOL    HW231239   2.179   4.646   6.764  0.0583 -0.0428 -0.2952
 6535SOL     OW31240   1.946   2.194  14.858 -0.2397  0.0077  0.1485
 6535SOL    HW131241   1.909   2.280  14.876  0.8351  0.7599 -1.2933
 6535SOL    HW231242   1.998   2.223  14.783 -0.2281 -1.2401 -0.3373
 6536SOL     OW31243   2.005   1.381   6.588 -0.1138  0.4000  0.0284
 6536SOL    HW131244   1.960   1.371   6.503  1.1434  0.0341 -0.5910
 6536SOL    HW231245   2.020   1.474   6.606  0.1684  0.6224 -1.3574
 6537SOL     OW31246   2.190   0.352  16.697  0.2313 -0.3668  0.8999
 6537SOL    HW131247   2.240   0.432  16.710  1.5934 -1.1618  0.5160
 6537SOL    HW231248   2.157   0.352  16.607  0.4279  0.0205  0.8279
 6538SOL     OW31249   3.684   3.731  12.934 -0.8819  0.5230  0.4950
 6538SOL    HW131250   3.615   3.797  12.926 -0.5286  1.0384  1.6492
 6538SOL    HW231251   3.621   3.660  12.937 -1.2393  0.6851 -4.2736
 6539SOL     OW31252   3.372   0.211  14.353  0.3169  0.1566 -0.4654
 6539SOL    HW131253   3.430   0.240  14.423 -1.5400 -1.2314  1.6528
 6539SOL    HW231254   3.392   0.286  14.297 -2.0670  0.6281 -0.6675
 6540SOL     OW31255   3.958   1.875   7.155 -0.1989 -0.1058  0.3761
 6540SOL    HW131256   3.931   1.919   7.074  1.1290  0.8248  0.4360
 6540SOL    HW231257   3.940   1.786   7.123  1.7791 -0.7275  0.9482
 6541SOL     OW31258   3.602   1.702   4.311  0.4515 -0.3240 -0.2751
 6541SOL    HW131259   3.664   1.763   4.351  0.2437 -0.6547  0.5589
 6541SOL    HW231260   3.606   1.732   4.221  1.3629  0.7714  0.1364
 6542SOL     OW31261   1.896   1.547   5.501 -0.2330 -0.2706  0.3202
 6542SOL    HW131262   1.991   1.545   5.511 -0.1624 -0.5727 -0.4380
 6542SOL    HW231263   1.868   1.510   5.585 -0.1694  0.7086  0.7657
 6543SOL     OW31264   1.320   0.913   2.272  0.5553  0.1580  0.5076
 6543SOL    HW131265   1.231   0.926   2.242 -0.0651  0.6740  2.5490
 6543SOL    HW231266   1.359   0.898   2.186 -1.1334  0.4878 -0.3078
 6544SOL     OW31267   1.298   1.430  14.793 -0.5727 -0.4230 -0.2069
 6544SOL    HW131268   1.347   1.414  14.874  1.3660  0.8888 -1.1226
 6544SOL    HW231269   1.209   1.422  14.827  0.3134 -1.3234  1.9229
 6545SOL     OW31270   1.883   3.214  12.622 -0.2160 -0.2213 -0.1764
 6545SOL    HW131271   1.911   3.196  12.532 -0.8454 -2.8439  0.1647
 6545SOL    HW231272   1.968   3.215  12.666  0.7061 -0.1886 -1.9566
 6546SOL     OW31273   2.504   2.793   7.335  0.0458 -0.3339  0.2434
 6546SOL    HW131274   2.529   2.874   7.290 -1.6856 -0.5167 -1.0210
 6546SOL    HW231275   2.541   2.806   7.423 -0.0568 -2.8206  0.6600
 6547SOL     OW31276   0.971   0.386   2.489 -0.6656  0.0239 -0.3198
 6547SOL    HW131277   0.936   0.353   2.571  0.2606 -0.7663 -0.2438
 6547SOL    HW231278   1.065   0.388   2.511 -0.7486 -1.2282  0.1465
 6548SOL     OW31279   4.228   2.421  17.660  0.6955 -0.7463 -0.0662
 6548SOL    HW131280   4.215   2.413   0.008 -0.7023 -2.8755 -0.4435
 6548SOL    HW231281   4.136   2.443  17.645  1.5433  2.2330 -0.8859
 6549SOL     OW31282   3.391   1.678   1.021 -0.5962 -0.9863 -0.2889
 6549SOL    HW131283   3.360   1.690   0.932 -0.2655  0.2205 -0.2398
 6549SOL    HW231284   3.427   1.592   1.001  0.1440 -1.3609  2.6961
 6550SOL     OW31285   0.528   4.602   2.976 -0.5985 -0.0893  0.3920
 6550SOL    HW131286   0.623   4.595   2.975 -0.3749  2.8553  2.0573
 6550SOL    HW231287   0.506   4.549   2.899  0.0772  0.6702 -0.3293
 6551SOL     OW31288   4.731   2.763   5.627 -0.2266  0.0329  0.1349
 6551SOL    HW131289   0.044   2.831   5.671 -0.4056  0.2046  0.0733
 6551SOL    HW231290   4.689   2.719   5.702 -0.3380 -3.6454 -2.0398
 6552SOL     OW31291   4.015   1.170  10.019  0.2260  0.5201 -0.1489
 6552SOL    HW131292   3.977   1.101   9.964 -3.0732  2.1621  0.0948
 6552SOL    HW231293   4.062   1.113  10.080 -1.1990 -0.9649 -0.4420
 6553SOL     OW31294   2.282   0.381   3.548  0.0022  0.0706 -0.0910
 6553SOL    HW131295   2.257   0.312   3.487  0.1828  0.1541 -0.2612
 6553SOL    HW231296   2.372   0.353   3.558 -0.0021  0.3993  0.9320
 6554SOL     OW31297   2.374   4.357  10.629  0.2303  0.5010 -0.1972
 6554SOL    HW131298   2.401   4.265  10.623  0.3765  0.7568 -3.1930
 6554SOL    HW231299   2.399   4.391  10.543  1.3301  0.9628  0.3006
 6555SOL     OW31300   1.871   0.145   7.278 -0.1410  0.0035 -0.1452
 6555SOL    HW131301   1.818   0.188   7.345  2.0068  0.3508  1.3253
 6555SOL    HW231302   1.909   0.218   7.228  0.2596 -1.1119 -1.4698
 6556SOL     OW31303   4.257   0.238   7.529 -0.0598 -0.7804  0.1571
 6556SOL    HW131304   4.302   0.176   7.586  1.8000 -0.2792 -0.7394
 6556SOL    HW231305   4.285   0.319   7.572 -0.4970 -1.2039  1.2318
 6557SOL     OW31306   0.609   1.858  11.066  0.1547 -0.0707  0.3307
 6557SOL    HW131307   0.525   1.849  11.110 -0.7325 -0.1398 -1.4086
 6557SOL    HW231308   0.667   1.894  11.134 -0.6559  0.4730  0.7252
 6558SOL     OW31309   1.570   0.632   4.934  0.3857  0.0692 -0.1991
 6558SOL    HW131310   1.622   0.597   5.006  1.1079  0.8917 -0.3188
 6558SOL    HW231311   1.626   0.703   4.903  1.9207 -0.7863  0.6092
 6559SOL     OW31312   2.642   3.867   9.527  0.3804  0.0812 -0.3082
 6559SOL    HW131313   2.608   3.832   9.610 -3.8233  1.1219 -1.5750
 6559SOL    HW231314   2.694   3.942   9.555  0.7143 -0.6893  1.1824
 6560SOL     OW31315   2.129   0.303   2.875 -0.3387 -0.0131  0.5226
 6560SOL    HW131316   2.048   0.268   2.912  0.4176  0.4513  2.6086
 6560SOL    HW231317   2.135   0.388   2.918 -0.5069  0.4311 -0.3287
 6561SOL     OW31318   3.509   1.969   6.226  0.1179 -0.3386  0.1032
 6561SOL    HW131319   3.505   2.015   6.310 -0.5847 -0.7050  0.2703
 6561SOL    HW231320   3.603   1.979   6.215  0.0875  2.0546  1.8590
 6562SOL     OW31321   3.711   3.098   7.901 -0.2740  0.3670 -0.1037
 6562SOL    HW131322   3.786   3.062   7.854  1.4773  1.5935  1.7852
 6562SOL    HW231323   3.636   3.098   7.841  0.7516  0.2568 -1.3891
 6563SOL     OW31324   3.665   2.324  17.285 -0.3515  0.5981  0.3879
 6563SOL    HW131325   3.702   2.248  17.240 -2.9318 -0.6747  0.4157
 6563SOL    HW231326   3.618   2.372  17.217 -0.2472 -1.0380 -0.8640
 6564SOL     OW31327   2.853   1.550  14.263 -0.5343  0.6093  0.4960
 6564SOL    HW131328   2.917   1.482  14.242  0.6066  2.0133 -0.5911
 6564SOL    HW231329   2.909   1.627  14.270  0.5075 -0.3301  2.3601
 6565SOL     OW31330   0.682   4.456   2.309  0.7090 -0.0077  0.8903
 6565SOL    HW131331   0.701   4.363   2.319  0.5537 -0.1829 -0.5586
 6565SOL    HW231332   0.599   4.462   2.357  0.6691  2.3481  0.5382
 6566SOL     OW31333   1.947   4.421   3.723 -0.1625  0.3668 -0.3795
 6566SOL    HW131334   1.951   4.363   3.799  0.2110  1.1539  0.2015
 6566SOL    HW231335   1.984   4.503   3.755  1.3600  0.0938 -1.4563
 6567SOL     OW31336   3.767   4.505   2.789  0.0466  0.1411  0.1131
 6567SOL    HW131337   3.821   4.560   2.846  0.6004 -0.1130 -0.1683
 6567SOL    HW231338   3.683   4.550   2.780 -0.2357 -0.2598  0.6769
 6568SOL     OW31339   0.343   2.369   7.847  0.3446 -0.2604 -0.4725
 6568SOL    HW131340   0.394   2.449   7.831  1.3355 -0.8858 -0.4897
 6568SOL    HW231341   0.256   2.408   7.837  0.0698 -1.1166 -1.3899
 6569SOL     OW31342   4.716   3.015   1.415 -0.0102  0.1011  0.8593
 6569SOL    HW131343   4.666   2.950   1.366  0.4127 -0.2303  0.8669
 6569SOL    HW231344   4.642   3.054   1.461  1.0283  1.7635  1.1378
 6570SOL     OW31345   3.242   4.585   9.021  0.0900 -0.2215  0.0769
 6570SOL    HW131346   3.290   4.515   9.064  0.2198  0.5786  1.2330
 6570SOL    HW231347   3.153   4.565   9.053 -0.2311 -0.4712 -0.9757
 6571SOL     OW31348   4.688   2.414   2.740 -0.2858  0.0410 -0.6592
 6571SOL    HW131349   4.650   2.468   2.809  1.0921  0.8080 -0.4787
 6571SOL    HW231350   4.618   2.413   2.675 -1.1465  0.3401  0.2581
 6572SOL     OW31351   3.803   2.782  15.194 -0.5256  0.2158 -0.4003
 6572SOL    HW131352   3.863   2.853  15.218  0.4640 -0.1677 -1.7038
 6572SOL    HW231353   3.840   2.720  15.256 -0.0989  0.3118 -0.5532
 6573SOL     OW31354   4.119   4.171   3.930 -0.0728 -0.1287 -0.3122
 6573SOL    HW131355   4.118   4.245   3.991  3.2837 -0.5219  0.2206
 6573SOL    HW231356   4.212   4.162   3.909  0.1021  1.2246 -0.0944
 6574SOL     OW31357   4.478   0.159   2.022  0.5860  0.3415 -0.2582
 6574SOL    HW131358   4.500   0.137   2.113 -3.2242 -0.0935  0.5363
 6574SOL    HW231359   4.563   0.169   1.979  0.8692  1.9148  0.6694
 6575SOL     OW31360   0.141   2.340  15.946  0.1779 -0.1978 -0.4455
 6575SOL    HW131361   0.113   2.431  15.937  0.5517 -0.1799 -1.4903
 6575SOL    HW231362   0.178   2.332  16.033  1.4560  1.1565 -0.8624
 6576SOL     OW31363   1.738   2.514   3.570 -0.3169 -0.2643  0.1316
 6576SOL    HW131364   1.759   2.421   3.559  4.6045  0.9850 -1.1054
 6576SOL    HW231365   1.713   2.532   3.480 -0.5784  1.8790  0.6444
 6577SOL     OW31366   2.568   1.884  11.259 -0.7662  0.3061 -0.6589
 6577SOL    HW131367   2.633   1.917  11.197 -2.1483  2.3979 -1.0014
 6577SOL    HW231368   2.491   1.927  11.221 -1.6269 -0.5583  0.0932
 6578SOL     OW31369   0.441   3.478   4.211  0.5298 -0.2924 -0.0022
 6578SOL    HW131370   0.490   3.551   4.174 -2.0079  0.6224 -1.5279
 6578SOL    HW231371   0.507   3.457   4.278 -1.5133  1.8206  2.6680
 6579SOL     OW31372   2.942   2.921   7.934  0.4547 -0.8062  0.1709
 6579SOL    HW131373   2.916   2.863   7.862 -0.0047 -0.8013  0.3302
 6579SOL    HW231374   2.861   2.971   7.935 -0.0129 -1.5668  1.8297
 6580SOL     OW31375   4.549   2.168   4.443  0.6888  0.6350 -0.3579
 6580SOL    HW131376   4.568   2.214   4.525  2.2883  0.3599 -0.5730
 6580SOL    HW231377   4.636   2.132   4.427  0.0736 -0.8917 -0.2443
 6581SOL     OW31378   3.859   4.070   1.568  0.2174  0.2878 -0.0972
 6581SOL    HW131379   3.778   4.022   1.549  1.3845 -1.3789 -0.8844
 6581SOL    HW231380   3.834   4.145   1.621  1.9524  1.7622 -1.3814
 6582SOL     OW31381   4.242   2.892   4.567  0.3419 -0.2084  0.2597
 6582SOL    HW131382   4.303   2.924   4.500 -0.0165 -2.0269 -0.9529
 6582SOL    HW231383   4.277   2.943   4.639 -0.0880  1.7078 -0.8973
 6583SOL     OW31384   0.749   0.163  11.919  0.2981  0.6597  0.2553
 6583SOL    HW131385   0.659   0.192  11.935 -0.1720 -0.4627 -0.2915
 6583SOL    HW231386   0.744   0.080  11.968 -0.2304  0.2084 -0.5613
 6584SOL     OW31387   1.851   4.302  13.522 -0.5233  0.0335 -0.1248
 6584SOL    HW131388   1.849   4.354  13.441  0.3293 -2.2230 -1.5804
 6584SOL    HW231389   1.938   4.330  13.549 -0.7322  0.7170 -0.1393
 6585SOL     OW31390   4.550   2.006   9.890  0.1939 -0.5629  0.2167
 6585SOL    HW131391   4.634   1.969   9.866  0.5673  1.1419 -1.0978
 6585SOL    HW231392   4.498   1.974   9.816 -1.2053 -0.2014  1.0261
 6586SOL     OW31393   3.366   3.440   8.312  0.4556 -0.2689 -0.5206
 6586SOL    HW131394   3.309   3.517   8.313 -0.2254 -0.7652 -0.9681
 6586SOL    HW231395   3.449   3.469   8.275  1.2055  1.2819  2.3965
 6587SOL     OW31396   0.742   1.755   4.904  0.1125  0.1812  0.0023
 6587SOL    HW131397   0.773   1.802   4.981  0.5539  0.0421 -0.0909
 6587SOL    HW231398   0.821   1.749   4.850 -0.5062  0.6342 -0.9616
 6588SOL     OW31399   4.622   4.608   6.355  0.5963  0.9396 -0.4147
 6588SOL    HW131400   4.684   4.677   6.334 -1.0697  2.4847 -0.2390
 6588SOL    HW231401   4.572   4.648   6.426  0.6388 -0.2188  0.2805
 6589SOL     OW31402   1.999   1.385   8.052  0.0169 -0.0917  0.0611
 6589SOL    HW131403   2.041   1.433   8.123  1.2509  0.8004 -1.2492
 6589SOL    HW231404   2.059   1.412   7.982 -0.7935  3.1309  0.6085
 6590SOL     OW31405   1.326   4.477   3.153  0.3954 -0.7693 -0.2147
 6590SOL    HW131406   1.382   4.462   3.229 -0.5033 -1.3812  0.3242
 6590SOL    HW231407   1.361   4.561   3.121 -2.8531  0.6894  0.0474
 6591SOL     OW31408   3.862   2.772   8.469  0.3902 -0.4289  0.2431
 6591SOL    HW131409   3.784   2.775   8.526 -0.1191 -0.1767 -0.4668
 6591SOL    HW231410   3.844   2.689   8.424  0.6288 -0.8614  0.9416
 6592SOL     OW31411   2.261   2.915   7.581  0.1523  1.0816 -0.8625
 6592SOL    HW131412   2.333   2.966   7.544 -1.0968  0.4919 -4.1076
 6592SOL    HW231413   2.224   2.981   7.640 -0.9229  1.1806 -1.6364
 6593SOL     OW31414   2.558   0.304   8.627  0.6291 -0.1794 -0.1339
 6593SOL    HW131415   2.516   0.379   8.586  1.5365  1.2360  1.5044
 6593SOL    HW231416   2.489   0.274   8.687 -0.3738 -0.2378 -1.3302
 6594SOL     OW31417   2.576   4.481   7.994 -0.4935  0.7281  0.3832
 6594SOL    HW131418   2.551   4.389   8.000 -1.1288  0.8690 -0.1170
 6594SOL    HW231419   2.653   4.483   8.052  0.4536 -2.9574 -0.7407
 6595SOL     OW31420   3.797   3.403  15.803 -0.4745  0.3205 -0.2201
 6595SOL    HW131421   3.804   3.463  15.729  0.3891 -2.2960 -2.2741
 6595SOL    HW231422   3.845   3.447  15.873 -1.1990  0.0811  0.4279
 6596SOL     OW31423   3.764   0.275  13.240  0.0203  0.0984 -0.3276
 6596SOL    HW131424   3.686   0.222  13.221 -0.0220 -0.2832  0.8917
 6596SOL    HW231425   3.730   0.364  13.242 -1.6399 -0.4927 -1.9392
 6597SOL     OW31426   3.190   2.329  17.586  0.0228 -0.2377 -0.2345
 6597SOL    HW131427   3.145   2.413  17.591 -1.2219 -0.8704 -0.6950
 6597SOL    HW231428   3.267   2.347  17.532  0.7303 -1.9797  0.1930
 6598SOL     OW31429   3.105   3.663   9.414  0.2358 -0.3038  0.3456
 6598SOL    HW131430   3.085   3.598   9.482  2.5984 -0.7407  0.6039
 6598SOL    HW231431   3.078   3.617   9.335  1.1402 -1.5476  0.7632
 6599SOL     OW31432   2.041   1.672   3.162  0.4591 -0.5898  0.4181
 6599SOL    HW131433   1.982   1.688   3.088 -0.8508 -1.3427  1.3067
 6599SOL    HW231434   1.980   1.642   3.229 -0.1025 -1.2873 -0.4113
 6600SOL     OW31435   3.125   4.555  14.658  0.2938 -0.2984 -0.2463
 6600SOL    HW131436   3.085   4.575  14.742 -0.3065  0.9666 -0.8226
 6600SOL    HW231437   3.069   4.595  14.591  0.9546  0.3640 -0.4110
 6601SOL     OW31438   0.801   0.317   8.385 -0.2358  0.2881  0.5108
 6601SOL    HW131439   0.897   0.316   8.392 -0.2449  0.7200  0.7014
 6601SOL    HW231440   0.783   0.336   8.293 -0.8433 -3.5312 -0.1551
 6602SOL     OW31441   3.302   4.061   1.990 -0.4275 -0.5604 -0.4898
 6602SOL    HW131442   3.379   4.116   2.002 -1.0255 -0.2818  1.9080
 6602SOL    HW231443   3.227   4.114   2.016 -0.5297 -1.0176  0.1353
 6603SOL     OW31444   1.979   3.766  17.452 -0.1000 -0.7644 -0.0063
 6603SOL    HW131445   1.998   3.679  17.488  0.0947 -0.8108 -0.2145
 6603SOL    HW231446   1.945   3.806  17.531 -0.3772 -0.2469 -0.3902
 6604SOL     OW31447   3.686   1.378   5.203  0.3597  0.4508 -0.2281
 6604SOL    HW131448   3.766   1.339   5.168 -0.2195  0.3515 -1.4236
 6604SOL    HW231449   3.631   1.301   5.189 -0.5532  0.8751  1.0614
 6605SOL     OW31450   1.792   2.843   4.257 -0.4348 -0.0257  0.2505
 6605SOL    HW131451   1.747   2.762   4.277 -0.9426 -0.2178 -1.6893
 6605SOL    HW231452   1.766   2.892   4.336  0.3248  0.5005  0.1793
 6606SOL     OW31453   0.355   2.628   3.739 -0.3743  0.1203  0.3230
 6606SOL    HW131454   0.283   2.588   3.788  1.0730  0.5146  2.7599
 6606SOL    HW231455   0.412   2.648   3.813 -2.7863  0.4373  2.0956
 6607SOL     OW31456   1.400   2.001   7.669  0.3173 -0.3874 -0.1833
 6607SOL    HW131457   1.326   1.980   7.612  1.2497 -0.4643 -1.3628
 6607SOL    HW231458   1.397   1.929   7.732 -2.7623  0.0767  0.1961
 6608SOL     OW31459   0.275   2.593  17.267  0.2937 -0.4077  0.0830
 6608SOL    HW131460   0.265   2.502  17.294 -0.2353 -0.0553  1.0765
 6608SOL    HW231461   0.218   2.603  17.191 -0.9216  0.6893  1.1171
 6609SOL     OW31462   2.377   2.047   6.050 -0.3084  0.1845 -0.8063
 6609SOL    HW131463   2.434   2.017   5.979 -1.6533 -2.0508 -0.9377
 6609SOL    HW231464   2.323   2.103   5.994  0.1319  1.3443 -0.0700
 6610SOL     OW31465   1.778   1.927   2.854  0.3596  0.5269  0.1741
 6610SOL    HW131466   1.683   1.921   2.861  0.3553  0.5830  0.1630
 6610SOL    HW231467   1.791   2.014   2.892 -0.5862  0.1726  1.3074
 6611SOL     OW31468   3.057   4.047  15.749 -0.2569 -0.0934  0.9591
 6611SOL    HW131469   3.095   3.980  15.692 -2.1964 -1.2250  0.9879
 6611SOL    HW231470   3.093   4.130  15.718 -0.1223 -1.0611 -1.4736
 6612SOL     OW31471   0.008   0.915   8.645 -0.1039 -0.0617 -0.0717
 6612SOL    HW131472   4.726   0.954   8.730 -0.6715  2.3035 -1.2716
 6612SOL    HW231473   0.062   0.983   8.603 -0.2109  0.7994  1.1708
 6613SOL     OW31474   1.882   1.090   7.462 -0.6824 -0.5845 -0.7936
 6613SOL    HW131475   1.965   1.094   7.510 -0.5493 -2.7688 -0.8432
 6613SOL    HW231476   1.914   1.069   7.374  2.4508 -2.2097  0.7527
 6614SOL     OW31477   4.390   4.427   3.320 -0.4188  0.2824  0.4018
 6614SOL    HW131478   4.420   4.346   3.362 -2.0668  0.2141  1.4491
 6614SOL    HW231479   4.442   4.498   3.358 -0.9824  0.7951  0.2092
 6615SOL     OW31480   3.265   0.092   4.263  0.5566 -0.1007 -0.0182
 6615SOL    HW131481   3.311   0.010   4.282 -2.2135 -1.6103  0.0491
 6615SOL    HW231482   3.224   0.076   4.178 -1.7424 -0.3413  1.1614
 6616SOL     OW31483   2.573   0.102   5.157 -0.2686 -0.2287  0.0593
 6616SOL    HW131484   2.587   0.180   5.210  1.3748 -0.0632 -0.6356
 6616SOL    HW231485   2.603   0.037   5.220  0.5061 -0.2134 -0.2961
 6617SOL     OW31486   3.535   3.785   6.794 -0.1469  0.4316  0.3049
 6617SOL    HW131487   3.506   3.856   6.851 -1.0914  2.1001 -2.2424
 6617SOL    HW231488   3.453   3.745   6.765  0.6455  0.0202 -1.3320
 6618SOL     OW31489   0.095   0.753   6.031  0.5904 -0.4102 -0.2089
 6618SOL    HW131490   0.057   0.791   5.952 -0.3767 -0.5946  0.1555
 6618SOL    HW231491   0.070   0.661   6.025 -1.7681  0.1753  0.3096
 6619SOL     OW31492   2.551   0.831  10.880  0.1146 -0.0884 -0.1981
 6619SOL    HW131493   2.624   0.892  10.870  0.8355 -0.7508  1.0197
 6619SOL    HW231494   2.479   0.894  10.883  0.0217 -0.1881 -0.3328
 6620SOL     OW31495   2.370   1.015  15.778 -0.0812 -0.1046  0.2280
 6620SOL    HW131496   2.429   0.960  15.830  0.5349  0.7590  0.4460
 6620SOL    HW231497   2.426   1.060  15.716  1.1207 -1.5488  0.2525
 6621SOL     OW31498   0.804   4.500   3.005  0.5045 -0.6882  0.5129
 6621SOL    HW131499   0.897   4.482   3.017  0.4903  0.0935  1.7298
 6621SOL    HW231500   0.783   4.412   2.974  1.2237 -0.1001 -1.6888
 6622SOL     OW31501   4.694   0.683   8.892  0.2594 -0.8439  0.2143
 6622SOL    HW131502   0.049   0.679   8.920  0.5377  0.5638 -0.5123
 6622SOL    HW231503   4.649   0.739   8.955  0.1858 -0.4766 -0.1637
 6623SOL     OW31504   4.444   1.932  10.688 -0.0856  0.2869  0.5435
 6623SOL    HW131505   4.484   1.956  10.604 -2.0839  0.8210 -0.2427
 6623SOL    HW231506   4.506   1.873  10.730 -0.2223  1.6776  2.6921
 6624SOL     OW31507   1.422   1.777   4.377 -0.3524 -0.5902 -0.6884
 6624SOL    HW131508   1.493   1.714   4.388 -0.5156 -0.7854 -0.7546
 6624SOL    HW231509   1.378   1.760   4.461  3.1492  1.9881  1.6434
 6625SOL     OW31510   3.900   1.201   3.016 -0.1054 -0.3155 -0.6620
 6625SOL    HW131511   3.888   1.128   2.955  1.0888 -0.6932 -0.4590
 6625SOL    HW231512   3.975   1.247   2.977  1.7280 -0.1470  3.0499
 6626SOL     OW31513   1.087   1.077   8.865  0.3941  0.1709  0.2275
 6626SOL    HW131514   1.037   1.075   8.946 -0.9068  0.5746 -0.5651
 6626SOL    HW231515   1.013   1.067   8.804 -0.2360  2.3187  0.6506
 6627SOL     OW31516   1.257   1.590   3.618  0.2653  0.0795 -0.0426
 6627SOL    HW131517   1.231   1.500   3.599  0.8696 -0.0308 -0.3630
 6627SOL    HW231518   1.317   1.592   3.693  0.3644  0.3950 -0.1293
 6628SOL     OW31519   0.208   1.329   7.545 -0.2647 -0.1761  0.6340
 6628SOL    HW131520   0.230   1.340   7.453 -0.3334 -1.5794  0.4554
 6628SOL    HW231521   0.113   1.331   7.538 -0.2819  0.7282  1.0554
 6629SOL     OW31522   0.408   4.031   1.382  0.6290 -0.6803  0.8819
 6629SOL    HW131523   0.408   3.946   1.338  2.2058  0.0120 -0.4453
 6629SOL    HW231524   0.474   4.075   1.329  0.5573  0.6690  1.8925
 6630SOL     OW31525   1.469   1.891   6.321 -0.9552  0.3381  0.1496
 6630SOL    HW131526   1.438   1.970   6.278 -0.6098 -0.0890 -0.8777
 6630SOL    HW231527   1.436   1.818   6.270 -0.3102 -1.3474  2.1185
 6631SOL     OW31528   0.399   0.011  14.739 -0.4078 -0.4276  0.1997
 6631SOL    HW131529   0.376   4.664  14.700 -0.3311 -0.6291  0.5872
 6631SOL    HW231530   0.480   4.724  14.785  0.2859  0.4527 -0.5667
 6632SOL     OW31531   4.454   0.703   1.372 -0.2811 -0.5099  0.9074
 6632SOL    HW131532   4.419   0.632   1.317 -0.7884  3.3304 -3.7610
 6632SOL    HW231533   4.533   0.661   1.406 -0.6106 -1.2581  0.7439
 6633SOL     OW31534   0.024   3.347   6.101 -0.2201  0.7840 -0.5709
 6633SOL    HW131535   4.701   3.379   6.168 -0.9516  0.2292 -0.9694
 6633SOL    HW231536   0.047   3.424   6.048 -0.0305 -1.2177 -3.4261
 6634SOL     OW31537   1.641   3.480   7.651 -0.0696  0.8186  0.1552
 6634SOL    HW131538   1.646   3.561   7.701 -1.3586  0.0947  1.4596
 6634SOL    HW231539   1.577   3.433   7.705  0.6826 -1.3559 -0.8226
 6635SOL     OW31540   4.408   3.902  11.568  0.7864 -0.2968 -0.5611
 6635SOL    HW131541   4.486   3.956  11.552 -0.8727  2.7145  1.4956
 6635SOL    HW231542   4.449   3.835  11.622  0.0353  0.0198  0.3990
 6636SOL     OW31543   2.824   4.122   6.488 -0.2816  0.5520  0.2137
 6636SOL    HW131544   2.735   4.151   6.467 -0.8589 -0.7118  0.8588
 6636SOL    HW231545   2.844   4.149   6.577 -0.4247 -0.7918  0.6616
 6637SOL     OW31546   1.381   3.544   2.230  0.0886  0.0751  0.4473
 6637SOL    HW131547   1.349   3.494   2.155 -0.2592 -0.4481  0.9389
 6637SOL    HW231548   1.425   3.472   2.275 -0.4902 -0.1615  0.6417
 6638SOL     OW31549   1.544   1.087   1.187 -0.7176  0.0481 -0.1406
 6638SOL    HW131550   1.514   0.996   1.187  1.0924 -0.5432  1.3661
 6638SOL    HW231551   1.637   1.071   1.175 -0.6437 -0.3015  0.9064
 6639SOL     OW31552   3.473   3.756   8.894 -0.5515 -0.2844 -0.9207
 6639SOL    HW131553   3.383   3.754   8.927 -0.5808 -0.4129 -1.0094
 6639SOL    HW231554   3.518   3.785   8.974 -0.5102 -0.9390 -0.7017
 6640SOL     OW31555   2.936   0.767   9.720 -0.0571 -0.4720  0.9669
 6640SOL    HW131556   3.027   0.782   9.747 -0.2116  0.1937  1.1075
 6640SOL    HW231557   2.896   0.845   9.757  0.0276 -0.2711  0.6423
 6641SOL     OW31558   3.086   2.334   3.467 -0.4716  0.3699  0.4295
 6641SOL    HW131559   3.001   2.295   3.446 -0.8468  0.3326  2.0730
 6641SOL    HW231560   3.122   2.265   3.523 -3.1930  0.3985  2.1769
 6642SOL     OW31561   3.650   0.580   6.490 -0.2746 -0.0506 -0.6080
 6642SOL    HW131562   3.601   0.626   6.421  0.1598 -1.1034 -1.6120
 6642SOL    HW231563   3.723   0.641   6.498 -0.1414 -0.4851  1.4735
 6643SOL     OW31564   2.869   3.339   9.035 -0.3555 -0.1476 -0.0387
 6643SOL    HW131565   2.814   3.385   8.972 -0.9592  0.1877  0.7274
 6643SOL    HW231566   2.846   3.248   9.016  0.4763  0.1924 -2.6015
 6644SOL     OW31567   1.822   3.453   8.189 -0.1617 -0.2635  0.4073
 6644SOL    HW131568   1.884   3.379   8.191 -0.1713 -0.2623  0.7204
 6644SOL    HW231569   1.820   3.476   8.096  0.5770  0.3215  0.5347
 6645SOL     OW31570   3.502   2.783   8.133  0.2292 -0.0970  0.3301
 6645SOL    HW131571   3.441   2.854   8.115 -1.2245 -1.5499 -0.4196
 6645SOL    HW231572   3.574   2.831   8.174 -0.0674 -0.7495  1.6119
 6646SOL     OW31573   3.856   2.149   6.761 -0.1325 -0.5814  0.1451
 6646SOL    HW131574   3.930   2.090   6.742  0.1281 -0.1795 -0.0714
 6646SOL    HW231575   3.841   2.131   6.854 -2.0039 -0.5452 -0.1559
 6647SOL     OW31576   2.726   0.175   9.194  0.1720  0.5243 -0.3982
 6647SOL    HW131577   2.650   0.201   9.140  0.0198  2.6904  0.8461
 6647SOL    HW231578   2.802   0.180   9.136 -1.6514  1.7674 -2.7233
 6648SOL     OW31579   3.752   3.215  13.631 -0.3046  0.2331  0.2086
 6648SOL    HW131580   3.755   3.154  13.558  2.3139  2.8084 -1.8352
 6648SOL    HW231581   3.841   3.206  13.666 -0.0426  0.9802 -0.2785
 6649SOL     OW31582   0.632   2.565  14.941  0.1650  0.5111  0.0580
 6649SOL    HW131583   0.543   2.597  14.954  0.0034 -0.1870  0.6516
 6649SOL    HW231584   0.668   2.593  14.856 -2.1923 -0.1994 -1.1771
 6650SOL     OW31585   1.749   1.986  15.708  0.0879  0.7307 -0.3320
 6650SOL    HW131586   1.835   1.953  15.682  0.3076 -0.5722  2.0624
 6650SOL    HW231587   1.689   1.928  15.661  0.6914  0.9744 -1.4134
 6651SOL     OW31588   1.819   4.052   0.293  0.0766 -0.2344  0.2917
 6651SOL    HW131589   1.874   4.072   0.368 -0.5391 -1.5684  1.0993
 6651SOL    HW231590   1.742   4.102   0.320  1.4585  3.2309 -2.1719
 6652SOL     OW31591   4.627   0.102   8.363  0.5590 -0.2667 -0.0966
 6652SOL    HW131592   4.568   0.062   8.427  0.9366  0.6214  0.8128
 6652SOL    HW231593   4.650   0.027   8.309  0.1455  0.5989 -1.4721
 6653SOL     OW31594   1.354   3.360   5.004 -0.2168  0.2862  0.0410
 6653SOL    HW131595   1.405   3.305   4.945  2.4488  3.0963 -0.3316
 6653SOL    HW231596   1.335   3.439   4.954  1.4453 -0.4777 -1.7991
 6654SOL     OW31597   0.096   0.476  15.317 -0.1017 -0.4682  0.1901
 6654SOL    HW131598   0.184   0.488  15.283 -0.1243  0.9679  0.6421
 6654SOL    HW231599   0.068   0.409  15.254  1.4830 -0.6433 -0.3307
 6655SOL     OW31600   1.527   2.073   4.360  0.3184  0.6059 -0.1420
 6655SOL    HW131601   1.480   2.011   4.415  1.2427  1.0679  1.1775
 6655SOL    HW231602   1.607   2.083   4.411  0.0083  3.4706 -0.2040
 6656SOL     OW31603   1.206   1.669   7.377  0.5229 -0.3385 -0.1453
 6656SOL    HW131604   1.271   1.598   7.378  0.2726 -0.5089  3.6180
 6656SOL    HW231605   1.148   1.639   7.308 -1.7848  1.3456  1.0338
 6657SOL     OW31606   0.206   3.220  14.867  0.3718  0.5371  0.1698
 6657SOL    HW131607   0.275   3.190  14.927  1.3473  1.0504 -0.6862
 6657SOL    HW231608   0.129   3.220  14.923  1.4270 -1.5443  1.6311
 6658SOL     OW31609   3.124   3.026   5.261 -0.9174 -0.0298 -0.4553
 6658SOL    HW131610   3.196   3.022   5.199 -0.6487  0.9796 -0.2115
 6658SOL    HW231611   3.101   3.119   5.251  0.2492  0.3257  0.1597
 6659SOL     OW31612   1.153   1.325   7.434  0.0374  0.4250 -0.7244
 6659SOL    HW131613   1.092   1.344   7.505  0.4529  1.1221 -0.5555
 6659SOL    HW231614   1.181   1.410   7.400 -0.8271  0.6738 -0.8189
 6660SOL     OW31615   3.197   0.244   8.640  0.2452  0.5601 -0.0612
 6660SOL    HW131616   3.193   0.157   8.681  0.4797  0.6897  0.2344
 6660SOL    HW231617   3.106   0.273   8.652 -0.3593 -1.3059 -0.1059
 6661SOL     OW31618   2.242   0.937   1.029 -0.0608  0.4826  0.0182
 6661SOL    HW131619   2.287   1.003   1.082  0.6142 -1.0921  1.4261
 6661SOL    HW231620   2.284   0.855   1.055 -1.5343 -0.1150  0.4640
 6662SOL     OW31621   1.564   4.039   3.783 -0.6471 -0.2929 -0.0146
 6662SOL    HW131622   1.497   4.033   3.715 -2.0598 -0.1321  1.3562
 6662SOL    HW231623   1.525   4.109   3.835 -0.1277  1.6896 -2.2957
 6663SOL     OW31624   3.331   1.966   4.615  0.6300 -0.6049  0.0514
 6663SOL    HW131625   3.306   2.039   4.558 -0.2268 -0.8836  0.0778
 6663SOL    HW231626   3.393   1.917   4.561  1.5597  1.0373 -0.3833
 6664SOL     OW31627   2.358   0.510   6.444  0.9257 -0.0655  0.4681
 6664SOL    HW131628   2.430   0.452   6.421  1.2084  0.1338  0.8568
 6664SOL    HW231629   2.328   0.462   6.521 -0.5477  0.2913  0.1193
 6665SOL     OW31630   3.649   0.056   2.332  0.5203  0.0910 -0.4312
 6665SOL    HW131631   3.592   4.730   2.287 -0.1907  0.8863 -0.6539
 6665SOL    HW231632   3.614   0.137   2.296 -0.3096  0.7881  1.9965
 6666SOL     OW31633   0.145   1.529   5.415  0.3079  0.0739  0.5338
 6666SOL    HW131634   0.072   1.494   5.363 -0.0947 -0.3287  1.3780
 6666SOL    HW231635   0.194   1.586   5.355  1.9233 -1.5987  0.2502
 6667SOL     OW31636   2.326   4.732   5.788 -0.2418  0.1666 -0.0647
 6667SOL    HW131637   2.375   4.651   5.803  1.1600  0.9017 -0.7639
 6667SOL    HW231638   2.298   4.725   5.697  1.6009  0.3927 -0.6368
 6668SOL     OW31639   4.518   3.610  17.137  0.4605  0.3522 -0.8078
 6668SOL    HW131640   4.431   3.631  17.171  0.0727  0.4153 -1.8461
 6668SOL    HW231641   4.536   3.699  17.107  0.1483  0.4662 -0.6531
 6669SOL     OW31642   0.396   2.326   8.182  0.1040  0.0650  0.3278
 6669SOL    HW131643   0.366   2.332   8.272 -1.2908  0.9822 -0.1935
 6669SOL    HW231644   0.318   2.334   8.126  0.9508  1.7808 -0.5922
 6670SOL     OW31645   0.390   2.177   7.346 -0.0652  0.6397  0.7332
 6670SOL    HW131646   0.441   2.105   7.308  0.5934  1.1213  0.7147
 6670SOL    HW231647   0.310   2.132   7.375  0.2409 -0.2752  0.1484
 6671SOL     OW31648   2.878   3.859   6.453 -0.4867  0.1241  0.0739
 6671SOL    HW131649   2.973   3.870   6.452 -0.5495  0.6189 -0.3180
 6671SOL    HW231650   2.852   3.950   6.465 -0.3905 -0.1966  2.6519
 6672SOL     OW31651   2.127   2.543  17.652 -0.2004  0.1708  0.1275
 6672SOL    HW131652   2.142   2.587  17.736 -1.6225  1.0528 -0.0806
 6672SOL    HW231653   2.210   2.496  17.646 -0.5774 -0.7927  2.1716
 6673SOL     OW31654   3.995   4.140   8.994 -0.2856  0.3821  0.1670
 6673SOL    HW131655   4.005   4.110   9.084 -0.7723  1.7701  0.6778
 6673SOL    HW231656   3.928   4.205   9.015  0.3654  0.7284  1.1323
 6674SOL     OW31657   4.224   2.252   5.205  0.2527  0.1079 -0.4253
 6674SOL    HW131658   4.188   2.340   5.190 -0.5388  0.0838  1.2468
 6674SOL    HW231659   4.144   2.199   5.202  0.0460  0.3544  0.6450
 6675SOL     OW31660   1.062   2.455   9.296 -0.5044  0.3440 -0.0697
 6675SOL    HW131661   0.970   2.443   9.321 -0.5970  2.5406  0.5788
 6675SOL    HW231662   1.054   2.509   9.217 -2.7557 -0.9926 -0.7666
 6676SOL     OW31663   3.079   3.195   5.557 -0.0548 -0.5231 -0.7070
 6676SOL    HW131664   3.012   3.224   5.495  0.4595 -1.3016 -1.6189
 6676SOL    HW231665   3.035   3.197   5.642  0.6201 -1.0174 -0.3466
 6677SOL     OW31666   0.676   4.461  12.028 -0.3066  0.4815 -0.2609
 6677SOL    HW131667   0.681   4.426  12.117 -2.4126  1.2416  0.1415
 6677SOL    HW231668   0.659   4.384  11.974 -1.7622 -1.0302  2.3241
 6678SOL     OW31669   0.896   3.307   3.571 -0.3425  0.0070  0.5785
 6678SOL    HW131670   0.823   3.254   3.539  0.8013 -0.2313 -1.6406
 6678SOL    HW231671   0.896   3.378   3.507  1.4301 -0.1811  0.3778
 6679SOL     OW31672   0.005   4.466   2.571  0.0674 -0.3968 -0.2668
 6679SOL    HW131673   0.065   4.394   2.548  1.8628  1.4165 -1.2410
 6679SOL    HW231674   4.688   4.415   2.632 -0.7712  0.8016 -0.0149
 6680SOL     OW31675   0.077   4.326   7.806 -1.2472  0.1166 -0.1671
 6680SOL    HW131676   0.102   4.354   7.719 -1.7498 -1.1126 -0.7139
 6680SOL    HW231677   0.081   4.230   7.808  0.8769  0.2025  0.4348
 6681SOL     OW31678   0.344   1.824   5.050 -0.7956 -0.1376 -0.3307
 6681SOL    HW131679   0.359   1.836   4.956  1.1611  2.9187  0.4137
 6681SOL    HW231680   0.298   1.902   5.080  0.1649  0.4386 -0.3724
 6682SOL     OW31681   1.439   0.273   1.754 -0.3271  0.3034  0.8730
 6682SOL    HW131682   1.384   0.350   1.744 -0.3093  0.1858 -0.1562
 6682SOL    HW231683   1.441   0.270   1.850  0.4314  1.9837  0.9113
 6683SOL     OW31684   4.621   4.266   2.256 -0.2681 -0.0148 -0.2541
 6683SOL    HW131685   4.545   4.236   2.206 -1.0405  2.2360 -0.4447
 6683SOL    HW231686   4.577   4.259   2.341 -1.1283 -1.4003 -0.8132
 6684SOL     OW31687   4.537   1.679   4.550  0.4348 -0.1302  0.0343
 6684SOL    HW131688   4.522   1.628   4.471 -0.2747 -0.8035  0.6046
 6684SOL    HW231689   4.631   1.661   4.557  0.3115 -1.0218 -0.6129
 6685SOL     OW31690   1.561   3.598  11.074  0.7746 -0.3649 -0.2829
 6685SOL    HW131691   1.468   3.618  11.085  1.2477  0.6089  1.9144
 6685SOL    HW231692   1.554   3.590  10.978  0.0860  1.9276 -0.4210
 6686SOL     OW31693   1.399   1.820   5.424 -0.0618  0.1108 -0.6594
 6686SOL    HW131694   1.361   1.895   5.379  4.2108  2.5224 -0.2454
 6686SOL    HW231695   1.478   1.804   5.373 -1.0415 -0.0470 -2.1075
 6687SOL     OW31696   0.610   1.127   4.581  0.2315  0.2533 -0.6651
 6687SOL    HW131697   0.684   1.084   4.623  0.1068 -0.1679 -0.8774
 6687SOL    HW231698   0.534   1.077   4.613  0.4718  0.7911  0.7661
 6688SOL     OW31699   0.704   0.118   3.884  0.4558 -0.2364 -0.4293
 6688SOL    HW131700   0.675   0.047   3.826  1.0023  0.2924 -1.3466
 6688SOL    HW231701   0.773   0.158   3.831 -1.2302 -0.5127 -2.8190
 6689SOL     OW31702   0.439   3.542   3.070 -0.4263  0.0165 -0.2254
 6689SOL    HW131703   0.376   3.490   3.020  1.9830 -2.6424 -0.4965
 6689SOL    HW231704   0.511   3.480   3.061  1.4851  1.8447  2.7309
 6690SOL     OW31705   3.539   3.485   9.384  0.0713  0.7518  0.0887
 6690SOL    HW131706   3.536   3.474   9.288  0.0209  1.1659  0.0438
 6690SOL    HW231707   3.572   3.402   9.420  0.5528  2.3922  3.3565
 6691SOL     OW31708   3.337   3.286   4.861 -0.9669 -0.0631 -0.4186
 6691SOL    HW131709   3.309   3.371   4.826  1.6574  0.8991 -0.1554
 6691SOL    HW231710   3.347   3.240   4.777 -0.2858  1.8336 -1.3829
 6692SOL     OW31711   2.866   0.962   7.523 -0.4771 -0.2954 -0.2398
 6692SOL    HW131712   2.790   1.020   7.529  1.4728  2.3817 -1.0960
 6692SOL    HW231713   2.856   0.913   7.442 -0.1167 -0.6191 -0.0865
 6693SOL     OW31714   4.123   1.869   4.445 -0.2724  0.1643  0.0794
 6693SOL    HW131715   4.134   1.776   4.461 -2.9372 -0.0392  0.7384
 6693SOL    HW231716   4.216   1.885   4.431  0.0228 -2.7486 -1.1310
 6694SOL     OW31717   2.307   0.700   1.101 -0.0244 -0.2178 -0.2192
 6694SOL    HW131718   2.326   0.613   1.065 -0.0977  0.2970 -1.5305
 6694SOL    HW231719   2.336   0.693   1.192 -3.2759 -1.8958  0.6928
 6695SOL     OW31720   0.201   2.142  13.129 -0.2776  0.0405  0.2643
 6695SOL    HW131721   0.214   2.196  13.051  1.9521  0.5476  0.9764
 6695SOL    HW231722   0.159   2.076  13.073  0.3757  0.0262 -0.2143
 6696SOL     OW31723   0.224   3.408   2.341  0.0173  0.0412 -0.5170
 6696SOL    HW131724   0.280   3.339   2.306 -0.1515 -0.1334 -0.4374
 6696SOL    HW231725   0.142   3.360   2.342  0.6263 -1.0439 -1.9188
 6697SOL     OW31726   2.645   0.736   7.027 -0.3635  0.3961 -0.0406
 6697SOL    HW131727   2.642   0.824   7.063 -2.9114  0.2695  0.0483
 6697SOL    HW231728   2.618   0.747   6.935 -0.1351 -1.6170 -0.3424
 6698SOL     OW31729   1.872   4.602  17.408 -0.2671  0.6662  0.0372
 6698SOL    HW131730   1.930   4.528  17.394 -1.8474 -0.7690  1.1031
 6698SOL    HW231731   1.935   4.671  17.388 -0.4400  0.8438  0.1076
 6699SOL     OW31732   3.052   0.313   9.445 -0.2168 -0.1570  0.1250
 6699SOL    HW131733   3.087   0.390   9.489 -3.9080  0.6764  1.5546
 6699SOL    HW231734   3.006   0.282   9.522 -0.2544 -0.9914 -0.2341
 6700SOL     OW31735   4.161   3.838   4.826  0.2585  0.1707  0.1850
 6700SOL    HW131736   4.204   3.923   4.814  0.3154 -0.1225 -1.6148
 6700SOL    HW231737   4.224   3.804   4.890  1.8493  1.0535 -0.9028
 6701SOL     OW31738   3.967   0.258   0.689  0.0850 -0.0643 -0.3140
 6701SOL    HW131739   4.013   0.341   0.702 -0.7258  0.3138  0.1587
 6701SOL    HW231740   4.013   0.233   0.609  0.4551 -0.5924  0.0633
 6702SOL     OW31741   1.743   0.620   9.166  0.4135  0.0657  0.3850
 6702SOL    HW131742   1.681   0.555   9.199  0.7035  0.1725  1.1633
 6702SOL    HW231743   1.738   0.595   9.074  0.5660  2.7141 -0.3487
 6703SOL     OW31744   2.888   1.416   7.578  0.1604  0.0466  0.5843
 6703SOL    HW131745   2.968   1.365   7.567  0.4383 -0.0196  2.9905
 6703SOL    HW231746   2.871   1.403   7.671  1.1347 -1.1622  0.5940
 6704SOL     OW31747   2.150   1.505   6.972 -0.1583  0.7740  0.2354
 6704SOL    HW131748   2.109   1.451   7.040 -2.2228 -0.4338 -1.9990
 6704SOL    HW231749   2.140   1.596   7.003  1.0946  0.6975  0.8846
 6705SOL     OW31750   2.385   2.785   5.794  0.4306  0.0640 -0.1409
 6705SOL    HW131751   2.449   2.747   5.733  1.3402 -2.0635  2.1284
 6705SOL    HW231752   2.416   2.737   5.871 -1.2090 -1.5547 -0.4706
 6706SOL     OW31753   1.064   0.694   4.711  0.2962 -0.6941 -0.2767
 6706SOL    HW131754   1.156   0.690   4.734  0.4631  0.1542 -0.7796
 6706SOL    HW231755   1.080   0.673   4.619  0.7014 -1.4433 -0.0324
 6707SOL     OW31756   3.826   3.936   8.720 -0.0239 -0.3319  0.4162
 6707SOL    HW131757   3.872   3.909   8.800 -1.0803  1.0413  1.4776
 6707SOL    HW231758   3.850   3.872   8.653 -1.5614  0.6431 -1.0677
 6708SOL     OW31759   3.226   1.280   9.303 -0.8124  0.5487 -0.1646
 6708SOL    HW131760   3.156   1.243   9.357  0.9059 -0.4082  1.3603
 6708SOL    HW231761   3.292   1.308   9.366 -0.6075 -2.5415  0.9514
 6709SOL     OW31762   4.621   1.690   8.973 -0.0267 -0.1326 -0.9827
 6709SOL    HW131763   4.597   1.602   9.001 -0.5050  0.4658  0.5078
 6709SOL    HW231764   4.716   1.682   8.966 -0.0181 -0.5216 -0.4621
 6710SOL     OW31765   2.405   2.928   4.381 -0.1157  0.0625  0.0522
 6710SOL    HW131766   2.313   2.913   4.360 -0.7099  1.3903  1.7797
 6710SOL    HW231767   2.408   2.866   4.454 -0.7446 -0.5028 -0.3967
 6711SOL     OW31768   4.237   1.705   6.304  0.3051  0.0188 -0.0953
 6711SOL    HW131769   4.288   1.746   6.234  0.5191 -0.7780 -0.4071
 6711SOL    HW231770   4.273   1.616   6.309 -0.5402 -0.2780  0.6733
 6712SOL     OW31771   0.356   3.370   0.999 -0.3378 -0.1555  0.7255
 6712SOL    HW131772   0.350   3.278   1.023  1.1481 -0.2873  0.6039
 6712SOL    HW231773   0.263   3.376   0.978  0.0380 -0.0122 -0.9481
 6713SOL     OW31774   0.832   1.387   5.256 -0.6860 -0.3194 -0.0609
 6713SOL    HW131775   0.773   1.348   5.192  0.9515 -1.3829 -0.9290
 6713SOL    HW231776   0.778   1.380   5.335 -2.1071  2.0728 -0.8203
 6714SOL     OW31777   0.846   4.551   0.039 -0.2123  0.1932  0.4228
 6714SOL    HW131778   0.835   4.574   0.131 -1.3597  0.0418  0.3213
 6714SOL    HW231779   0.940   4.536   0.031 -0.5420 -1.6306  0.1692
 6715SOL     OW31780   0.686   3.538  11.960 -0.5989  0.1739 -0.2143
 6715SOL    HW131781   0.683   3.544  11.864 -0.5421  1.2460 -0.1517
 6715SOL    HW231782   0.749   3.468  11.975 -0.7086 -0.0013 -0.5698
 6716SOL     OW31783   1.385   2.550   7.025 -0.2653  0.3900  0.5082
 6716SOL    HW131784   1.395   2.518   6.935 -2.5636  0.8482  0.0865
 6716SOL    HW231785   1.319   2.494   7.066 -1.2650  0.7885 -0.5485
 6717SOL     OW31786   3.697   2.263  16.153  0.0528 -0.1993  0.1967
 6717SOL    HW131787   3.642   2.274  16.231 -0.2345  0.3038 -0.0771
 6717SOL    HW231788   3.764   2.217  16.204 -0.4322  1.8688  2.6701
 6718SOL     OW31789   0.753   3.555   1.889 -0.1765  0.7801 -0.4595
 6718SOL    HW131790   0.822   3.545   1.823 -2.0258 -0.5265 -2.1961
 6718SOL    HW231791   0.792   3.509   1.964  1.2874  1.9639 -0.4851
 6719SOL     OW31792   2.805   2.221   5.434  0.1914 -0.3029  0.4669
 6719SOL    HW131793   2.806   2.138   5.388 -0.0915  0.6180 -1.1992
 6719SOL    HW231794   2.723   2.212   5.483 -2.6502  0.2667 -4.1309
 6720SOL     OW31795   3.414   2.764  16.954 -0.5783 -0.4244  0.1907
 6720SOL    HW131796   3.421   2.775  16.859  0.5371 -1.1895  0.1905
 6720SOL    HW231797   3.363   2.844  16.967 -0.9701 -0.7695  0.7557
 6721SOL     OW31798   3.210   0.684   2.858 -0.6833 -0.5291  0.4703
 6721SOL    HW131799   3.281   0.714   2.914 -1.4638  0.5719  0.8795
 6721SOL    HW231800   3.191   0.768   2.817 -1.3322 -0.7045  0.4105
 6722SOL     OW31801   4.024   2.519   8.146  0.3196 -0.2363 -0.4992
 6722SOL    HW131802   3.949   2.575   8.164  0.3094  0.8828 -4.0271
 6722SOL    HW231803   3.998   2.444   8.199 -0.7782 -0.3548 -1.2018
 6723SOL     OW31804   0.740   4.312   0.070 -0.7885  0.6590  0.0215
 6723SOL    HW131805   0.758   4.404   0.050  1.8844  0.3325  0.9746
 6723SOL    HW231806   0.827   4.272   0.076 -0.4293  1.2874 -1.0052
 6724SOL     OW31807   4.120   0.123   0.952  0.2607  0.3068 -0.1601
 6724SOL    HW131808   4.190   0.186   0.932  1.7900 -1.7482 -1.2450
 6724SOL    HW231809   4.081   0.110   0.865 -2.1234  1.1497  0.7874
 6725SOL     OW31810   3.330   1.903   7.064  0.0218  0.3177 -0.2336
 6725SOL    HW131811   3.349   1.843   6.992 -2.2761  1.3418 -1.6898
 6725SOL    HW231812   3.273   1.962   7.015  1.2862  0.8269 -1.1108
 6726SOL     OW31813   3.592   0.112   4.022 -0.1297  0.2144  0.7200
 6726SOL    HW131814   3.563   0.141   3.936  2.0602  2.6354  0.7621
 6726SOL    HW231815   3.520   0.122   4.084 -0.9433 -0.2020 -0.1541
 6727SOL     OW31816   1.014   1.652   0.547  0.5419 -0.6117  0.1033
 6727SOL    HW131817   0.961   1.727   0.574  2.3117 -0.1172  2.3046
 6727SOL    HW231818   1.056   1.686   0.468 -1.4127  0.3542 -0.4940
 6728SOL     OW31819   0.374   0.725   4.870  0.1483  0.5075 -0.4895
 6728SOL    HW131820   0.304   0.730   4.805 -0.9066 -1.9842  0.4389
 6728SOL    HW231821   0.319   0.702   4.945 -0.1470 -1.9407 -1.4602
 6729SOL     OW31822   0.987   1.242   3.030  0.1441  0.3117  0.3505
 6729SOL    HW131823   0.954   1.171   2.975  0.1307 -0.6161  1.5722
 6729SOL    HW231824   1.078   1.216   3.037 -0.2218 -1.3143 -0.8762
 6730SOL     OW31825   4.053   1.620   5.561  0.7343 -0.5765 -0.3352
 6730SOL    HW131826   3.970   1.577   5.581  0.5649 -0.2838 -0.4115
 6730SOL    HW231827   4.074   1.648   5.650  0.1464  1.4069 -0.8094
 6731SOL     OW31828   2.503   4.699   2.809 -0.4908 -0.2217 -0.0948
 6731SOL    HW131829   2.572   0.012   2.766 -1.8987  0.4830 -1.5156
 6731SOL    HW231830   2.428   0.021   2.800  0.9487  1.6782  0.1857
 6732SOL     OW31831   2.454   0.477   7.502 -0.2042 -0.0441 -0.6205
 6732SOL    HW131832   2.366   0.500   7.532 -0.5216 -2.6800  0.4624
 6732SOL    HW231833   2.500   0.552   7.465  0.6445 -0.2302  0.0714
 6733SOL     OW31834   2.985   3.214   5.821 -0.3227  0.1228 -0.0724
 6733SOL    HW131835   2.899   3.249   5.844 -0.1834  0.8583 -0.6808
 6733SOL    HW231836   2.994   3.151   5.893  2.1918 -1.7568 -2.0773
 6734SOL     OW31837   3.671   3.003   8.151 -0.1352 -0.3226  0.2376
 6734SOL    HW131838   3.657   3.046   8.066 -1.9855  0.0902  0.7538
 6734SOL    HW231839   3.687   3.083   8.202 -1.0611 -0.2703  0.4476
 6735SOL     OW31840   0.320   4.510   6.827 -0.3128 -0.0180 -0.0910
 6735SOL    HW131841   0.336   4.417   6.810 -1.4104  0.0214 -1.4397
 6735SOL    HW231842   0.303   4.512   6.921 -0.6221  0.5664 -0.1588
 6736SOL     OW31843   2.763   4.466  13.221 -0.1611  0.2022  0.0716
 6736SOL    HW131844   2.708   4.545  13.221 -0.2451  0.1429 -0.3263
 6736SOL    HW231845   2.764   4.444  13.315 -1.1618  0.5564  0.1673
 6737SOL     OW31846   1.412   4.461  10.876  0.4711  0.4274  0.1734
 6737SOL    HW131847   1.464   4.532  10.914  0.9239 -1.1456  2.5492
 6737SOL    HW231848   1.436   4.382  10.925 -1.0611 -0.1637 -0.0286
 6738SOL     OW31849   0.022   1.846   7.523  0.0523  0.2394  0.5732
 6738SOL    HW131850   4.714   1.791   7.459  0.1673 -1.3308  1.8257
 6738SOL    HW231851   4.707   1.821   7.600 -2.5906  1.6133 -0.7928
 6739SOL     OW31852   0.418   0.090  15.393 -0.4593 -0.4201  0.2026
 6739SOL    HW131853   0.419   0.012  15.448 -0.6929  0.4482  1.4314
 6739SOL    HW231854   0.496   0.135  15.425  0.1952 -0.8968 -0.7253
 6740SOL     OW31855   0.783   1.551   8.678  0.0978 -0.4079 -0.2849
 6740SOL    HW131856   0.706   1.522   8.728 -0.9443  0.6824 -1.2711
 6740SOL    HW231857   0.808   1.471   8.632 -1.9840 -0.6045 -1.0741
 6741SOL     OW31858   4.322   4.390   1.931 -0.2530  0.2545 -0.7949
 6741SOL    HW131859   4.290   4.372   1.843 -1.3174 -0.8669 -0.1786
 6741SOL    HW231860   4.323   4.486   1.927 -0.5180  0.2115 -2.0182
 6742SOL     OW31861   0.283   1.088   1.603 -0.1461 -0.2087  0.3056
 6742SOL    HW131862   0.199   1.059   1.638 -0.4576 -0.1918 -0.4372
 6742SOL    HW231863   0.332   1.087   1.685  1.4519 -1.2379 -0.6654
 6743SOL     OW31864   1.114   0.593  15.966  0.1416 -0.0573  0.3648
 6743SOL    HW131865   1.136   0.644  15.888  1.9924 -0.8937  0.3269
 6743SOL    HW231866   1.019   0.582  15.960  0.2595  0.2252 -1.7370
 6744SOL     OW31867   1.057   0.248   8.584  0.1418 -0.0047  0.6929
 6744SOL    HW131868   0.988   0.277   8.643 -0.1823  1.4993 -0.4334
 6744SOL    HW231869   1.098   0.185   8.643 -0.7059 -1.1708  0.0392
 6745SOL     OW31870   2.778   1.035  12.624  0.2270 -0.1966 -0.1904
 6745SOL    HW131871   2.704   1.090  12.647  2.7041  2.4322  1.4075
 6745SOL    HW231872   2.853   1.087  12.653 -0.2177  1.3723 -1.8957
 6746SOL     OW31873   2.049   1.411   1.805 -0.3454 -0.0077 -0.4800
 6746SOL    HW131874   2.021   1.501   1.823 -1.4534 -0.5666  0.6230
 6746SOL    HW231875   2.136   1.428   1.841 -0.6203 -0.3426  0.3524
 6747SOL     OW31876   4.615   0.698   6.387  0.1653 -0.0530 -0.3668
 6747SOL    HW131877   4.566   0.657   6.458  1.7602  1.2543  1.4574
 6747SOL    HW231878   4.704   0.693   6.421 -0.1697 -0.3931  0.4488
 6748SOL     OW31879   4.485   0.957   0.539 -0.3549  0.0717 -0.6586
 6748SOL    HW131880   4.571   0.966   0.497 -0.4708  1.8484 -0.5120
 6748SOL    HW231881   4.481   1.049   0.565  3.6366 -0.2743  1.1108
 6749SOL     OW31882   1.218   0.121   6.313  0.1917  0.8059 -0.2249
 6749SOL    HW131883   1.250   0.162   6.394 -1.7871  2.1708 -0.1412
 6749SOL    HW231884   1.132   0.086   6.332  0.0461  0.8958 -0.6985
 6750SOL     OW31885   2.694   4.157   1.516 -0.2248  0.4724  0.1316
 6750SOL    HW131886   2.645   4.088   1.560  1.1663 -0.5736  0.0174
 6750SOL    HW231887   2.767   4.102   1.488  0.0555 -0.6035  2.9655
 6751SOL     OW31888   0.135   3.940   5.703  0.3845  0.3982 -0.0306
 6751SOL    HW131889   0.110   3.967   5.791 -1.5854 -1.5630  0.0317
 6751SOL    HW231890   0.053   3.909   5.664  0.1866 -1.4038  1.8148
 6752SOL     OW31891   2.082   4.186   4.140 -0.5619 -0.2101  0.4073
 6752SOL    HW131892   2.122   4.105   4.173  1.4151  0.1594 -1.0834
 6752SOL    HW231893   2.069   4.232   4.222 -3.2030  0.8210 -0.6066
 6753SOL     OW31894   3.718   3.600   2.662 -0.1854  0.3081  0.4700
 6753SOL    HW131895   3.745   3.667   2.600 -0.1938 -0.9775 -0.9294
 6753SOL    HW231896   3.624   3.615   2.671 -0.2249 -1.5411  3.0923
 6754SOL     OW31897   4.142   3.012   6.470  0.0150 -0.0183  0.3117
 6754SOL    HW131898   4.210   3.063   6.428  0.4903 -0.2129  0.8431
 6754SOL    HW231899   4.065   3.068   6.458  2.0654  2.4797 -1.0402
 6755SOL     OW31900   4.350   3.858   3.494 -0.2316 -0.1267 -0.0522
 6755SOL    HW131901   4.270   3.809   3.477  0.2178 -0.0948 -2.3402
 6755SOL    HW231902   4.338   3.939   3.443  3.2575  0.6606  0.4239
 6756SOL     OW31903   0.780   3.907  17.538  0.0364  0.2609 -0.1345
 6756SOL    HW131904   0.710   3.851  17.572  0.2154  1.0676  1.5197
 6756SOL    HW231905   0.777   3.891  17.443 -2.8645  0.1430 -0.0322
 6757SOL     OW31906   0.926   4.153   7.682  0.6106 -0.8824  0.4703
 6757SOL    HW131907   1.013   4.148   7.723  1.2420  0.0892 -0.7648
 6757SOL    HW231908   0.940   4.153   7.587  2.0535  1.1684  0.6774
 6758SOL     OW31909   1.576   3.429   9.285 -0.6641 -0.2090 -0.0346
 6758SOL    HW131910   1.526   3.348   9.294 -0.1890 -0.4794  0.1531
 6758SOL    HW231911   1.664   3.392   9.298 -0.1893  0.2604 -1.7987
 6759SOL     OW31912   1.630   3.263   4.369 -0.3170 -0.5676  0.1508
 6759SOL    HW131913   1.643   3.358   4.370  1.0400 -0.7707  2.3763
 6759SOL    HW231914   1.597   3.256   4.459 -0.3050  1.5538  0.3147
 6760SOL     OW31915   4.579   3.443   8.982  0.4180 -0.1562 -0.4050
 6760SOL    HW131916   4.555   3.503   9.053  0.2957 -0.6526 -0.0296
 6760SOL    HW231917   4.607   3.503   8.913  0.0155  1.1867  0.6005
 6761SOL     OW31918   0.171   3.491   8.670 -0.4413 -0.4521 -0.2062
 6761SOL    HW131919   0.169   3.418   8.732 -0.6606 -1.0830 -0.9514
 6761SOL    HW231920   0.264   3.507   8.686 -0.2178 -0.2164 -1.6546
 6762SOL     OW31921   2.781   0.662  10.938 -0.2186  0.0037  0.2836
 6762SOL    HW131922   2.806   0.683  10.848  0.1586 -1.3026  0.0910
 6762SOL    HW231923   2.700   0.713  10.935 -1.1839 -1.4203  2.0406
 6763SOL     OW31924   2.604   4.138   9.833 -0.4121  0.3505 -0.3437
 6763SOL    HW131925   2.671   4.099   9.777  0.8569  0.5277  1.0464
 6763SOL    HW231926   2.666   4.188   9.886  0.4785  0.2291 -1.2800
 6764SOL     OW31927   2.174   3.710   9.699 -0.0962 -0.7163 -0.1915
 6764SOL    HW131928   2.185   3.799   9.665 -2.2731  0.0024  0.9901
 6764SOL    HW231929   2.109   3.730   9.767 -1.8079  1.0359 -2.3233
 6765SOL     OW31930   0.259   4.054   1.853  0.0873  0.2923  0.2710
 6765SOL    HW131931   0.230   4.095   1.935 -3.1295 -0.9945 -0.2230
 6765SOL    HW231932   0.207   4.106   1.791 -1.1909 -0.7299  0.4795
 6766SOL     OW31933   3.973   0.475   7.162 -0.0416  0.2090  0.1745
 6766SOL    HW131934   3.999   0.477   7.254  1.2885  0.9478 -0.2040
 6766SOL    HW231935   3.923   0.556   7.149  0.6638  0.3398 -1.7300
 6767SOL     OW31936   1.522   3.161   8.839  0.1612 -0.4320 -0.6071
 6767SOL    HW131937   1.572   3.168   8.920  0.2771  3.8222 -1.0557
 6767SOL    HW231938   1.593   3.189   8.781  1.3564 -1.1328  0.5289
 6768SOL     OW31939   2.263   0.213   3.324 -0.5021 -0.5404 -0.2337
 6768SOL    HW131940   2.198   0.249   3.264 -0.1861  0.2504 -0.1073
 6768SOL    HW231941   2.341   0.230   3.271 -0.3861 -0.3886 -0.0144
 6769SOL     OW31942   4.480   0.396  11.909 -0.2024  0.2445  0.5419
 6769SOL    HW131943   4.515   0.451  11.839 -0.8991 -2.5854 -2.0022
 6769SOL    HW231944   4.481   0.310  11.867 -2.7738  1.3577 -1.7270
 6770SOL     OW31945   2.515   1.393  15.684 -0.1335  0.0256  0.0843
 6770SOL    HW131946   2.563   1.475  15.696 -2.2711  1.3849 -0.8149
 6770SOL    HW231947   2.464   1.385  15.764 -1.5204  0.6598 -0.7435
 6771SOL     OW31948   1.678   1.895   7.711 -0.6767  0.2271  0.2149
 6771SOL    HW131949   1.695   1.985   7.740  0.2724  0.0391  0.2623
 6771SOL    HW231950   1.595   1.905   7.665 -0.2575 -0.1946 -0.6448
 6772SOL     OW31951   2.431   1.251  17.346  0.1370 -0.0429 -0.0518
 6772SOL    HW131952   2.465   1.299  17.271  2.0619 -0.3917  0.6066
 6772SOL    HW231953   2.446   1.314  17.417 -0.6447  0.8995 -0.7230
 6773SOL     OW31954   3.385   0.146   2.732 -0.2369 -0.3492  0.2050
 6773SOL    HW131955   3.296   0.140   2.697 -1.4838 -1.5541  3.6677
 6773SOL    HW231956   3.369   0.101   2.814 -2.1583  0.0120  0.0168
 6774SOL     OW31957   0.650   0.135   6.509  0.0619 -0.2864  0.0328
 6774SOL    HW131958   0.735   0.092   6.507  1.7759  3.1077 -0.0905
 6774SOL    HW231959   0.582   0.068   6.501  1.4119 -1.5811 -0.6545
 6775SOL     OW31960   0.952   3.962   8.859 -0.1108  0.5253 -0.1689
 6775SOL    HW131961   0.972   3.885   8.806  0.7236  0.7885 -0.2273
 6775SOL    HW231962   1.033   4.011   8.848  1.1945 -1.6268 -0.0946
 6776SOL     OW31963   0.046   2.363   3.414  0.3737  0.5104  0.6179
 6776SOL    HW131964   0.013   2.429   3.475  0.9546  0.5420  0.8977
 6776SOL    HW231965   0.138   2.387   3.400  0.1522  1.0884  0.1562
 6777SOL     OW31966   3.917   2.179  12.549 -0.3231  0.6977  0.1858
 6777SOL    HW131967   3.926   2.230  12.630  4.4807 -0.7738  0.6150
 6777SOL    HW231968   3.856   2.111  12.577 -1.4494  0.7772 -2.0992
 6778SOL     OW31969   1.181   2.176  13.840  0.2559 -0.5861  0.1163
 6778SOL    HW131970   1.256   2.163  13.898  0.1248  0.3851  0.5035
 6778SOL    HW231971   1.130   2.097  13.860 -0.4662  0.2444  1.5800
 6779SOL     OW31972   0.836   3.925   1.358 -0.4447 -0.1548 -0.9028
 6779SOL    HW131973   0.908   3.976   1.320  0.1545 -1.3141 -1.3106
 6779SOL    HW231974   0.764   3.975   1.321 -0.3647  0.6158 -0.0268
 6780SOL     OW31975   2.558   1.811  11.542 -0.1961  0.1462  0.2526
 6780SOL    HW131976   2.501   1.735  11.534 -0.9707  0.8870 -1.3401
 6780SOL    HW231977   2.598   1.831  11.457 -1.3804 -1.2639 -0.6285
 6781SOL     OW31978   0.838   4.246  10.396  0.4357  0.2708  0.5051
 6781SOL    HW131979   0.905   4.247  10.465  0.0086  1.3073  0.9030
 6781SOL    HW231980   0.823   4.152  10.402 -0.0495  0.3912  1.1442
 6782SOL     OW31981   0.957   3.410  13.162 -0.3579  0.5252  0.4581
 6782SOL    HW131982   1.044   3.383  13.133 -0.3676  2.0974 -1.0052
 6782SOL    HW231983   0.898   3.369  13.098  0.7914 -0.0132 -0.2608
 6783SOL     OW31984   0.843   4.494   9.805  0.7790 -0.2749  0.2325
 6783SOL    HW131985   0.809   4.419   9.854 -1.9882 -0.7014 -2.3051
 6783SOL    HW231986   0.818   4.553   9.876  3.1878 -0.7017  1.4428
 6784SOL     OW31987   0.315   2.603   1.659  0.3475 -0.1969  0.1517
 6784SOL    HW131988   0.240   2.548   1.681  0.2391 -0.9268 -2.0646
 6784SOL    HW231989   0.335   2.651   1.740 -1.8830  0.1447  0.4913
 6785SOL     OW31990   1.975   3.445  16.634  0.4008 -0.1080  0.2648
 6785SOL    HW131991   1.990   3.513  16.699 -0.5744 -2.7927  3.2604
 6785SOL    HW231992   2.001   3.364  16.677 -0.1457 -1.5428 -2.1282
 6786SOL     OW31993   2.050   2.091   5.088 -0.1902  0.6007 -0.0130
 6786SOL    HW131994   2.011   2.011   5.051 -0.4284  0.5360  0.3818
 6786SOL    HW231995   2.026   2.081   5.180 -0.2980  0.5777 -0.0436
 6787SOL     OW31996   1.529   0.321  12.917  0.0495  0.0867 -0.5315
 6787SOL    HW131997   1.468   0.326  12.991 -3.7185  0.9444 -3.6944
 6787SOL    HW231998   1.563   0.410  12.904  0.2400  0.1460  0.3689
 6788SOL     OW31999   3.179   0.440   2.122 -0.1111 -0.2801  0.0539
 6788SOL    HW132000   3.245   0.398   2.178  0.9636  2.8424  1.1391
 6788SOL    HW232001   3.196   0.396   2.039  0.2115 -0.6221  0.3013
 6789SOL     OW32002   1.876   0.506  12.339 -0.0302  0.0382  0.1597
 6789SOL    HW132003   1.781   0.512  12.338 -0.1048 -1.3573 -2.7720
 6789SOL    HW232004   1.898   0.558  12.262 -0.6191 -1.1252 -0.8016
 6790SOL     OW32005   4.166   3.627   1.540  0.2447 -0.4789 -0.2605
 6790SOL    HW132006   4.094   3.567   1.517 -1.2637  1.1700  0.1496
 6790SOL    HW232007   4.122   3.675   1.611  0.5031 -1.3199  0.4667
 6791SOL     OW32008   2.637   3.612  16.453 -0.4774 -0.1142 -0.1255
 6791SOL    HW132009   2.557   3.627  16.403 -0.6593 -1.6713 -0.2909
 6791SOL    HW232010   2.608   3.652  16.534  0.6457  2.1765 -0.8357
 6792SOL     OW32011   1.639   0.766   3.744  0.0937  0.3359 -0.0926
 6792SOL    HW132012   1.643   0.706   3.669 -2.0762  1.2171 -0.9062
 6792SOL    HW232013   1.728   0.767   3.779 -0.3709 -1.4601  1.1007
 6793SOL     OW32014   2.458   0.662  12.925  0.1784 -0.0546 -0.8386
 6793SOL    HW132015   2.437   0.751  12.956  0.1053 -1.4857  3.2195
 6793SOL    HW232016   2.401   0.647  12.850  2.0971 -0.7850 -2.1520
 6794SOL     OW32017   0.503   4.110   4.872 -0.1963  0.8964  0.0810
 6794SOL    HW132018   0.551   4.193   4.872 -0.9801  1.3443 -0.3587
 6794SOL    HW232019   0.559   4.071   4.805 -0.3918 -1.5851  1.3709
 6795SOL     OW32020   1.569   0.254   5.373  0.2316  0.0145  0.3631
 6795SOL    HW132021   1.602   0.221   5.290 -0.3415  1.4040 -0.4184
 6795SOL    HW232022   1.490   0.297   5.340  0.8180 -0.0692 -1.1314
 6796SOL     OW32023   1.126   1.104   5.667  0.1064 -0.3724  0.5741
 6796SOL    HW132024   1.114   1.196   5.647  1.7461 -0.3720 -0.3630
 6796SOL    HW232025   1.204   1.103   5.722 -0.0236  0.2908  0.7677
 6797SOL     OW32026   1.724   1.793   5.452  0.4816  0.0861 -0.8445
 6797SOL    HW132027   1.793   1.728   5.440  0.1119 -0.3726 -0.4779
 6797SOL    HW232028   1.715   1.839   5.369  0.6865  0.8087 -0.4654
 6798SOL     OW32029   4.563   3.307  16.820  0.0029 -0.3090  0.4474
 6798SOL    HW132030   4.504   3.325  16.894 -0.7568  0.2430 -0.3011
 6798SOL    HW232031   4.555   3.211  16.813  0.7045 -0.3859  0.6794
 6799SOL     OW32032   2.806   4.089   7.269 -0.1485 -0.3329 -0.1577
 6799SOL    HW132033   2.818   4.067   7.177 -3.3553  1.1581 -0.9655
 6799SOL    HW232034   2.710   4.097   7.275  0.0809  1.5988  1.1347
 6800SOL     OW32035   0.558   1.087   2.602  0.2218 -0.2333  0.0307
 6800SOL    HW132036   0.615   1.016   2.631  0.8084  0.8431  1.5056
 6800SOL    HW232037   0.470   1.053   2.585 -0.7512  1.8877  0.8407
 6801SOL     OW32038   1.092   2.031   6.536  0.0189 -0.4725 -0.0729
 6801SOL    HW132039   1.082   2.047   6.442 -2.1909 -0.1855  0.2068
 6801SOL    HW232040   1.004   2.050   6.567  0.1297 -0.7903  0.4346
 6802SOL     OW32041   3.428   1.239   4.371  0.3004 -0.4165  0.4759
 6802SOL    HW132042   3.502   1.280   4.415 -0.5017 -1.7435  3.0744
 6802SOL    HW232043   3.395   1.209   4.456 -0.8802  0.3770  0.3007
 6803SOL     OW32044   2.402   1.499  16.391 -0.5197 -0.0398 -0.0188
 6803SOL    HW132045   2.377   1.408  16.371  1.5777 -0.0271 -2.7364
 6803SOL    HW232046   2.412   1.538  16.304  1.0565  0.6520  0.4635
 6804SOL     OW32047   3.260   4.682  12.392 -0.1113  0.4029  0.0407
 6804SOL    HW132048   3.241   4.589  12.392 -0.8402  0.5504 -0.9875
 6804SOL    HW232049   3.325   4.682  12.462  1.1700 -2.2691 -1.1639
 6805SOL     OW32050   0.859   1.058   7.231  0.1607 -0.5684 -0.1286
 6805SOL    HW132051   0.916   0.985   7.204  0.8843 -0.5921  1.4949
 6805SOL    HW232052   0.884   1.085   7.319 -0.7274 -3.3331  1.0028
 6806SOL     OW32053   2.333   0.903  16.711  0.4622  0.2800 -0.4641
 6806SOL    HW132054   2.337   0.821  16.760 -2.2752  0.9986  0.9730
 6806SOL    HW232055   2.251   0.897  16.661  0.1837 -0.0114  0.0224
 6807SOL     OW32056   1.919   2.573   9.292  0.2839 -0.2919  0.0581
 6807SOL    HW132057   1.913   2.629   9.369 -1.5019 -0.2835 -0.0703
 6807SOL    HW232058   1.862   2.499   9.313  0.2222 -0.8483 -2.0155
 6808SOL     OW32059   2.041   2.254   2.238 -0.7278  0.2756 -0.3102
 6808SOL    HW132060   2.062   2.220   2.152  0.4733 -0.7906  0.4042
 6808SOL    HW232061   1.948   2.231   2.235 -0.2946 -1.3708 -1.0039
 6809SOL     OW32062   2.584   2.124   6.769  0.4813  0.2250  0.5006
 6809SOL    HW132063   2.556   2.182   6.840  1.3457  0.1691  0.9003
 6809SOL    HW232064   2.556   2.040   6.805 -2.1054  1.6279  1.7510
 6810SOL     OW32065   2.445   0.798   9.297  0.2127 -0.0408 -0.1117
 6810SOL    HW132066   2.463   0.809   9.391 -0.7597 -1.5718  0.2519
 6810SOL    HW232067   2.481   0.879   9.261 -1.3172  0.9361  0.5841
 6811SOL     OW32068   1.627   3.854  12.692 -0.5538 -0.0238 -0.4757
 6811SOL    HW132069   1.718   3.874  12.711 -1.5784  1.1313  3.2936
 6811SOL    HW232070   1.594   3.937  12.658 -0.9148 -0.1964 -0.5554
 6812SOL     OW32071   3.746   2.181  10.504  0.6985 -0.1106  0.6933
 6812SOL    HW132072   3.789   2.097  10.495  0.2083 -0.3990  1.0477
 6812SOL    HW232073   3.816   2.245  10.490  0.7531 -0.3292 -0.0488
 6813SOL     OW32074   2.998   4.379   5.421  0.0695 -0.2289  0.3608
 6813SOL    HW132075   3.065   4.442   5.449 -1.5961  2.0535 -0.8183
 6813SOL    HW232076   2.999   4.383   5.325  1.5856  0.2043  0.3958
 6814SOL     OW32077   4.723   4.440  12.173  0.5106 -0.0577 -0.4555
 6814SOL    HW132078   4.679   4.442  12.258 -0.6076 -2.7460 -0.9782
 6814SOL    HW232079   0.058   4.379  12.189  1.4939  1.0645 -0.6048
 6815SOL     OW32080   2.124   0.036  15.129  0.2840  1.0646  0.0245
 6815SOL    HW132081   2.170   4.718  15.194 -0.0935 -2.1107 -2.3964
 6815SOL    HW232082   2.114   4.701  15.067  3.0152 -0.3654  1.2059
 6816SOL     OW32083   1.842   1.001  12.331  0.5005  0.0906 -0.0992
 6816SOL    HW132084   1.812   1.090  12.311 -3.2092 -1.2950 -0.8050
 6816SOL    HW232085   1.875   0.971  12.246  0.1303 -2.7046  0.7321
 6817SOL     OW32086   2.487   3.453  10.263  0.4423  0.2593  0.2669
 6817SOL    HW132087   2.568   3.402  10.267 -0.4903 -1.1905  0.9882
 6817SOL    HW232088   2.512   3.518  10.198 -0.0778  0.9424  0.7547
 6818SOL     OW32089   1.233   0.692   4.142 -0.4976 -0.4833  0.6207
 6818SOL    HW132090   1.219   0.627   4.074 -0.5522 -0.7766  0.9104
 6818SOL    HW232091   1.185   0.767   4.108 -1.1238 -1.1638 -0.0054
 6819SOL     OW32092   4.663   1.343   1.904 -0.0813  0.3701  0.1051
 6819SOL    HW132093   4.691   1.307   1.988  2.3450 -0.3156 -0.9893
 6819SOL    HW232094   4.591   1.401   1.930 -0.8622 -0.0966 -1.0417
 6820SOL     OW32095   3.478   3.324  12.693 -0.5310 -0.0467  0.3344
 6820SOL    HW132096   3.418   3.363  12.631  0.4667  3.0270  1.3227
 6820SOL    HW232097   3.563   3.317  12.648 -1.1554  1.7398 -1.1253
 6821SOL     OW32098   4.162   4.528   6.971  0.6195  0.4499 -0.3781
 6821SOL    HW132099   4.095   4.487   7.025  1.8138 -0.4571  0.3845
 6821SOL    HW232100   4.242   4.514   7.021  0.7651 -1.3809 -1.1479
 6822SOL     OW32101   3.871   0.964  10.795  0.0036 -0.3284  0.0600
 6822SOL    HW132102   3.822   0.999  10.869  0.7087  1.3258 -0.2503
 6822SOL    HW232103   3.942   0.928  10.846  1.2917  0.4642 -1.1691
 6823SOL     OW32104   4.592   4.389   1.692  0.3522 -0.3420 -0.3143
 6823SOL    HW132105   4.674   4.353   1.726  1.1065 -0.2870 -2.0828
 6823SOL    HW232106   4.537   4.385   1.771  0.7147  0.5426 -0.0238
 6824SOL     OW32107   3.021   0.699   8.098 -0.0767  0.6072 -0.2398
 6824SOL    HW132108   2.967   0.775   8.116 -0.2992  0.5936 -0.8344
 6824SOL    HW232109   2.950   0.635   8.101  3.3475 -3.2437 -0.9995
 6825SOL     OW32110   1.800   3.034   6.856  0.5106 -0.0579  0.6405
 6825SOL    HW132111   1.732   3.077   6.907 -2.7398 -2.0033 -2.0509
 6825SOL    HW232112   1.753   3.048   6.774 -0.2791 -0.6107  0.9964
 6826SOL     OW32113   2.838   4.469   6.541  0.1084 -0.2327 -0.9030
 6826SOL    HW132114   2.805   4.394   6.492 -4.1703  1.3212 -0.4087
 6826SOL    HW232115   2.819   4.538   6.477  3.4370  1.0680 -0.5176
 6827SOL     OW32116   3.868   1.324   1.221 -0.4722  0.2541  0.2786
 6827SOL    HW132117   3.821   1.338   1.303  2.2789 -1.6642  2.2097
 6827SOL    HW232118   3.927   1.399   1.213 -1.4298  1.2298  2.3688
 6828SOL     OW32119   2.155   1.751  16.122 -0.5439 -0.7203 -0.4744
 6828SOL    HW132120   2.201   1.746  16.206  0.4502  1.1061 -0.8953
 6828SOL    HW232121   2.217   1.782  16.056  1.2673  1.3294  2.2124
 6829SOL     OW32122   3.014   3.890   5.261  0.2337 -1.0168 -0.1773
 6829SOL    HW132123   3.047   3.959   5.203 -0.2032  0.1591  0.9914
 6829SOL    HW232124   3.076   3.886   5.333 -0.9813  1.8071  0.9987
 6830SOL     OW32125   0.682   1.876   8.889 -0.0339 -0.2394  0.3143
 6830SOL    HW132126   0.654   1.967   8.878 -0.1205 -0.2373  0.5523
 6830SOL    HW232127   0.603   1.848   8.936 -1.3653  1.6508 -0.8066
 6831SOL     OW32128   3.516   0.795   4.783  0.7818 -0.0188 -0.0141
 6831SOL    HW132129   3.430   0.788   4.740  0.5227  2.6173  0.0934
 6831SOL    HW232130   3.572   0.841   4.721 -0.7755  1.2012 -0.5009
 6832SOL     OW32131   1.905   4.015  16.812  0.1638 -0.4052 -0.3405
 6832SOL    HW132132   1.956   4.045  16.888  0.3430 -2.2053  0.2534
 6832SOL    HW232133   1.975   3.994  16.750  1.0888  0.9520  0.2255
 6833SOL     OW32134   1.073   4.330  15.763  0.3470  0.4941  1.0159
 6833SOL    HW132135   1.138   4.317  15.694  0.2462 -2.4475  1.4952
 6833SOL    HW232136   1.127   4.356  15.838  0.9952  0.3848  0.5828
 6834SOL     OW32137   2.530   4.690   0.130 -0.3747  0.6160 -0.4290
 6834SOL    HW132138   2.621   4.693   0.158 -0.4100 -0.0395 -0.2471
 6834SOL    HW232139   2.507   0.044   0.112 -2.0975 -0.0049 -1.4443
 6835SOL     OW32140   3.468   4.110   1.015 -0.3497 -0.4270  0.5712
 6835SOL    HW132141   3.439   4.105   0.924 -1.6633 -2.6154  1.1013
 6835SOL    HW232142   3.483   4.022   1.051 -1.4976 -1.2242 -0.8819
 6836SOL     OW32143   2.688   4.664   5.316 -0.0215 -0.0662  0.0307
 6836SOL    HW132144   2.775   4.652   5.354  1.3511  2.6579 -2.1656
 6836SOL    HW232145   2.632   4.642   5.390  1.4925  2.4525  1.9313
 6837SOL     OW32146   3.466   0.061   1.499 -0.4544 -0.3975 -0.5098
 6837SOL    HW132147   3.435   0.022   1.581 -2.3003 -1.4246 -1.7000
 6837SOL    HW232148   3.528   0.125   1.535 -1.2037  1.2168 -2.0898
 6838SOL     OW32149   1.881   2.416   6.505  0.2734 -0.1073  0.2320
 6838SOL    HW132150   1.832   2.347   6.548 -0.2125 -0.9147 -1.6251
 6838SOL    HW232151   1.964   2.383   6.539  0.5395  0.2704 -0.0368
 6839SOL     OW32152   2.909   0.750   9.018 -0.4905 -0.1632  0.2867
 6839SOL    HW132153   2.824   0.711   9.039 -2.3136  2.2681 -2.5123
 6839SOL    HW232154   2.883   0.825   8.964  2.0442  0.3526 -0.1817
 6840SOL     OW32155   2.559   2.167   6.239  0.0777  0.6904  0.3535
 6840SOL    HW132156   2.483   2.115   6.213  0.2447  0.3785  0.4923
 6840SOL    HW232157   2.555   2.159   6.335 -1.3847  0.2266  0.2501
 6841SOL     OW32158   2.157   4.038   0.216 -0.2211  0.9841  0.4074
 6841SOL    HW132159   2.224   4.095   0.254  0.5675  1.1917 -1.2825
 6841SOL    HW232160   2.180   3.961   0.267 -1.5913  0.4113  0.1693
 6842SOL     OW32161   1.328   2.786   2.953  0.0472  0.4073  0.9038
 6842SOL    HW132162   1.244   2.766   2.994  0.4567 -2.7474  0.1847
 6842SOL    HW232163   1.385   2.746   3.018 -0.4999  1.1518  1.8482
 6843SOL     OW32164   4.025   1.366  13.242 -0.1577 -0.0594  0.3814
 6843SOL    HW132165   4.104   1.376  13.295  0.5994 -0.9622 -0.5774
 6843SOL    HW232166   4.061   1.356  13.154 -1.0351  1.4380 -0.1483
 6844SOL     OW32167   3.492   3.415  16.182  0.4836 -0.4885 -0.0051
 6844SOL    HW132168   3.568   3.463  16.214  0.3226  0.8789 -1.6490
 6844SOL    HW232169   3.487   3.346  16.247  3.2242  0.4238  1.1580
 6845SOL     OW32170   3.646   4.409   4.276  0.3011  0.0062 -0.1145
 6845SOL    HW132171   3.719   4.470   4.263 -0.8154  1.1433 -0.9509
 6845SOL    HW232172   3.575   4.466   4.304  0.1010 -1.5741  2.5733
 6846SOL     OW32173   2.741   3.351  10.256 -0.1526  0.1351 -0.1505
 6846SOL    HW132174   2.746   3.367  10.162 -1.1915  0.5089 -0.1408
 6846SOL    HW232175   2.827   3.374  10.291  1.6452 -4.9468 -1.1134
 6847SOL     OW32176   1.113   1.326  10.711 -0.1962 -0.5640  0.4757
 6847SOL    HW132177   1.054   1.367  10.774 -1.8402 -1.2175 -0.6238
 6847SOL    HW232178   1.053   1.318  10.637  1.7126  1.9699 -1.3644
 6848SOL     OW32179   0.197   2.338   8.379  0.1381  0.4845 -0.2602
 6848SOL    HW132180   0.109   2.375   8.382  0.0793  0.3704 -0.5845
 6848SOL    HW232181   0.246   2.383   8.447 -0.6987  1.7209 -0.4741
 6849SOL     OW32182   2.987   1.314   9.447 -0.0069  0.1820 -0.8057
 6849SOL    HW132183   2.892   1.327   9.453  0.1696  2.0820 -2.1646
 6849SOL    HW232184   3.012   1.405   9.430  2.1667  0.4576  3.8207
 6850SOL     OW32185   2.284   2.333   6.247 -0.0224 -0.6938  0.7321
 6850SOL    HW132186   2.210   2.388   6.223  2.1814  1.8662 -0.2953
 6850SOL    HW232187   2.295   2.276   6.171 -2.0213 -0.8323  0.5422
 6851SOL     OW32188   0.971   0.678   2.443  0.0420  0.4818  0.0223
 6851SOL    HW132189   0.950   0.584   2.443 -1.0813  0.7400 -1.9807
 6851SOL    HW232190   0.894   0.725   2.411 -0.9078 -0.8973  0.2439
 6852SOL     OW32191   3.003   3.589   2.219 -0.2931 -0.1902 -0.2453
 6852SOL    HW132192   3.028   3.498   2.203 -1.1356 -0.6499  1.1020
 6852SOL    HW232193   3.079   3.636   2.184 -0.1317  0.7129  1.2973
 6853SOL     OW32194   1.965   3.968  12.492  0.8982  0.2309 -0.2945
 6853SOL    HW132195   1.870   3.963  12.485  0.7123  1.7144  0.9905
 6853SOL    HW232196   1.983   4.052  12.449  2.8350 -0.6494 -1.1698
 6854SOL     OW32197   0.441   2.493   8.996 -0.0562  0.1896  0.2139
 6854SOL    HW132198   0.517   2.510   9.051 -1.7208  0.1623  2.5642
 6854SOL    HW232199   0.385   2.570   9.009  1.3265  1.2588 -0.2548
 6855SOL     OW32200   4.597   0.805  13.304 -0.3197 -0.1148 -0.0206
 6855SOL    HW132201   4.641   0.739  13.357  3.1229  0.1771 -2.5461
 6855SOL    HW232202   4.652   0.880  13.329 -0.1348  0.0314 -0.8692
 6856SOL     OW32203   0.968   2.919   9.335 -0.1413  0.0298  0.2006
 6856SOL    HW132204   0.977   2.936   9.428 -0.8545 -0.0445  0.2834
 6856SOL    HW232205   1.025   2.844   9.314 -0.1311 -0.5199  2.1638
 6857SOL     OW32206   2.993   3.981   4.448 -0.4912 -0.0342  0.4507
 6857SOL    HW132207   3.049   4.027   4.386  0.5314  0.2240  1.5741
 6857SOL    HW232208   2.995   3.900   4.398 -2.0253  0.2554 -0.0743
 6858SOL     OW32209   1.582   1.383   4.580 -0.2964  0.4030 -0.0763
 6858SOL    HW132210   1.508   1.425   4.624 -0.4608 -0.7194  0.7143
 6858SOL    HW232211   1.601   1.466   4.536 -0.1258  0.1957 -0.3925
 6859SOL     OW32212   2.956   3.484   3.103 -0.1521  0.2287 -0.0323
 6859SOL    HW132213   2.990   3.397   3.122 -0.5370  0.2866  0.9061
 6859SOL    HW232214   3.026   3.526   3.053 -0.8321 -1.8313 -2.7749
 6860SOL     OW32215   4.431   2.281   8.360 -0.2492  0.0589 -0.3395
 6860SOL    HW132216   4.483   2.347   8.405 -0.7324 -0.1795  0.5701
 6860SOL    HW232217   4.463   2.287   8.270  2.4917  1.9251  0.7679
 6861SOL     OW32218   2.663   3.097  14.179 -0.2762 -0.1207  0.2390
 6861SOL    HW132219   2.686   3.028  14.117  1.9196 -0.5149  1.4744
 6861SOL    HW232220   2.614   3.160  14.126 -0.4857 -0.2023  0.3360
 6862SOL     OW32221   4.679   0.850  12.771  0.2693  0.7202 -0.2751
 6862SOL    HW132222   4.585   0.838  12.755  0.2891 -0.3513  0.4295
 6862SOL    HW232223   4.707   0.800  12.847  1.9269  1.6282 -0.3002
 6863SOL     OW32224   2.198   4.491  16.060  0.6685 -0.6800  0.7567
 6863SOL    HW132225   2.229   4.413  16.014  0.7037  1.0155 -2.0710
 6863SOL    HW232226   2.158   4.543  15.990 -0.1501 -1.5484  0.5774
 6864SOL     OW32227   4.693   0.365   8.323  0.5385 -0.3940 -0.2426
 6864SOL    HW132228   4.631   0.380   8.394  1.5634  1.7772  0.1984
 6864SOL    HW232229   4.691   0.269   8.318  0.0577 -0.5342  2.5278
 6865SOL     OW32230   4.123   0.463  14.774 -0.5365 -0.0566  0.2724
 6865SOL    HW132231   4.189   0.523  14.740  0.9689 -0.6367  2.1997
 6865SOL    HW232232   4.162   0.378  14.759  0.7338  0.3656  1.1538
 6866SOL     OW32233   2.611   0.562   5.186 -0.0062  0.4354 -0.1219
 6866SOL    HW132234   2.543   0.497   5.206 -0.9377  2.1112  2.1264
 6866SOL    HW232235   2.675   0.499   5.152  0.0157  0.8364 -0.8221
 6867SOL     OW32236   1.146   4.325   2.245 -0.5415  0.0368 -0.3383
 6867SOL    HW132237   1.223   4.367   2.283 -1.0174  0.8512 -0.2678
 6867SOL    HW232238   1.087   4.391   2.209 -1.4674  0.7007  2.4065
 6868SOL     OW32239   1.016   0.570   5.624 -0.1183 -0.1588 -0.3364
 6868SOL    HW132240   0.984   0.498   5.570 -2.1173  0.7254 -0.3250
 6868SOL    HW232241   1.050   0.632   5.559 -0.9338  0.5172 -0.1182
 6869SOL     OW32242   1.126   0.789   5.405  0.0162 -0.1657  0.6593
 6869SOL    HW132243   1.105   0.837   5.325  0.8600  0.2932  0.7167
 6869SOL    HW232244   1.067   0.833   5.466 -0.7527  0.2364 -0.3697
 6870SOL     OW32245   0.277   2.236   8.710  0.5525 -0.1306 -0.2899
 6870SOL    HW132246   0.317   2.313   8.669  2.9767 -1.4998 -0.5004
 6870SOL    HW232247   0.186   2.254   8.685 -0.2029 -2.3595  0.8921
 6871SOL     OW32248   3.959   4.595   2.962  0.0184  0.2226 -0.2198
 6871SOL    HW132249   4.030   4.631   2.909  2.1821 -0.3382  2.2971
 6871SOL    HW232250   4.006   4.555   3.035 -0.5642 -2.4648 -1.2943
 6872SOL     OW32251   2.875   0.586   7.052  0.5788 -0.4551 -0.3179
 6872SOL    HW132252   2.807   0.653   7.044  1.0544 -0.0557 -0.9983
 6872SOL    HW232253   2.864   0.526   6.979  1.0861 -2.9504  1.6517
 6873SOL     OW32254   3.284   0.400  12.565  0.0971 -0.3313 -0.1183
 6873SOL    HW132255   3.200   0.396  12.519  0.2582  0.6705 -0.5072
 6873SOL    HW232256   3.276   0.480  12.617  0.9319  0.5199 -1.2999
 6874SOL     OW32257   2.247   3.178   8.940  0.6129 -0.4754  0.1257
 6874SOL    HW132258   2.156   3.148   8.943  0.6050 -0.2246  2.0948
 6874SOL    HW232259   2.289   3.129   9.011 -0.3059 -0.8024  0.4436
 6875SOL     OW32260   2.502   2.043   1.215 -0.0089  0.8362 -0.0317
 6875SOL    HW132261   2.528   1.955   1.188 -1.5842 -0.0598  1.3498
 6875SOL    HW232262   2.579   2.091   1.185 -0.3221  1.4167  0.1024
 6876SOL     OW32263   3.924   1.532   3.329 -0.5986  0.2644 -0.1062
 6876SOL    HW132264   3.945   1.619   3.364  0.6820 -0.3197  0.5772
 6876SOL    HW232265   3.927   1.559   3.237 -0.3396  0.1640 -0.1281
 6877SOL     OW32266   2.753   0.141   1.745  0.1749  0.2583 -0.0078
 6877SOL    HW132267   2.662   0.119   1.762  1.5803 -2.6228  3.7729
 6877SOL    HW232268   2.801   0.078   1.800 -0.2675  0.6936  0.8698
 6878SOL     OW32269   1.561   0.204   2.115 -0.6756 -0.2976 -0.1309
 6878SOL    HW132270   1.563   0.108   2.122  1.0988 -0.2805 -0.5462
 6878SOL    HW232271   1.474   0.213   2.156  1.2272  1.1368  3.5742
 6879SOL     OW32272   3.895   4.080   1.947 -0.3914 -0.4892 -0.4146
 6879SOL    HW132273   3.867   3.994   1.918  1.2835 -0.8323 -1.0328
 6879SOL    HW232274   3.841   4.099   2.024  0.2845 -0.4627  0.0528
 6880SOL     OW32275   4.620   2.415   5.790 -0.2145 -0.0592  0.1369
 6880SOL    HW132276   4.611   2.421   5.695 -1.1039 -2.2458  0.0728
 6880SOL    HW232277   4.704   2.459   5.803  0.8571 -1.6147 -1.5401
 6881SOL     OW32278   4.307   2.960   3.565 -0.2516 -0.0312  0.3253
 6881SOL    HW132279   4.240   2.977   3.631  1.2663  0.0200  1.8610
 6881SOL    HW232280   4.386   2.970   3.619 -0.0226 -3.1436  0.5491
 6882SOL     OW32281   3.877   2.081  15.047  0.2508  0.4444  0.8069
 6882SOL    HW132282   3.858   2.073  15.140  1.7666 -2.5026  0.8570
 6882SOL    HW232283   3.889   2.176  15.047 -1.5038  0.6753 -0.3308
 6883SOL     OW32284   1.793   2.139   7.804 -0.1187  0.1676  0.1300
 6883SOL    HW132285   1.807   2.189   7.884 -0.9783  0.1422  0.2967
 6883SOL    HW232286   1.794   2.213   7.743 -0.5057 -0.2450 -0.3842
 6884SOL     OW32287   4.173   3.235   7.900  0.1962 -0.0300 -0.2326
 6884SOL    HW132288   4.084   3.217   7.931  0.1246  1.1603  0.2562
 6884SOL    HW232289   4.156   3.308   7.840 -1.6995  0.1457  0.5329
 6885SOL     OW32290   3.627   0.585   5.788  0.0855 -0.6651  0.2370
 6885SOL    HW132291   3.698   0.585   5.724  1.2492  0.7847  1.5227
 6885SOL    HW232292   3.564   0.644   5.748  0.7545  0.8085  1.3475
 6886SOL     OW32293   3.594   1.934   2.579  0.1575 -0.3932 -0.1310
 6886SOL    HW132294   3.522   1.883   2.616  1.2540 -1.7919  0.0884
 6886SOL    HW232295   3.571   2.022   2.608 -2.2111 -0.7561 -0.9169
 6887SOL     OW32296   1.276   0.730   1.425  0.7874  0.0469  0.1056
 6887SOL    HW132297   1.346   0.721   1.489  0.6861 -0.3316  0.1635
 6887SOL    HW232298   1.206   0.759   1.484  0.3770 -2.5319  0.8783
 6888SOL     OW32299   0.969   4.155   1.958 -0.2946 -0.4688  0.3579
 6888SOL    HW132300   1.052   4.108   1.964  0.4663  1.1023  2.4619
 6888SOL    HW232301   0.914   4.089   1.917  0.2335  1.1141 -2.8491
 6889SOL     OW32302   0.035   3.286  17.579  0.0930 -0.6181  0.5309
 6889SOL    HW132303   0.092   3.360  17.600 -1.6409  0.5498  1.0198
 6889SOL    HW232304   4.712   3.323  17.515  0.7584  0.4325  0.5195
 6890SOL     OW32305   3.382   1.581   9.314 -0.1810  0.0543  0.1832
 6890SOL    HW132306   3.312   1.544   9.260 -0.5897  0.6277  0.3218
 6890SOL    HW232307   3.451   1.514   9.305 -0.6525 -0.3811 -0.1840
 6891SOL     OW32308   0.509   4.264   6.747 -0.2470 -0.2413 -0.0663
 6891SOL    HW132309   0.511   4.266   6.843  0.8613  1.7012 -0.1158
 6891SOL    HW232310   0.568   4.336   6.724 -0.9103 -0.7337 -3.3786
 6892SOL     OW32311   0.886   2.276   6.843  0.0744 -0.6007  0.1109
 6892SOL    HW132312   0.941   2.226   6.904  0.3682 -0.6491 -0.1940
 6892SOL    HW232313   0.886   2.359   6.892 -2.7710 -1.0692  0.8877
 6893SOL     OW32314   2.259   1.330   7.550 -0.1349  0.6013 -0.3573
 6893SOL    HW132315   2.322   1.390   7.511  1.4766 -1.0106 -0.2081
 6893SOL    HW232316   2.251   1.366   7.639 -0.9572 -1.0289  0.2320
 6894SOL     OW32317   1.385   2.868  17.429 -0.5075 -0.2528 -0.6465
 6894SOL    HW132318   1.370   2.913  17.346 -4.1922 -1.3260 -0.5865
 6894SOL    HW232319   1.394   2.940  17.493  1.7263 -2.7340  1.8035
 6895SOL     OW32320   2.975   4.586   2.643 -0.1840 -0.7051 -0.7633
 6895SOL    HW132321   2.977   4.584   2.739 -1.0501  1.9019 -0.6931
 6895SOL    HW232322   2.917   4.511   2.628 -1.1615 -0.1327  0.1226
 6896SOL     OW32323   0.160   0.094   7.225  0.2280 -0.4088  0.5785
 6896SOL    HW132324   0.234   0.135   7.180  0.6858  0.1971  1.8725
 6896SOL    HW232325   0.192   0.092   7.316  0.6316 -0.8345  0.4290
 6897SOL     OW32326   3.991   0.549  10.447  0.5879 -0.0518 -0.0509
 6897SOL    HW132327   3.940   0.543  10.528  2.3078  1.0524  1.1037
 6897SOL    HW232328   4.071   0.505  10.476 -0.1142 -0.9527  0.5389
 6898SOL     OW32329   4.489   1.431   4.415  0.2121 -0.2076 -0.0652
 6898SOL    HW132330   4.431   1.355   4.409  1.8701 -1.3747 -1.0763
 6898SOL    HW232331   4.568   1.387   4.385 -1.1579 -2.8726  0.2208
 6899SOL     OW32332   1.287   0.691   7.975 -0.5920 -0.7683  0.0346
 6899SOL    HW132333   1.203   0.653   7.999 -1.0638  0.7396  0.7880
 6899SOL    HW232334   1.343   0.687   8.052  0.5545 -0.9555 -0.8092
 6900SOL     OW32335   1.265   0.666  12.439  0.8904 -0.1293  0.0673
 6900SOL    HW132336   1.207   0.695  12.509  2.0347 -0.1961  1.0438
 6900SOL    HW232337   1.331   0.736  12.440  1.5842 -0.7333 -2.6836
 6901SOL     OW32338   2.851   3.834  16.722 -0.1297  0.3338  0.5463
 6901SOL    HW132339   2.803   3.861  16.644  3.1764 -0.6627 -1.8184
 6901SOL    HW232340   2.825   3.903  16.783  3.0842  1.5688  0.5015
 6902SOL     OW32341   0.092   4.715  16.204  0.1286 -0.7402 -0.0514
 6902SOL    HW132342   0.150   0.003  16.276 -0.2066  2.8573 -1.0248
 6902SOL    HW232343   0.078   0.067  16.171  2.2536 -0.3713  0.0614
 6903SOL     OW32344   2.306   4.272   7.799  0.3804 -0.1861  0.1981
 6903SOL    HW132345   2.270   4.232   7.719 -0.2684 -1.3116  1.0364
 6903SOL    HW232346   2.396   4.284   7.771 -0.7022  3.6135 -1.5814
 6904SOL     OW32347   3.689   1.633   3.074 -0.1397 -0.0840 -0.5229
 6904SOL    HW132348   3.676   1.539   3.083  0.2264 -0.1982 -1.2110
 6904SOL    HW232349   3.686   1.657   3.167 -1.7658  0.7286 -0.7847
 6905SOL     OW32350   2.258   1.567   2.214 -0.1939 -0.2012 -0.0858
 6905SOL    HW132351   2.233   1.552   2.305  1.4187  1.7962  0.6848
 6905SOL    HW232352   2.347   1.603   2.217 -0.0635 -0.6648  1.5192
 6906SOL     OW32353   3.688   4.369  12.185 -0.0607  0.3393 -0.5888
 6906SOL    HW132354   3.702   4.463  12.193 -2.0530  0.8848 -3.5258
 6906SOL    HW232355   3.731   4.343  12.267 -1.3699 -1.4653 -0.4563
 6907SOL     OW32356   0.148   4.209   2.550  0.1831 -0.0293 -0.1764
 6907SOL    HW132357   0.216   4.149   2.520 -0.4589 -0.2669 -1.1765
 6907SOL    HW232358   0.075   4.185   2.493 -0.9225  2.2246  0.2943
 6908SOL     OW32359   0.257   1.664   0.590 -0.6073 -0.3774 -0.1132
 6908SOL    HW132360   0.275   1.757   0.580 -2.7917 -0.2051 -2.5374
 6908SOL    HW232361   0.343   1.632   0.562 -1.6155 -0.7693 -2.7944
 6909SOL     OW32362   1.320   1.654  11.564 -0.4475 -0.8184 -0.1912
 6909SOL    HW132363   1.304   1.711  11.488  0.4935 -0.3945 -0.0717
 6909SOL    HW232364   1.414   1.637  11.551 -0.1453  1.8375 -1.6331
 6910SOL     OW32365   2.656   3.577   1.531  0.3278  0.1143 -0.2611
 6910SOL    HW132366   2.583   3.552   1.588  2.3228  0.7660  2.5618
 6910SOL    HW232367   2.638   3.664   1.496 -1.0653  0.3734  1.0983
 6911SOL     OW32368   0.713   2.019   0.807  0.0242 -0.0748 -0.0245
 6911SOL    HW132369   0.771   1.985   0.875  0.6831  0.8852 -0.1134
 6911SOL    HW232370   0.694   2.109   0.834  1.2196  0.4149 -0.8645
 6912SOL     OW32371   0.898   2.556   0.069  0.2650  0.0071 -0.1881
 6912SOL    HW132372   0.976   2.510   0.100  0.5548  0.0806 -0.7999
 6912SOL    HW232373   0.941   2.622   0.015 -0.1091 -1.9517 -2.9196
 6913SOL     OW32374   2.569   0.830  15.477 -0.2807 -0.0202  0.0990
 6913SOL    HW132375   2.649   0.777  15.470  0.9285  1.5164  2.2769
 6913SOL    HW232376   2.616   0.881  15.543 -0.4222 -1.1198  1.0377
 6914SOL     OW32377   2.204   3.423   4.924 -0.1839 -0.1099  0.2168
 6914SOL    HW132378   2.112   3.449   4.933 -0.4283 -1.0639  0.4882
 6914SOL    HW232379   2.257   3.501   4.911 -3.1504  1.3855 -2.8410
 6915SOL     OW32380   0.215   0.275   6.258 -0.1711 -0.2082  0.1963
 6915SOL    HW132381   0.257   0.306   6.338  0.1773 -1.3454  0.4681
 6915SOL    HW232382   0.276   0.304   6.191  0.2385 -0.9327  0.2491
 6916SOL     OW32383   1.406   3.192   3.521  0.1061  0.1237  0.2414
 6916SOL    HW132384   1.373   3.177   3.432 -1.1342 -3.5499  1.3186
 6916SOL    HW232385   1.322   3.229   3.549 -0.6535 -0.2290 -1.5782
 6917SOL     OW32386   0.914   3.142  10.922 -0.1212  0.1850  0.2674
 6917SOL    HW132387   0.947   3.169  11.007  1.1273  1.9110 -0.7620
 6917SOL    HW232388   0.821   3.165  10.928 -0.1706  0.1152 -0.2540
 6918SOL     OW32389   3.100   4.002   6.989  0.1020 -0.2895  0.2855
 6918SOL    HW132390   3.134   3.936   7.050  2.0525  1.6288  1.2760
 6918SOL    HW232391   3.016   4.018   7.031 -0.6312  1.8100 -1.9931
 6919SOL     OW32392   3.052   3.027  14.634 -0.5173  0.1373  0.2712
 6919SOL    HW132393   3.082   2.959  14.695 -2.8700 -1.3763 -0.2483
 6919SOL    HW232394   3.075   3.111  14.674 -1.0699  0.0637  0.7434
 6920SOL     OW32395   3.778   3.062   1.728  0.1907  0.6747  0.0614
 6920SOL    HW132396   3.845   3.013   1.680  1.2144  0.7517  1.4108
 6920SOL    HW232397   3.775   3.147   1.685 -0.8319 -0.5406 -2.2653
 6921SOL     OW32398   3.732   1.174   5.491 -1.1740  0.1634 -0.0884
 6921SOL    HW132399   3.709   1.266   5.483 -0.8821  0.2870  0.5056
 6921SOL    HW232400   3.700   1.144   5.406 -2.8816  1.9779 -0.0823
 6922SOL     OW32401   2.009   3.215   3.022 -0.4993  0.0625 -0.3456
 6922SOL    HW132402   2.086   3.237   3.073  0.9982 -0.8904 -2.2028
 6922SOL    HW232403   1.970   3.145   3.075 -1.9344  1.6749  0.6999
 6923SOL     OW32404   2.332   2.954   3.311 -0.2313  0.1826  0.9565
 6923SOL    HW132405   2.345   2.871   3.356 -0.2654  0.0082  0.6379
 6923SOL    HW232406   2.403   3.008   3.348  0.3294  0.1490 -0.0561
 6924SOL     OW32407   3.126   2.958  10.817 -0.1600  0.4874  0.0937
 6924SOL    HW132408   3.068   3.009  10.761 -1.4413 -1.6905 -0.5637
 6924SOL    HW232409   3.076   2.880  10.840  0.9925 -0.5204 -0.7795
 6925SOL     OW32410   0.608   0.355  16.823 -0.0218 -0.5364  0.0560
 6925SOL    HW132411   0.570   0.289  16.881 -0.5066  0.5789  0.9968
 6925SOL    HW232412   0.637   0.422  16.884  2.4494 -0.7985 -0.8171
 6926SOL     OW32413   2.979   0.329   7.907  0.1086 -0.1931 -0.1189
 6926SOL    HW132414   2.971   0.259   7.971  1.6006  0.7986  1.1669
 6926SOL    HW232415   2.892   0.368   7.905  0.1329 -0.1930 -0.9783
 6927SOL     OW32416   3.731   3.603  12.222  0.3961 -0.0928 -0.2009
 6927SOL    HW132417   3.772   3.648  12.149  1.8890  2.0657  1.9661
 6927SOL    HW232418   3.778   3.646  12.294 -0.7670 -0.0571  0.5384
 6928SOL     OW32419   1.108   4.224  12.814 -0.1181 -0.0999 -0.5138
 6928SOL    HW132420   1.132   4.303  12.766 -1.7984  1.4331  1.1635
 6928SOL    HW232421   1.154   4.160  12.759  1.2237  1.5415 -1.2826
 6929SOL     OW32422   3.911   0.945  14.467 -0.6325 -0.1532  0.0689
 6929SOL    HW132423   3.867   0.909  14.543  3.5044 -1.5393  1.8055
 6929SOL    HW232424   3.969   1.003  14.516  3.0845 -1.4436 -2.7935
 6930SOL     OW32425   1.878   0.293   2.239 -0.1415 -0.4315 -0.5611
 6930SOL    HW132426   1.902   0.209   2.279  2.4050  1.5323  2.1450
 6930SOL    HW232427   1.920   0.273   2.155 -1.2984  0.4615 -1.3413
 6931SOL     OW32428   4.169   3.973   3.272 -0.2480 -0.2785  0.2876
 6931SOL    HW132429   4.188   3.946   3.182 -2.1430  2.5217 -0.9208
 6931SOL    HW232430   4.082   3.938   3.292  0.2265  0.2824  3.2677
 6932SOL     OW32431   3.212   4.565   4.498 -0.2474 -0.2501  0.1685
 6932SOL    HW132432   3.116   4.570   4.500 -0.2195  0.2944  0.2542
 6932SOL    HW232433   3.230   4.631   4.565  2.2080  1.4199 -2.1129
 6933SOL     OW32434   0.109   1.139   0.505  0.0702 -0.0744  0.4118
 6933SOL    HW132435   0.183   1.100   0.551 -0.4819 -1.1466  0.3836
 6933SOL    HW232436   0.150   1.226   0.504  0.5841 -0.2927  1.9805
 6934SOL     OW32437   3.910   0.031  13.629 -0.1910  0.3488 -0.2904
 6934SOL    HW132438   3.901   0.116  13.586 -0.1897  0.0356 -0.9012
 6934SOL    HW232439   3.857   4.716  13.569  1.9104 -2.2277  0.0674
 6935SOL     OW32440   0.555   1.337   6.441  0.0417  0.6549 -0.5372
 6935SOL    HW132441   0.584   1.268   6.501 -0.1830  0.9311 -0.1146
 6935SOL    HW232442   0.469   1.297   6.428 -0.2761  1.3216 -0.4645
 6936SOL     OW32443   1.481   3.624  12.713  0.0090  0.0743  0.0347
 6936SOL    HW132444   1.568   3.587  12.727 -0.9022 -2.4311 -1.0414
 6936SOL    HW232445   1.514   3.711  12.738  1.6189 -0.4415 -0.2870
 6937SOL     OW32446   2.129   3.930   3.055 -1.0086  0.0391 -0.7847
 6937SOL    HW132447   2.129   3.836   3.035 -1.4805  0.1601 -1.3632
 6937SOL    HW232448   2.049   3.927   3.107  0.0011 -0.4050  0.7472
 6938SOL     OW32449   4.080   1.164   6.126  0.0120  0.5096  0.7958
 6938SOL    HW132450   4.173   1.146   6.136 -0.0661  0.1630  0.8753
 6938SOL    HW232451   4.036   1.081   6.143  0.5111 -0.5802 -3.2437
 6939SOL     OW32452   2.378   1.729  10.662 -0.1277  0.4191 -0.0072
 6939SOL    HW132453   2.473   1.733  10.652 -0.0544  0.7716  0.7612
 6939SOL    HW232454   2.341   1.674  10.593  1.9629 -1.1267  0.1171
 6940SOL     OW32455   1.608   4.388   3.711  0.2616  0.0568  0.0710
 6940SOL    HW132456   1.641   4.394   3.801 -1.2270  3.6199  0.3773
 6940SOL    HW232457   1.650   4.308   3.679  3.0202  2.3073 -1.9772
 6941SOL     OW32458   1.193   4.036   1.993  0.0438  0.0743 -0.6576
 6941SOL    HW132459   1.230   4.124   1.998  2.0408 -0.7916 -0.1812
 6941SOL    HW232460   1.271   3.981   2.002  0.0386  0.4892  2.0902
 6942SOL     OW32461   1.447   1.890  13.598  0.3910 -0.4621  0.0611
 6942SOL    HW132462   1.531   1.933  13.582  0.3015 -0.5318 -0.6026
 6942SOL    HW232463   1.422   1.877  13.507  0.5967 -0.3182 -0.0146
 6943SOL     OW32464   4.378   3.338   3.955  0.0936  0.2671 -0.0482
 6943SOL    HW132465   4.433   3.343   3.877  1.4853 -0.9069  0.8617
 6943SOL    HW232466   4.342   3.252   3.935  0.5699  0.1316 -0.3082
 6944SOL     OW32467   4.023   1.778   3.406 -0.4176  0.0934 -0.2833
 6944SOL    HW132468   4.080   1.829   3.348 -1.4881  1.0628 -0.4791
 6944SOL    HW232469   4.041   1.820   3.490 -2.3767 -0.8612  0.6112
 6945SOL     OW32470   0.922   1.178   0.427  0.2753 -0.2264 -0.1183
 6945SOL    HW132471   0.891   1.236   0.497  1.3111  0.1787  0.0063
 6945SOL    HW232472   1.017   1.185   0.437  0.0887  1.2468  0.7227
 6946SOL     OW32473   4.108   4.623   4.281  0.0955  0.6801  0.0249
 6946SOL    HW132474   4.136   4.541   4.241 -0.4620  0.7057 -0.4087
 6946SOL    HW232475   4.165   4.681   4.229  0.2129  0.6457  0.1156
 6947SOL     OW32476   3.881   0.379   4.411 -0.3911  0.3571 -0.0940
 6947SOL    HW132477   3.966   0.362   4.452 -0.0277  3.8527  0.5456
 6947SOL    HW232478   3.830   0.328   4.474  0.5159 -0.7943 -0.2802
 6948SOL     OW32479   3.543   2.139  10.700 -0.3069  0.2631 -0.3244
 6948SOL    HW132480   3.478   2.194  10.656  0.2613 -0.0676 -1.5813
 6948SOL    HW232481   3.620   2.147  10.643  0.2190 -0.3117  0.3096
 6949SOL     OW32482   0.746   0.864   2.416  0.3843  0.3973 -0.1698
 6949SOL    HW132483   0.675   0.927   2.403  0.0620  0.2268  0.8185
 6949SOL    HW232484   0.710   0.807   2.483 -1.0197  0.3487 -0.9523
 6950SOL     OW32485   4.000   1.260   6.441 -0.9491  0.1343  0.3872
 6950SOL    HW132486   4.016   1.340   6.491  0.5273  0.4838 -0.6450
 6950SOL    HW232487   4.078   1.254   6.385 -0.9594  2.0155  0.1668
 6951SOL     OW32488   0.413   4.723   8.167  0.3163  0.0721 -0.9962
 6951SOL    HW132489   0.509   4.722   8.162  0.4100  1.0013  0.6662
 6951SOL    HW232490   0.407   4.727   8.262 -1.5641  0.1221 -1.1343
 6952SOL     OW32491   2.094   0.519  11.852  0.2381 -0.2582 -0.1744
 6952SOL    HW132492   2.151   0.552  11.922  2.6479 -1.2316 -1.6678
 6952SOL    HW232493   2.018   0.573  11.871  1.7894  1.5491  0.9075
 6953SOL     OW32494   2.478   0.720   3.200 -0.4415  0.1656 -0.3848
 6953SOL    HW132495   2.537   0.646   3.210 -0.4777  0.2184  0.2357
 6953SOL    HW232496   2.442   0.724   3.288  0.1782  0.2843 -0.1373
 6954SOL     OW32497   0.243   1.338  10.706  0.0996  0.5208  0.6820
 6954SOL    HW132498   0.234   1.421  10.752  1.8579  0.8645  0.3859
 6954SOL    HW232499   0.316   1.367  10.652  0.7366 -3.5792 -0.6905
 6955SOL     OW32500   1.646   0.482   2.256  0.0626  0.0345 -0.2390
 6955SOL    HW132501   1.742   0.484   2.260 -0.0075 -0.3118  1.9838
 6955SOL    HW232502   1.634   0.401   2.206  2.5265  2.0004 -4.0046
 6956SOL     OW32503   3.618   4.382  10.744  0.0428 -0.4604 -0.3045
 6956SOL    HW132504   3.643   4.475  10.751 -0.2126 -0.4475  0.3933
 6956SOL    HW232505   3.589   4.367  10.834  1.1139  3.2466  0.7036
 6957SOL     OW32506   4.399   4.418   7.053  0.0694  0.4393 -0.7641
 6957SOL    HW132507   4.434   4.384   7.135 -1.3612  3.9203  1.2647
 6957SOL    HW232508   4.356   4.337   7.025 -0.7588  1.3433 -2.1152
 6958SOL     OW32509   2.318   2.740   5.386  0.0105  0.5688  0.2671
 6958SOL    HW132510   2.257   2.808   5.415  0.2986  0.1869  1.7680
 6958SOL    HW232511   2.298   2.721   5.294 -0.2215  1.2733  0.1685
 6959SOL     OW32512   0.689   3.370   6.713  0.1413 -0.0279  0.9146
 6959SOL    HW132513   0.728   3.335   6.633 -1.7872  0.1513 -0.1052
 6959SOL    HW232514   0.679   3.288   6.759  0.4252  0.8681  2.5603
 6960SOL     OW32515   2.611   4.647   3.387  0.6056  0.4453 -0.1168
 6960SOL    HW132516   2.629   4.621   3.297 -1.1217  1.4029 -0.7421
 6960SOL    HW232517   2.540   4.589   3.415  1.4512 -0.1153  0.8562
 6961SOL     OW32518   1.683   1.538   4.872 -0.0173 -0.1112  0.1112
 6961SOL    HW132519   1.612   1.531   4.937  0.6855  0.9493  0.9913
 6961SOL    HW232520   1.728   1.454   4.877 -0.3776 -0.2113  1.9570
 6962SOL     OW32521   0.509   4.717  13.422 -0.1948 -0.0702  0.0331
 6962SOL    HW132522   0.488   4.642  13.366  1.0095  0.1967 -0.7852
 6962SOL    HW232523   0.604   4.722  13.419 -0.0871 -1.9728  0.4455
 6963SOL     OW32524   3.661   2.251   6.053 -0.0742  0.0284  0.3314
 6963SOL    HW132525   3.695   2.243   6.142  2.0223 -0.7702 -0.5347
 6963SOL    HW232526   3.676   2.167   6.010 -0.0898 -0.3328  1.0370
 6964SOL     OW32527   0.876   3.586  12.499 -0.0922  0.1809  0.6376
 6964SOL    HW132528   0.874   3.526  12.573 -0.1473  1.6877  1.8665
 6964SOL    HW232529   0.798   3.640  12.512 -0.8518 -0.5268 -0.9707
 6965SOL     OW32530   0.787   2.408   9.348 -0.1751 -0.5387  0.1577
 6965SOL    HW132531   0.775   2.438   9.258  1.0443 -1.8858 -0.4453
 6965SOL    HW232532   0.790   2.494   9.389 -0.9233 -0.8280  0.8206
 6966SOL     OW32533   0.877   1.391   3.236  0.4005  0.1095 -1.0314
 6966SOL    HW132534   0.961   1.418   3.272 -0.9771 -1.0546  3.0154
 6966SOL    HW232535   0.905   1.342   3.158 -4.6732  1.3824 -3.6528
 6967SOL     OW32536   0.990   3.899   8.208 -0.7451 -0.6159 -0.8030
 6967SOL    HW132537   1.055   3.912   8.139 -0.0651  1.0941  0.1409
 6967SOL    HW232538   0.902   3.896   8.170 -0.9369 -2.8108 -0.1926
 6968SOL     OW32539   3.900   1.305   2.067  0.1881 -0.0192  0.3096
 6968SOL    HW132540   3.976   1.275   2.117  0.2924  1.0508  0.8049
 6968SOL    HW232541   3.865   1.227   2.024 -1.7043  1.3558 -0.6505
 6969SOL     OW32542   3.806   3.018   4.571  0.3083  0.4510 -0.4791
 6969SOL    HW132543   3.879   2.966   4.537 -0.8655 -0.1730 -2.0470
 6969SOL    HW232544   3.855   3.087   4.614  0.5930  0.3563 -0.6572
 6970SOL     OW32545   2.872   4.289   4.265 -0.0806  0.7167 -0.7539
 6970SOL    HW132546   2.865   4.281   4.360 -0.3902 -0.5776 -0.8826
 6970SOL    HW232547   2.967   4.291   4.252 -0.0868 -0.7541 -1.0424
 6971SOL     OW32548   3.522   0.367   4.731  0.4096  0.1338 -0.0885
 6971SOL    HW132549   3.472   0.288   4.752  0.6706  0.0926  0.3756
 6971SOL    HW232550   3.487   0.390   4.645  0.7839 -2.0484 -0.8333
 6972SOL     OW32551   3.480   3.508   1.719  0.3792 -0.0528 -0.1171
 6972SOL    HW132552   3.414   3.569   1.751 -1.1542 -1.8299  0.1277
 6972SOL    HW232553   3.538   3.512   1.794 -0.2533 -2.5130  0.5010
 6973SOL     OW32554   1.315   4.309   7.599  0.1651  0.1247  0.1039
 6973SOL    HW132555   1.340   4.352   7.517  3.1256 -1.3482  0.2248
 6973SOL    HW232556   1.361   4.228   7.577 -0.8668 -0.4139 -0.0441
 6974SOL     OW32557   2.116   1.768  13.348  0.6556 -0.1840 -0.4217
 6974SOL    HW132558   2.191   1.828  13.340  1.2954 -0.8619  0.5264
 6974SOL    HW232559   2.148   1.690  13.303 -2.4338 -1.1572 -0.9189
 6975SOL     OW32560   0.333   3.919   9.238  0.3794  0.2399  0.0847
 6975SOL    HW132561   0.274   3.991   9.217 -2.0984 -1.8988 -0.2880
 6975SOL    HW232562   0.401   3.967   9.285  1.4775  0.9614 -2.2405
 6976SOL     OW32563   3.384   2.637   3.397  0.0120 -0.4148  0.1050
 6976SOL    HW132564   3.333   2.672   3.470 -1.1362 -0.2720 -0.7535
 6976SOL    HW232565   3.405   2.715   3.347  0.2967  0.2897  1.3363
 6977SOL     OW32566   1.029   3.191   4.887 -0.2315 -0.0750 -0.2910
 6977SOL    HW132567   1.091   3.238   4.831  1.0005 -0.2630  0.8978
 6977SOL    HW232568   0.970   3.142   4.829  2.1709 -2.8521 -0.3916
 6978SOL     OW32569   4.293   3.697   9.494  0.1430  0.3787  0.2244
 6978SOL    HW132570   4.250   3.740   9.568 -1.3027 -1.5829  0.5139
 6978SOL    HW232571   4.377   3.664   9.525 -0.4638 -1.9945 -0.6678
 6979SOL     OW32572   1.670   4.404  13.987 -0.4949 -0.0102 -0.0028
 6979SOL    HW132573   1.625   4.337  13.936 -0.2288  0.3821 -0.7570
 6979SOL    HW232574   1.726   4.350  14.043 -0.0225  0.2888 -0.1833
 6980SOL     OW32575   4.632   4.050   9.530 -0.2424  0.8455  0.2371
 6980SOL    HW132576   4.552   4.094   9.557 -0.7619  0.8275 -1.2501
 6980SOL    HW232577   4.633   4.069   9.436  2.3732 -2.2620 -0.4006
 6981SOL     OW32578   2.706   3.676   6.318 -0.0874 -0.3160 -0.7959
 6981SOL    HW132579   2.759   3.745   6.357 -0.3736 -1.1594  1.1293
 6981SOL    HW232580   2.733   3.603   6.374 -0.1884  0.7499  0.6665
 6982SOL     OW32581   0.165   1.470   1.806  0.3779  0.1687  0.1869
 6982SOL    HW132582   0.180   1.512   1.891 -0.4641 -1.0655  0.9394
 6982SOL    HW232583   0.088   1.416   1.820  1.0490 -0.8474 -0.0774
 6983SOL     OW32584   2.985   2.719  10.799  0.0935  0.2293 -0.0567
 6983SOL    HW132585   3.034   2.650  10.754 -0.2698 -0.4039  0.5300
 6983SOL    HW232586   2.915   2.668  10.840 -0.0115 -0.1176 -0.6714
 6984SOL     OW32587   0.438   3.499   8.735 -0.0398 -0.1505 -0.1343
 6984SOL    HW132588   0.516   3.547   8.762  0.8165 -2.6783  1.9436
 6984SOL    HW232589   0.447   3.413   8.778  0.9755 -0.0481 -0.1324
 6985SOL     OW32590   2.041   3.601  10.433 -0.1610  0.5489  0.0589
 6985SOL    HW132591   2.068   3.693  10.437 -1.6516  0.9562  0.5273
 6985SOL    HW232592   2.005   3.584  10.520 -0.5743 -1.4682 -0.5054
 6986SOL     OW32593   3.129   1.414   8.763 -0.0287 -0.7341  0.6634
 6986SOL    HW132594   3.212   1.410   8.811  1.2642  2.6803 -1.3005
 6986SOL    HW232595   3.128   1.507   8.741 -2.8656 -0.8095  0.4904
 6987SOL     OW32596   3.832   4.684  14.153 -0.1540 -0.5633 -0.1169
 6987SOL    HW132597   3.914   4.693  14.106 -0.8906 -1.4585 -1.5539
 6987SOL    HW232598   3.772   4.700  14.080 -0.6152 -2.6928 -0.2284
 6988SOL     OW32599   0.576   2.418   6.901 -0.0137 -0.4090 -0.1229
 6988SOL    HW132600   0.593   2.484   6.834 -0.7736  1.5053  1.5508
 6988SOL    HW232601   0.482   2.434   6.901 -0.1136 -1.0233 -0.5798
 6989SOL     OW32602   3.487   0.091   8.934  0.2063  0.0049  0.0442
 6989SOL    HW132603   3.429   0.057   9.003  1.1089  2.7614  2.1864
 6989SOL    HW232604   3.456   0.178   8.909  0.6337  0.5275  1.3169
 6990SOL     OW32605   4.426   4.344   8.705  0.1083 -0.5620  0.1695
 6990SOL    HW132606   4.417   4.248   8.708  3.5481 -0.9341 -1.2164
 6990SOL    HW232607   4.335   4.368   8.689 -0.1209 -1.7549 -0.3709
 6991SOL     OW32608   1.895   0.008   5.153  0.1525 -0.7569 -0.8413
 6991SOL    HW132609   1.845   4.731   5.073 -0.0625  1.0998 -1.0361
 6991SOL    HW232610   1.982   4.727   5.118  0.0510 -0.0969 -1.4379
 6992SOL     OW32611   0.703   0.739   6.684 -0.7397 -0.2058 -0.0631
 6992SOL    HW132612   0.736   0.785   6.607  1.2130  1.1441  1.5804
 6992SOL    HW232613   0.655   0.815   6.718  1.0828  0.1184  1.7685
 6993SOL     OW32614   3.548   0.279  14.024  0.0482  0.1286  0.4817
 6993SOL    HW132615   3.490   0.306  14.095  2.1741  2.5859  1.2850
 6993SOL    HW232616   3.557   0.365  13.983  0.0041  0.6377  1.5294
 6994SOL     OW32617   3.336   0.652   0.276 -0.1788 -0.1309  0.0053
 6994SOL    HW132618   3.288   0.658   0.359  0.8623 -1.3383  0.6869
 6994SOL    HW232619   3.405   0.589   0.299 -0.6834 -0.6063  0.2079
 6995SOL     OW32620   1.945   0.647   8.502 -0.3210  0.2116 -0.4141
 6995SOL    HW132621   1.860   0.630   8.461 -0.6537  0.0789  0.3297
 6995SOL    HW232622   1.921   0.709   8.570 -0.6060 -1.7970  1.3366
 6996SOL     OW32623   0.491   1.918   4.075  0.0429  0.2524  0.1367
 6996SOL    HW132624   0.570   1.962   4.044  0.1067  0.8576  1.1598
 6996SOL    HW232625   0.486   1.846   4.012 -1.2604  2.1861 -1.9463
 6997SOL     OW32626   4.497   4.066   4.039  0.5560  0.1648 -0.6082
 6997SOL    HW132627   4.469   4.057   3.947 -1.2928  0.9777 -0.1323
 6997SOL    HW232628   4.495   3.973   4.061 -0.2427  0.2172 -0.4655
 6998SOL     OW32629   0.096   4.346   3.592 -0.9475  0.2883 -0.8204
 6998SOL    HW132630   0.061   4.313   3.675  0.3210  0.6142 -0.1500
 6998SOL    HW232631   0.169   4.291   3.564 -1.7341 -0.9552 -0.3951
 6999SOL     OW32632   2.983   3.239   2.838 -0.0729 -0.0982  0.5654
 6999SOL    HW132633   2.912   3.177   2.822  0.8629 -1.0768  0.2117
 6999SOL    HW232634   2.934   3.319   2.823  0.6921  0.1834 -0.4346
 7000SOL     OW32635   2.063   0.340   8.035 -0.1617 -0.0512  0.3824
 7000SOL    HW132636   1.981   0.387   8.050  0.9936  1.6727  1.2620
 7000SOL    HW232637   2.061   0.279   8.108  0.9881 -1.2588 -0.5915
 7001SOL     OW32638   3.937   0.947   9.869  0.0813  0.1239 -0.3539
 7001SOL    HW132639   3.981   0.875   9.915 -1.7951 -0.6927  0.1773
 7001SOL    HW232640   4.013   0.960   9.812  0.4392 -1.2008 -0.1983
 7002SOL     OW32641   2.054   2.935  16.854 -0.1750  0.4831  0.2251
 7002SOL    HW132642   2.110   2.878  16.802 -0.5906  1.1631 -0.9773
 7002SOL    HW232643   1.981   2.878  16.879 -0.7119  2.3964  2.9541
 7003SOL     OW32644   3.946   2.642   9.246 -0.0116 -0.1596 -0.8687
 7003SOL    HW132645   4.038   2.622   9.258  0.1223  0.7778 -0.3216
 7003SOL    HW232646   3.949   2.718   9.189 -2.1962  0.7494  0.2158
 7004SOL     OW32647   2.524   1.957   2.449  0.4966 -0.0142 -0.0682
 7004SOL    HW132648   2.606   1.915   2.423 -0.5133 -2.1781  0.2139
 7004SOL    HW232649   2.462   1.922   2.385  3.0197 -0.3145 -2.3340
 7005SOL     OW32650   1.796   1.675  15.756 -0.3978  0.2001  0.1332
 7005SOL    HW132651   1.852   1.751  15.740  1.1872 -0.7056  1.3713
 7005SOL    HW232652   1.724   1.704  15.811 -2.5447 -0.2548 -2.4728
 7006SOL     OW32653   3.623   2.325  11.012  0.1935 -0.3141 -0.2295
 7006SOL    HW132654   3.652   2.399  11.066 -1.2794  1.5162 -2.0059
 7006SOL    HW232655   3.697   2.269  10.988  0.4724 -0.3078  0.5917
 7007SOL     OW32656   2.564   3.378  13.768 -0.5140  0.1373 -0.3765
 7007SOL    HW132657   2.478   3.421  13.766  0.1292  1.4868  1.0384
 7007SOL    HW232658   2.559   3.331  13.851 -1.6207 -1.1397 -1.1555
 7008SOL     OW32659   1.912   1.786   3.676 -0.0445 -0.5455  0.3650
 7008SOL    HW132660   1.846   1.794   3.607  0.0435  0.2494  0.3771
 7008SOL    HW232661   1.984   1.832   3.633 -1.3313 -0.8542 -2.1139
 7009SOL     OW32662   4.050   0.325   6.588 -0.1791 -0.1226  0.5202
 7009SOL    HW132663   3.969   0.284   6.557 -1.5231  1.8291  1.4529
 7009SOL    HW232664   4.106   0.275   6.530 -0.1513  0.3847  0.1110
 7010SOL     OW32665   2.900   0.633   4.629 -0.6826  0.1355 -0.2830
 7010SOL    HW132666   2.873   0.541   4.625  0.3441 -0.2039  0.7939
 7010SOL    HW232667   2.838   0.657   4.698 -0.1235 -2.1562  1.0134
 7011SOL     OW32668   3.669   4.420   8.389 -0.5241  0.2242 -0.4655
 7011SOL    HW132669   3.753   4.380   8.363  0.1605 -0.2079  2.4927
 7011SOL    HW232670   3.697   4.510   8.404  1.2319 -0.3177 -0.3781
 7012SOL     OW32671   3.301   0.226  17.126  0.3154  0.1455  0.2074
 7012SOL    HW132672   3.244   0.265  17.192  1.1096  3.0194 -0.7976
 7012SOL    HW232673   3.246   0.231  17.047 -0.3395 -2.0791  0.5183
 7013SOL     OW32674   2.679   4.418   4.896 -0.0123  0.3330  0.3345
 7013SOL    HW132675   2.705   4.354   4.961 -0.0303  0.4306  0.4383
 7013SOL    HW232676   2.710   4.498   4.939 -1.2777  0.3327  1.2489
 7014SOL     OW32677   2.769   4.551   8.177  0.4810 -0.4744 -0.4060
 7014SOL    HW132678   2.830   4.481   8.201 -0.4967 -1.6935 -1.4271
 7014SOL    HW232679   2.816   4.634   8.177 -0.6527  0.1683 -0.2359
 7015SOL     OW32680   0.828   3.675   7.937  0.0665 -0.0325 -0.1576
 7015SOL    HW132681   0.877   3.656   8.018  1.5838 -0.4698 -1.1873
 7015SOL    HW232682   0.841   3.770   7.934  1.5787 -0.3265 -2.3485
 7016SOL     OW32683   0.967   0.703   3.632  0.5059  0.2826 -0.7752
 7016SOL    HW132684   0.937   0.758   3.560  0.8219 -0.9103 -1.8278
 7016SOL    HW232685   1.020   0.767   3.680 -0.5276 -0.9031  1.9689
 7017SOL     OW32686   0.031   3.367   8.291  0.5217 -0.0087 -0.2022
 7017SOL    HW132687   4.715   3.420   8.351 -1.9613 -2.8212  0.0636
 7017SOL    HW232688   4.704   3.329   8.232  0.7468 -1.2351  0.3359
 7018SOL     OW32689   1.590   2.981   2.387  0.5726  0.0560  0.1464
 7018SOL    HW132690   1.642   3.049   2.344  0.7510  0.5327  1.1135
 7018SOL    HW232691   1.501   3.008   2.362 -0.2627 -1.4132  1.5828
 7019SOL     OW32692   2.341   2.575   8.253  0.0629  0.3157 -0.0550
 7019SOL    HW132693   2.291   2.578   8.172  2.1469 -0.3555 -1.3514
 7019SOL    HW232694   2.282   2.623   8.311 -0.8026 -2.3257  1.2860
 7020SOL     OW32695   1.862   1.305   2.642  0.1345 -0.0412 -0.4365
 7020SOL    HW132696   1.767   1.305   2.650  0.0221 -1.3653 -1.7760
 7020SOL    HW232697   1.871   1.273   2.553  1.2213  1.3461 -0.8300
 7021SOL     OW32698   1.899   2.625   2.976 -0.0206 -0.1893  0.1231
 7021SOL    HW132699   1.922   2.589   2.890  0.2387  2.4375 -0.9091
 7021SOL    HW232700   1.908   2.547   3.031  2.4175 -0.8384 -1.2082
 7022SOL     OW32701   2.940   3.367  14.926 -0.1686  0.2834 -0.4599
 7022SOL    HW132702   2.936   3.329  15.014 -0.1063  2.7785  0.6290
 7022SOL    HW232703   3.030   3.359  14.893  0.4720  0.2910  1.3042
 7023SOL     OW32704   2.852   4.276   3.403  0.1498  0.9435 -0.7803
 7023SOL    HW132705   2.778   4.267   3.463  1.7108  1.9895  1.2867
 7023SOL    HW232706   2.869   4.184   3.385 -1.7156  0.6850 -1.2340
 7024SOL     OW32707   1.358   2.569   3.780  0.0277 -0.0921  0.2348
 7024SOL    HW132708   1.399   2.483   3.781  1.0289  0.3805 -0.9114
 7024SOL    HW232709   1.308   2.560   3.861  1.1229 -0.9363  0.8132
 7025SOL     OW32710   0.436   1.448   8.068  0.2775 -0.2301 -0.3240
 7025SOL    HW132711   0.357   1.395   8.077  0.9132 -1.0513  0.3067
 7025SOL    HW232712   0.413   1.519   8.128 -0.8957  1.0075 -2.2023
 7026SOL     OW32713   2.643   0.980  11.513 -0.6619 -0.0697 -0.0107
 7026SOL    HW132714   2.646   0.894  11.471 -0.9633 -0.0882  0.0008
 7026SOL    HW232715   2.730   1.010  11.486 -0.9427  0.5388 -0.2458
 7027SOL     OW32716   2.070   2.534   5.889 -0.5877  0.3968  0.0725
 7027SOL    HW132717   1.979   2.528   5.862 -0.6000  0.2899  0.1391
 7027SOL    HW232718   2.110   2.568   5.810  1.2484  1.0920  1.2947
 7028SOL     OW32719   2.960   1.914   5.584  0.0018  0.1811  0.2502
 7028SOL    HW132720   2.888   1.866   5.623 -0.9094  0.5865 -0.9230
 7028SOL    HW232721   2.921   1.959   5.508 -0.2099 -0.2591  0.1001
 7029SOL     OW32722   2.521   2.873   9.213 -0.5278 -0.1464 -0.4278
 7029SOL    HW132723   2.546   2.819   9.138  0.2191 -0.8427  0.3338
 7029SOL    HW232724   2.559   2.956   9.183 -0.9961  0.0465 -0.4965
 7030SOL     OW32725   2.418   1.624  14.812  0.5604  0.6144 -0.1891
 7030SOL    HW132726   2.354   1.688  14.843 -2.0458 -1.2384 -1.7075
 7030SOL    HW232727   2.362   1.547  14.802  1.7977  0.2135 -4.1259
 7031SOL     OW32728   2.655   4.426   3.010 -0.3938  0.1718  0.3166
 7031SOL    HW132729   2.579   4.393   2.961 -0.0168  2.9533 -2.1631
 7031SOL    HW232730   2.614   4.510   3.030  3.0759  1.7678  0.6741
 7032SOL     OW32731   4.266   4.656   8.919 -0.1557  0.7094  0.3330
 7032SOL    HW132732   4.247   4.653   8.826 -1.2084 -1.4055  0.6326
 7032SOL    HW232733   4.244   4.571   8.957 -1.0350  0.3594 -1.0022
 7033SOL     OW32734   2.713   0.019   0.421  0.0405  0.0630  0.0418
 7033SOL    HW132735   2.634   0.068   0.396  0.7707  1.9610  1.3882
 7033SOL    HW232736   2.676   4.669   0.430 -2.1720  0.9628 -0.2064
 7034SOL     OW32737   4.106   1.156   2.605  0.1004 -0.0232  0.1307
 7034SOL    HW132738   4.168   1.085   2.590 -0.2378  0.3223 -2.8769
 7034SOL    HW232739   4.099   1.147   2.700 -2.1900 -1.4923 -0.1716
 7035SOL     OW32740   1.000   3.252   6.210  0.4412 -0.3046 -0.3697
 7035SOL    HW132741   0.960   3.339   6.207  2.1373  0.5650  2.5195
 7035SOL    HW232742   0.930   3.197   6.173 -0.0119  0.3651 -0.5028
 7036SOL     OW32743   2.311   3.812   4.516 -0.0555  0.2075  0.8197
 7036SOL    HW132744   2.357   3.732   4.490  0.1526  0.8523 -0.7864
 7036SOL    HW232745   2.226   3.775   4.542 -0.1779  0.2744  0.5188
 7037SOL     OW32746   0.565   2.878   1.628 -0.0176  0.0072 -0.2816
 7037SOL    HW132747   0.558   2.973   1.631  0.5595  0.0277  0.6445
 7037SOL    HW232748   0.521   2.843   1.705 -0.2307  1.9135  0.4598
 7038SOL     OW32749   1.347   1.829  14.652 -0.1703  0.3574  0.0017
 7038SOL    HW132750   1.332   1.735  14.663  1.4212 -0.0734 -1.4791
 7038SOL    HW232751   1.422   1.829  14.593 -2.5961  0.6647 -3.0896
 7039SOL     OW32752   3.070   1.320  13.479 -0.5079  0.2276  0.0349
 7039SOL    HW132753   3.128   1.363  13.542 -1.1854 -0.6558  1.2606
 7039SOL    HW232754   3.132   1.271  13.423 -1.9013 -1.5588  0.0593
 7040SOL     OW32755   4.016   0.782   5.155  0.3613  0.0644  0.5010
 7040SOL    HW132756   3.937   0.831   5.132  0.5753  0.2191  0.0773
 7040SOL    HW232757   4.014   0.718   5.083  0.0932 -0.2788  0.8176
 7041SOL     OW32758   3.050   3.265   7.191  0.0567  0.2461 -0.0802
 7041SOL    HW132759   3.124   3.316   7.159 -0.8424  2.5303  1.4564
 7041SOL    HW232760   2.995   3.245   7.115 -0.9864  0.2775  0.6713
 7042SOL     OW32761   4.565   2.936   3.698 -0.0641 -0.1133  0.2008
 7042SOL    HW132762   4.610   2.979   3.626  0.3596  1.1138  1.1868
 7042SOL    HW232763   4.636   2.908   3.756  0.1600  0.8179  0.3935
 7043SOL     OW32764   1.560   0.693  11.815  0.0162  0.2812  0.6591
 7043SOL    HW132765   1.545   0.748  11.892 -0.0408  1.3554 -0.1101
 7043SOL    HW232766   1.546   0.763  11.750 -0.9864 -0.4845  0.0436
 7044SOL     OW32767   0.503   1.847   2.208 -0.2132 -0.1714  0.4259
 7044SOL    HW132768   0.491   1.808   2.121  1.9625  2.0587 -0.8925
 7044SOL    HW232769   0.414   1.864   2.238 -0.3821  3.3474 -2.1123
 7045SOL     OW32770   1.814   2.592   4.585  0.1051  0.1548 -0.0588
 7045SOL    HW132771   1.754   2.526   4.550 -2.5908  2.0229  1.1101
 7045SOL    HW232772   1.762   2.672   4.582 -0.6628 -0.3826 -0.8637
 7046SOL     OW32773   0.122   0.904  10.103  0.5960 -0.1856  0.4341
 7046SOL    HW132774   0.166   0.974  10.152  1.1772  0.2004 -0.6331
 7046SOL    HW232775   0.136   0.938  10.015 -2.2401 -1.7907 -0.6221
 7047SOL     OW32776   4.486   0.713   7.845 -0.0703  0.3294 -0.0683
 7047SOL    HW132777   4.577   0.726   7.870 -0.7211  0.0633  2.3503
 7047SOL    HW232778   4.485   0.620   7.820 -1.8083  0.3064  0.0959
 7048SOL     OW32779   4.234   2.681   8.541  0.5396  0.1432 -0.2712
 7048SOL    HW132780   4.230   2.688   8.636 -1.6706 -1.8099 -0.2100
 7048SOL    HW232781   4.169   2.749   8.525  0.0491 -0.7584 -2.1807
 7049SOL     OW32782   2.819   2.900   4.057  0.0717 -0.1183  0.4516
 7049SOL    HW132783   2.752   2.948   4.105 -0.3122 -1.3133  1.1263
 7049SOL    HW232784   2.771   2.817   4.054  0.8372 -0.5571  0.3140
 7050SOL     OW32785   4.142   1.584  17.590 -0.2413  0.6744 -0.3418
 7050SOL    HW132786   4.092   1.549  17.663 -1.4547  2.7587 -0.1569
 7050SOL    HW232787   4.089   1.551  17.517 -2.0576  2.5596  0.1374
 7051SOL     OW32788   3.077   4.234   2.567 -0.1672  0.2064  0.3489
 7051SOL    HW132789   3.047   4.163   2.510  1.2745 -0.6648  0.6686
 7051SOL    HW232790   3.000   4.238   2.623  0.0526 -1.6385  0.7887
 7052SOL     OW32791   1.703   4.604   6.365  0.5620  0.7197 -0.8896
 7052SOL    HW132792   1.740   4.525   6.324 -0.3604 -0.1647 -0.0224
 7052SOL    HW232793   1.610   4.579   6.367  0.3701  1.5739  0.3898
 7053SOL     OW32794   1.369   1.146   3.705 -0.3375  0.2211  0.1797
 7053SOL    HW132795   1.417   1.110   3.780 -1.3241 -0.7655  0.3242
 7053SOL    HW232796   1.294   1.189   3.746  0.1061 -0.7008  1.9283
 7054SOL     OW32797   4.375   0.385   7.033  0.7805 -0.4353 -0.0492
 7054SOL    HW132798   4.377   0.289   7.039  3.6718 -0.4288 -0.6973
 7054SOL    HW232799   4.387   0.402   7.126  0.9287  0.0965 -0.1665
 7055SOL     OW32800   3.411   0.450   2.822  0.3098 -0.4074  0.2373
 7055SOL    HW132801   3.320   0.443   2.792 -0.2778  0.8679  1.7084
 7055SOL    HW232802   3.412   0.358   2.848 -2.2286 -0.7852 -0.9922
 7056SOL     OW32803   3.911   3.539  17.474 -0.4862  0.3559  0.3552
 7056SOL    HW132804   3.916   3.449  17.505  0.3566  1.4282  3.3848
 7056SOL    HW232805   4.005   3.559  17.467 -0.8752  2.3431  0.6981
 7057SOL     OW32806   1.768   3.602   5.420 -0.2518 -0.2990 -0.3519
 7057SOL    HW132807   1.843   3.558   5.459  2.3684  2.9000 -1.7297
 7057SOL    HW232808   1.745   3.531   5.361  0.7395 -2.8401  2.3291
 7058SOL     OW32809   1.274   2.121  15.503 -0.7641 -0.1505 -0.1528
 7058SOL    HW132810   1.332   2.196  15.485  0.7520 -0.7173  2.4732
 7058SOL    HW232811   1.312   2.101  15.588 -1.9383  0.1894  0.4483
 7059SOL     OW32812   2.401   2.084   9.738  0.2444 -0.5744 -0.2499
 7059SOL    HW132813   2.361   2.160   9.695  1.2030  0.7288  1.1461
 7059SOL    HW232814   2.372   2.011   9.684  0.2658 -0.4619 -0.4144
 7060SOL     OW32815   4.413   1.487   6.245  0.4565  0.4504 -0.6385
 7060SOL    HW132816   4.427   1.419   6.311  1.8230 -0.1507 -1.5435
 7060SOL    HW232817   4.497   1.531   6.258  0.3640  0.7253 -0.9631
 7061SOL     OW32818   1.080   2.961  13.109 -0.1365  0.3703  0.5942
 7061SOL    HW132819   1.175   2.962  13.100 -0.2690  3.9923 -0.5692
 7061SOL    HW232820   1.052   3.013  13.034 -0.1446 -0.3375  0.1060
 7062SOL     OW32821   1.262   1.554   4.113 -0.0173 -0.2596 -0.5288
 7062SOL    HW132822   1.327   1.538   4.182  0.7570  1.5438 -0.8453
 7062SOL    HW232823   1.179   1.558   4.162 -1.1433 -1.7740 -2.3293
 7063SOL     OW32824   1.256   3.872   8.051 -0.1144  0.2665  0.7672
 7063SOL    HW132825   1.260   3.965   8.027 -1.2617 -0.3726 -1.9249
 7063SOL    HW232826   1.348   3.851   8.068 -0.4224 -2.7168 -1.3910
 7064SOL     OW32827   2.804   0.871   8.644  0.1701 -0.2204  0.7062
 7064SOL    HW132828   2.897   0.873   8.667 -0.0688 -1.2851  1.6972
 7064SOL    HW232829   2.765   0.935   8.704 -0.6681 -1.3345  1.3364
 7065SOL     OW32830   3.447   4.602   4.347 -0.4396  0.1325 -0.0911
 7065SOL    HW132831   3.495   4.666   4.400  0.5117 -1.1030  0.5336
 7065SOL    HW232832   3.400   4.542   4.406  1.2300 -2.2677 -1.1865
 7066SOL     OW32833   4.563   2.204   1.327 -0.1286  0.7717 -0.7332
 7066SOL    HW132834   4.569   2.238   1.238 -1.4862  1.9889 -0.3733
 7066SOL    HW232835   4.528   2.116   1.321  1.8077 -0.0238 -0.4665
 7067SOL     OW32836   2.446   0.569   5.588 -0.4637 -0.0330 -0.0009
 7067SOL    HW132837   2.381   0.549   5.655 -0.9436 -0.3242 -0.5629
 7067SOL    HW232838   2.499   0.493   5.611  0.1611  0.6583  0.8553
 7068SOL     OW32839   1.245   2.989   6.963 -0.1977 -0.0193 -0.4140
 7068SOL    HW132840   1.293   2.981   7.045 -0.4402  0.6446 -0.2057
 7068SOL    HW232841   1.289   3.062   6.919  0.0619  1.0409  1.6552
 7069SOL     OW32842   2.140   3.296   1.131  0.3184  0.2805 -0.0630
 7069SOL    HW132843   2.219   3.336   1.167  0.1531  0.2139  0.3736
 7069SOL    HW232844   2.073   3.361   1.150  0.3611  0.1791  0.4250
 7070SOL     OW32845   3.750   4.639   4.044  0.0770  0.0571  0.6204
 7070SOL    HW132846   3.694   4.716   4.030  2.1402  1.5345  0.4457
 7070SOL    HW232847   3.768   4.652   4.138  2.1523  1.2500  0.0659
 7071SOL     OW32848   3.574   2.701   5.786 -0.2482 -0.3057  0.3689
 7071SOL    HW132849   3.577   2.782   5.736  0.0036 -1.7181 -1.8871
 7071SOL    HW232850   3.487   2.708   5.824 -0.2537  1.6303 -0.0305
 7072SOL     OW32851   1.894   3.067   7.827 -0.1236  0.5121  0.3445
 7072SOL    HW132852   1.820   3.067   7.767 -0.0335 -1.2873  0.2052
 7072SOL    HW232853   1.859   3.124   7.894 -0.2847 -0.7936  1.3661
 7073SOL     OW32854   1.614   0.483   6.077  0.1255  0.0378  0.4561
 7073SOL    HW132855   1.670   0.541   6.128  0.4153  1.2524 -1.2346
 7073SOL    HW232856   1.544   0.543   6.049  0.5354  0.2458 -0.1223
 7074SOL     OW32857   3.015   2.110   0.966  0.9404  0.0159 -0.4928
 7074SOL    HW132858   2.968   2.187   0.935 -1.8843 -0.2912  3.1246
 7074SOL    HW232859   3.044   2.143   1.051 -0.2775 -1.3972  0.4441
 7075SOL     OW32860   2.011   3.362   8.746  0.6799  0.5086  0.1020
 7075SOL    HW132861   2.103   3.337   8.749  1.5004  3.2651 -1.9300
 7075SOL    HW232862   2.008   3.427   8.816  0.7722 -1.6001  2.0385
 7076SOL     OW32863   0.780   2.660   9.420 -0.6655  0.0397 -0.1996
 7076SOL    HW132864   0.723   2.674   9.495  1.0239  1.1801  0.8614
 7076SOL    HW232865   0.808   2.750   9.406 -1.1058  0.2545  0.3128
 7077SOL     OW32866   2.171   2.115   2.448 -0.5127  0.4538  0.6981
 7077SOL    HW132867   2.104   2.130   2.382  0.6063  3.0200  0.1650
 7077SOL    HW232868   2.251   2.146   2.406 -2.1874  0.2031 -2.5922
 7078SOL     OW32869   3.424   2.326   6.006 -0.6742 -0.9522  0.0914
 7078SOL    HW132870   3.510   2.340   6.045 -0.4124  1.9982 -1.5861
 7078SOL    HW232871   3.444   2.238   5.974  0.5031 -0.3510 -0.8208
 7079SOL     OW32872   1.239   0.152   1.618  0.3333 -0.1102 -0.0951
 7079SOL    HW132873   1.298   0.169   1.545  1.5378  0.0935  0.9194
 7079SOL    HW232874   1.305   0.133   1.685  2.1921 -2.4237 -2.6029
 7080SOL     OW32875   1.355   0.358   5.224  0.3467  0.0110 -0.1636
 7080SOL    HW132876   1.333   0.355   5.131  2.4989 -0.7568 -0.6459
 7080SOL    HW232877   1.313   0.437   5.257 -0.3745 -0.2914 -0.3528
 7081SOL     OW32878   2.334   1.160   5.307  0.6057 -0.1112 -0.3268
 7081SOL    HW132879   2.259   1.154   5.366 -1.4318  2.5384 -2.6038
 7081SOL    HW232880   2.320   1.245   5.264  1.6187  0.6909  0.9472
 7082SOL     OW32881   3.301   2.830   1.792  0.0013 -0.3041 -0.8972
 7082SOL    HW132882   3.231   2.895   1.798 -0.0809 -0.5782  1.0702
 7082SOL    HW232883   3.367   2.895   1.769  0.2598 -0.7955 -1.5249
 7083SOL     OW32884   3.908   3.811   8.260 -0.0421 -0.1267 -0.3221
 7083SOL    HW132885   3.875   3.764   8.336 -1.9796 -0.7420 -1.5431
 7083SOL    HW232886   3.918   3.735   8.203  0.4024 -0.3491  0.0578
 7084SOL     OW32887   0.910   1.605   7.092  0.0088  0.4224  0.2450
 7084SOL    HW132888   0.988   1.618   7.037 -0.0855 -0.3850 -0.0692
 7084SOL    HW232889   0.927   1.520   7.132  0.0645 -0.6662 -2.0771
 7085SOL     OW32890   4.284   1.279   1.135 -0.0985 -0.3802 -0.0723
 7085SOL    HW132891   4.308   1.226   1.212 -0.7953 -0.1160  0.3269
 7085SOL    HW232892   4.224   1.348   1.162  1.6465  0.6751  1.1375
 7086SOL     OW32893   2.115   4.209   8.486 -0.3432 -0.1582 -0.5320
 7086SOL    HW132894   2.182   4.239   8.547 -0.4793 -0.4574 -0.2374
 7086SOL    HW232895   2.105   4.118   8.514  0.3738 -0.6593 -1.8997
 7087SOL     OW32896   1.609   2.687   3.732 -0.8668 -0.1163 -0.5468
 7087SOL    HW132897   1.661   2.622   3.685 -0.4137 -0.8439  0.9803
 7087SOL    HW232898   1.537   2.630   3.757  0.2962 -1.3082  0.0576
 7088SOL     OW32899   0.236   3.376   3.861 -0.2604 -0.0081  0.3377
 7088SOL    HW132900   0.328   3.370   3.885 -0.5468 -0.9411  1.1979
 7088SOL    HW232901   0.236   3.402   3.769  1.4443  0.3826  0.4433
 7089SOL     OW32902   1.367   0.390   7.485 -0.0770  0.1731 -0.0248
 7089SOL    HW132903   1.313   0.465   7.464  0.0550  0.2752 -0.0003
 7089SOL    HW232904   1.415   0.385   7.402  1.7783 -0.2740  1.0548
 7090SOL     OW32905   0.429   3.717   7.900 -0.7698  0.0326 -0.9825
 7090SOL    HW132906   0.462   3.783   7.960 -1.0573 -2.0293  1.4726
 7090SOL    HW232907   0.431   3.770   7.820  2.3117  1.0710 -0.2393
 7091SOL     OW32908   1.657   1.330   2.165  0.1680 -0.3415  0.0682
 7091SOL    HW132909   1.707   1.309   2.244 -1.7499 -0.7182  1.1629
 7091SOL    HW232910   1.639   1.424   2.174 -1.1699 -0.7081  1.2302
 7092SOL     OW32911   0.772   2.891   5.766 -0.1936 -0.4510 -0.3725
 7092SOL    HW132912   0.788   2.822   5.702 -0.7959 -0.6979 -0.2574
 7092SOL    HW232913   0.742   2.960   5.706  0.4472 -0.1599 -0.3541
 7093SOL     OW32914   1.318   1.190   2.590 -0.2349  0.3341 -0.1851
 7093SOL    HW132915   1.249   1.140   2.547  2.3899 -1.2496 -2.5078
 7093SOL    HW232916   1.271   1.228   2.665 -2.2941 -3.2018  0.3496
 7094SOL     OW32917   0.399   3.820  14.704  0.1784 -0.7720  0.1731
 7094SOL    HW132918   0.348   3.748  14.743 -1.6309  0.8835  0.9166
 7094SOL    HW232919   0.482   3.816  14.750  0.0907  1.0212  0.4821
 7095SOL     OW32920   3.769   2.074   6.292 -0.2192  0.0906 -0.1090
 7095SOL    HW132921   3.823   2.060   6.370 -0.7114 -0.9071  0.0557
 7095SOL    HW232922   3.838   2.046   6.231 -0.7817 -1.4460 -0.0358
 7096SOL     OW32923   0.763   2.472   1.657 -0.2900 -0.2100 -0.1712
 7096SOL    HW132924   0.703   2.514   1.595 -1.7325 -1.6051  0.2758
 7096SOL    HW232925   0.777   2.550   1.710 -0.4623 -0.3294  0.0471
 7097SOL     OW32926   2.264   1.080   9.622 -0.1318 -0.1342  0.1719
 7097SOL    HW132927   2.235   0.991   9.603 -0.6028 -0.0682  0.5890
 7097SOL    HW232928   2.183   1.131   9.628  0.5994  1.4252 -2.8948
 7098SOL     OW32929   3.228   0.654  16.939  0.1094  0.0641 -0.1322
 7098SOL    HW132930   3.296   0.689  16.997  0.7619 -0.1025 -0.7913
 7098SOL    HW232931   3.144   0.676  16.978  0.1246 -0.7777  0.3766
 7099SOL     OW32932   0.428   4.545   3.480 -0.1079  0.0590 -0.5837
 7099SOL    HW132933   0.345   4.502   3.456 -1.3918  1.8710  0.6094
 7099SOL    HW232934   0.458   4.582   3.397 -1.4077  1.3823 -0.4722
 7100SOL     OW32935   4.324   4.107   4.840  0.3980 -0.4559 -0.4256
 7100SOL    HW132936   4.344   4.073   4.928 -0.4968 -2.0534 -0.8630
 7100SOL    HW232937   4.281   4.189   4.866 -0.2264 -1.6294  2.3126
 7101SOL     OW32938   2.128   3.510   3.562  0.0939  0.2342 -0.3285
 7101SOL    HW132939   2.053   3.452   3.578 -0.1490  0.4151 -0.8229
 7101SOL    HW232940   2.113   3.541   3.473 -2.7619  2.4241  0.9134
 7102SOL     OW32941   2.168   2.266   3.553 -0.7356 -0.0772 -0.5690
 7102SOL    HW132942   2.262   2.254   3.564 -1.0529 -0.5671  1.5691
 7102SOL    HW232943   2.140   2.257   3.644  1.8680  1.4594  0.3814
 7103SOL     OW32944   0.928   1.410   8.037  0.0324 -0.1356 -0.0407
 7103SOL    HW132945   0.984   1.457   8.099  1.2465 -1.5097 -0.0970
 7103SOL    HW232946   0.849   1.401   8.090  0.2581 -1.7923  0.0210
 7104SOL     OW32947   3.363   3.654  13.044  0.4146 -0.6988  0.3219
 7104SOL    HW132948   3.391   3.733  12.997  1.9412 -0.7169  1.1971
 7104SOL    HW232949   3.419   3.589  13.002  1.3141  0.6901 -0.6405
 7105SOL     OW32950   3.942   3.318  17.200 -0.1424  0.4724  0.6785
 7105SOL    HW132951   4.024   3.362  17.176  0.6948 -0.0114  2.6718
 7105SOL    HW232952   3.974   3.229  17.190 -1.2147  0.1819 -0.1657
 7106SOL     OW32953   0.177   3.088  10.513 -0.0924 -0.4103  0.2269
 7106SOL    HW132954   0.136   3.003  10.527  0.7354 -0.9048 -0.3767
 7106SOL    HW232955   0.120   3.145  10.565 -0.4465 -0.7243  0.1824
 7107SOL     OW32956   2.842   3.952   3.322 -0.0068 -0.5535  0.2884
 7107SOL    HW132957   2.925   3.926   3.284 -0.0548  1.4660 -1.1855
 7107SOL    HW232958   2.859   3.905   3.404 -2.7089 -1.5538  0.2984
 7108SOL     OW32959   2.577   2.071   4.801 -0.3519  0.1559  0.2117
 7108SOL    HW132960   2.596   2.164   4.816  0.3692 -0.1036  0.8934
 7108SOL    HW232961   2.493   2.065   4.846  0.5845  1.0803  2.0982
 7109SOL     OW32962   0.311   0.522  16.591 -0.2480  0.0343  0.5174
 7109SOL    HW132963   0.380   0.522  16.524 -1.7615  1.2439 -1.0436
 7109SOL    HW232964   0.336   0.603  16.635  2.4085 -0.8058  0.5443
 7110SOL     OW32965   2.029   0.765   7.502  0.2973  0.2221 -0.3204
 7110SOL    HW132966   2.046   0.849   7.544  0.8616  0.2123 -0.5398
 7110SOL    HW232967   1.943   0.745   7.540  1.1596 -0.6595  1.1991
 7111SOL     OW32968   2.014   1.592   0.852  0.3370  0.1874  0.1274
 7111SOL    HW132969   2.100   1.555   0.872  1.0296  1.5116 -0.4323
 7111SOL    HW232970   1.950   1.525   0.876 -0.5076  0.5296 -1.1922
 7112SOL     OW32971   0.719   4.561   3.825 -0.1760  0.5313  0.1541
 7112SOL    HW132972   0.784   4.511   3.776 -2.1188 -1.7765 -0.1147
 7112SOL    HW232973   0.643   4.552   3.766 -0.0646  0.5909  0.0029
 7113SOL     OW32974   2.521   2.092  10.283  0.5708 -0.0250 -0.1217
 7113SOL    HW132975   2.608   2.070  10.248  2.4807  4.0504  1.9640
 7113SOL    HW232976   2.535   2.050  10.368 -0.9296 -0.2395  0.0127
 7114SOL     OW32977   3.338   4.721   1.766  0.3752 -0.6893  0.1485
 7114SOL    HW132978   3.358   4.630   1.789  1.7485 -0.6960 -1.0965
 7114SOL    HW232979   3.401   0.039   1.811 -1.2074  0.4752  0.9208
 7115SOL     OW32980   1.079   2.179  15.087  0.0071  0.6774  0.0413
 7115SOL    HW132981   1.071   2.159  15.180 -0.6650 -0.3732 -0.2482
 7115SOL    HW232982   1.126   2.101  15.056 -0.1858  0.6837 -0.2705
 7116SOL     OW32983   4.291   2.169  17.435  0.3692  0.1382  0.1304
 7116SOL    HW132984   4.293   2.263  17.451 -0.1936  0.1293  0.2548
 7116SOL    HW232985   4.216   2.170  17.376  1.9734 -1.7625 -1.9390
 7117SOL     OW32986   1.498   3.505  10.240 -0.1346 -0.3493 -0.5053
 7117SOL    HW132987   1.499   3.596  10.270  2.2353 -0.0861 -1.3585
 7117SOL    HW232988   1.415   3.476  10.277 -0.7759  0.1037 -1.5891
 7118SOL     OW32989   1.064   2.737  15.988  0.3539 -0.0079  0.0132
 7118SOL    HW132990   1.117   2.665  16.024  1.5438  0.9943  0.2714
 7118SOL    HW232991   0.991   2.727  16.049  0.8555 -2.1017  0.2875
 7119SOL     OW32992   1.136   2.753   3.908  0.0754 -0.3671 -0.4814
 7119SOL    HW132993   1.180   2.668   3.915 -0.5704 -0.5759  1.0709
 7119SOL    HW232994   1.048   2.716   3.916  0.7128 -1.7153  0.4327
 7120SOL     OW32995   2.139   3.080   7.749  0.1245 -0.8648 -0.9455
 7120SOL    HW132996   2.045   3.066   7.760  0.0115  0.2588 -0.5379
 7120SOL    HW232997   2.135   3.173   7.731  0.0508 -0.7499 -0.3285
 7121SOL     OW32998   2.442   2.539   4.265  0.1481 -0.5070 -0.1686
 7121SOL    HW132999   2.403   2.611   4.214  0.0149 -0.8499 -0.5492
 7121SOL    HW233000   2.535   2.561   4.272 -0.0096  0.2121 -0.2884
 7122SOL     OW33001   3.180   0.891  17.299 -0.6666 -0.2976 -0.8552
 7122SOL    HW133002   3.121   0.828  17.342  0.0960  0.2923  1.0673
 7122SOL    HW233003   3.251   0.837  17.265 -0.3618 -1.6444  1.8650
 7123SOL     OW33004   2.321   3.083  13.090  0.3185  0.8422 -0.9505
 7123SOL    HW133005   2.366   3.044  13.165  0.9504 -0.5291 -2.0634
 7123SOL    HW233006   2.234   3.070  13.129  0.3478  2.6510 -0.2592
 7124SOL     OW33007   1.781   3.376   8.489  0.0253 -0.5307  0.3396
 7124SOL    HW133008   1.875   3.359   8.495  0.0613 -0.1605  0.8703
 7124SOL    HW233009   1.785   3.404   8.398 -1.1698  0.0219  0.4622
 7125SOL     OW33010   0.550   4.150   9.204  0.0444 -0.5723 -0.3766
 7125SOL    HW133011   0.600   4.154   9.285 -0.8418 -0.9209  0.1849
 7125SOL    HW233012   0.607   4.099   9.147  2.4917  0.8911  0.7981
 7126SOL     OW33013   1.374   1.173   7.458 -0.0059 -0.0193 -0.4922
 7126SOL    HW133014   1.303   1.225   7.421 -0.8571 -1.0807 -0.3609
 7126SOL    HW233015   1.420   1.129   7.386  0.9821  2.0206 -1.0996
 7127SOL     OW33016   2.530   1.048   5.460 -0.1782  0.4200  0.8834
 7127SOL    HW133017   2.497   0.958   5.467 -0.4954  0.2455 -2.6330
 7127SOL    HW233018   2.475   1.094   5.396 -0.2748 -0.7100  0.1490
 7128SOL     OW33019   0.901   0.105   9.666 -0.2582  0.0235  0.1947
 7128SOL    HW133020   0.945   0.046   9.727 -0.6828  0.4650  0.9327
 7128SOL    HW233021   0.809   0.080   9.660 -0.1727  0.0597 -1.3301
 7129SOL     OW33022   2.258   0.762   5.223 -0.1291 -0.0991 -0.2135
 7129SOL    HW133023   2.268   0.838   5.165  1.1101 -0.2354 -0.1814
 7129SOL    HW233024   2.173   0.727   5.196  0.3591 -0.6223 -1.0843
 7130SOL     OW33025   0.179   4.499   9.739  0.4870 -0.2382  0.4216
 7130SOL    HW133026   0.201   4.593   9.742 -0.5665 -0.0000  0.7349
 7130SOL    HW233027   0.223   4.472   9.820  3.1547  0.4176 -0.8317
 7131SOL     OW33028   1.852   3.695  12.254  0.2541  0.0337 -0.3609
 7131SOL    HW133029   1.825   3.659  12.338  0.4341  3.5571  1.1862
 7131SOL    HW233030   1.854   3.614  12.202  0.3468 -0.6127  0.6404
 7132SOL     OW33031   0.553   4.640   7.175 -0.5365 -0.0386 -0.4326
 7132SOL    HW133032   0.604   4.663   7.252  1.4143 -0.9528 -1.4486
 7132SOL    HW233033   0.608   4.574   7.133  0.8517 -0.0678  1.4418
 7133SOL     OW33034   4.244   1.862   3.249  0.1546 -0.2533 -0.4992
 7133SOL    HW133035   4.277   1.879   3.161  1.2597  0.9332  0.1614
 7133SOL    HW233036   4.203   1.947   3.267 -0.9741 -0.6779 -1.0482
 7134SOL     OW33037   2.746   3.070   2.500  0.6776  0.3810 -0.4520
 7134SOL    HW133038   2.840   3.075   2.482  0.6724 -2.3586 -1.2800
 7134SOL    HW233039   2.747   2.975   2.516  1.3066  0.3619 -0.5823
 7135SOL     OW33040   0.191   2.407   1.376  0.0494  1.2423  0.4085
 7135SOL    HW133041   0.146   2.322   1.368 -2.3455  2.5644 -0.1402
 7135SOL    HW233042   0.117   2.466   1.387 -0.8334  0.1936  0.1645
 7136SOL     OW33043   4.051   3.784   8.574  0.5766  0.2100 -0.4011
 7136SOL    HW133044   4.134   3.749   8.542  0.1991 -0.9795 -0.0948
 7136SOL    HW233045   4.078   3.862   8.622  0.9097  0.9083 -1.7334
 7137SOL     OW33046   2.409   1.573   5.331 -0.0652  0.3175 -0.0216
 7137SOL    HW133047   2.383   1.516   5.258 -2.4104 -0.0225  1.0960
 7137SOL    HW233048   2.492   1.528   5.349 -1.7377 -2.2319  1.1554
 7138SOL     OW33049   2.980   2.310   8.157  0.0330  0.0981 -0.0441
 7138SOL    HW133050   2.905   2.281   8.209 -1.4474  0.8758 -1.7185
 7138SOL    HW233051   2.942   2.313   8.069  0.0579  1.2411 -0.0122
 7139SOL     OW33052   2.029   1.926   8.664 -0.5654  0.5565 -0.4274
 7139SOL    HW133053   2.077   1.984   8.605 -1.8013  0.7430 -1.2588
 7139SOL    HW233054   2.078   1.845   8.653 -1.0468  0.3806 -1.1936
 7140SOL     OW33055   2.378   4.536  15.628 -0.0558 -0.4290 -0.4674
 7140SOL    HW133056   2.455   4.559  15.681  1.0269  0.5070 -2.4421
 7140SOL    HW233057   2.415   4.515  15.543 -0.0165 -0.1348 -0.5218
 7141SOL     OW33058   0.941   4.574  15.763  0.6073 -0.2463 -0.0894
 7141SOL    HW133059   0.957   4.481  15.780  4.0214  0.5650  1.2819
 7141SOL    HW233060   1.016   4.613  15.808  2.5819 -2.8920 -1.0708
 7142SOL     OW33061   3.862   2.294  11.216  0.5002  0.0800 -0.1341
 7142SOL    HW133062   3.848   2.202  11.239  1.7539 -0.7158 -2.5593
 7142SOL    HW233063   3.792   2.324  11.274  0.7822  0.4465  0.0159
 7143SOL     OW33064   2.710   4.557   1.608  0.0356  0.5205  0.2969
 7143SOL    HW133065   2.788   4.517   1.569 -1.3773 -1.6636 -0.3277
 7143SOL    HW233066   2.735   4.583   1.696  0.6944  2.5322 -0.5033
 7144SOL     OW33067   3.261   0.070  12.709 -1.0031 -0.7059  0.3272
 7144SOL    HW133068   3.301   0.100  12.627 -0.0962 -0.0160  1.0179
 7144SOL    HW233069   3.169   0.080  12.685 -1.2123 -0.0263  1.3997
 7145SOL     OW33070   1.537   1.348   6.109 -0.7085 -0.0369 -0.5447
 7145SOL    HW133071   1.572   1.305   6.031  0.5071 -0.2819  0.1382
 7145SOL    HW233072   1.589   1.315   6.182  0.3889  1.4392 -0.6662
 7146SOL     OW33073   1.028   4.549   4.381 -0.4606 -0.1489  0.6383
 7146SOL    HW133074   0.999   4.539   4.472 -0.6297 -1.7071  0.4228
 7146SOL    HW233075   0.954   4.598   4.346 -0.4190  0.1018  0.9011
 7147SOL     OW33076   2.569   3.034  16.253 -0.1422  0.4096 -0.0319
 7147SOL    HW133077   2.559   2.963  16.189 -0.6474  0.2352  0.2441
 7147SOL    HW233078   2.662   3.048  16.238 -0.3380  1.2034 -0.4668
 7148SOL     OW33079   3.741   0.299  12.398  0.2755 -0.0513  0.4362
 7148SOL    HW133080   3.679   0.344  12.340 -0.9392 -0.2254  1.5990
 7148SOL    HW233081   3.752   0.223  12.341 -2.2943 -0.2247  0.1673
 7149SOL     OW33082   0.388   0.986   9.021 -0.8595 -0.2041  0.0141
 7149SOL    HW133083   0.364   0.964   8.931 -0.3380 -1.3854  0.1698
 7149SOL    HW233084   0.393   0.897   9.054 -0.5648 -0.0500  0.3862
 7150SOL     OW33085   4.102   3.035   5.731 -0.0855  0.5807  0.0517
 7150SOL    HW133086   4.182   3.084   5.710 -0.9593  0.5619 -3.3678
 7150SOL    HW233087   4.108   2.982   5.652  1.2312 -0.7525  1.0531
 7151SOL     OW33088   4.456   1.681  11.470  0.7507  0.3645  0.7123
 7151SOL    HW133089   4.395   1.616  11.505 -0.6256  1.9254  1.1751
 7151SOL    HW233090   4.529   1.626  11.440 -1.6492 -2.5325  0.2428
 7152SOL     OW33091   1.070   2.121   5.929  0.1585 -0.0647  0.2158
 7152SOL    HW133092   1.082   2.026   5.938 -3.0126 -0.3175  1.7476
 7152SOL    HW233093   1.044   2.143   5.840 -1.5972  0.3513  0.8443
 7153SOL     OW33094   1.932   0.049   6.942 -0.0550 -0.0733 -0.4834
 7153SOL    HW133095   1.920   0.056   6.848 -1.0798  4.2541 -0.0357
 7153SOL    HW233096   2.025   0.028   6.942  0.0974  0.6257 -2.4588
 7154SOL     OW33097   2.671   1.116   6.491 -0.0029 -0.7908 -0.3846
 7154SOL    HW133098   2.672   1.110   6.395 -0.9754  0.5618 -0.4766
 7154SOL    HW233099   2.751   1.166   6.509 -0.6041 -0.4278  1.2290
 7155SOL     OW33100   4.622   4.478   9.838  0.0409  0.0341 -0.0001
 7155SOL    HW133101   4.714   4.451   9.842 -0.1285 -0.7256 -1.4128
 7155SOL    HW233102   4.588   4.405   9.888  1.5428 -0.0407  0.9204
 7156SOL     OW33103   3.488   0.035   4.937  0.5260  0.0941  0.0309
 7156SOL    HW133104   3.548   0.090   4.988 -0.5447  0.7031  0.6221
 7156SOL    HW233105   3.527   4.685   4.937  0.2575 -0.0314 -1.3188
 7157SOL     OW33106   1.857   2.785  17.032 -0.8435  0.1445  0.5484
 7157SOL    HW133107   1.770   2.764  17.067 -0.4925 -0.0045  1.3421
 7157SOL    HW233108   1.886   2.844  17.102  0.1702  0.3328 -0.0222
 7158SOL     OW33109   3.705   0.544   4.836 -0.6824  0.2618 -0.1587
 7158SOL    HW133110   3.626   0.499   4.808 -0.9669  0.8375 -0.2900
 7158SOL    HW233111   3.723   0.579   4.748 -1.1553 -2.3052 -1.2618
 7159SOL     OW33112   2.545   0.755   5.016 -0.2280 -0.5616 -0.0918
 7159SOL    HW133113   2.578   0.703   5.090  0.0238  0.1347  0.2870
 7159SOL    HW233114   2.465   0.799   5.046 -0.9647 -1.1897 -1.1525
 7160SOL     OW33115   2.012   1.187  11.198 -0.6081 -0.6404 -0.4876
 7160SOL    HW133116   1.977   1.119  11.141  1.4314 -1.7749 -0.3726
 7160SOL    HW233117   2.067   1.154  11.269 -2.4025  1.6740  1.9552
 7161SOL     OW33118   4.318   0.778   8.953 -0.3380 -1.3560 -0.0641
 7161SOL    HW133119   4.239   0.791   9.005 -0.0077  1.2576 -0.2171
 7161SOL    HW233120   4.293   0.819   8.870  0.8629  0.4194  0.4580
 7162SOL     OW33121   3.272   1.809   6.417  0.0572  0.2295 -0.2109
 7162SOL    HW133122   3.311   1.879   6.363  0.1984  0.9602  0.8316
 7162SOL    HW233123   3.346   1.748   6.420 -0.4229 -0.4088 -1.3426
 7163SOL     OW33124   2.492   1.016   3.459 -0.6578  0.6120 -0.3565
 7163SOL    HW133125   2.552   1.070   3.511  0.8470  0.5255 -2.0004
 7163SOL    HW233126   2.457   0.956   3.524  3.1084 -0.4315  0.7062
 7164SOL     OW33127   3.892   3.511  17.008  0.3742 -0.0927  0.4323
 7164SOL    HW133128   3.918   3.452  16.937  1.7822  0.5188  0.4442
 7164SOL    HW233129   3.885   3.452  17.083 -0.8470  0.2650  0.5893
 7165SOL     OW33130   3.177   1.457   4.624 -0.1094  0.2407  1.0482
 7165SOL    HW133131   3.092   1.414   4.635  0.5169 -0.8330  1.7154
 7165SOL    HW233132   3.217   1.450   4.711 -0.5762  0.5063  1.2843
 7166SOL     OW33133   2.161   1.111  11.432  0.1943 -0.0795 -0.4334
 7166SOL    HW133134   2.227   1.142  11.493  0.7300  0.4980 -1.3068
 7166SOL    HW233135   2.175   1.019  11.456 -0.3398 -0.2175 -0.6436
 7167SOL     OW33136   4.543   0.692   5.002  0.2688  0.2842  0.1097
 7167SOL    HW133137   4.449   0.705   5.014  0.3991  0.9850  0.3312
 7167SOL    HW233138   4.566   0.627   5.069  1.1747 -0.2113 -0.6795
 7168SOL     OW33139   4.486   3.795   4.080 -0.1490  0.0232  0.1873
 7168SOL    HW133140   4.411   3.753   4.038 -0.1323  1.3210 -1.1424
 7168SOL    HW233141   4.486   3.766   4.171 -0.4789 -0.1853  0.1233
 7169SOL     OW33142   1.081   1.176  16.366 -0.5893 -0.4903 -0.1998
 7169SOL    HW133143   1.024   1.102  16.344 -0.4889 -0.7727  0.4744
 7169SOL    HW233144   1.068   1.183  16.461  0.0886  0.3447 -0.1711
 7170SOL     OW33145   2.581   3.266  15.946  0.0352 -0.8124 -0.1430
 7170SOL    HW133146   2.631   3.291  16.024  1.7434 -1.6049 -0.9852
 7170SOL    HW233147   2.500   3.225  15.976  0.8140 -0.6215  2.2736
 7171SOL     OW33148   2.962   1.589   4.135 -0.4797 -0.1320 -0.1714
 7171SOL    HW133149   2.978   1.605   4.228  0.0204 -3.9619  0.3953
 7171SOL    HW233150   2.868   1.590   4.118 -0.4266  1.5060 -0.3675
 7172SOL     OW33151   0.085   1.582   0.269  0.0730 -0.9998  0.5540
 7172SOL    HW133152   0.151   1.559   0.203  0.5584  0.5098  0.5093
 7172SOL    HW233153   0.103   1.674   0.292 -1.3477 -0.7304  0.5489
 7173SOL     OW33154   1.316   4.096   9.853 -0.6178 -0.4379  0.4112
 7173SOL    HW133155   1.376   4.168   9.873 -2.7239  1.5892 -0.4603
 7173SOL    HW233156   1.325   4.031   9.923 -0.5093 -2.0661 -1.1247
 7174SOL     OW33157   4.307   0.372   4.205  0.3157  0.2558  0.0072
 7174SOL    HW133158   4.332   0.463   4.220  2.1808  0.0374 -1.7665
 7174SOL    HW233159   4.342   0.323   4.279 -0.2151  0.2056  0.2302
 7175SOL     OW33160   2.274   4.506   3.861  0.3501 -0.6024  0.1096
 7175SOL    HW133161   2.279   4.443   3.933 -1.6946  0.4518  1.1620
 7175SOL    HW233162   2.362   4.507   3.823  0.6031  2.6451  0.7332
 7176SOL     OW33163   2.643   4.665  15.311  0.1942 -0.6191 -0.6317
 7176SOL    HW133164   2.724   4.645  15.264 -0.5228 -0.6226 -1.8922
 7176SOL    HW233165   2.671   4.651  15.401  2.3322 -1.1655 -1.3985
 7177SOL     OW33166   1.435   2.742   9.415 -0.2265 -0.0075 -0.5670
 7177SOL    HW133167   1.395   2.707   9.336  0.1996 -0.8728 -0.4040
 7177SOL    HW233168   1.515   2.688   9.413 -0.9997 -1.2830  2.7227
 7178SOL     OW33169   0.935   0.429   3.528 -0.1219 -0.1824 -0.8189
 7178SOL    HW133170   0.923   0.515   3.567 -2.1300 -1.1813  0.7480
 7178SOL    HW233171   1.012   0.452   3.476  1.7421 -0.1026  1.9956
 7179SOL     OW33172   2.113   4.636  12.338  0.4283  0.1543  0.2274
 7179SOL    HW133173   2.036   4.613  12.391  0.1661 -1.5960 -0.9177
 7179SOL    HW233174   2.112   4.576  12.264  0.7825 -0.2813  0.5712
 7180SOL     OW33175   1.082   4.046   4.181 -0.3659  0.0852 -0.1356
 7180SOL    HW133176   1.107   4.097   4.104 -0.3235 -0.2847 -0.3621
 7180SOL    HW233177   1.100   3.957   4.153  1.6661  1.0425 -1.8564
 7181SOL     OW33178   1.398   4.304  11.236 -0.6114  0.4070  0.3683
 7181SOL    HW133179   1.458   4.256  11.294  0.6343  1.2169 -0.2623
 7181SOL    HW233180   1.309   4.301  11.271 -1.1861  0.7501 -1.0847
 7182SOL     OW33181   4.347   2.929   0.827  0.5993  0.8600 -0.0855
 7182SOL    HW133182   4.442   2.929   0.836  0.6471 -2.6680 -0.2425
 7182SOL    HW233183   4.338   2.881   0.744  1.0911 -0.1075  0.4180
 7183SOL     OW33184   0.636   2.395   2.823  0.1648  0.4704  0.4858
 7183SOL    HW133185   0.625   2.324   2.886 -3.2206 -0.4897 -1.1938
 7183SOL    HW233186   0.717   2.361   2.784 -0.1660  0.7999 -0.4795
 7184SOL     OW33187   2.572   1.644  11.150  0.5434 -0.4818 -0.7931
 7184SOL    HW133188   2.583   1.723  11.203  0.7936 -0.2332 -1.2192
 7184SOL    HW233189   2.506   1.659  11.083 -2.2349 -1.0935  1.8348
 7185SOL     OW33190   3.123   2.518  14.539  0.0096  0.1608  0.0845
 7185SOL    HW133191   3.180   2.453  14.498 -0.8838  0.0646 -0.9825
 7185SOL    HW233192   3.035   2.493  14.512 -0.2812  0.5769  0.6552
 7186SOL     OW33193   0.432   1.532  14.959  0.3107  0.0170 -0.8934
 7186SOL    HW133194   0.396   1.492  15.038  2.9430  0.2184  0.3804
 7186SOL    HW233195   0.496   1.462  14.946 -1.6093 -1.4256 -2.7476
 7187SOL     OW33196   1.671   1.107   6.510 -0.1279 -0.0320  0.4289
 7187SOL    HW133197   1.655   1.013   6.510  0.1255 -0.0710 -1.0882
 7187SOL    HW233198   1.667   1.126   6.604 -1.0826  0.9515  0.1845
 7188SOL     OW33199   0.609   4.366  15.235 -0.2049  0.1273  0.3294
 7188SOL    HW133200   0.689   4.331  15.198 -0.3883  2.3641 -2.1481
 7188SOL    HW233201   0.587   4.438  15.176 -3.9221  0.8913  2.5764
 7189SOL     OW33202   2.206   3.422   2.039  0.4100  0.9118  0.4968
 7189SOL    HW133203   2.119   3.448   2.070 -0.8338 -0.6462 -1.7622
 7189SOL    HW233204   2.214   3.499   1.983 -1.8147 -0.2749 -1.4680
 7190SOL     OW33205   2.449   4.391   1.197  0.4736 -0.2170  0.5496
 7190SOL    HW133206   2.457   4.468   1.254 -0.2864  1.6623 -1.8871
 7190SOL    HW233207   2.533   4.347   1.211  0.4035 -0.1394  1.2202
 7191SOL     OW33208   3.837   0.010   4.818 -0.2621 -0.2831 -0.5297
 7191SOL    HW133209   3.775   0.006   4.892  0.3451  0.3527  0.0119
 7191SOL    HW233210   3.890   0.082   4.851 -1.9808  0.9975 -0.5184
 7192SOL     OW33211   2.224   3.599   4.003 -0.2546  0.4362 -0.4911
 7192SOL    HW133212   2.212   3.654   3.925  1.1269 -1.3218 -1.9538
 7192SOL    HW233213   2.144   3.548   3.989  0.7978 -1.0681 -0.8965
 7193SOL     OW33214   3.269   3.392  11.495  0.1748 -0.1903  0.8801
 7193SOL    HW133215   3.315   3.470  11.464  0.4123 -0.2662  1.0437
 7193SOL    HW233216   3.230   3.360  11.413 -0.0284  0.4543  0.7246
 7194SOL     OW33217   0.361   0.087   5.211 -0.4245  0.3096 -0.1593
 7194SOL    HW133218   0.445   0.110   5.250 -0.9149 -1.6919  2.0817
 7194SOL    HW233219   0.391   0.000   5.184 -0.4743 -0.4793  2.3345
 7195SOL     OW33220   1.782   1.969   5.669  0.2528 -0.2495 -0.3943
 7195SOL    HW133221   1.857   1.936   5.719  1.2836  1.8156 -0.6137
 7195SOL    HW233222   1.754   1.901   5.607  1.0725 -1.1777  0.2441
 7196SOL     OW33223   0.817   3.429  13.409  0.2377  0.5380  0.3780
 7196SOL    HW133224   0.728   3.454  13.434  0.6887  0.5367  2.0348
 7196SOL    HW233225   0.801   3.375  13.332  0.5510  0.6904  0.2030
 7197SOL     OW33226   4.694   4.432   4.221 -0.0830 -0.4585 -0.0987
 7197SOL    HW133227   0.020   4.471   4.281 -1.5183  2.5809 -0.5925
 7197SOL    HW233228   4.694   4.339   4.243  0.4363 -0.6526 -0.9307
 7198SOL     OW33229   3.040   0.186   8.335 -0.5944  0.0437  0.5976
 7198SOL    HW133230   2.986   0.153   8.263 -0.6975  1.7406 -0.0973
 7198SOL    HW233231   2.972   0.225   8.390 -0.7711 -1.8426  1.7303
 7199SOL     OW33232   1.016   2.575   9.057  0.1790 -0.2001  0.1806
 7199SOL    HW133233   1.087   2.557   8.996  0.5186 -0.1223  0.5520
 7199SOL    HW233234   0.975   2.650   9.016 -1.2252 -0.8982  0.3003
 7200SOL     OW33235   2.764   3.054   2.878  0.0764  0.3612 -0.9191
 7200SOL    HW133236   2.702   2.988   2.844 -1.9600  1.5481  0.4501
 7200SOL    HW233237   2.719   3.080   2.959  0.0347  2.8452 -1.7525
 7201SOL     OW33238   2.294   1.101   8.984  0.2730 -0.1332  0.3262
 7201SOL    HW133239   2.287   1.193   8.956  2.5452 -0.5331 -1.5677
 7201SOL    HW233240   2.251   1.106   9.069  0.7136 -2.6757  0.6978
 7202SOL     OW33241   3.826   4.611   9.052 -0.4639  0.2985  0.1555
 7202SOL    HW133242   3.904   4.634   9.102  1.1129 -2.5457 -0.9884
 7202SOL    HW233243   3.779   4.695   9.053  0.5901  0.8660  1.0294
 7203SOL     OW33244   0.602   3.362   4.383  0.1018  0.3322 -0.0167
 7203SOL    HW133245   0.642   3.361   4.470  0.1028  0.1578 -0.0178
 7203SOL    HW233246   0.647   3.288   4.341 -0.1533 -0.1465  0.5530
 7204SOL     OW33247   3.157   0.172   1.174  0.1450 -0.0680 -0.5559
 7204SOL    HW133248   3.064   0.192   1.175 -0.1128 -1.2255 -1.1719
 7204SOL    HW233249   3.196   0.256   1.147 -1.2050  0.1705 -1.7719
 7205SOL     OW33250   4.180   0.477   8.088 -0.3019  0.0904  0.6420
 7205SOL    HW133251   4.263   0.450   8.128 -0.4201 -0.2950  0.6299
 7205SOL    HW233252   4.122   0.469   8.164 -0.8163 -0.4087  0.1996
 7206SOL     OW33253   0.704   3.286   5.452  0.5538 -0.0673 -0.1272
 7206SOL    HW133254   0.680   3.367   5.497  1.4078  0.2026 -0.1636
 7206SOL    HW233255   0.799   3.283   5.457  0.7651  0.3868 -3.6620
 7207SOL     OW33256   4.442   0.588   5.916  0.1006  0.3060 -0.4474
 7207SOL    HW133257   4.448   0.604   6.010  0.0208 -2.0570 -0.0330
 7207SOL    HW233258   4.535   0.587   5.891 -0.0739  0.3751 -1.1099
 7208SOL     OW33259   3.201   3.831   6.502 -0.8455  0.0859  0.0827
 7208SOL    HW133260   3.209   3.741   6.534 -1.7997 -0.1116 -0.2621
 7208SOL    HW233261   3.187   3.880   6.583 -2.1526 -1.9361  1.0697
 7209SOL     OW33262   2.953   1.614   8.459  0.0930 -0.1822 -0.1787
 7209SOL    HW133263   2.973   1.706   8.446  0.8278 -0.3783 -0.3896
 7209SOL    HW233264   3.028   1.575   8.416 -0.8679 -0.8530 -1.2588
 7210SOL     OW33265   1.181   2.404   8.347 -0.1028 -0.2698 -0.0333
 7210SOL    HW133266   1.100   2.394   8.296 -0.4546  0.1783  0.4450
 7210SOL    HW233267   1.160   2.362   8.430 -1.1544 -1.9187 -1.1200
 7211SOL     OW33268   0.666   0.107   4.149 -0.1890  0.3177  0.0780
 7211SOL    HW133269   0.575   0.122   4.174 -0.3515 -0.1535 -0.2390
 7211SOL    HW233270   0.656   0.095   4.055  0.6995  2.5290 -0.2984
 7212SOL     OW33271   3.289   3.419   9.043  0.4169 -0.2272  0.5687
 7212SOL    HW133272   3.384   3.415   9.050  0.5663 -0.3362 -1.4827
 7212SOL    HW233273   3.289   3.464   8.958 -0.8771 -2.2986 -0.5386
 7213SOL     OW33274   2.046   3.385   9.088  0.4068  0.4145 -0.0155
 7213SOL    HW133275   1.978   3.371   9.154 -0.5257 -1.3445 -1.3724
 7213SOL    HW233276   2.069   3.296   9.065  2.0363  0.8165  0.0978
 7214SOL     OW33277   0.299   1.923  11.923  0.0283  0.1770  0.3767
 7214SOL    HW133278   0.395   1.928  11.921  0.0765 -0.5344  0.8825
 7214SOL    HW233279   0.291   1.830  11.904 -1.2644  0.2654  0.4843
 7215SOL     OW33280   2.560   0.351   1.484  0.1477  0.9576 -0.1473
 7215SOL    HW133281   2.533   0.259   1.475  1.1765  0.5654  0.8079
 7215SOL    HW233282   2.546   0.389   1.397 -3.1457 -2.1763 -1.0068
 7216SOL     OW33283   3.509   1.870   0.151 -0.1347 -0.3613  0.6243
 7216SOL    HW133284   3.445   1.883   0.080  0.9273  1.0742 -0.0849
 7216SOL    HW233285   3.547   1.783   0.142 -1.4499 -0.8608 -0.0696
 7217SOL     OW33286   4.305   1.463   5.045 -0.5880 -0.1407  0.0251
 7217SOL    HW133287   4.216   1.470   5.078  0.2418 -0.1053  2.3114
 7217SOL    HW233288   4.337   1.417   5.123  3.2413  1.2101 -0.7155
 7218SOL     OW33289   3.511   2.118   7.326  0.0311  0.0801  0.5095
 7218SOL    HW133290   3.558   2.046   7.284  0.4082  1.7544 -1.9523
 7218SOL    HW233291   3.578   2.153   7.385  0.4257  0.4508 -0.1557
 7219SOL     OW33292   3.874   2.104   2.181 -0.3000  0.8579 -0.0985
 7219SOL    HW133293   3.913   2.145   2.104  1.7314 -1.9747 -0.5487
 7219SOL    HW233294   3.783   2.131   2.169 -0.6457 -0.9499 -1.4993
 7220SOL     OW33295   1.202   1.272   0.125 -0.1262 -0.6152 -0.0668
 7220SOL    HW133296   1.258   1.299   0.053  2.7480 -3.0548  1.2526
 7220SOL    HW233297   1.254   1.282   0.205  1.1175  2.8448 -1.3151
 7221SOL     OW33298   2.911   0.561   5.310 -0.1416  0.1445 -0.2176
 7221SOL    HW133299   2.863   0.528   5.387 -1.7027  1.7004 -0.5351
 7221SOL    HW233300   2.891   0.510   5.232 -0.9739 -0.3939  0.3444
 7222SOL     OW33301   2.794   0.436  15.305 -0.3371  0.2507  0.0475
 7222SOL    HW133302   2.723   0.451  15.367 -0.7938 -1.5819 -0.0580
 7222SOL    HW233303   2.750   0.462  15.224 -0.7911 -0.3953  0.0944
 7223SOL     OW33304   2.544   4.583   5.523  0.3856  0.1414  0.1818
 7223SOL    HW133305   2.538   4.550   5.612 -1.3443  0.5374  0.1979
 7223SOL    HW233306   2.486   4.535   5.464  3.0493  0.2005 -2.5361
 7224SOL     OW33307   3.976   2.442   4.381 -0.2566  0.2987 -0.2870
 7224SOL    HW133308   3.973   2.510   4.314  1.2884  1.7536  1.1008
 7224SOL    HW233309   4.034   2.489   4.441  1.9414 -1.6757 -0.8927
 7225SOL     OW33310   1.152   1.039   7.281 -0.0310 -0.2509 -0.2442
 7225SOL    HW133311   1.091   1.045   7.208 -0.2697  1.3931  0.0896
 7225SOL    HW233312   1.148   1.126   7.320  0.5464 -0.6115  0.6336
 7226SOL     OW33313   3.491   0.201   5.679 -0.0705 -0.0103 -0.1831
 7226SOL    HW133314   3.583   0.193   5.656 -0.5507 -0.7579 -1.8549
 7226SOL    HW233315   3.491   0.259   5.755 -3.5240 -1.0969  0.6472
 7227SOL     OW33316   3.038   0.252   3.920 -0.4418  0.3559  0.0485
 7227SOL    HW133317   2.983   0.210   3.855  0.1866 -2.6711  1.4495
 7227SOL    HW233318   3.004   0.341   3.930 -1.7370 -0.2398  0.9526
 7228SOL     OW33319   3.651   2.360   6.348 -0.2893  0.1388 -0.1509
 7228SOL    HW133320   3.715   2.424   6.316  1.2705 -0.2241  2.2441
 7228SOL    HW233321   3.706   2.289   6.381 -1.0466  0.3966  1.6726
 7229SOL     OW33322   1.975   1.136   7.896  0.0666  0.3636 -0.1952
 7229SOL    HW133323   1.918   1.166   7.825  1.4585 -0.0902 -1.4945
 7229SOL    HW233324   1.956   1.205   7.959 -1.0995  0.6566 -0.8519
 7230SOL     OW33325   1.528   1.180  10.698 -0.2351 -0.1291 -0.0057
 7230SOL    HW133326   1.488   1.146  10.778 -4.5251  0.9393 -1.6723
 7230SOL    HW233327   1.459   1.166  10.633  0.4812 -1.7006 -0.4034
 7231SOL     OW33328   0.440   1.139  15.110  0.2748 -0.0151 -0.4546
 7231SOL    HW133329   0.401   1.113  15.026 -1.1563  1.1871 -0.1656
 7231SOL    HW233330   0.485   1.058  15.134  3.2550  2.3112  1.6664
 7232SOL     OW33331   0.989   2.965   6.906 -0.0991  0.4754 -0.3049
 7232SOL    HW133332   0.966   2.939   6.817 -0.7614  0.3043 -0.0827
 7232SOL    HW233333   1.085   2.973   6.909  0.2474 -3.7462 -0.9052
 7233SOL     OW33334   1.690   2.285   9.697 -0.1132  0.3819  0.4190
 7233SOL    HW133335   1.723   2.309   9.611  1.2453  1.0690  1.1295
 7233SOL    HW233336   1.605   2.329   9.703 -0.1307  0.6022 -1.5461
 7234SOL     OW33337   4.002   0.126   2.064  0.3751 -0.1967  0.4543
 7234SOL    HW133338   4.082   0.175   2.044  1.0838 -1.7769 -0.5662
 7234SOL    HW233339   4.029   0.037   2.085 -0.9337 -0.4750  0.9720
 7235SOL     OW33340   2.586   3.376   7.157 -0.2698 -0.0262 -0.6200
 7235SOL    HW133341   2.603   3.392   7.064  1.4207 -0.7469 -0.4396
 7235SOL    HW233342   2.494   3.402   7.157 -0.3575 -0.3299 -0.3662
 7236SOL     OW33343   3.860   2.426   0.556  0.1488  0.5413  0.3517
 7236SOL    HW133344   3.794   2.363   0.585  1.2894 -0.6190  0.4387
 7236SOL    HW233345   3.811   2.505   0.578 -0.1200  0.9551 -1.7251
 7237SOL     OW33346   1.337   2.120   6.255  0.3331 -0.4840  0.4126
 7237SOL    HW133347   1.303   2.143   6.168 -2.8959  1.5821  2.1982
 7237SOL    HW233348   1.315   2.196   6.309 -1.1816  1.4922 -2.8970
 7238SOL     OW33349   4.391   2.884   1.421 -0.1344 -0.1463  0.1740
 7238SOL    HW133350   4.444   2.831   1.361  0.1766  0.5172 -0.1360
 7238SOL    HW233351   4.420   2.847   1.504 -0.7829 -0.6292  0.1865
 7239SOL     OW33352   1.232   4.529  15.495  0.2463 -0.3108 -0.3311
 7239SOL    HW133353   1.263   4.438  15.501 -1.2333 -0.5977  2.6503
 7239SOL    HW233354   1.293   4.566  15.559 -0.2949  2.5272 -1.4644
 7240SOL     OW33355   4.670   3.644   8.780  0.1453 -0.0888  0.4640
 7240SOL    HW133356   4.700   3.729   8.748 -1.8569  0.8309  1.0222
 7240SOL    HW233357   0.019   3.604   8.790  0.3000  0.1100 -0.0955
 7241SOL     OW33358   1.942   0.482   5.264 -0.0031 -0.0430 -0.5519
 7241SOL    HW133359   1.994   0.404   5.279  0.1310  0.5717  2.1427
 7241SOL    HW233360   1.925   0.501   5.356 -0.7079 -1.1285 -0.4527
 7242SOL     OW33361   3.995   0.962   7.785 -0.1008 -0.1417 -0.7057
 7242SOL    HW133362   3.967   0.938   7.874  0.0124  0.8709 -0.3955
 7242SOL    HW233363   4.089   0.943   7.783 -0.0701 -0.1386  0.6681
 7243SOL     OW33364   2.396   1.777  16.914 -0.2641  0.0975  0.1577
 7243SOL    HW133365   2.393   1.683  16.899 -0.8638 -0.0165  0.9741
 7243SOL    HW233366   2.305   1.806  16.904 -0.1117  0.5233  0.0298
 7244SOL     OW33367   3.920   2.000  14.333  0.2788  0.6081  0.1540
 7244SOL    HW133368   3.968   2.045  14.263  1.0442  0.1186  0.3632
 7244SOL    HW233369   3.948   2.057  14.405  0.3777  0.8641 -0.0860
 7245SOL     OW33370   2.101   2.321   8.354  0.2572  0.2380 -0.0202
 7245SOL    HW133371   2.044   2.374   8.298  1.1350  0.4982 -0.6552
 7245SOL    HW233372   2.085   2.366   8.437  0.7138  0.3075  0.0321
 7246SOL     OW33373   2.604   0.481  15.523  0.1866 -0.0801  0.3433
 7246SOL    HW133374   2.666   0.554  15.530 -1.8923  1.6630  0.6118
 7246SOL    HW233375   2.517   0.515  15.542  0.4317  0.7505  0.0027
 7247SOL     OW33376   1.025   4.660   9.194 -0.1543 -0.5113 -0.3828
 7247SOL    HW133377   0.976   0.005   9.186  0.5197 -0.1544 -0.8600
 7247SOL    HW233378   0.956   4.601   9.164  0.9039 -1.1963 -1.4687
 7248SOL     OW33379   0.080   4.610   6.601 -0.5434  0.5068 -0.8976
 7248SOL    HW133380   0.012   4.547   6.577  0.4938 -1.8931  2.5532
 7248SOL    HW233381   0.114   4.574   6.683 -2.0715  0.7562 -0.1391
 7249SOL     OW33382   2.142   1.565  16.474  0.0404 -0.0327 -0.3369
 7249SOL    HW133383   2.230   1.531  16.494 -0.9261 -2.0061  0.6205
 7249SOL    HW233384   2.100   1.555  16.559 -1.0193 -3.1379 -1.2287
 7250SOL     OW33385   1.440   1.988   8.119 -0.0948 -0.4299 -0.4606
 7250SOL    HW133386   1.362   2.036   8.095 -0.5385 -0.9757 -0.1283
 7250SOL    HW233387   1.454   2.003   8.213  2.7579  0.8585 -1.0995
 7251SOL     OW33388   3.577   2.925  15.138  0.0169  0.8911 -0.3606
 7251SOL    HW133389   3.657   2.881  15.168 -1.4640  0.1238  2.4818
 7251SOL    HW233390   3.538   2.843  15.109  0.2230  0.7842 -0.3403
 7252SOL     OW33391   1.696   2.974   5.575  0.6340  0.1465  0.1751
 7252SOL    HW133392   1.625   2.977   5.639  0.4095  0.2300 -0.0786
 7252SOL    HW233393   1.649   2.931   5.503  0.2665 -0.6061  0.8599
 7253SOL     OW33394   0.045   3.932   6.558  0.1559 -0.1321  0.0748
 7253SOL    HW133395   0.031   3.896   6.646 -0.4768 -0.0491  0.0039
 7253SOL    HW233396   0.059   4.023   6.586 -1.2506 -0.4090  1.7256
 7254SOL     OW33397   4.707   3.892   3.542  0.1147 -0.1849 -0.1559
 7254SOL    HW133398   0.026   3.964   3.568 -0.4532  1.2082 -2.7816
 7254SOL    HW233399   4.727   3.883   3.448  1.2335 -0.0656  0.0731
 7255SOL     OW33400   0.640   3.929   4.668  0.4393 -0.6401  0.3206
 7255SOL    HW133401   0.728   3.949   4.700 -0.3484  1.0035  1.4171
 7255SOL    HW233402   0.649   3.835   4.685  0.2882 -1.0028 -1.5591
 7256SOL     OW33403   3.868   3.264   8.037 -0.8161 -0.2598  0.3616
 7256SOL    HW133404   3.801   3.222   7.982 -0.9949 -2.0702  1.9837
 7256SOL    HW233405   3.907   3.183   8.069 -1.2026 -0.8908 -0.7666
 7257SOL     OW33406   2.873   1.119  10.601  0.2615 -0.6319 -0.0490
 7257SOL    HW133407   2.904   1.206  10.625 -0.3125 -0.6400  0.7351
 7257SOL    HW233408   2.779   1.135  10.590  0.5519  1.4827  0.5368
 7258SOL     OW33409   1.784   1.505   7.652  0.2907 -0.3326  0.3995
 7258SOL    HW133410   1.871   1.546   7.654 -0.1732  0.6900 -0.1331
 7258SOL    HW233411   1.803   1.415   7.678 -0.6114 -0.8986 -0.9279
 7259SOL     OW33412   2.300   3.021  12.823  0.3086  0.3342  0.2087
 7259SOL    HW133413   2.382   3.031  12.774  0.5761 -0.6782  0.4563
 7259SOL    HW233414   2.320   3.060  12.908 -0.4625  2.9836 -0.8249
 7260SOL     OW33415   1.656   4.216   9.888  0.2986 -0.3295  0.0588
 7260SOL    HW133416   1.664   4.307   9.858 -2.0159  0.9402  3.2584
 7260SOL    HW233417   1.746   4.202   9.916  0.5333 -1.0461 -1.0575
 7261SOL     OW33418   2.622   1.091   7.049  0.2644 -0.1727 -0.0881
 7261SOL    HW133419   2.555   1.032   7.085 -0.2465  0.9707  0.8343
 7261SOL    HW233420   2.654   1.110   7.137 -0.2977 -2.3965  0.5945
 7262SOL     OW33421   4.004   4.492   2.652  0.1990 -0.3414 -0.4153
 7262SOL    HW133422   4.052   4.574   2.660  0.2990 -0.8014  3.8475
 7262SOL    HW233423   3.929   4.512   2.709  0.2096 -1.6410  0.0618
 7263SOL     OW33424   0.449   4.075   5.868  0.0987  0.6667 -0.3545
 7263SOL    HW133425   0.408   4.152   5.827 -0.6658  0.4812  0.0778
 7263SOL    HW233426   0.409   4.073   5.954 -1.7329 -0.8486 -1.2442
 7264SOL     OW33427   4.520   1.270  12.467 -0.3074 -0.0170  0.2253
 7264SOL    HW133428   4.554   1.356  12.443  0.7921 -0.4045  0.4223
 7264SOL    HW233429   4.562   1.216  12.400  1.3929  1.2637  0.2481
 7265SOL     OW33430   3.095   3.585  10.488  0.0804 -0.0174 -0.3938
 7265SOL    HW133431   3.167   3.522  10.486 -1.2316 -1.5272 -0.2332
 7265SOL    HW233432   3.109   3.636  10.568 -2.8383  1.8148 -1.0282
 7266SOL     OW33433   3.942   3.006   2.343 -0.0538 -0.2903 -0.4923
 7266SOL    HW133434   3.905   2.994   2.255 -0.3229 -1.2066 -0.2459
 7266SOL    HW233435   3.874   2.970   2.399 -0.0211 -1.8125 -1.4345
 7267SOL     OW33436   2.670   0.490   1.226 -0.3229 -0.0289  0.0803
 7267SOL    HW133437   2.598   0.457   1.172 -0.8582  0.4289  0.5135
 7267SOL    HW233438   2.723   0.537   1.162 -2.3174 -2.9658 -3.7443
 7268SOL     OW33439   1.445   3.469   8.293  0.5118 -0.7269  0.0374
 7268SOL    HW133440   1.436   3.464   8.198  0.5444 -2.1707  0.1052
 7268SOL    HW233441   1.529   3.513   8.301 -0.5238  1.2625 -0.2474
 7269SOL     OW33442   1.578   1.898   3.587  0.7294  0.3479 -0.0170
 7269SOL    HW133443   1.586   1.991   3.563 -2.1648  0.8442  1.0252
 7269SOL    HW233444   1.636   1.855   3.524  1.0270 -0.6255  0.9315
 7270SOL     OW33445   0.287   2.846   8.519 -0.1099 -0.1939 -0.0854
 7270SOL    HW133446   0.337   2.765   8.514 -0.9713 -0.8668  2.1419
 7270SOL    HW233447   0.214   2.820   8.576  0.9079 -0.0671  1.2652
 7271SOL     OW33448   1.985   4.180   6.782  0.3930  0.2828 -0.4507
 7271SOL    HW133449   1.898   4.214   6.803  0.2697  0.2195 -0.8546
 7271SOL    HW233450   1.972   4.163   6.688 -2.7929  2.2449 -0.3783
 7272SOL     OW33451   4.427   0.969  15.079 -0.7691  0.0551  0.1491
 7272SOL    HW133452   4.348   0.930  15.116 -1.1108 -2.8392 -3.7373
 7272SOL    HW233453   4.383   1.039  15.030 -0.0632  1.1621  1.0808
 7273SOL     OW33454   3.046   1.056   9.380 -0.2736  0.7880  0.0740
 7273SOL    HW133455   2.959   1.030   9.350 -0.2055 -1.4174  1.7288
 7273SOL    HW233456   3.026   1.145   9.409 -2.6757  0.5737 -0.9742
 7274SOL     OW33457   0.375   4.151   7.154  0.4249 -0.4236 -0.2745
 7274SOL    HW133458   0.281   4.160   7.136  0.4818 -0.2487 -0.4864
 7274SOL    HW233459   0.380   4.056   7.160  3.9750 -0.2582 -0.5533
 7275SOL     OW33460   2.099   0.362   2.595  0.6940  0.1002  0.0313
 7275SOL    HW133461   2.004   0.360   2.582  0.8015  1.2727 -0.9849
 7275SOL    HW233462   2.118   0.331   2.684  0.0060  1.2061  0.5652
 7276SOL     OW33463   3.361   0.284   4.083 -0.1578 -0.5863  0.1312
 7276SOL    HW133464   3.334   0.264   3.993 -2.7088  0.6739  0.6150
 7276SOL    HW233465   3.282   0.272   4.136 -0.6173  1.9738  0.0141
 7277SOL     OW33466   3.924   2.533   2.866  0.0734  0.3157  0.8172
 7277SOL    HW133467   3.860   2.584   2.915  1.0261  1.9866  0.2989
 7277SOL    HW233468   3.980   2.605   2.837  1.3767 -1.5030 -1.1918
 7278SOL     OW33469   3.404   0.156   9.269  0.0584 -0.1635  0.1455
 7278SOL    HW133470   3.389   0.071   9.311  0.2531  0.8620  2.2715
 7278SOL    HW233471   3.320   0.175   9.227 -0.4429  0.4841  1.4508
 7279SOL     OW33472   2.789   2.637   2.930 -0.6583  0.0622 -0.1212
 7279SOL    HW133473   2.731   2.701   2.970 -1.4343 -0.5302 -0.2865
 7279SOL    HW233474   2.859   2.633   2.995 -0.9036  2.4316  0.2748
 7280SOL     OW33475   0.707   2.526   9.103 -0.0549 -1.2022 -0.0996
 7280SOL    HW133476   0.682   2.610   9.142 -0.0419 -1.4361  0.3989
 7280SOL    HW233477   0.770   2.544   9.033  1.6303  0.3399  1.8246
 7281SOL     OW33478   3.103   1.061   8.553 -0.1299 -0.4663  0.0937
 7281SOL    HW133479   3.180   1.117   8.552  0.7885 -1.6903  2.1530
 7281SOL    HW233480   3.151   0.978   8.557 -0.5324 -0.6063  2.1220
 7282SOL     OW33481   4.157   1.236   5.839 -0.5701  0.2033  0.3101
 7282SOL    HW133482   4.195   1.322   5.827 -0.3376  0.0613  0.0297
 7282SOL    HW233483   4.213   1.211   5.912  2.1499 -0.2396 -1.9260
 7283SOL     OW33484   1.413   2.253  10.571  0.0394 -0.4607  0.0385
 7283SOL    HW133485   1.433   2.241  10.478 -1.0577  2.2750 -0.5394
 7283SOL    HW233486   1.428   2.164  10.603 -1.1797 -0.2369  1.2377
 7284SOL     OW33487   0.067   2.054  11.239  0.1345 -0.3305  0.2172
 7284SOL    HW133488   0.079   2.149  11.236 -1.1341 -0.1393  1.2853
 7284SOL    HW233489   0.127   2.028  11.308 -0.6763 -0.8131  0.7323
 7285SOL     OW33490   3.325   2.325  15.194 -0.1063 -0.0956 -0.2307
 7285SOL    HW133491   3.270   2.332  15.271 -0.2917  2.2548 -0.5763
 7285SOL    HW233492   3.267   2.283  15.130  0.1420 -1.9718  0.7542
 7286SOL     OW33493   0.100   1.263   1.358  0.1875  0.0016  0.2966
 7286SOL    HW133494   0.044   1.298   1.427 -0.9941 -2.0197  0.3586
 7286SOL    HW233495   0.043   1.278   1.283 -1.3540 -1.1982  1.2493
 7287SOL     OW33496   1.987   4.640   1.776  0.4116 -0.1318 -0.0550
 7287SOL    HW133497   2.066   4.679   1.739 -0.0912  0.0865 -0.8946
 7287SOL    HW233498   1.921   4.707   1.762  0.7645 -0.3540 -2.8284
 7288SOL     OW33499   0.079   0.277   9.245 -0.2370 -0.0823  0.3010
 7288SOL    HW133500   0.003   0.241   9.199  1.0767 -1.8918 -0.4452
 7288SOL    HW233501   0.044   0.366   9.241  0.2168  0.0950  0.3869
 7289SOL     OW33502   3.161   0.698  15.745  0.0682 -0.1891 -1.0206
 7289SOL    HW133503   3.180   0.618  15.696  0.7038 -1.4572  1.3174
 7289SOL    HW233504   3.193   0.672  15.831 -2.8392  2.8071  0.9295
 7290SOL     OW33505   3.387   4.177  12.398  0.0289  0.0753  0.5442
 7290SOL    HW133506   3.456   4.126  12.357 -0.6208  0.3482 -0.9006
 7290SOL    HW233507   3.323   4.120  12.440  0.9509 -1.2650  0.1174
 7291SOL     OW33508   0.752   0.654   9.631 -0.3761 -0.5146 -0.1538
 7291SOL    HW133509   0.775   0.571   9.590 -0.0070  0.4119 -1.8190
 7291SOL    HW233510   0.831   0.709   9.633 -0.9126  0.2226  0.8485
 7292SOL     OW33511   1.186   2.452   5.031 -0.5062  0.2628  0.1410
 7292SOL    HW133512   1.199   2.516   5.101  2.0863  0.2723 -0.3300
 7292SOL    HW233513   1.093   2.438   5.049 -0.4094  1.2320  1.3862
 7293SOL     OW33514   1.479   1.786   8.895  0.1934 -0.4335 -0.0447
 7293SOL    HW133515   1.529   1.866   8.912 -2.1366  0.5718  2.0839
 7293SOL    HW233516   1.409   1.819   8.839  0.6088  1.2780  0.4230
 7294SOL     OW33517   4.079   2.730   2.433 -0.1883  0.5802 -0.0424
 7294SOL    HW133518   4.089   2.825   2.428  1.2868  0.3028 -2.3891
 7294SOL    HW233519   3.996   2.715   2.387  1.5649  0.6216 -3.2062
 7295SOL     OW33520   2.976   2.107   1.690 -0.1383  0.1786 -0.0575
 7295SOL    HW133521   3.036   2.129   1.620  1.0221  0.9164  1.1690
 7295SOL    HW233522   3.026   2.104   1.772  0.8415 -3.0463 -0.7624
 7296SOL     OW33523   2.290   4.417   1.482  0.7751  0.0466 -0.3482
 7296SOL    HW133524   2.382   4.413   1.459  1.1460  1.4987  0.8682
 7296SOL    HW233525   2.297   4.381   1.570 -0.9487  0.0557 -0.2059
 7297SOL     OW33526   2.861   1.419  14.803 -0.0361 -0.2046 -0.0427
 7297SOL    HW133527   2.902   1.407  14.718  2.4323  1.3617  0.9283
 7297SOL    HW233528   2.836   1.511  14.796 -0.8637 -0.3517  0.9979
 7298SOL     OW33529   0.052   1.743   5.757 -0.4265  0.1381 -0.0611
 7298SOL    HW133530   0.019   1.818   5.807  2.4872  0.6446  1.0430
 7298SOL    HW233531   4.709   1.729   5.706 -1.2155  0.0071  1.2206
 7299SOL     OW33532   3.186   3.184  14.367 -0.4279 -0.2469 -0.6170
 7299SOL    HW133533   3.244   3.133  14.311  0.3948  2.1210 -1.8971
 7299SOL    HW233534   3.100   3.147  14.348 -0.1401 -1.3734  0.2921
 7300SOL     OW33535   2.142   1.127   9.220 -0.3436  0.7844  0.2790
 7300SOL    HW133536   2.072   1.064   9.238 -0.3822 -0.2876 -3.6295
 7300SOL    HW233537   2.196   1.111   9.297  0.0397  0.4709 -0.0545
 7301SOL     OW33538   1.473   4.295  17.428  0.5198 -0.1337 -0.1244
 7301SOL    HW133539   1.433   4.249  17.502 -0.4033  0.0133 -0.5336
 7301SOL    HW233540   1.458   4.230  17.360 -1.0420  0.3938 -0.2892
 7302SOL     OW33541   0.593   2.162  15.239  0.0716 -0.2588 -0.2364
 7302SOL    HW133542   0.508   2.142  15.201  0.2268 -0.3002 -0.5652
 7302SOL    HW233543   0.649   2.118  15.175 -1.8751  0.3504 -2.3558
 7303SOL     OW33544   1.175   1.882   7.558 -0.1958 -0.3702 -0.5922
 7303SOL    HW133545   1.172   1.835   7.475 -0.5112 -0.3069 -0.6175
 7303SOL    HW233546   1.198   1.812   7.618  0.9168  0.9345  0.4977
 7304SOL     OW33547   3.106   1.539   9.404  0.3906  0.2714  1.0300
 7304SOL    HW133548   3.193   1.501   9.414 -0.1322 -1.0886  0.4595
 7304SOL    HW233549   3.120   1.623   9.448 -0.8181  0.1351  1.6727
 7305SOL     OW33550   4.524   4.263   3.520 -0.4886  0.3516 -0.6743
 7305SOL    HW133551   4.576   4.309   3.585  1.1851 -3.1689  0.4987
 7305SOL    HW233552   4.583   4.215   3.462 -0.5397 -0.8609  0.2643
 7306SOL     OW33553   1.940   2.790  14.493  0.9622  0.8787 -0.7219
 7306SOL    HW133554   1.959   2.866  14.438 -1.8683  0.1541 -2.7219
 7306SOL    HW233555   1.845   2.780  14.479  0.9689  2.0953 -1.6112
 7307SOL     OW33556   2.460   0.356   8.199  0.5936 -0.4070  0.0282
 7307SOL    HW133557   2.420   0.291   8.140  0.9545  2.0935 -2.9589
 7307SOL    HW233558   2.408   0.335   8.276 -2.9990  2.4493 -1.5863
 7308SOL     OW33559   0.794   2.985   8.786 -0.5556 -0.3509  0.0468
 7308SOL    HW133560   0.799   3.080   8.779 -1.1061 -0.2183  1.6282
 7308SOL    HW233561   0.883   2.953   8.778 -1.3490 -2.9537  1.7295
 7309SOL     OW33562   1.076   3.972   3.836  0.5579 -0.6075 -0.7495
 7309SOL    HW133563   1.010   4.031   3.800  0.7703 -0.6562 -1.2208
 7309SOL    HW233564   1.131   4.040   3.876  0.1884 -0.3423 -0.6973
 7310SOL     OW33565   1.528   1.542  17.493  0.4539 -0.7223  0.4588
 7310SOL    HW133566   1.555   1.592  17.570 -2.0042  0.1686  0.7630
 7310SOL    HW233567   1.610   1.506  17.462  1.1718 -0.4656  2.0836
 7311SOL     OW33568   0.602   3.597   4.611 -0.7745  0.1296  0.3368
 7311SOL    HW133569   0.521   3.574   4.658 -0.8647 -0.2964 -0.0220
 7311SOL    HW233570   0.657   3.522   4.631  1.7901  2.3223  1.4107
 7312SOL     OW33571   3.136   2.369   3.046 -0.3549 -0.1072  0.3699
 7312SOL    HW133572   3.068   2.435   3.060  1.2832  1.6215  0.1839
 7312SOL    HW233573   3.198   2.396   3.113 -0.1457  1.1542 -0.3172
 7313SOL     OW33574   4.656   4.314  10.180  0.0525  0.6035 -0.0230
 7313SOL    HW133575   4.620   4.265  10.106  1.5446  1.4145 -1.2753
 7313SOL    HW233576   4.724   4.260  10.220  0.0978  2.1637  1.9946
 7314SOL     OW33577   3.740   1.602   8.233 -0.1039 -0.3121 -0.1023
 7314SOL    HW133578   3.814   1.608   8.172 -1.4446  3.1176 -1.3938
 7314SOL    HW233579   3.683   1.540   8.188  0.3722 -0.8112 -0.0206
 7315SOL     OW33580   2.395   1.387   5.966  0.0169  0.0845 -1.0240
 7315SOL    HW133581   2.302   1.407   5.956  0.1608  0.4617 -1.6238
 7315SOL    HW233582   2.397   1.324   6.038 -0.6128  0.6461 -0.5177
 7316SOL     OW33583   2.249   0.791  11.905  0.8367 -0.2825  0.4499
 7316SOL    HW133584   2.267   0.768  11.814  0.9413 -0.2287  0.4577
 7316SOL    HW233585   2.185   0.859  11.882  2.4096  1.0513 -0.0173
 7317SOL     OW33586   4.344   0.985   5.143 -0.0958  0.2182  0.7901
 7317SOL    HW133587   4.316   0.909   5.193 -0.6681  1.7516  2.7752
 7317SOL    HW233588   4.304   0.974   5.057  1.4864  1.1981 -0.0806
 7318SOL     OW33589   0.105   3.786   8.971  0.2026  0.6965 -0.0391
 7318SOL    HW133590   0.101   3.837   8.890 -0.7412  1.0905  0.2557
 7318SOL    HW233591   0.170   3.825   9.029 -0.2295  0.3731  0.6630
 7319SOL     OW33592   3.353   1.383   9.530  0.3781 -0.0391  0.0996
 7319SOL    HW133593   3.361   1.332   9.610 -0.0799 -1.3575 -0.6901
 7319SOL    HW233594   3.429   1.441   9.534 -0.7366  1.2180  2.7901
 7320SOL     OW33595   1.757   0.896   6.801 -0.3091 -0.3410  0.4515
 7320SOL    HW133596   1.738   0.989   6.806 -0.9366 -0.3833 -1.1447
 7320SOL    HW233597   1.771   0.871   6.892  2.2930  0.5236  0.2857
 7321SOL     OW33598   3.477   3.225   3.204 -0.2619 -0.0366 -0.2980
 7321SOL    HW133599   3.386   3.254   3.196  0.3278  1.3615 -1.9623
 7321SOL    HW233600   3.500   3.246   3.294 -0.4286  0.8487 -0.4641
 7322SOL     OW33601   3.324   0.507   9.177  0.1973  0.3535  0.5958
 7322SOL    HW133602   3.266   0.432   9.168 -0.3036  0.4864  2.6830
 7322SOL    HW233603   3.279   0.568   9.119  1.1833  2.1679  1.7251
 7323SOL     OW33604   0.268   4.356   4.067  0.1105 -0.1466 -0.4530
 7323SOL    HW133605   0.337   4.418   4.090 -0.3959  0.3985 -0.4238
 7323SOL    HW233606   0.237   4.389   3.983  0.7203 -0.4614 -0.8112
 7324SOL     OW33607   3.225   4.238   7.820 -0.5165  0.0760  0.1251
 7324SOL    HW133608   3.269   4.156   7.841 -0.8716 -0.0805  0.2545
 7324SOL    HW233609   3.302   4.285   7.788 -1.1768 -0.0746 -1.6610
 7325SOL     OW33610   1.140   2.236   3.418  0.2683  0.2413  0.8130
 7325SOL    HW133611   1.138   2.286   3.336  1.2770 -1.5715 -0.3162
 7325SOL    HW233612   1.046   2.226   3.434  0.0292 -0.3282 -0.8914
 7326SOL     OW33613   2.558   1.790  16.703  0.1613 -0.7132 -0.1349
 7326SOL    HW133614   2.476   1.788  16.752  1.5070  1.4261  2.2470
 7326SOL    HW233615   2.527   1.799  16.612 -0.9076 -1.0911  0.1886
 7327SOL     OW33616   2.797   2.041  10.315 -0.3009 -0.0111 -0.2479
 7327SOL    HW133617   2.816   2.067  10.405  0.1847 -2.7519  0.4354
 7327SOL    HW233618   2.825   2.109  10.253 -3.5968  0.4266 -1.2281
 7328SOL     OW33619   2.570   3.608  10.063  0.6436  0.4016 -0.4901
 7328SOL    HW133620   2.635   3.671  10.030 -0.2030  1.1627 -0.7192
 7328SOL    HW233621   2.493   3.636  10.014  0.7781 -0.8314 -1.3997
 7329SOL     OW33622   3.014   2.467   0.144  0.4314  0.0542 -0.0813
 7329SOL    HW133623   3.017   2.432   0.233  0.4449  1.3351  0.4116
 7329SOL    HW233624   3.094   2.519   0.139 -1.1374  2.2322 -2.5851
 7330SOL     OW33625   4.190   1.598   2.974 -0.2014 -0.1265  0.1790
 7330SOL    HW133626   4.110   1.644   3.000  0.0940 -0.1804  1.1701
 7330SOL    HW233627   4.243   1.677   2.966 -1.1914  0.6481  1.2671
 7331SOL     OW33628   1.877   0.114   2.694  0.0883  0.0498  0.9200
 7331SOL    HW133629   1.970   0.094   2.696  0.2695  0.8336 -0.5801
 7331SOL    HW233630   1.878   0.157   2.609  2.4880 -0.1303  0.8595
 7332SOL     OW33631   3.527   4.199   1.993  0.5040 -0.2395  0.8115
 7332SOL    HW133632   3.536   4.294   2.006 -0.2759  0.2085 -1.9503
 7332SOL    HW233633   3.607   4.173   2.039  0.6879 -0.1062  0.5657
 7333SOL     OW33634   2.680   0.881  10.403  0.2623 -0.0220 -0.0286
 7333SOL    HW133635   2.680   0.899  10.309 -2.7446  1.0718  0.1736
 7333SOL    HW233636   2.642   0.961  10.439  0.7707 -0.1643  0.8199
 7334SOL     OW33637   3.365   4.569   4.061 -0.1834 -0.0772 -0.7140
 7334SOL    HW133638   3.294   4.630   4.079  1.6967  2.2359 -1.1644
 7334SOL    HW233639   3.422   4.582   4.137  0.8983 -3.5549 -0.9109
 7335SOL     OW33640   2.588   3.293   3.031  0.6599 -0.5102  0.0074
 7335SOL    HW133641   2.505   3.339   3.037 -0.1348 -2.0680  0.7940
 7335SOL    HW233642   2.564   3.243   2.953 -0.7437 -0.7763  0.6127
 7336SOL     OW33643   2.502   2.059  16.131  0.3986  0.7602  0.4120
 7336SOL    HW133644   2.528   2.139  16.176  0.5771  1.8185 -1.5511
 7336SOL    HW233645   2.407   2.069  16.134  0.2337  0.8441 -4.7968
 7337SOL     OW33646   1.942   1.084   4.999 -0.1325  0.0544 -0.0675
 7337SOL    HW133647   2.018   1.103   4.945 -1.2672  2.3781 -0.8739
 7337SOL    HW233648   1.930   0.989   5.004  1.4846 -0.1187  0.2685
 7338SOL     OW33649   1.409   3.796   6.089  0.2690  0.7989  0.6075
 7338SOL    HW133650   1.466   3.873   6.094  0.2911  0.8246 -0.0302
 7338SOL    HW233651   1.330   3.816   6.039  0.3432 -0.8456 -0.1788
 7339SOL     OW33652   3.622   2.786   8.559 -0.2867 -0.0166 -0.1662
 7339SOL    HW133653   3.542   2.808   8.510  0.5344  0.8312 -1.1445
 7339SOL    HW233654   3.592   2.716   8.617  1.5049 -0.2349  0.4901
 7340SOL     OW33655   3.171   4.552   4.892 -0.3072  0.5434  0.0036
 7340SOL    HW133656   3.110   4.479   4.881  0.1431  0.3257 -1.0378
 7340SOL    HW233657   3.253   4.517   4.858 -0.8285  0.9653 -1.7182
 7341SOL     OW33658   3.112   0.305  15.424  0.1683 -0.0148 -0.5284
 7341SOL    HW133659   3.155   0.241  15.367 -0.8719 -1.6965  0.6023
 7341SOL    HW233660   3.165   0.304  15.503 -0.3080 -0.3629 -0.2121
 7342SOL     OW33661   3.647   4.118   8.123 -0.4244  0.0982 -0.3325
 7342SOL    HW133662   3.743   4.116   8.121 -0.4347 -1.2625  1.2765
 7342SOL    HW233663   3.642   4.116   8.218  1.4384  2.5207 -0.1913
 7343SOL     OW33664   2.097   3.561   6.298  0.6857 -0.0873 -0.2351
 7343SOL    HW133665   2.030   3.583   6.234  0.1187 -0.7672  0.1215
 7343SOL    HW233666   2.041   3.567   6.376 -0.5508 -1.9565 -0.9790
 7344SOL     OW33667   2.555   3.185   4.488 -0.4254 -0.3558 -0.2927
 7344SOL    HW133668   2.515   3.098   4.492 -0.5886 -0.1929  1.8624
 7344SOL    HW233669   2.640   3.169   4.446  0.7913  0.2759  1.8925
 7345SOL     OW33670   0.406   4.008  12.853 -0.0767  0.0131 -0.1892
 7345SOL    HW133671   0.317   3.986  12.880 -0.4579 -0.5393 -1.8805
 7345SOL    HW233672   0.464   3.955  12.908 -1.9662 -2.5798 -0.6876
 7346SOL     OW33673   0.056   4.524   7.977  0.5875 -0.1184  0.1661
 7346SOL    HW133674   0.033   4.452   7.918  3.0133 -0.2390 -0.6583
 7346SOL    HW233675   0.126   4.571   7.930 -0.5851  1.0430 -0.4192
 7347SOL     OW33676   3.817   2.551   6.228 -0.1061 -0.6165 -0.8169
 7347SOL    HW133677   3.808   2.618   6.296 -1.2239 -2.2120  0.5835
 7347SOL    HW233678   3.788   2.587   6.144 -0.5898 -1.1395 -0.8675
 7348SOL     OW33679   0.517   3.502   3.490  0.1489  0.0262 -0.5323
 7348SOL    HW133680   0.554   3.473   3.574 -0.1077 -0.4738 -0.5923
 7348SOL    HW233681   0.539   3.435   3.425 -0.9215  0.3946 -1.2710
 7349SOL     OW33682   1.425   0.649   9.080  0.2881 -0.2347  0.4985
 7349SOL    HW133683   1.423   0.560   9.046  1.8714  0.0597 -0.3950
 7349SOL    HW233684   1.417   0.699   8.998  1.9299 -1.5087 -0.4461
 7350SOL     OW33685   4.080   1.500   6.551 -0.7407 -0.5671 -0.4020
 7350SOL    HW133686   4.033   1.528   6.629  2.4620 -0.2405  1.4180
 7350SOL    HW233687   4.097   1.585   6.508 -1.9091 -1.6678 -3.0309
 7351SOL     OW33688   4.621   1.976  10.438 -0.0112 -0.1346 -0.8521
 7351SOL    HW133689   4.592   1.954  10.349 -0.0307 -1.8628 -0.4116
 7351SOL    HW233690   4.700   1.923  10.446  0.6960  0.8264 -1.5561
 7352SOL     OW33691   4.585   3.882  14.527 -0.1393  0.0445  0.1555
 7352SOL    HW133692   4.576   3.977  14.529  4.0984  0.4459  0.2102
 7352SOL    HW233693   4.516   3.858  14.464 -1.6042 -1.4281  2.3137
 7353SOL     OW33694   2.719   0.802   2.625  0.2060  0.2379  0.1893
 7353SOL    HW133695   2.770   0.866   2.575  2.2150 -0.2683  1.6007
 7353SOL    HW233696   2.753   0.718   2.594 -1.0517 -0.3018  0.2664
 7354SOL     OW33697   0.083   2.064  16.821 -0.8173  0.3017 -0.4277
 7354SOL    HW133698   0.159   2.007  16.831  1.0480  2.6595 -0.9980
 7354SOL    HW233699   0.083   2.085  16.727  0.1863  0.9392 -0.2903
 7355SOL     OW33700   3.060   0.464   6.223  0.4304 -0.0610  0.5940
 7355SOL    HW133701   3.150   0.471   6.252  1.4184 -1.5005 -2.1026
 7355SOL    HW233702   3.071   0.463   6.128 -1.8592  0.4815  0.3085
 7356SOL     OW33703   0.892   1.331   6.266  0.0510  0.5799  0.0048
 7356SOL    HW133704   0.802   1.363   6.257  0.7386  2.1030 -1.4566
 7356SOL    HW233705   0.902   1.274   6.190 -1.5160 -0.5860  0.6477
 7357SOL     OW33706   2.253   4.312   0.169  0.2547  0.0965 -0.0668
 7357SOL    HW133707   2.178   4.312   0.110  0.3973  0.9535 -0.2408
 7357SOL    HW233708   2.324   4.293   0.108 -0.6216  0.9771 -1.3731
 7358SOL     OW33709   2.748   1.316  14.123  0.6404  0.3969 -0.9215
 7358SOL    HW133710   2.672   1.285  14.074 -0.2376 -2.1722  2.0019
 7358SOL    HW233711   2.728   1.402  14.159 -2.4595 -0.4588 -0.5388
 7359SOL     OW33712   2.906   0.305   7.148  0.2797 -0.0700  0.0734
 7359SOL    HW133713   2.997   0.309   7.178  0.2681  0.4635  0.0392
 7359SOL    HW233714   2.899   0.399   7.131  1.2395  0.6585  3.5796
 7360SOL     OW33715   2.928   2.188   2.569 -0.2270 -0.4226 -0.6778
 7360SOL    HW133716   2.961   2.259   2.623 -1.2756 -0.7202  0.3454
 7360SOL    HW233717   2.866   2.146   2.629  0.1968  0.6726  0.5016
 7361SOL     OW33718   0.880   1.709   9.853  0.2692  0.6620  0.3714
 7361SOL    HW133719   0.843   1.798   9.851 -0.2690  0.3915 -1.1254
 7361SOL    HW233720   0.974   1.726   9.857  0.5993 -0.7050 -1.9677
 7362SOL     OW33721   2.200   3.054   8.184  0.0577 -0.3297 -0.5288
 7362SOL    HW133722   2.109   3.074   8.160 -0.0666  0.0463  0.2359
 7362SOL    HW233723   2.222   2.988   8.118 -0.2725  0.9046 -1.8545
 7363SOL     OW33724   0.667   4.564  15.816 -0.3684 -0.1946  0.5144
 7363SOL    HW133725   0.639   4.475  15.795 -0.1122 -0.1724  0.0695
 7363SOL    HW233726   0.762   4.572  15.803 -0.1902 -2.8442  0.0607
 7364SOL     OW33727   4.629   3.400   5.105  0.1191  0.5328 -0.3572
 7364SOL    HW133728   4.693   3.469   5.124 -0.9576  1.3041  0.4353
 7364SOL    HW233729   4.600   3.368   5.190  2.0118  0.2696  0.1824
 7365SOL     OW33730   3.933   4.051   4.765  0.0421 -0.5451 -0.2437
 7365SOL    HW133731   3.995   4.077   4.697 -1.2796  0.8765 -0.9057
 7365SOL    HW233732   3.971   3.966   4.786  0.5773 -0.1798  0.2615
 7366SOL     OW33733   0.761   1.816   7.235 -0.5050  0.2802 -0.5967
 7366SOL    HW133734   0.725   1.746   7.290  2.5952  0.6236  1.8861
 7366SOL    HW233735   0.819   1.759   7.186  0.1079 -0.7625  1.3270
 7367SOL     OW33736   0.083   0.263   2.406  0.7256  0.4621  0.4259
 7367SOL    HW133737   0.035   0.224   2.478  1.5819  0.9785  1.2737
 7367SOL    HW233738   0.170   0.223   2.413  0.2239 -1.0316 -1.7795
 7368SOL     OW33739   1.424   3.330   0.087 -0.0915  0.0761 -0.0743
 7368SOL    HW133740   1.357   3.325   0.019 -0.5939 -0.1771  0.4458
 7368SOL    HW233741   1.437   3.424   0.075  2.9849 -0.1935  0.9217
 7369SOL     OW33742   2.759   1.640   7.462  0.0743 -0.0201 -0.1694
 7369SOL    HW133743   2.808   1.560   7.479  2.4896  0.7504 -3.6093
 7369SOL    HW233744   2.698   1.620   7.533 -0.3379 -2.1443 -1.1322
 7370SOL     OW33745   2.813   2.143  10.576  0.1969 -0.5064 -0.6929
 7370SOL    HW133746   2.765   2.193  10.643 -0.6115 -0.6873 -1.1414
 7370SOL    HW233747   2.906   2.149  10.595  0.1891 -1.2857 -0.4020
 7371SOL     OW33748   4.207   1.630   1.850 -0.1388 -0.1739 -0.6717
 7371SOL    HW133749   4.246   1.674   1.925  1.6756  0.8700 -2.2240
 7371SOL    HW233750   4.112   1.628   1.865 -0.0924 -0.3838 -0.4069
 7372SOL     OW33751   3.126   3.854  15.587 -0.6523 -0.4441  0.6450
 7372SOL    HW133752   3.111   3.872  15.494  1.8464  1.1937  0.5748
 7372SOL    HW233753   3.199   3.793  15.587  0.2386  0.6189  0.0197
 7373SOL     OW33754   0.574   1.905   5.164  0.4976  0.3513  0.4831
 7373SOL    HW133755   0.493   1.874   5.122 -0.5051  2.4096  0.9309
 7373SOL    HW233756   0.545   1.948   5.244 -1.2218 -1.6366  0.9202
 7374SOL     OW33757   2.399   2.439   4.490 -0.1734 -0.3963  0.2217
 7374SOL    HW133758   2.425   2.449   4.398  0.4166 -0.3318  0.3928
 7374SOL    HW233759   2.408   2.530   4.519 -0.6985 -0.0265 -0.7806
 7375SOL     OW33760   1.644   2.735   2.101 -0.7520  0.0203 -0.2020
 7375SOL    HW133761   1.736   2.715   2.084 -0.4173  0.0410  1.6372
 7375SOL    HW233762   1.639   2.802   2.032 -0.2205 -1.4834 -1.7159
 7376SOL     OW33763   2.022   3.442   4.019  0.3924 -0.6178 -0.0794
 7376SOL    HW133764   1.939   3.408   4.053 -0.3850  0.9749 -0.3915
 7376SOL    HW233765   2.049   3.366   3.966 -2.1514 -2.7256  1.6350
 7377SOL     OW33766   2.115   3.014   6.536  0.1182  1.0874 -0.2932
 7377SOL    HW133767   2.194   3.024   6.483  2.0099 -0.1041  2.2841
 7377SOL    HW233768   2.141   3.050   6.621 -4.5447  0.0432  1.6011
 7378SOL     OW33769   3.894   0.997  11.532 -0.2087  0.0691  0.6467
 7378SOL    HW133770   3.803   1.026  11.540 -0.2115 -0.2548  1.8821
 7378SOL    HW233771   3.891   0.927  11.467  2.1405 -1.6271  2.3613
 7379SOL     OW33772   0.057   3.051   2.096  0.2722  0.3399 -0.2052
 7379SOL    HW133773   0.033   3.140   2.120 -0.2952  0.1560 -0.0940
 7379SOL    HW233774   4.713   3.020   2.055 -0.3483 -0.2260  1.4581
 7380SOL     OW33775   2.608   2.723   3.203 -0.3556  0.2343  0.0867
 7380SOL    HW133776   2.536   2.676   3.159 -0.4445  1.2417 -0.8387
 7380SOL    HW233777   2.642   2.649   3.253  2.2810  1.6919  0.4165
 7381SOL     OW33778   0.346   1.374  15.427  0.5286 -0.0076  0.4949
 7381SOL    HW133779   0.277   1.418  15.476  0.5005 -0.0032  0.4514
 7381SOL    HW233780   0.362   1.286  15.461 -0.4914 -0.1852  0.4953
 7382SOL     OW33781   0.035   3.621   5.206 -0.4031  0.1378 -0.4189
 7382SOL    HW133782   4.717   3.623   5.284  0.8753 -0.0538  0.4826
 7382SOL    HW233783   0.121   3.625   5.248 -0.4524 -0.1038 -0.2946
 7383SOL     OW33784   4.169   2.427   3.940 -0.3127 -0.4181 -0.0875
 7383SOL    HW133785   4.224   2.381   4.004  0.8077  3.8002  1.9994
 7383SOL    HW233786   4.227   2.501   3.923 -0.9429  0.0901 -0.0161
 7384SOL     OW33787   0.280   0.871   5.135 -0.2102  0.2677 -0.3333
 7384SOL    HW133788   0.299   0.962   5.113  0.1268  0.5803  1.2106
 7384SOL    HW233789   0.200   0.855   5.086  0.0803  0.7349 -0.9615
 7385SOL     OW33790   0.142   1.901  15.343  0.2990  0.4916 -0.3671
 7385SOL    HW133791   0.112   1.844  15.272  0.7245  0.3684 -0.4459
 7385SOL    HW233792   0.121   1.856  15.425  0.0231 -0.7550 -1.1248
 7386SOL     OW33793   2.177   1.519  13.219  0.1890  0.5218  0.1359
 7386SOL    HW133794   2.254   1.469  13.244  0.2852  1.3837  1.5773
 7386SOL    HW233795   2.116   1.482  13.283 -1.5181  1.4272 -0.9391
 7387SOL     OW33796   3.980   3.655  14.109 -0.1452 -0.1825 -0.1357
 7387SOL    HW133797   3.899   3.614  14.140  0.3968 -2.6181 -2.0078
 7387SOL    HW233798   3.965   3.656  14.014  0.6209  0.9538 -0.2425
 7388SOL     OW33799   1.059   2.723   7.460  0.2159  0.2163 -0.4784
 7388SOL    HW133800   1.141   2.688   7.425  0.4250 -1.2976  1.5076
 7388SOL    HW233801   0.990   2.683   7.407  0.6320 -0.4205 -0.5400
 7389SOL     OW33802   3.693   3.142   5.656  0.0430  0.1214  0.6911
 7389SOL    HW133803   3.707   3.146   5.751  0.4936 -2.3757  0.7219
 7389SOL    HW233804   3.619   3.202   5.648 -2.1455 -2.4559  1.7267
 7390SOL     OW33805   1.747   4.042   2.357  0.1834  0.0718  0.4804
 7390SOL    HW133806   1.729   4.079   2.443 -2.5763  0.4631 -0.2475
 7390SOL    HW233807   1.799   3.963   2.371 -0.5403 -0.6118 -0.6167
 7391SOL     OW33808   2.657   0.206   4.905 -0.6748  0.2059  0.5559
 7391SOL    HW133809   2.568   0.235   4.886  0.2084  2.3736 -0.2434
 7391SOL    HW233810   2.636   0.163   4.988  1.4571 -1.0198  0.4667
 7392SOL     OW33811   2.358   3.771   4.211  0.5943 -0.5751  0.2158
 7392SOL    HW133812   2.333   3.679   4.219 -2.3116  0.1567 -0.5709
 7392SOL    HW233813   2.402   3.768   4.126  2.7309  0.2134  1.2739
 7393SOL     OW33814   1.017   2.244  11.569 -0.3171  0.5095  0.7557
 7393SOL    HW133815   1.110   2.264  11.553  0.0353 -0.0020  2.1793
 7393SOL    HW233816   1.016   2.201  11.654 -2.1998  1.0511  1.0021
 7394SOL     OW33817   0.836   0.312   9.031  0.6720 -0.4888 -0.1476
 7394SOL    HW133818   0.815   0.353   9.115  0.7829 -0.3004 -0.2106
 7394SOL    HW233819   0.811   0.222   9.052 -1.3694 -0.2012 -1.3564
 7395SOL     OW33820   0.693   1.601  12.288  0.4745 -0.2807 -0.5265
 7395SOL    HW133821   0.598   1.588  12.287  0.1658  1.7577  0.3135
 7395SOL    HW233822   0.708   1.576  12.379 -0.3216  0.5504 -0.1658
 7396SOL     OW33823   1.492   0.091   7.394  0.5150  0.0688  0.2624
 7396SOL    HW133824   1.441   0.035   7.336  0.0011  0.1646  0.6213
 7396SOL    HW233825   1.504   0.170   7.341  1.8135 -1.2769 -1.4328
 7397SOL     OW33826   2.672   3.311   3.510  0.3031  0.1731 -0.2453
 7397SOL    HW133827   2.655   3.348   3.423  2.7616 -4.0171 -2.5349
 7397SOL    HW233828   2.751   3.263   3.487 -0.3610 -0.2536 -1.6583
 7398SOL     OW33829   1.227   0.070   7.721  0.9092 -0.4073  0.6076
 7398SOL    HW133830   1.182   4.734   7.677  0.1148  0.9803 -0.8871
 7398SOL    HW233831   1.307   0.026   7.750  0.9873 -0.7149 -0.0593
 7399SOL     OW33832   0.729   0.914   2.742  0.6420 -0.6397 -0.3189
 7399SOL    HW133833   0.743   0.944   2.832  2.9683 -1.1981 -0.5067
 7399SOL    HW233834   0.759   0.824   2.744  0.2522 -0.8112 -2.0204
 7400SOL     OW33835   2.027   1.550   3.534  0.0534 -0.3214 -0.4586
 7400SOL    HW133836   2.024   1.481   3.601  0.3081  0.4016  0.3058
 7400SOL    HW233837   1.990   1.621   3.586 -1.4130 -1.1631 -0.3448
 7401SOL     OW33838   1.443   1.565   0.222  0.1276  0.2969  0.3592
 7401SOL    HW133839   1.522   1.606   0.255 -0.2886 -0.3726  2.2325
 7401SOL    HW233840   1.397   1.642   0.190  0.4812  0.7767  1.0136
 7402SOL     OW33841   0.652   3.176  17.723 -0.2957 -0.1221 -0.1140
 7402SOL    HW133842   0.568   3.130  17.730  0.0578 -0.6831  0.3770
 7402SOL    HW233843   0.713   3.105  17.738 -0.9846 -0.6382  0.2372
 7403SOL     OW33844   1.911   1.350   7.129  0.1774 -0.9490 -0.2002
 7403SOL    HW133845   1.881   1.343   7.038  0.4593 -0.6014 -0.3198
 7403SOL    HW233846   1.828   1.373   7.170  1.2018  0.8232  0.8222
 7404SOL     OW33847   1.544   1.282   3.548 -0.1176  0.2073 -0.2290
 7404SOL    HW133848   1.495   1.213   3.592 -1.5929  2.4175  1.5735
 7404SOL    HW233849   1.555   1.334   3.628  3.0823  0.1034 -0.6111
 7405SOL     OW33850   4.168   0.048   5.826 -0.3873  0.0917 -0.1258
 7405SOL    HW133851   4.261   0.066   5.842 -0.4360 -0.9282  1.3557
 7405SOL    HW233852   4.153   4.720   5.895  0.4394  1.7100  1.6055
 7406SOL     OW33853   4.122   4.260  16.125  0.7770 -0.5007  0.3709
 7406SOL    HW133854   4.202   4.314  16.122 -1.0766  2.1339 -1.8378
 7406SOL    HW233855   4.098   4.271  16.033 -1.9385  1.6322  1.3181
 7407SOL     OW33856   2.133   0.759   2.889 -0.0826  0.3059 -0.4524
 7407SOL    HW133857   2.222   0.739   2.919 -0.0855  1.5266  0.3711
 7407SOL    HW233858   2.154   0.841   2.843 -0.9438 -0.5983 -2.4712
 7408SOL     OW33859   0.089   2.624  17.635  0.3825 -0.0103 -0.4272
 7408SOL    HW133860   0.077   2.687  17.564  0.5535 -0.8342 -1.1972
 7408SOL    HW233861   0.055   2.665  17.714 -2.3568 -1.5794 -0.7646
 7409SOL     OW33862   2.168   2.708   8.481 -0.3733  0.1828  0.1026
 7409SOL    HW133863   2.226   2.784   8.487  0.7234 -0.5707 -1.0550
 7409SOL    HW233864   2.080   2.747   8.487  0.2796  1.5664  0.7194
 7410SOL     OW33865   3.583   1.584   7.025 -0.2365  0.2041 -0.0271
 7410SOL    HW133866   3.664   1.539   6.999  0.2666  1.6172 -0.9298
 7410SOL    HW233867   3.532   1.595   6.944 -0.0711 -0.7847 -0.2632
 7411SOL     OW33868   4.553   0.750  13.028  0.1554  0.2595 -0.1526
 7411SOL    HW133869   4.563   0.777  13.119 -1.8643 -2.8707  1.0029
 7411SOL    HW233870   4.459   0.764  13.017  0.7396  1.9001 -3.0770
 7412SOL     OW33871   4.399   4.504   6.125  0.0929 -0.3800  0.0030
 7412SOL    HW133872   4.477   4.511   6.069  1.1957  4.2395  2.1635
 7412SOL    HW233873   4.370   4.413   6.117 -1.1726 -0.1026  1.4971
 7413SOL     OW33874   2.291   0.515  17.268  0.2366  0.0887 -0.5265
 7413SOL    HW133875   2.210   0.553  17.302  0.1961 -0.3297 -0.1546
 7413SOL    HW233876   2.270   0.424  17.249  0.8204 -0.0379 -0.5695
 7414SOL     OW33877   1.253   3.947  12.555 -0.2342  0.0008  0.7954
 7414SOL    HW133878   1.208   3.874  12.597  0.0120 -0.6068 -0.0073
 7414SOL    HW233879   1.233   3.943  12.461  0.7354 -1.1756  0.6374
 7415SOL     OW33880   1.116   2.587  11.365 -0.3280 -0.0800 -0.8466
 7415SOL    HW133881   1.183   2.520  11.352 -2.2736 -2.3384  0.8256
 7415SOL    HW233882   1.056   2.565  11.294 -0.9866 -0.6791 -0.1108
 7416SOL     OW33883   2.714   1.160  14.863  0.3249 -0.3301  0.2824
 7416SOL    HW133884   2.661   1.226  14.907 -1.6337 -0.4894 -1.8473
 7416SOL    HW233885   2.753   1.213  14.793  2.0818 -2.8265 -0.6173
 7417SOL     OW33886   0.517   2.355   7.499 -0.2520 -0.1277 -0.4323
 7417SOL    HW133887   0.439   2.409   7.505 -0.7516 -0.9936  0.7661
 7417SOL    HW233888   0.486   2.273   7.460 -1.9048  0.3902 -0.1628
 7418SOL     OW33889   2.767   2.161   0.177  0.2652  0.0077 -0.8146
 7418SOL    HW133890   2.760   2.157   0.272 -3.1048 -0.6639 -1.0925
 7418SOL    HW233891   2.675   2.184   0.167  0.1602 -0.8951 -1.8836
 7419SOL     OW33892   1.003   2.868   5.058  0.4814 -0.3836  0.2993
 7419SOL    HW133893   1.078   2.925   5.041 -0.4302  1.2663  1.8299
 7419SOL    HW233894   0.969   2.862   4.969 -0.7968 -1.8480  0.8756
 7420SOL     OW33895   3.509   0.841   8.788  0.1250 -0.0898 -0.4036
 7420SOL    HW133896   3.523   0.766   8.845 -2.8319  0.7871  1.4539
 7420SOL    HW233897   3.585   0.835   8.729  1.4187  1.3454  1.1065
 7421SOL     OW33898   0.371   4.223  12.162  0.2004 -0.0212 -0.3489
 7421SOL    HW133899   0.311   4.231  12.088  1.0335  1.3173 -0.8798
 7421SOL    HW233900   0.363   4.307  12.207 -1.3688 -0.0899 -0.5272
 7422SOL     OW33901   3.516   0.741   1.857 -0.4048 -0.5476 -0.7983
 7422SOL    HW133902   3.591   0.686   1.874 -1.1916 -0.6934  2.1463
 7422SOL    HW233903   3.553   0.812   1.803  0.6644  0.3451  1.1094
 7423SOL     OW33904   0.478   2.359   5.607  0.1952 -0.0480  0.0625
 7423SOL    HW133905   0.445   2.275   5.577  1.8501 -0.2634 -1.1443
 7423SOL    HW233906   0.448   2.428   5.548  0.4369 -1.0241 -1.2074
 7424SOL     OW33907   3.817   3.744   6.984  0.1323 -0.2891 -0.4247
 7424SOL    HW133908   3.898   3.794   6.997 -1.3415  1.7473  0.9930
 7424SOL    HW233909   3.753   3.812   7.005  1.1198 -0.4398  3.1506
 7425SOL     OW33910   2.340   4.041   5.261 -0.4668 -0.1907 -0.0285
 7425SOL    HW133911   2.422   4.082   5.288  0.1048 -0.5219 -1.2964
 7425SOL    HW233912   2.285   4.116   5.240  0.8734  0.6791 -0.3972
 7426SOL     OW33913   2.225   1.591   6.599 -0.4784 -0.1497 -0.2353
 7426SOL    HW133914   2.275   1.510   6.600 -1.4248 -0.7214  1.8742
 7426SOL    HW233915   2.255   1.645   6.526  1.5374  1.6263  1.8623
 7427SOL     OW33916   3.227   3.412   6.183 -0.6948 -0.0179  0.8400
 7427SOL    HW133917   3.229   3.482   6.118  0.9032 -2.8709 -2.1795
 7427SOL    HW233918   3.132   3.396   6.178 -0.9630  1.2087  1.8284
 7428SOL     OW33919   2.704   0.018   3.624 -0.0480 -0.2538 -0.2283
 7428SOL    HW133920   2.712   4.664   3.652 -0.6371  0.5448  2.5559
 7428SOL    HW233921   2.666   4.737   3.538  0.2867 -0.5460 -0.3108
 7429SOL     OW33922   3.450   4.363   8.550  0.3293 -0.7795 -0.0215
 7429SOL    HW133923   3.491   4.311   8.618  1.0573  0.5614  0.5669
 7429SOL    HW233924   3.523   4.381   8.492  0.4001  1.7618  0.8685
 7430SOL     OW33925   2.289   3.970   7.764  0.8430  0.3564 -0.4696
 7430SOL    HW133926   2.292   3.970   7.859  1.3194  0.7552 -0.4821
 7430SOL    HW233927   2.355   4.038   7.745  2.0459 -0.6916 -0.0671
 7431SOL     OW33928   3.376   0.229   3.811 -0.2967  0.1346  0.2862
 7431SOL    HW133929   3.419   0.312   3.791 -0.3137  0.3008  0.9347
 7431SOL    HW233930   3.314   0.228   3.738  1.2652  0.8059 -1.0500
 7432SOL     OW33931   3.105   3.006   3.582  0.6845  0.3517 -0.0179
 7432SOL    HW133932   3.022   3.046   3.606  0.7783  1.1353 -0.9990
 7432SOL    HW233933   3.164   3.080   3.600  1.3377  0.1989 -1.5063
 7433SOL     OW33934   3.966   0.246   4.873 -0.3688  0.3456 -0.2020
 7433SOL    HW133935   3.978   0.295   4.955 -1.2840 -0.6062  0.4919
 7433SOL    HW233936   4.051   0.258   4.830  0.2475  0.0889  0.9231
 7434SOL     OW33937   3.803   2.622  10.211  0.2582 -0.0711 -0.2263
 7434SOL    HW133938   3.795   2.672  10.293 -1.9443  0.8220 -1.0025
 7434SOL    HW233939   3.709   2.607  10.201  0.2516  0.3468 -0.7657
 7435SOL     OW33940   0.206   4.121   1.552  0.4852 -0.1902  0.0521
 7435SOL    HW133941   0.251   4.202   1.574  1.0488 -0.6891  0.7535
 7435SOL    HW233942   0.249   4.112   1.466 -1.4757 -0.3330 -0.9082
 7436SOL     OW33943   3.530   0.450   5.226 -1.1068 -0.3326 -0.1199
 7436SOL    HW133944   3.532   0.478   5.317  1.9061 -2.5867  0.5143
 7436SOL    HW233945   3.561   0.525   5.174 -1.4352 -0.7286 -0.8792
 7437SOL     OW33946   1.499   1.531  14.017 -0.1934  0.2393  0.1913
 7437SOL    HW133947   1.489   1.487  13.932  2.4146 -3.7663  1.9397
 7437SOL    HW233948   1.437   1.488  14.074 -0.8056  0.1054 -0.5791
 7438SOL     OW33949   3.637   2.510   8.100  0.6376 -0.1627  0.2776
 7438SOL    HW133950   3.681   2.550   8.175 -0.6286 -0.6396  1.2853
 7438SOL    HW233951   3.575   2.580   8.081 -0.3608 -0.8884  0.8387
 7439SOL     OW33952   1.798   0.185   3.770  0.1787  0.1299 -0.4063
 7439SOL    HW133953   1.738   0.124   3.813  0.8325 -0.5215 -0.4279
 7439SOL    HW233954   1.875   0.184   3.827 -1.2853 -0.0898  1.5962
 7440SOL     OW33955   3.761   1.410   6.901  0.3349 -0.4383  0.2958
 7440SOL    HW133956   3.755   1.443   6.811 -0.0348 -0.0526  0.4624
 7440SOL    HW233957   3.688   1.347   6.897  0.7939 -1.0957  2.6165
 7441SOL     OW33958   2.380   4.538   8.488  0.2067 -0.3141 -0.4978
 7441SOL    HW133959   2.336   4.555   8.571 -0.0773  0.4741 -0.8027
 7441SOL    HW233960   2.456   4.488   8.518  0.4025 -0.4814 -1.2581
 7442SOL     OW33961   2.175   0.736   1.911 -1.2127 -0.1609  0.2505
 7442SOL    HW133962   2.117   0.762   1.982 -1.8205 -2.4610  0.5920
 7442SOL    HW233963   2.129   0.761   1.832 -0.6020 -2.1433 -0.7530
 7443SOL     OW33964   3.937   3.186  16.148 -0.0856 -0.0614  0.4734
 7443SOL    HW133965   3.874   3.175  16.219  2.6217  0.3664  2.9734
 7443SOL    HW233966   3.915   3.271  16.109  0.7108  0.7388  1.7553
 7444SOL     OW33967   3.948   1.062   7.538  0.3056 -0.5780 -0.1976
 7444SOL    HW133968   3.951   1.027   7.627 -0.0415 -2.5147 -0.9417
 7444SOL    HW233969   3.952   0.979   7.491  2.6078  1.0150 -2.7563
 7445SOL     OW33970   1.634   1.375  12.628 -0.1039 -0.1792  0.4155
 7445SOL    HW133971   1.619   1.413  12.542  1.6025 -0.9664 -0.2140
 7445SOL    HW233972   1.646   1.457  12.678 -1.9647 -0.2054  0.9020
 7446SOL     OW33973   4.209   2.974  13.203 -0.3564 -0.3021  0.0857
 7446SOL    HW133974   4.130   2.930  13.172  0.2219 -0.0033 -1.8622
 7446SOL    HW233975   4.278   2.908  13.204  0.2142  0.2932 -0.1898
 7447SOL     OW33976   2.407   1.395  13.312  0.1850 -0.1904  0.0535
 7447SOL    HW133977   2.388   1.320  13.367 -2.3952 -0.1732 -0.8478
 7447SOL    HW233978   2.463   1.449  13.368  1.7222 -0.9564 -0.7216
 7448SOL     OW33979   1.555   1.561   3.096  0.0378  0.6183 -0.7718
 7448SOL    HW133980   1.633   1.511   3.075 -0.3589  0.2310 -1.3555
 7448SOL    HW233981   1.585   1.644   3.132  0.1257 -0.0389  0.6401
 7449SOL     OW33982   4.598   4.264  15.216 -0.0425 -0.0397  0.1666
 7449SOL    HW133983   4.546   4.215  15.280  1.2046 -2.4571 -0.6355
 7449SOL    HW233984   4.676   4.277  15.270  0.5917  0.6936 -0.9330
 7450SOL     OW33985   3.859   0.740   7.164 -0.3440 -0.5836 -0.0632
 7450SOL    HW133986   3.764   0.723   7.163 -0.1944 -1.3857 -0.4693
 7450SOL    HW233987   3.868   0.765   7.256 -1.6928 -0.1402 -0.0466
 7451SOL     OW33988   4.020   3.834   7.807  0.0298 -0.0066 -0.4442
 7451SOL    HW133989   4.067   3.874   7.734 -5.4739  2.0186 -2.8876
 7451SOL    HW233990   4.006   3.910   7.863  1.4049 -0.9571  1.1868
 7452SOL     OW33991   0.008   1.878  10.761  0.0719  0.1670 -0.9492
 7452SOL    HW133992   0.014   1.838  10.848  0.9776  1.2889 -0.5017
 7452SOL    HW233993   0.001   1.969  10.789 -1.8983 -0.6723  1.2955
 7453SOL     OW33994   4.525   2.558   1.191 -0.4369 -0.0150  0.5207
 7453SOL    HW133995   4.568   2.496   1.133 -0.3046  2.4045 -1.9683
 7453SOL    HW233996   4.442   2.519   1.217 -0.7567 -1.2925 -2.4534
 7454SOL     OW33997   3.807   1.277   4.652  0.0272 -0.0461 -0.3674
 7454SOL    HW133998   3.808   1.340   4.724 -1.6754  0.0449 -0.4255
 7454SOL    HW233999   3.712   1.267   4.653 -0.0034  0.2396 -0.4478
 7455SOL     OW34000   4.728   0.910   5.815  0.1563  0.1200 -0.3438
 7455SOL    HW134001   4.647   0.889   5.769 -1.0322  0.9581  1.3435
 7455SOL    HW234002   0.011   1.000   5.791  0.6083 -0.1436 -0.9679
 7456SOL     OW34003   3.369   4.650  14.601  0.5323 -0.1485  0.2396
 7456SOL    HW134004   3.400   4.601  14.677 -0.7975  0.7435  1.3643
 7456SOL    HW234005   3.283   4.611  14.591 -0.8014  2.8893 -0.1608
 7457SOL     OW34006   3.643   1.383   8.113  0.4132 -0.4292  0.1180
 7457SOL    HW134007   3.715   1.324   8.135  0.5732 -0.6635 -1.0320
 7457SOL    HW234008   3.578   1.350   8.175  0.7727  2.4338  1.9718
 7458SOL     OW34009   0.852   1.883   7.606 -0.1029 -0.0155 -0.3513
 7458SOL    HW134010   0.870   1.789   7.601  0.6124  0.0906  0.1577
 7458SOL    HW234011   0.785   1.885   7.673 -0.9209 -0.2447 -1.1641
 7459SOL     OW34012   0.096   3.681  13.990 -0.2921 -0.3843 -0.5112
 7459SOL    HW134013   0.157   3.724  14.050 -0.7644 -0.3271 -0.0717
 7459SOL    HW234014   0.015   3.720  14.024  0.1041  0.2201 -0.2612
 7460SOL     OW34015   4.022   2.879   3.205 -0.4653  0.4355 -0.1333
 7460SOL    HW134016   4.074   2.849   3.279  0.9261  2.0167 -0.4666
 7460SOL    HW234017   4.096   2.914   3.155 -0.1875 -1.2741 -0.8917
 7461SOL     OW34018   1.454   2.517  10.596  0.3011  0.3818  0.1674
 7461SOL    HW134019   1.365   2.548  10.615  0.3143  0.2245  0.4847
 7461SOL    HW234020   1.433   2.424  10.591 -0.8191  0.7286 -1.3651
 7462SOL     OW34021   4.130   0.440   6.196  0.2910 -0.5979 -0.0075
 7462SOL    HW134022   4.130   0.427   6.102 -0.9294  0.9771 -0.2292
 7462SOL    HW234023   4.036   0.454   6.209 -0.1932 -2.4921 -1.5071
 7463SOL     OW34024   2.418   2.066   1.965  0.5607  0.5860 -0.4538
 7463SOL    HW134025   2.389   2.068   1.874  0.4123 -1.0804 -0.4391
 7463SOL    HW234026   2.505   2.026   1.959  0.2647 -0.4257  2.0204
 7464SOL     OW34027   4.345   2.284  16.675  0.2945 -0.4002  0.4427
 7464SOL    HW134028   4.265   2.239  16.704  0.5360 -0.0541  1.6309
 7464SOL    HW234029   4.389   2.212  16.629  0.4459 -0.9851  1.5101
 7465SOL     OW34030   3.242   2.782   3.582 -0.3191 -0.3381 -0.7630
 7465SOL    HW134031   3.307   2.840   3.622 -0.7719 -1.2348  1.2937
 7465SOL    HW234032   3.173   2.848   3.581  0.4388  0.4962  0.9900
 7466SOL     OW34033   1.684   1.434   7.235  0.5020  0.3893  0.1400
 7466SOL    HW134034   1.641   1.387   7.306 -0.2775  0.3403 -0.3687
 7466SOL    HW234035   1.667   1.526   7.256  0.0303  0.8285 -2.2389
 7467SOL     OW34036   2.462   3.017  15.249  0.0357  0.3042 -0.3265
 7467SOL    HW134037   2.378   2.973  15.266  0.6293 -0.7413 -0.1227
 7467SOL    HW234038   2.436   3.101  15.287 -0.6637  1.2230 -2.8491
 7468SOL     OW34039   2.084   3.710  12.453  0.3084  0.3876 -0.2082
 7468SOL    HW134040   2.076   3.794  12.499  0.8682  1.1579 -1.5067
 7468SOL    HW234041   2.009   3.660  12.485 -0.8322  1.0075 -1.8910
 7469SOL     OW34042   2.903   4.170  13.506 -0.2861  0.2901 -0.2050
 7469SOL    HW134043   2.818   4.134  13.530  1.0722 -1.4554  1.9748
 7469SOL    HW234044   2.946   4.164  13.591 -0.4712 -0.6141 -0.1679
 7470SOL     OW34045   1.145   3.627   9.773 -0.4709  0.3737  0.0918
 7470SOL    HW134046   1.169   3.535   9.788  0.1315  0.5099 -0.0104
 7470SOL    HW234047   1.093   3.606   9.695 -1.2698 -1.1731  1.0238
 7471SOL     OW34048   1.018   0.783   6.056 -0.4513  0.0644 -0.1312
 7471SOL    HW134049   0.960   0.715   6.022  1.5227 -1.2062 -0.9771
 7471SOL    HW234050   1.048   0.824   5.975  0.7308  1.3123  0.9440
 7472SOL     OW34051   4.476   4.643  12.924  0.3213 -0.5841  0.3818
 7472SOL    HW134052   4.556   4.637  12.871  1.0683  0.8396  1.3561
 7472SOL    HW234053   4.445   4.552  12.921 -1.3353 -0.0661  1.5131
 7473SOL     OW34054   0.279   3.174   1.455  0.6744  0.3495  0.3107
 7473SOL    HW134055   0.210   3.202   1.396 -0.2784 -1.6293  0.4896
 7473SOL    HW234056   0.353   3.142   1.402 -0.7708 -3.7455  0.7512
 7474SOL     OW34057   2.010   4.614   9.752 -0.2413 -0.3295 -0.0835
 7474SOL    HW134058   2.062   4.652   9.822 -0.4616 -0.6078  0.2292
 7474SOL    HW234059   1.984   4.699   9.718  0.5927  0.4191  1.1533
 7475SOL     OW34060   0.825   4.641  15.501  0.4505 -0.0994  0.1933
 7475SOL    HW134061   0.829   4.557  15.454 -2.2713 -1.0850  1.7452
 7475SOL    HW234062   0.854   4.617  15.590 -0.8835 -0.1622  0.6109
 7476SOL     OW34063   3.424   1.140   5.593  0.2603 -0.1879  0.1921
 7476SOL    HW134064   3.495   1.204   5.583 -1.3885  1.4305 -1.1833
 7476SOL    HW234065   3.457   1.078   5.529  1.1118 -0.0716  0.5197
 7477SOL     OW34066   1.635   3.845   8.121 -0.2847  0.2397 -0.1654
 7477SOL    HW134067   1.614   3.797   8.201  2.1156  0.2193  0.4610
 7477SOL    HW234068   1.726   3.871   8.137 -0.5516  1.5407 -0.7449
 7478SOL     OW34069   0.455   1.200   8.682  0.4893 -0.0717  0.0612
 7478SOL    HW134070   0.472   1.272   8.742  1.3614  0.6807 -1.1000
 7478SOL    HW234071   0.440   1.244   8.599 -0.4919 -2.7839 -1.2020
 7479SOL     OW34072   2.908   4.205   2.815  0.0537  0.5991  0.2271
 7479SOL    HW134073   2.982   4.180   2.872 -1.0139 -1.8790  0.5148
 7479SOL    HW234074   2.831   4.164   2.853  0.2258  0.0622  0.0023
 7480SOL     OW34075   4.636   2.936   7.460 -0.0090  0.0191  0.5561
 7480SOL    HW134076   4.587   2.854   7.466  0.4472 -0.1332  2.0800
 7480SOL    HW234077   4.668   2.944   7.550 -1.7408 -0.5976  1.2250
 7481SOL     OW34078   3.049   3.212   3.804  0.7808 -0.3732 -0.0772
 7481SOL    HW134079   2.976   3.215   3.866  1.7683  2.3148  0.9234
 7481SOL    HW234080   3.053   3.307   3.797  0.3000 -0.1832  2.1020
 7482SOL     OW34081   4.146   0.067  17.300  0.1403  0.4238  0.3674
 7482SOL    HW134082   4.144   0.145  17.356  1.9224  0.6019  0.2053
 7482SOL    HW234083   4.157   0.108  17.214 -0.1568  4.0383  2.0347
 7483SOL     OW34084   1.925   3.439   2.164  0.2749  0.2537  0.1118
 7483SOL    HW134085   1.957   3.459   2.252 -0.9301 -1.7805  1.0061
 7483SOL    HW234086   1.943   3.345   2.167  2.1653  0.5689 -0.8292
 7484SOL     OW34087   0.571   2.151   3.714 -0.3100 -0.3190  0.0632
 7484SOL    HW134088   0.476   2.144   3.707 -0.5697  2.9392  0.0546
 7484SOL    HW234089   0.572   2.245   3.735 -0.7897 -0.4098  0.4920
 7485SOL     OW34090   3.244   0.362   8.887  0.1824 -0.5428 -0.2534
 7485SOL    HW134091   3.182   0.435   8.881  0.5047 -0.0034  3.1688
 7485SOL    HW234092   3.266   0.356   8.794 -0.6708  1.3604 -0.5630
 7486SOL     OW34093   0.875   3.359   7.370  0.5076  0.0695 -0.6990
 7486SOL    HW134094   0.948   3.314   7.327  0.4313  1.2212 -2.0275
 7486SOL    HW234095   0.813   3.288   7.389  0.5646  0.0297 -0.6595
 7487SOL     OW34096   2.902   4.641  15.218  0.1358  0.5805 -0.4980
 7487SOL    HW134097   2.864   4.711  15.272 -1.4652  0.1982 -1.1095
 7487SOL    HW234098   2.958   4.689  15.157  1.7266  0.4052  0.8491
 7488SOL     OW34099   1.986   0.652  12.792  0.0142 -0.1360  0.1792
 7488SOL    HW134100   1.940   0.634  12.875  0.7278 -0.8407  0.4226
 7488SOL    HW234101   1.916   0.619  12.735  0.2457  0.2968 -0.3495
 7489SOL     OW34102   2.092   2.078   3.078 -0.2603 -0.2098 -0.1627
 7489SOL    HW134103   2.159   2.145   3.060 -0.4667 -0.1739 -0.7783
 7489SOL    HW234104   2.128   2.001   3.035  1.1715  1.3595 -1.7904
 7490SOL     OW34105   0.285   3.332   5.365  0.0024  0.1694 -0.6237
 7490SOL    HW134106   0.338   3.404   5.399 -0.8152 -0.1472  1.3630
 7490SOL    HW234107   0.219   3.385   5.319 -2.3286  1.8579  4.5660
 7491SOL     OW34108   1.498   2.323   3.742  0.5291 -0.4325 -0.1897
 7491SOL    HW134109   1.569   2.261   3.726  2.5577  1.2103  2.3492
 7491SOL    HW234110   1.485   2.340   3.649 -1.0716  2.6398  0.5919
 7492SOL     OW34111   4.427   0.323   1.616  0.5094 -0.5414  0.0468
 7492SOL    HW134112   4.500   0.296   1.560 -0.6641  0.8431 -2.1181
 7492SOL    HW234113   4.479   0.361   1.687 -0.4104 -0.0239  0.4434
 7493SOL     OW34114   1.963   2.825  12.681 -0.1386 -0.4669 -0.6287
 7493SOL    HW134115   1.903   2.890  12.719  0.5286  0.0534 -0.4536
 7493SOL    HW234116   2.006   2.788  12.758 -0.4633 -1.9434 -1.1670
 7494SOL     OW34117   2.891   0.963  11.367  0.2800  0.3381  0.5536
 7494SOL    HW134118   2.948   0.923  11.433 -1.2399  1.1488  2.3718
 7494SOL    HW234119   2.919   0.902  11.299 -0.4733  1.4098 -0.7117
 7495SOL     OW34120   1.707   0.862   7.690  0.0394  0.1122  0.1203
 7495SOL    HW134121   1.678   0.953   7.681 -1.1660 -0.0261  2.4687
 7495SOL    HW234122   1.799   0.867   7.717  0.0899  0.9165 -0.1935
 7496SOL     OW34123   0.091   3.995   5.975  0.0159 -0.1173 -0.0890
 7496SOL    HW134124   0.158   3.968   6.038  1.9467  0.9511 -1.6706
 7496SOL    HW234125   0.014   3.963   6.022  0.1208  2.1927  1.6576
 7497SOL     OW34126   3.029   0.035   5.018  0.4957  0.4738  0.3254
 7497SOL    HW134127   3.092   0.107   5.012  0.6721  0.3742  0.9368
 7497SOL    HW234128   3.082   4.699   4.988 -0.4869 -0.5612  1.0831
 7498SOL     OW34129   1.678   2.117   5.184  0.3852  0.4362 -0.0384
 7498SOL    HW134130   1.676   2.201   5.231  0.5404  0.6687 -0.4538
 7498SOL    HW234131   1.646   2.147   5.099 -0.9079 -1.5876 -0.2688
 7499SOL     OW34132   0.801   2.744   1.766  0.8003 -0.6908  0.5963
 7499SOL    HW134133   0.747   2.809   1.722 -1.1624 -2.0128  1.0317
 7499SOL    HW234134   0.859   2.788   1.827 -1.4923 -0.4839  2.6225
 7500SOL     OW34135   2.792   1.901  14.699 -0.3423 -0.2026  0.4223
 7500SOL    HW134136   2.760   1.924  14.612 -1.0833  0.9594  1.0037
 7500SOL    HW234137   2.752   1.815  14.713  0.5064 -0.8170 -0.9934
 7501SOL     OW34138   3.092   0.896  17.047  0.0737  0.7817  0.0345
 7501SOL    HW134139   3.093   0.910  17.141 -0.8660  2.8876 -0.2748
 7501SOL    HW234140   3.182   0.925  17.036  1.1833 -2.1936  1.1775
 7502SOL     OW34141   0.760   1.796   4.311  0.1929 -0.2619 -0.5914
 7502SOL    HW134142   0.712   1.861   4.260  0.6708 -0.5177 -1.3669
 7502SOL    HW234143   0.852   1.800   4.284  0.1770  1.8967 -0.3119
 7503SOL     OW34144   3.004   1.217   7.167 -0.0257 -0.2166 -0.3393
 7503SOL    HW134145   2.948   1.224   7.244  0.6822  0.3515  0.1165
 7503SOL    HW234146   3.067   1.283   7.195 -2.0366  1.5835 -0.1279
 7504SOL     OW34147   2.607   3.588  16.734 -0.3108  0.6125 -0.4213
 7504SOL    HW134148   2.611   3.516  16.797  0.3642  0.4849 -0.6027
 7504SOL    HW234149   2.628   3.661  16.791 -1.1552 -1.8170  2.9816
 7505SOL     OW34150   0.984   1.295  14.008 -0.5068 -0.1288 -0.3048
 7505SOL    HW134151   0.956   1.294  13.916 -1.5612 -1.4414  0.0358
 7505SOL    HW234152   1.078   1.307  13.997 -0.3055 -0.6325  0.9378
 7506SOL     OW34153   2.277   1.770   8.958 -0.0039  0.0038 -0.1631
 7506SOL    HW134154   2.342   1.834   8.986  0.4046 -0.4095 -0.1622
 7506SOL    HW234155   2.230   1.775   9.041  0.1943  3.1448 -0.2396
 7507SOL     OW34156   4.156   4.252   2.735 -0.0790  0.3663  0.0886
 7507SOL    HW134157   4.103   4.329   2.711  1.2068  1.5654  1.1633
 7507SOL    HW234158   4.100   4.217   2.804 -0.3227  1.6356  0.5418
 7508SOL     OW34159   1.501   1.709   3.780  0.3367  0.0990 -0.8047
 7508SOL    HW134160   1.430   1.741   3.835  0.2682 -2.4655  0.5880
 7508SOL    HW234161   1.513   1.784   3.722  2.2433 -1.2587 -2.1655
 7509SOL     OW34162   0.289   3.577  10.308 -0.4198  0.1748  0.2440
 7509SOL    HW134163   0.295   3.633  10.384  0.2648 -0.1350  0.4205
 7509SOL    HW234164   0.350   3.624  10.250  1.9272 -0.9100  1.8426
 7510SOL     OW34165   4.697   2.642   3.618 -0.1614 -0.5278  0.4311
 7510SOL    HW134166   4.614   2.682   3.645 -0.9312 -1.7624 -0.0427
 7510SOL    HW234167   4.717   2.692   3.539 -0.5723  0.3414  0.8756
 7511SOL     OW34168   2.981   4.033   2.385  0.0881 -0.1236 -0.0583
 7511SOL    HW134169   2.956   3.944   2.411  2.5462 -0.6123  0.6603
 7511SOL    HW234170   3.057   4.011   2.331 -0.4572 -0.9642 -0.4844
 7512SOL     OW34171   4.010   3.429   3.600  0.1689 -0.2263  0.1055
 7512SOL    HW134172   3.962   3.482   3.665  3.0489  1.1971  1.0768
 7512SOL    HW234173   4.047   3.368   3.664  2.9438  0.2722 -1.0130
 7513SOL     OW34174   2.382   1.064   2.629 -0.1725  0.1443  0.1641
 7513SOL    HW134175   2.404   1.026   2.544  0.8148  0.8450  0.0955
 7513SOL    HW234176   2.382   1.155   2.599  0.1129 -0.3758 -1.4220
 7514SOL     OW34177   0.834   1.014   7.699 -0.0371  0.1951  0.1746
 7514SOL    HW134178   0.756   1.069   7.699 -0.1880 -0.0124 -0.3765
 7514SOL    HW234179   0.881   1.039   7.778  1.8149  1.4177 -1.3142
 7515SOL     OW34180   0.143   0.400   7.041  0.3409  0.1454  0.3652
 7515SOL    HW134181   0.069   0.351   7.007  1.1614 -0.3609 -0.7027
 7515SOL    HW234182   0.120   0.480   6.994  1.5709  0.6117  0.5437
 7516SOL     OW34183   1.433   2.159   9.038  0.1095 -0.1503  0.4352
 7516SOL    HW134184   1.353   2.198   9.074 -0.6587  0.0754 -1.4747
 7516SOL    HW234185   1.393   2.084   8.992  2.1047  0.3465 -2.1256
 7517SOL     OW34186   0.899   3.947   9.278 -0.1446  0.1172 -0.5474
 7517SOL    HW134187   0.955   3.876   9.308  0.3761  0.4443 -0.7456
 7517SOL    HW234188   0.915   4.004   9.354 -0.9835 -2.6788  1.7230
 7518SOL     OW34189   2.535   0.656   4.378 -0.3108 -0.6091  0.5627
 7518SOL    HW134190   2.549   0.595   4.305 -2.2805 -0.8463  0.3909
 7518SOL    HW234191   2.520   0.596   4.451 -1.5776 -0.5906  0.3253
 7519SOL     OW34192   4.212   3.608  10.753 -0.0757  0.3540  0.1041
 7519SOL    HW134193   4.195   3.552  10.829 -0.0121 -1.5914 -1.3149
 7519SOL    HW234194   4.211   3.690  10.802  0.8591 -0.0417  0.7887
 7520SOL     OW34195   1.821   3.984   5.629  0.1754  0.1698 -0.0722
 7520SOL    HW134196   1.748   3.949   5.578 -0.0757  1.0939 -0.3491
 7520SOL    HW234197   1.855   3.913   5.685 -2.6435 -2.1161 -1.2709
 7521SOL     OW34198   1.045   2.862   6.289 -0.1938  0.2672  0.0742
 7521SOL    HW134199   1.117   2.817   6.244  0.7161  1.4672  0.3258
 7521SOL    HW234200   0.979   2.866   6.220  1.9734 -1.9550 -2.1064
 7522SOL     OW34201   0.022   1.802   6.748 -0.0613  0.0392 -0.6842
 7522SOL    HW134202   0.092   1.768   6.804 -0.4420 -1.2488 -0.9887
 7522SOL    HW234203   4.725   1.719   6.714 -0.1284  0.1404 -0.8629
 7523SOL     OW34204   2.250   4.242   6.398  0.0033  0.1003  0.0415
 7523SOL    HW134205   2.321   4.296   6.365  1.8497 -1.2942  1.7052
 7523SOL    HW234206   2.297   4.214   6.477 -0.8967 -2.0854 -0.1986
 7524SOL     OW34207   2.319   0.577  16.542  0.5378 -0.3048  0.0104
 7524SOL    HW134208   2.406   0.616  16.542  0.5226 -0.2638 -0.5735
 7524SOL    HW234209   2.263   0.643  16.583 -1.3255 -0.4100 -2.3332
 7525SOL     OW34210   0.738   0.299   6.888  0.6707 -0.4668  0.1303
 7525SOL    HW134211   0.679   0.229   6.913  1.4182 -0.9277  0.6091
 7525SOL    HW234212   0.674   0.345   6.833 -0.4261 -1.8891  0.2227
 7526SOL     OW34213   1.994   1.284  12.100  0.9539  0.2192 -0.5414
 7526SOL    HW134214   1.968   1.192  12.098 -1.1982  0.7941  0.7234
 7526SOL    HW234215   1.917   1.317  12.054  0.2300 -0.8853 -0.1201
 7527SOL     OW34216   4.602   3.138  17.282  0.3646 -0.4806 -0.1886
 7527SOL    HW134217   4.584   3.117  17.373  1.2384  0.2773  0.1576
 7527SOL    HW234218   4.697   3.147  17.277  0.4685 -2.2082 -1.1399
 7528SOL     OW34219   1.629   4.556   4.322  0.0161  0.4076 -0.2221
 7528SOL    HW134220   1.649   4.577   4.414  2.9643  1.8950 -1.2007
 7528SOL    HW234221   1.552   4.500   4.336 -1.5722  2.6081 -0.1655
 7529SOL     OW34222   1.297   1.694   2.783  0.5149  0.2368  0.4945
 7529SOL    HW134223   1.250   1.711   2.864  0.6449  0.9654  0.4095
 7529SOL    HW234224   1.325   1.603   2.797  0.3643  0.1269  0.0777
 7530SOL     OW34225   1.003   1.803   7.831  0.2004  0.1156 -0.3247
 7530SOL    HW134226   1.008   1.899   7.832 -0.2049  0.1340  1.4188
 7530SOL    HW234227   1.027   1.776   7.920 -1.8095 -2.3630 -0.5345
 7531SOL     OW34228   3.994   1.946   0.442  0.2150 -0.1553 -0.2241
 7531SOL    HW134229   4.073   1.893   0.431  1.3550  1.1758  1.4781
 7531SOL    HW234230   3.930   1.885   0.407  2.4458 -2.0608 -0.9846
 7532SOL     OW34231   4.267   0.442   3.325  0.0538 -0.1367  0.1924
 7532SOL    HW134232   4.202   0.372   3.325 -0.5690  0.4422  1.1311
 7532SOL    HW234233   4.254   0.491   3.244 -2.3491  0.3599  0.8669
 7533SOL     OW34234   1.229   1.475   9.765  0.0564  0.1645  0.1018
 7533SOL    HW134235   1.161   1.436   9.710  0.2787  1.5766 -1.1581
 7533SOL    HW234236   1.201   1.461   9.855 -2.1371  2.3804 -0.2529
 7534SOL     OW34237   1.546   0.770  15.647 -0.1041 -0.5265  0.5993
 7534SOL    HW134238   1.503   0.698  15.600  1.5534 -0.8925 -0.3821
 7534SOL    HW234239   1.537   0.849  15.594 -1.8738 -0.3540  1.1351
 7535SOL     OW34240   1.183   0.460   4.827 -0.5258  0.0421 -0.1315
 7535SOL    HW134241   1.095   0.478   4.794 -1.2626 -3.9239 -0.2621
 7535SOL    HW234242   1.216   0.431   4.743 -1.4449 -0.4197 -0.3306
 7536SOL     OW34243   3.695   3.988   7.083 -0.4649 -0.2339  0.1742
 7536SOL    HW134244   3.627   3.998   7.017  0.8791  0.4173 -1.1221
 7536SOL    HW234245   3.746   4.069   7.087  2.1994 -1.9411  0.4462
 7537SOL     OW34246   1.694   4.043  12.416  0.1071 -0.2757 -0.0752
 7537SOL    HW134247   1.605   4.037  12.381  0.2720 -0.2508 -0.4970
 7537SOL    HW234248   1.716   4.137  12.410  1.3116 -0.4091  2.2936
 7538SOL     OW34249   1.496   4.511   5.856 -0.0556  0.2368 -0.0883
 7538SOL    HW134250   1.411   4.474   5.834  1.3315 -1.8997 -1.8521
 7538SOL    HW234251   1.470   4.602   5.869 -0.6513  0.2681 -1.4479
 7539SOL     OW34252   3.560   2.878   4.622  0.4591 -0.8323  0.2895
 7539SOL    HW134253   3.581   2.796   4.665  1.0105  0.6752  2.9208
 7539SOL    HW234254   3.647   2.912   4.603 -0.1862  0.0491 -1.0913
 7540SOL     OW34255   2.694   4.162   3.820  0.1830  0.1380 -0.2739
 7540SOL    HW134256   2.684   4.193   3.910  0.8102 -0.2671 -0.0679
 7540SOL    HW234257   2.635   4.217   3.769  1.7177  1.2422 -0.8423
 7541SOL     OW34258   1.788   2.253  15.627 -0.1469 -0.0891  0.0960
 7541SOL    HW134259   1.792   2.235  15.533 -1.1202  3.5096 -0.6430
 7541SOL    HW234260   1.757   2.169  15.661 -0.6621  1.0236  2.3679
 7542SOL     OW34261   1.560   3.658   3.928  0.2782  0.6009 -0.0606
 7542SOL    HW134262   1.561   3.712   4.006  0.4367 -0.4039  0.6362
 7542SOL    HW234263   1.651   3.629   3.918  0.6794  1.7271  0.3939
 7543SOL     OW34264   4.681   1.164   1.148  0.4302 -0.6365 -0.0255
 7543SOL    HW134265   0.004   1.137   1.078  0.4473  1.0271 -0.6446
 7543SOL    HW234266   4.611   1.212   1.104  0.0508 -0.1047  1.1853
 7544SOL     OW34267   1.631   1.647  12.662  0.4813  0.4906  0.7076
 7544SOL    HW134268   1.599   1.738  12.665 -0.3467  0.2486 -0.7262
 7544SOL    HW234269   1.722   1.650  12.633 -0.3805  3.1569 -1.7909
 7545SOL     OW34270   2.705   1.009  13.438 -0.1505  0.2032  0.1006
 7545SOL    HW134271   2.763   1.059  13.496  1.6122 -0.1103 -1.3830
 7545SOL    HW234272   2.697   0.924  13.482 -0.7441  1.9076  3.3359
 7546SOL     OW34273   0.636   1.278   1.070 -0.6651  0.0137  0.1258
 7546SOL    HW134274   0.657   1.216   1.139 -0.1665  3.4822  3.1218
 7546SOL    HW234275   0.712   1.325   1.036 -0.5691  0.3123  0.7493
 7547SOL     OW34276   0.993   1.546   8.877 -0.1017  0.2400 -0.5419
 7547SOL    HW134277   0.928   1.528   8.946 -0.2414  3.1203  0.0858
 7547SOL    HW234278   0.928   1.550   8.807  0.1547  0.9408 -0.7468
 7548SOL     OW34279   4.725   1.698  12.252  0.4190 -0.1800  0.2293
 7548SOL    HW134280   4.715   1.792  12.239  1.7600 -0.2074 -1.0159
 7548SOL    HW234281   0.078   1.687  12.281 -0.3155 -2.4996  1.6344
 7549SOL     OW34282   0.355   0.490  12.257  0.4052  0.1963  0.2339
 7549SOL    HW134283   0.313   0.575  12.268  0.9633  0.4892  0.1194
 7549SOL    HW234284   0.436   0.511  12.304  0.4117  0.6331  0.0286
 7550SOL     OW34285   3.045   0.366   4.890 -0.3131 -0.0472  0.2675
 7550SOL    HW134286   3.106   0.299   4.920 -0.8274 -0.3378  0.6638
 7550SOL    HW234287   3.090   0.379   4.807  0.5916 -0.1793  0.7388
 7551SOL     OW34288   4.426   2.591   6.648 -0.1304  0.6090  0.2386
 7551SOL    HW134289   4.430   2.590   6.553  1.1400 -1.6456  0.3050
 7551SOL    HW234290   4.379   2.674   6.650 -2.0680 -0.4921 -0.1279
 7552SOL     OW34291   2.010   1.219   6.790  0.3853  0.0778 -0.5998
 7552SOL    HW134292   2.101   1.227   6.761  0.1980  2.6301 -0.5484
 7552SOL    HW234293   1.986   1.284   6.724  0.9376  0.9130  0.0163
 7553SOL     OW34294   0.622   2.045   7.641 -0.3872 -0.1819  0.4477
 7553SOL    HW134295   0.542   2.092   7.666  1.8183  2.8618  1.6617
 7553SOL    HW234296   0.669   2.027   7.723 -1.3838  0.5588  1.1818
 7554SOL     OW34297   4.505   1.541   2.051 -0.0793  0.7781  0.3546
 7554SOL    HW134298   4.498   1.622   2.103 -0.0375  0.1791  1.3070
 7554SOL    HW234299   4.488   1.474   2.118 -0.0169  0.8256  0.4177
 7555SOL     OW34300   3.763   2.415   9.156  0.0646 -0.3696  0.2778
 7555SOL    HW134301   3.752   2.507   9.132 -1.8505 -0.6171  0.2583
 7555SOL    HW234302   3.848   2.422   9.201 -0.2300 -0.6084  0.8717
 7556SOL     OW34303   3.300   2.607   8.064  0.6129  0.3269 -0.3790
 7556SOL    HW134304   3.364   2.676   8.083 -1.1178  2.1642 -1.3081
 7556SOL    HW234305   3.293   2.616   7.969  0.2552 -3.3409 -0.7154
 7557SOL     OW34306   3.585   3.531   4.079  0.0431 -0.1257 -1.3158
 7557SOL    HW134307   3.518   3.502   4.141  0.9969 -0.3335 -0.3753
 7557SOL    HW234308   3.541   3.601   4.031  1.0784  1.2925 -0.1963
 7558SOL     OW34309   1.815   2.509   5.198  0.4897  0.1886  0.1993
 7558SOL    HW134310   1.827   2.558   5.279 -3.7376  2.6983 -0.6686
 7558SOL    HW234311   1.724   2.479   5.190  0.1843  0.7595  1.4565
 7559SOL     OW34312   2.178   0.390   6.233 -0.1516  0.5757  0.1079
 7559SOL    HW134313   2.241   0.404   6.303  0.1886  0.4784 -0.1821
 7559SOL    HW234314   2.125   0.328   6.282  0.2068 -0.7659 -1.1932
 7560SOL     OW34315   2.827   0.801   7.284 -0.2087 -0.5933  0.3438
 7560SOL    HW134316   2.848   0.710   7.266 -0.8404 -0.9201  1.2733
 7560SOL    HW234317   2.864   0.842   7.206 -1.7874  2.7561  1.3267
 7561SOL     OW34318   1.372   3.788   8.827 -0.4558 -0.4005 -0.0558
 7561SOL    HW134319   1.304   3.792   8.894  0.5528  3.5038  0.7082
 7561SOL    HW234320   1.386   3.881   8.812 -1.1554 -0.5706 -1.7024
 7562SOL     OW34321   2.425   1.610  11.408  0.0222 -0.3937  0.1698
 7562SOL    HW134322   2.362   1.538  11.420 -1.4195  0.4998 -2.0857
 7562SOL    HW234323   2.441   1.619  11.314 -4.4625 -1.5944 -0.7299
 7563SOL     OW34324   1.456   3.924   9.523  0.6272 -0.0448 -0.2283
 7563SOL    HW134325   1.482   3.998   9.577 -1.6492  0.6799 -0.1261
 7563SOL    HW234326   1.541   3.891   9.493  0.0491 -0.6391 -1.2275
 7564SOL     OW34327   3.703   3.081   9.781  0.0322 -0.6849  0.2190
 7564SOL    HW134328   3.646   3.004   9.785 -2.0591  0.9976  2.2397
 7564SOL    HW234329   3.651   3.149   9.739  0.7079  1.3285  2.6285
 7565SOL     OW34330   1.903   4.672   5.432  0.2449  0.6062  0.4000
 7565SOL    HW134331   1.870   4.685   5.343  0.3206 -0.0841  0.2693
 7565SOL    HW234332   1.823   4.658   5.482  1.0691  0.7052  1.7362
 7566SOL     OW34333   1.680   0.001  13.391  0.5124  0.2413  0.2365
 7566SOL    HW134334   1.692   4.645  13.372  0.4628  0.5297 -1.1490
 7566SOL    HW234335   1.621   0.024  13.319  0.3829 -0.1027  0.2315
 7567SOL     OW34336   1.476   1.620   7.147 -0.5213 -0.4192 -0.0619
 7567SOL    HW134337   1.456   1.529   7.122 -0.0502 -0.2034 -1.2488
 7567SOL    HW234338   1.425   1.674   7.087  0.5824  2.3152  1.4588
 7568SOL     OW34339   3.883   2.645   2.268 -0.2129  0.3013 -0.6527
 7568SOL    HW134340   3.897   2.684   2.181 -0.1411 -1.6791 -1.5368
 7568SOL    HW234341   3.876   2.552   2.245 -0.9525  0.1482  0.2153
 7569SOL     OW34342   2.769   2.191   7.892 -0.0056 -0.8033  0.1653
 7569SOL    HW134343   2.800   2.243   7.818 -0.0691 -0.3445  0.4647
 7569SOL    HW234344   2.674   2.188   7.884 -0.0267  0.2627  0.0692
 7570SOL     OW34345   2.920   0.804  11.158  0.1194 -0.0349 -0.1523
 7570SOL    HW134346   2.866   0.749  11.101  0.2296  1.7313 -1.9330
 7570SOL    HW234347   3.001   0.753  11.152  0.1913  0.0174  0.3876
 7571SOL     OW34348   0.369   2.196   2.832  0.5013 -0.5048  0.5608
 7571SOL    HW134349   0.277   2.179   2.811  0.7894  0.3840 -1.4055
 7571SOL    HW234350   0.414   2.125   2.786 -1.1788 -2.0714  1.3438
 7572SOL     OW34351   1.001   1.139   7.924  0.6290 -0.2244  0.2784
 7572SOL    HW134352   1.016   1.075   7.993  0.7291 -0.6997 -0.1837
 7572SOL    HW234353   0.972   1.211   7.980  1.7620 -1.5221  2.5343
 7573SOL     OW34354   4.158   2.190   3.478  0.0441 -0.1718 -0.2189
 7573SOL    HW134355   4.089   2.256   3.470 -0.2541 -0.7547 -2.4098
 7573SOL    HW234356   4.179   2.178   3.386  1.9977  0.3002  0.1623
 7574SOL     OW34357   0.657   2.699   7.516  0.1498  0.3905  0.1119
 7574SOL    HW134358   0.613   2.743   7.444 -2.5716 -0.0289  1.4962
 7574SOL    HW234359   0.632   2.608   7.498  0.9460  0.4144 -1.0402
 7575SOL     OW34360   2.994   4.182  15.363 -0.0616  0.2506 -0.1580
 7575SOL    HW134361   2.952   4.109  15.409 -1.8430  0.7695 -0.9635
 7575SOL    HW234362   2.923   4.246  15.360  0.8327  1.1529 -2.0220
 7576SOL     OW34363   0.431   4.572   6.053 -0.0284 -0.0748 -0.4367
 7576SOL    HW134364   0.343   4.609   6.049 -0.4434 -0.8684  1.1518
 7576SOL    HW234365   0.431   4.543   6.145  2.9172  1.6591  0.0872
 7577SOL     OW34366   3.345   3.033   8.108 -0.1189  0.0370 -0.4324
 7577SOL    HW134367   3.305   3.105   8.157  0.3055  0.5392 -0.8106
 7577SOL    HW234368   3.403   3.087   8.053  2.2186  0.5326  2.4901
 7578SOL     OW34369   4.470   3.440   4.209 -0.1072  0.1378 -0.2761
 7578SOL    HW134370   4.451   3.382   4.136  3.6494  0.2192 -1.3251
 7578SOL    HW234371   4.565   3.427   4.213 -0.0610  0.3830 -0.5519
 7579SOL     OW34372   2.606   3.904   5.519  0.2138 -0.3580 -0.0858
 7579SOL    HW134373   2.558   3.949   5.588 -0.0772  0.8929 -1.1026
 7579SOL    HW234374   2.696   3.925   5.543  0.0417  0.8618 -0.5066
 7580SOL     OW34375   2.549   3.723  12.565  0.5257  0.0531 -0.7161
 7580SOL    HW134376   2.488   3.674  12.510 -2.7135  1.7112  1.3915
 7580SOL    HW234377   2.522   3.815  12.568  0.3824  0.0286 -1.2295
 7581SOL     OW34378   3.262   4.207   6.913 -0.3455  0.9850 -0.1963
 7581SOL    HW134379   3.187   4.148   6.909  0.1951  0.2546  0.4901
 7581SOL    HW234380   3.241   4.253   6.994  0.1093  1.0728 -0.1276
 7582SOL     OW34381   2.764   4.590  15.522 -0.1965  0.0048  0.5212
 7582SOL    HW134382   2.858   4.609  15.525  0.3240 -2.2104 -1.6959
 7582SOL    HW234383   2.734   4.600  15.612  1.7433 -0.9051  1.2654
 7583SOL     OW34384   0.237   1.333  12.672  0.3020 -0.7572  0.2958
 7583SOL    HW134385   0.252   1.376  12.587 -0.1579 -1.4424 -0.1289
 7583SOL    HW234386   0.301   1.261  12.668 -0.6642 -1.7055  2.1405
 7584SOL     OW34387   1.332   1.264   8.535 -0.3341 -0.2806  0.4679
 7584SOL    HW134388   1.403   1.201   8.525  0.0245  0.1313  0.4247
 7584SOL    HW234389   1.351   1.318   8.458 -0.5155  0.9095  1.2537
 7585SOL     OW34390   4.706   2.200   5.335 -0.2986  0.2583 -0.9097
 7585SOL    HW134391   4.619   2.163   5.349  1.1171 -1.4800  3.2705
 7585SOL    HW234392   0.014   2.192   5.419 -1.6961 -1.3985 -0.3245
 7586SOL     OW34393   3.184   0.222   9.125  0.0952  0.0663  0.4280
 7586SOL    HW134394   3.195   0.252   9.035 -3.0759 -1.4203 -0.4793
 7586SOL    HW234395   3.094   0.246   9.145 -0.1929 -0.7555  0.1221
 7587SOL     OW34396   3.484   1.458   7.572 -0.3754 -0.2058  0.1885
 7587SOL    HW134397   3.481   1.440   7.666  0.2220  0.9372  0.4268
 7587SOL    HW234398   3.458   1.372   7.540  2.6228 -0.4116 -1.7142
 7588SOL     OW34399   1.190   4.390   4.277  0.0471 -0.1757 -0.3281
 7588SOL    HW134400   1.136   4.461   4.312 -2.5472 -2.3634  0.1405
 7588SOL    HW234401   1.180   4.404   4.183 -0.1762 -1.5680 -0.5117
 7589SOL     OW34402   3.718   4.504   2.348  0.0476 -0.1800 -0.4644
 7589SOL    HW134403   3.671   4.585   2.327  1.0189  0.7432  0.9010
 7589SOL    HW234404   3.655   4.435   2.329 -0.0050 -0.1674 -0.3397
 7590SOL     OW34405   0.281   1.433   7.785  0.3180  0.1250  0.3102
 7590SOL    HW134406   0.260   1.526   7.774 -1.1849 -0.1489  0.8193
 7590SOL    HW234407   0.267   1.402   7.696  1.6298  1.5223 -0.3739
 7591SOL     OW34408   0.348   1.579  13.950  0.3146  0.3103  0.1120
 7591SOL    HW134409   0.294   1.604  14.025  0.6186  1.2732  0.0069
 7591SOL    HW234410   0.422   1.549  14.002 -0.2661 -0.2962  0.5931
 7592SOL     OW34411   4.615   1.481   5.738 -0.0126  0.0495  0.0319
 7592SOL    HW134412   4.661   1.403   5.707 -1.3514 -1.3372  1.4994
 7592SOL    HW234413   4.550   1.488   5.667 -2.7090 -1.7797  2.2985
 7593SOL     OW34414   1.360   1.337  12.648 -0.9314  0.0824 -0.0582
 7593SOL    HW134415   1.447   1.374  12.641 -0.6468 -0.7542 -0.9065
 7593SOL    HW234416   1.383   1.244  12.655 -1.1160 -0.1296 -2.2788
 7594SOL     OW34417   0.348   1.730   3.907 -0.3598 -0.4560 -0.3487
 7594SOL    HW134418   0.315   1.686   3.828  1.8707 -2.3601 -0.2502
 7594SOL    HW234419   0.342   1.820   3.876  0.1963 -0.5642 -0.7916
 7595SOL     OW34420   4.141   1.895   0.750 -0.2245  0.1753  0.0689
 7595SOL    HW134421   4.131   1.990   0.758 -0.2766  0.2983 -1.5521
 7595SOL    HW234422   4.224   1.897   0.702 -0.2014 -1.4796  0.0608
 7596SOL     OW34423   3.072   1.685   3.451 -0.0617  0.6247 -0.1676
 7596SOL    HW134424   2.998   1.701   3.509  0.2590  0.0129  0.4081
 7596SOL    HW234425   3.135   1.641   3.508  0.7964  0.4770 -1.2147
 7597SOL     OW34426   1.785   0.269  16.183  0.3794  0.1992 -0.0266
 7597SOL    HW134427   1.728   0.328  16.232 -0.6499 -1.6015  0.9441
 7597SOL    HW234428   1.868   0.317  16.189  1.0053 -0.8947  0.0771
 7598SOL     OW34429   2.753   4.137   9.011  0.0408 -0.3316  0.5292
 7598SOL    HW134430   2.681   4.198   9.029  0.5999 -0.1220  2.0423
 7598SOL    HW234431   2.709   4.061   9.050  0.7346 -0.7746  0.4392
 7599SOL     OW34432   2.193   1.914   6.746 -0.5867  0.7192 -0.3894
 7599SOL    HW134433   2.264   1.890   6.687  1.2193  3.7396  0.6331
 7599SOL    HW234434   2.166   1.998   6.709 -0.1312  1.2831  0.6067
 7600SOL     OW34435   2.322   2.571   3.855  0.2438  0.2292 -0.4382
 7600SOL    HW134436   2.262   2.614   3.793  2.5709 -0.1242 -2.9350
 7600SOL    HW234437   2.274   2.489   3.851  0.8480 -0.1893  0.8825
 7601SOL     OW34438   4.150   1.159   1.951  0.2906  0.0568 -0.1873
 7601SOL    HW134439   4.189   1.240   1.919 -0.3284  0.4024 -0.0884
 7601SOL    HW234440   4.163   1.160   2.046  2.4091 -0.2222 -0.4816
 7602SOL     OW34441   4.452   0.101   3.053 -0.1233  0.5301  0.1986
 7602SOL    HW134442   4.439   0.010   3.026 -2.6484  0.7555  0.6338
 7602SOL    HW234443   4.374   0.108   3.107 -0.4385 -0.7374 -0.0752
 7603SOL     OW34444   1.530   0.922  12.964 -0.3901 -0.0813  0.0808
 7603SOL    HW134445   1.507   0.829  12.964  0.0383 -0.1875  0.3849
 7603SOL    HW234446   1.625   0.915  12.973 -0.5675 -1.7718  0.5965
 7604SOL     OW34447   0.636   0.160   4.540  0.0232  0.1057  0.1795
 7604SOL    HW134448   0.668   0.208   4.617  0.4649  0.4112 -0.1922
 7604SOL    HW234449   0.579   0.226   4.500 -0.8041 -0.4678  0.4124
 7605SOL     OW34450   3.121   0.311   4.380  0.1753  0.1365 -0.3652
 7605SOL    HW134451   3.183   0.239   4.366 -0.3874 -0.7861  1.7480
 7605SOL    HW234452   3.048   0.254   4.404  1.2480 -0.9366  0.3406
 7606SOL     OW34453   1.732   4.547   8.117 -0.0368  0.1173  0.4882
 7606SOL    HW134454   1.788   4.486   8.070 -1.5161 -1.3337  0.6295
 7606SOL    HW234455   1.648   4.502   8.111 -1.0168  2.2262 -1.4684
 7607SOL     OW34456   0.307   0.152  10.852  1.4150  0.1841 -0.7523
 7607SOL    HW134457   0.340   0.171  10.940 -0.8951  1.9103 -0.2567
 7607SOL    HW234458   0.349   0.071  10.825 -0.1641 -0.7057 -0.5451
 7608SOL     OW34459   3.301   2.266   4.579 -0.1743  0.0809  0.3125
 7608SOL    HW134460   3.374   2.316   4.615  0.7391 -0.5755 -0.6338
 7608SOL    HW234461   3.253   2.253   4.661  0.0311 -0.9343  0.2687
 7609SOL     OW34462   4.613   2.997  16.260  0.1636 -0.0693  0.1981
 7609SOL    HW134463   4.617   2.990  16.356  0.5341  2.3099  0.3693
 7609SOL    HW234464   4.537   2.944  16.235  1.0389 -1.8516  1.3348
 7610SOL     OW34465   0.333   1.374  15.153  0.1749 -0.3417 -0.2224
 7610SOL    HW134466   0.356   1.284  15.129 -0.9785 -0.7848  0.3444
 7610SOL    HW234467   0.365   1.381  15.243  0.8703 -0.6228 -0.4403
 7611SOL     OW34468   2.396   0.201   7.812 -0.2011 -0.1968  0.4239
 7611SOL    HW134469   2.348   0.134   7.762  0.8635 -0.8023  0.1881
 7611SOL    HW234470   2.482   0.158   7.816 -0.3228 -0.5510 -0.7732
 7612SOL     OW34471   3.054   4.192   8.198 -0.1170  0.2688  0.0305
 7612SOL    HW134472   3.079   4.115   8.148  0.6306  1.1115 -0.8928
 7612SOL    HW234473   3.137   4.209   8.242  0.2951 -1.7589  0.0216
 7613SOL     OW34474   4.330   2.786  14.046  0.2523  0.0786  0.5989
 7613SOL    HW134475   4.325   2.838  14.126  0.1530  0.1471  0.5494
 7613SOL    HW234476   4.305   2.853  13.982 -0.1834  2.1625  2.9772
 7614SOL     OW34477   4.296   4.248   6.135  0.3940  0.2416  0.4323
 7614SOL    HW134478   4.248   4.295   6.204 -0.1625  2.1528 -1.2790
 7614SOL    HW234479   4.355   4.185   6.177  1.8845 -0.6804 -3.1293
 7615SOL     OW34480   1.949   3.567   5.765  0.4672 -0.0115  0.9436
 7615SOL    HW134481   1.981   3.519   5.689 -1.0194  0.7592 -0.1693
 7615SOL    HW234482   1.884   3.503   5.793 -0.5681 -0.5583 -2.7469
 7616SOL     OW34483   0.770   4.555  16.078  0.3919 -0.0179  0.0364
 7616SOL    HW134484   0.725   4.635  16.053  1.1074  0.8499  1.5233
 7616SOL    HW234485   0.721   4.492  16.026 -0.9836 -0.6655  2.0885
 7617SOL     OW34486   1.011   3.920   3.498  0.2352 -0.1647 -0.7389
 7617SOL    HW134487   1.037   4.008   3.471 -1.5141  0.6871  0.3496
 7617SOL    HW234488   1.096   3.881   3.514  0.2994  0.0565 -0.5497
 7618SOL     OW34489   4.578   1.052   1.395 -0.0026 -0.3814  0.2297
 7618SOL    HW134490   4.583   1.139   1.435 -0.5868  0.1644 -0.8868
 7618SOL    HW234491   4.616   1.076   1.310  0.3965  0.5388  0.6557
 7619SOL     OW34492   4.499   2.207   3.531  0.1295 -0.7861  0.1137
 7619SOL    HW134493   4.477   2.126   3.485  1.6559 -0.1987 -1.6558
 7619SOL    HW234494   4.430   2.194   3.597 -0.0252  0.6358  0.2345
 7620SOL     OW34495   1.949   2.890   5.621 -0.2781 -0.2108 -0.3887
 7620SOL    HW134496   1.931   2.860   5.710  0.4779  1.2724  0.2654
 7620SOL    HW234497   1.866   2.929   5.594 -0.6626 -0.6564  0.1450
 7621SOL     OW34498   4.341   3.511   4.750 -0.3448  0.3566 -0.3129
 7621SOL    HW134499   4.322   3.479   4.838 -0.4261 -0.0583 -0.4810
 7621SOL    HW234500   4.330   3.427   4.705  0.6055  0.7379 -1.2404
 7622SOL     OW34501   1.074   4.452  11.636  0.0522  0.5434 -0.1323
 7622SOL    HW134502   1.131   4.481  11.707 -2.1965  0.6387  1.6022
 7622SOL    HW234503   1.119   4.507  11.571 -1.2390 -0.9203 -2.2722
 7623SOL     OW34504   2.373   1.280  15.203 -0.0929  0.6028 -0.1343
 7623SOL    HW134505   2.401   1.226  15.276 -1.1985  0.1138 -0.0742
 7623SOL    HW234506   2.303   1.329  15.247 -1.1954 -3.0751  2.2536
 7624SOL     OW34507   0.672   2.307  13.406  0.2952  0.1344 -0.5966
 7624SOL    HW134508   0.759   2.337  13.430  0.6018 -0.2060 -1.2769
 7624SOL    HW234509   0.623   2.387  13.424 -1.4844 -0.4311 -2.7780
 7625SOL     OW34510   1.372   3.790   5.291  0.1117  0.1917 -0.4259
 7625SOL    HW134511   1.329   3.746   5.218  1.6273 -1.3803 -0.3911
 7625SOL    HW234512   1.382   3.713   5.347 -2.0977 -0.5375 -1.0343
 7626SOL     OW34513   0.452   1.634   7.476 -0.2538  0.3129  0.2472
 7626SOL    HW134514   0.386   1.654   7.543  0.3705  0.6909  0.7517
 7626SOL    HW234515   0.530   1.598   7.520  0.3101 -0.2156 -1.1814
 7627SOL     OW34516   3.187   1.879   7.457 -0.2077  0.3258  0.4064
 7627SOL    HW134517   3.190   1.789   7.490 -3.2168  0.4056  0.8583
 7627SOL    HW234518   3.258   1.918   7.508 -0.3084 -2.2723  2.5937
 7628SOL     OW34519   0.780   3.767  10.273 -0.0801  0.8544 -0.0585
 7628SOL    HW134520   0.839   3.764  10.198 -0.7930 -0.5821 -0.5583
 7628SOL    HW234521   0.823   3.698  10.325 -1.8578 -1.2060 -1.3094
 7629SOL     OW34522   1.760   1.254   6.294  0.2400 -0.3933 -0.5787
 7629SOL    HW134523   1.793   1.165   6.282  1.9299 -0.1634  2.4900
 7629SOL    HW234524   1.724   1.245   6.382  2.7514 -1.6839  0.3072
 7630SOL     OW34525   2.707   2.088   2.044  0.4248  0.6730 -0.6744
 7630SOL    HW134526   2.739   1.998   2.043 -0.7880  0.2456 -0.6022
 7630SOL    HW234527   2.774   2.131   2.097 -0.5737  1.9300 -0.4194
 7631SOL     OW34528   2.675   1.305  16.463  0.3398  0.4753 -0.3045
 7631SOL    HW134529   2.652   1.347  16.546  2.6747  0.2996  0.4300
 7631SOL    HW234530   2.685   1.383  16.407 -1.2104  1.2249  0.4844
 7632SOL     OW34531   2.888   3.140  14.328  0.5071  0.0302 -0.4123
 7632SOL    HW134532   2.813   3.123  14.271  0.9875  0.8996 -1.3100
 7632SOL    HW234533   2.884   3.235  14.334 -1.6724 -0.1612  1.2396
 7633SOL     OW34534   1.229   1.386  16.317  0.0194 -0.0147  0.1578
 7633SOL    HW134535   1.168   1.313  16.319  1.4171 -1.1687  0.3751
 7633SOL    HW234536   1.291   1.349  16.380 -2.0197 -3.6590  0.0065
 7634SOL     OW34537   0.412   0.500   1.512 -0.3181 -0.1381  0.4268
 7634SOL    HW134538   0.418   0.419   1.461  0.1165  0.1349  0.0550
 7634SOL    HW234539   0.436   0.573   1.457  1.2872 -1.4966 -0.6651
 7635SOL     OW34540   4.205   4.199   7.112 -0.0531  0.2282 -0.9005
 7635SOL    HW134541   4.120   4.189   7.156  1.6314 -0.5135  2.1559
 7635SOL    HW234542   4.242   4.243   7.189  0.3537 -0.2184 -0.8408
 7636SOL     OW34543   4.582   4.127   4.416  0.5799 -0.4981  0.8046
 7636SOL    HW134544   4.590   4.173   4.500 -0.0720  1.7455 -0.3748
 7636SOL    HW234545   4.673   4.100   4.406  0.2492 -1.8363  1.4530
 7637SOL     OW34546   2.261   1.401   9.353  0.3148  0.8392  0.0332
 7637SOL    HW134547   2.170   1.374   9.347  0.8354 -0.8832 -0.2332
 7637SOL    HW234548   2.255   1.494   9.331  0.3882  1.3150  2.0230
 7638SOL     OW34549   0.134   2.734   7.640  0.0828 -0.5937  0.4015
 7638SOL    HW134550   0.069   2.778   7.695 -1.4280 -1.9816 -0.2524
 7638SOL    HW234551   0.190   2.702   7.710  1.6256  0.6811 -0.2491
 7639SOL     OW34552   1.641   3.739   9.407  0.0497 -0.3764 -0.2201
 7639SOL    HW134553   1.669   3.678   9.339  0.8587 -0.8389  0.5315
 7639SOL    HW234554   1.612   3.685   9.481 -0.6280 -1.4104 -1.2342
 7640SOL     OW34555   1.501   3.267   4.124  0.0110 -0.3059  0.5559
 7640SOL    HW134556   1.534   3.264   4.214 -0.0444 -0.1972  0.5801
 7640SOL    HW234557   1.514   3.178   4.093  0.3724  0.1941 -0.7198
 7641SOL     OW34558   2.285   1.794   0.793 -0.2291 -0.2440 -0.0002
 7641SOL    HW134559   2.278   1.870   0.851 -3.4101  1.0587 -2.1380
 7641SOL    HW234560   2.371   1.813   0.754  0.5891  0.7778  2.2833
 7642SOL     OW34561   0.979   1.075   0.048 -0.3953 -0.1859 -0.3090
 7642SOL    HW134562   0.967   1.159   0.093  0.4338 -0.5924  0.7021
 7642SOL    HW234563   1.071   1.057   0.068 -0.4485  0.0195  0.1162
 7643SOL     OW34564   2.099   4.727  17.340 -0.2309  0.5272 -0.1274
 7643SOL    HW134565   2.140   4.646  17.309 -2.2429 -0.5082 -0.0976
 7643SOL    HW234566   2.160   0.029  17.402  0.3928 -1.6256  0.6046
 7644SOL     OW34567   1.872   0.119   1.680  0.4907  0.6709 -0.7253
 7644SOL    HW134568   1.947   0.171   1.710  0.4929  0.1079  0.2485
 7644SOL    HW234569   1.902   0.094   1.593  0.1401  1.9557 -1.2094
 7645SOL     OW34570   1.656   4.668   8.378  0.0530  0.7635 -0.3362
 7645SOL    HW134571   1.694   4.643   8.294 -1.6927  0.2614 -0.9698
 7645SOL    HW234572   1.590   4.733   8.354  0.0747 -0.1497 -2.8374
 7646SOL     OW34573   4.449   0.815  10.714 -0.2733 -0.1580  0.4278
 7646SOL    HW134574   4.516   0.779  10.771 -2.2839 -1.5414  1.9493
 7646SOL    HW234575   4.503   0.887  10.683 -0.3707 -0.5933 -0.7648
 7647SOL     OW34576   3.500   4.062   4.085  0.1967  0.1920 -0.8457
 7647SOL    HW134577   3.417   4.035   4.123  1.1634 -1.9839 -0.3003
 7647SOL    HW234578   3.540   3.984   4.047 -0.4738 -0.6370  0.1609
 7648SOL     OW34579   0.989   3.208   7.780 -0.1134 -0.2726  0.2593
 7648SOL    HW134580   1.033   3.271   7.722 -0.4294  1.2572  1.6637
 7648SOL    HW234581   1.069   3.167   7.812 -0.6366 -1.8888 -0.4950
 7649SOL     OW34582   2.214   3.960  17.701  0.0255 -0.1413  0.5368
 7649SOL    HW134583   2.185   3.982   0.043 -0.5170  0.2958  0.2499
 7649SOL    HW234584   2.209   4.042  17.652 -1.5928  0.7250  2.1494
 7650SOL     OW34585   0.858   0.126   5.161 -0.0398 -0.0242  0.9524
 7650SOL    HW134586   0.943   0.168   5.147 -1.2772  2.0347 -0.2480
 7650SOL    HW234587   0.818   0.126   5.074  1.5473 -0.1398  0.2209
 7651SOL     OW34588   0.418   1.332   0.331  0.3118  0.0124  0.0725
 7651SOL    HW134589   0.467   1.385   0.268 -1.3350  2.2333  0.6516
 7651SOL    HW234590   0.331   1.369   0.317 -0.0974 -0.9616  0.0353
 7652SOL     OW34591   1.160   2.582  16.404 -0.3467 -0.8712  0.6051
 7652SOL    HW134592   1.089   2.636  16.437 -2.4497 -2.4727 -1.3391
 7652SOL    HW234593   1.202   2.583  16.490 -0.6639  1.3507  0.7206
 7653SOL     OW34594   3.682   4.713   9.649 -0.0564  0.3690 -0.0919
 7653SOL    HW134595   3.726   4.681   9.728 -0.1503 -0.5432 -0.4052
 7653SOL    HW234596   3.739   4.680   9.579  0.9548 -2.0474  1.8575
 7654SOL     OW34597   3.711   3.472   4.405 -0.1899 -0.4194  0.4008
 7654SOL    HW134598   3.733   3.386   4.371  2.0782  0.2183  0.2472
 7654SOL    HW234599   3.776   3.530   4.365 -0.7321 -0.0541  0.0489
 7655SOL     OW34600   0.830   0.276   2.721 -0.0084  0.7797  0.8471
 7655SOL    HW134601   0.860   0.187   2.740  0.6095  0.8116  0.0180
 7655SOL    HW234602   0.763   0.294   2.787 -0.5243  0.8535  0.3172
 7656SOL     OW34603   0.055   0.757   8.294 -0.2369  0.6717 -0.1846
 7656SOL    HW134604   4.697   0.746   8.282 -0.1655 -0.8025  0.6880
 7656SOL    HW234605   0.060   0.711   8.378 -1.0618 -1.5304 -1.3463
 7657SOL     OW34606   4.710   4.730  10.556 -0.0376 -0.0085  0.3794
 7657SOL    HW134607   4.697   4.691  10.470 -0.5551  2.2179 -0.5379
 7657SOL    HW234608   0.020   0.072  10.532 -1.7987  0.2095 -2.2954
 7658SOL     OW34609   0.492   3.354   3.975 -0.3353  0.4393 -0.4657
 7658SOL    HW134610   0.549   3.426   3.946 -0.1506  1.0966  1.5264
 7658SOL    HW234611   0.472   3.374   4.067 -1.8285 -1.9866 -0.2803
 7659SOL     OW34612   4.449   3.202  14.318  0.4463 -0.0044 -0.2406
 7659SOL    HW134613   4.388   3.274  14.326  0.4217 -0.3151  2.3294
 7659SOL    HW234614   4.531   3.248  14.336  0.8702 -1.1413  0.7602
 7660SOL     OW34615   3.134   3.413  14.523 -1.1426 -0.4774  0.5295
 7660SOL    HW134616   3.169   3.345  14.466 -0.3367  2.1827 -2.1433
 7660SOL    HW234617   3.179   3.483  14.475  1.6739 -1.7190  1.3382
 7661SOL     OW34618   0.121   3.077   6.412  0.0747  0.1695  0.2961
 7661SOL    HW134619   0.122   3.001   6.471  2.3532 -0.7948 -0.9821
 7661SOL    HW234620   0.183   3.131   6.461 -0.8879  1.0913  0.4922
 7662SOL     OW34621   3.978   2.486  17.636 -0.5235  0.0278 -0.1682
 7662SOL    HW134622   3.965   2.547  17.563  3.4425  1.8299  0.6153
 7662SOL    HW234623   3.889   2.489  17.671 -0.8131 -0.2366 -0.8954
 7663SOL     OW34624   4.656   0.820  17.446 -0.0361  0.0180 -0.3859
 7663SOL    HW134625   4.697   0.742  17.483  0.7524  0.4928 -0.2583
 7663SOL    HW234626   4.589   0.841  17.510 -1.0440 -1.1436 -1.0501
 7664SOL     OW34627   3.247   0.403   6.647 -0.4224  0.5138 -0.3850
 7664SOL    HW134628   3.235   0.473   6.583 -0.4752  0.7273 -0.1428
 7664SOL    HW234629   3.335   0.423   6.679  1.3175 -4.8498 -1.9462
 7665SOL     OW34630   2.264   0.366  16.364  0.1005 -0.1077  0.4912
 7665SOL    HW134631   2.308   0.418  16.432 -0.6302  0.8840  0.2027
 7665SOL    HW234632   2.284   0.277  16.393  0.0972 -0.1422  0.3866
 7666SOL     OW34633   3.688   1.281   8.960  0.1183 -0.7208 -0.1767
 7666SOL    HW134634   3.635   1.205   8.933  0.9233 -0.6668 -1.8870
 7666SOL    HW234635   3.704   1.318   8.874 -0.0429 -1.9509 -0.7312
 7667SOL     OW34636   1.694   2.008  16.822  0.2313 -0.3855 -0.3458
 7667SOL    HW134637   1.755   2.012  16.748  1.0904  0.0271  0.3912
 7667SOL    HW234638   1.750   1.983  16.895 -0.5698 -0.9531  0.0696
 7668SOL     OW34639   4.620   0.902   7.536 -0.1493  0.4772  0.1644
 7668SOL    HW134640   4.540   0.891   7.485 -0.2005  0.7748  0.1822
 7668SOL    HW234641   4.638   0.815   7.571  1.2759  0.4122 -0.7278
 7669SOL     OW34642   0.287   3.660  17.143  0.2517  0.6051 -0.3693
 7669SOL    HW134643   0.333   3.625  17.219  2.1680 -1.3344 -2.3860
 7669SOL    HW234644   0.198   3.629  17.160  1.1957 -1.7018  0.3700
 7670SOL     OW34645   3.445   3.642   7.739 -0.5826 -0.2716 -0.4782
 7670SOL    HW134646   3.515   3.704   7.719 -0.5094 -0.1518  0.1641
 7670SOL    HW234647   3.451   3.590   7.658 -1.1720  2.3252 -2.1928
 7671SOL     OW34648   4.146   4.179   3.468 -0.2231  0.2858 -0.6061
 7671SOL    HW134649   4.122   4.252   3.411  0.6780  2.1051  1.3405
 7671SOL    HW234650   4.177   4.117   3.402 -0.7274 -0.1011 -0.4741
 7672SOL     OW34651   2.061   0.247  16.911  0.3255 -0.6704 -0.8561
 7672SOL    HW134652   2.134   0.282  16.860  2.3353 -0.1593  2.3358
 7672SOL    HW234653   1.990   0.235  16.848 -0.2748 -0.1158 -0.2924
 7673SOL     OW34654   4.114   2.697  15.845  0.4459 -0.2968 -1.0435
 7673SOL    HW134655   4.100   2.789  15.826 -3.0393 -0.5508  0.1858
 7673SOL    HW234656   4.049   2.660  15.785  0.9003 -0.7799 -1.2391
 7674SOL     OW34657   1.034   1.477  12.730  0.1453  0.6097  0.4520
 7674SOL    HW134658   1.014   1.509  12.818  0.4869 -1.5584  1.3371
 7674SOL    HW234659   1.059   1.386  12.748  2.0878  0.9621 -0.3995
 7675SOL     OW34660   1.109   3.722   7.322  0.1155 -0.5138  0.2366
 7675SOL    HW134661   1.072   3.662   7.258 -2.4334  0.0833  1.1394
 7675SOL    HW234662   1.173   3.667   7.366  0.1335 -0.1855  0.6204
 7676SOL     OW34663   3.863   0.822   7.414 -0.0915 -0.3991  0.0840
 7676SOL    HW134664   3.768   0.826   7.422  0.0220  1.3272  0.4994
 7676SOL    HW234665   3.878   0.774   7.496 -0.9238 -2.1580 -0.7995
 7677SOL     OW34666   0.539   3.417   2.206  0.3489  0.7916 -0.0460
 7677SOL    HW134667   0.525   3.419   2.111  0.1346  2.9276  0.0303
 7677SOL    HW234668   0.471   3.478   2.237 -0.9156 -1.1693  1.0763
 7678SOL     OW34669   3.517   0.844   8.097 -0.1534  0.1742 -0.2916
 7678SOL    HW134670   3.571   0.767   8.083 -1.6494 -0.7114 -1.1526
 7678SOL    HW234671   3.446   0.810   8.152 -0.0784  2.0559  0.9906
 7679SOL     OW34672   3.197   2.180   1.532  0.3112  0.2778  0.1066
 7679SOL    HW134673   3.238   2.238   1.595  0.8364 -1.0114  0.9398
 7679SOL    HW234674   3.246   2.209   1.455 -0.5818  1.0266 -0.1861
 7680SOL     OW34675   0.559   1.095   4.896  0.0908 -0.3924 -0.0030
 7680SOL    HW134676   0.520   1.062   4.976 -1.4752  1.4800  0.0032
 7680SOL    HW234677   0.490   1.150   4.859  1.0559  2.3941  2.2881
 7681SOL     OW34678   4.277   1.469   5.868 -0.0947 -0.2767 -0.7141
 7681SOL    HW134679   4.235   1.486   5.952 -1.4515 -1.2298 -1.2060
 7681SOL    HW234680   4.324   1.551   5.853 -0.5067  0.2410  0.8109
 7682SOL     OW34681   1.122   4.424   3.996 -0.1797 -0.3430  0.2212
 7682SOL    HW134682   1.184   4.396   3.929 -0.5222  1.4815 -0.8458
 7682SOL    HW234683   1.046   4.367   3.987  1.2088 -1.8857 -1.7815
 7683SOL     OW34684   1.706   1.369   6.937 -0.5303  0.2061 -0.5641
 7683SOL    HW134685   1.632   1.353   6.995 -0.6907  3.3252  0.1028
 7683SOL    HW234686   1.721   1.463   6.947 -0.5894  0.1529  0.0147
 7684SOL     OW34687   4.674   0.497  13.002  0.1732  0.1151  0.4990
 7684SOL    HW134688   4.591   0.451  13.009  0.2708 -0.0884  0.2968
 7684SOL    HW234689   4.651   0.589  13.019  0.8089  0.7852 -2.3304
 7685SOL     OW34690   0.992   1.138  15.377 -0.3419  0.0871 -0.6427
 7685SOL    HW134691   0.955   1.050  15.379  0.5667 -0.2632  0.8917
 7685SOL    HW234692   0.915   1.195  15.385  1.2015  2.2928 -1.3982
 7686SOL     OW34693   1.596   2.442   8.673 -0.1258 -0.7176  0.0636
 7686SOL    HW134694   1.572   2.362   8.627  1.3954 -0.6785 -0.7815
 7686SOL    HW234695   1.640   2.408   8.751  1.7624  0.7424 -0.3763
 7687SOL     OW34696   4.509   4.557   2.409 -0.6407 -0.3368 -0.2901
 7687SOL    HW134697   4.602   4.545   2.430 -0.8936 -0.4476  0.7166
 7687SOL    HW234698   4.465   4.502   2.474 -0.0634  0.4906  0.7990
 7688SOL     OW34699   2.694   4.171   0.955 -0.1864 -0.0760  0.9437
 7688SOL    HW134700   2.742   4.253   0.961 -1.2698  0.7713 -1.8528
 7688SOL    HW234701   2.654   4.157   1.041 -0.4231  2.6645  1.2712
 7689SOL     OW34702   3.712   2.526   7.205 -0.0373  0.2902 -1.0401
 7689SOL    HW134703   3.736   2.528   7.113  2.0650 -2.0869 -0.5463
 7689SOL    HW234704   3.624   2.490   7.194 -0.4034  0.9928 -0.4500
 7690SOL     OW34705   4.562   0.008  10.049  0.0910  0.1966 -0.2790
 7690SOL    HW134706   4.560   0.103  10.057  0.6137  0.1771  0.0492
 7690SOL    HW234707   4.615   0.004   9.969  0.4749 -2.2343  0.1056
 7691SOL     OW34708   0.237   0.412   2.188 -0.4990 -0.7500  0.3035
 7691SOL    HW134709   0.181   0.381   2.260 -0.4769 -1.5818 -0.0402
 7691SOL    HW234710   0.213   0.355   2.115 -0.4652  0.6636 -0.8154
 7692SOL     OW34711   1.994   1.283   5.180 -0.0780  0.2731 -0.0791
 7692SOL    HW134712   1.974   1.212   5.119  1.1431 -0.6461  0.5800
 7692SOL    HW234713   1.909   1.318   5.203  0.7099  2.8340 -1.1359
 7693SOL     OW34714   2.899   0.914   4.776 -0.2265  0.0260  0.3103
 7693SOL    HW134715   2.855   0.852   4.834  2.3046 -0.7077  1.4302
 7693SOL    HW234716   2.938   0.979   4.833  1.1989 -2.0005  1.6416
 7694SOL     OW34717   4.436   3.422   7.222 -0.4938 -0.1424  0.5278
 7694SOL    HW134718   4.460   3.512   7.199  1.7125 -1.2764 -1.5988
 7694SOL    HW234719   4.379   3.440   7.296 -0.4796 -0.2835  0.5717
 7695SOL     OW34720   1.256   1.676   8.394 -0.2475 -0.2422 -0.0366
 7695SOL    HW134721   1.225   1.762   8.365  0.6689  0.3685  0.7974
 7695SOL    HW234722   1.242   1.684   8.488 -2.4486 -2.4512 -0.1950
 7696SOL     OW34723   0.886   3.949   6.755 -0.2784 -0.3087  0.0717
 7696SOL    HW134724   0.924   3.875   6.803  2.2211  1.4141  0.7432
 7696SOL    HW234725   0.951   4.013   6.784 -0.1588 -1.2160  1.8036
 7697SOL     OW34726   2.072   2.957   9.518  0.0579 -0.3026  0.3713
 7697SOL    HW134727   2.160   2.995   9.520 -1.0046  2.1316  1.6591
 7697SOL    HW234728   2.018   3.013   9.574  0.7514  0.3043  0.4335
 7698SOL     OW34729   2.207   0.023   2.866  0.4983 -0.0758  0.5130
 7698SOL    HW134730   2.205   4.704   2.945  1.5242  2.0478  2.0379
 7698SOL    HW234731   2.171   0.105   2.898 -1.5506 -0.0760 -1.8618
 7699SOL     OW34732   3.254   2.583   0.276  0.1027 -0.3133 -0.7590
 7699SOL    HW134733   3.338   2.579   0.321 -0.5881  0.7039  0.6096
 7699SOL    HW234734   3.220   2.669   0.300  0.5915 -0.1413 -0.6879
 7700SOL     OW34735   0.045   3.538   2.643  0.4269 -0.1438 -0.3227
 7700SOL    HW134736   4.709   3.553   2.584 -0.0197 -1.2991 -0.0745
 7700SOL    HW234737   0.019   3.450   2.670  0.4386  0.0257  0.2316
 7701SOL     OW34738   1.908   0.864   2.983 -0.6843  0.7005  0.5314
 7701SOL    HW134739   1.988   0.819   3.012 -0.0620  2.5014  1.6534
 7701SOL    HW234740   1.938   0.922   2.912 -1.0049 -0.0780 -0.2297
 7702SOL     OW34741   0.799   4.676   6.859  0.1939  0.5816 -0.4122
 7702SOL    HW134742   0.716   4.632   6.873 -0.4807  2.2237  0.7793
 7702SOL    HW234743   0.850   4.604   6.822 -1.0065  0.0878 -1.0930
 7703SOL     OW34744   2.513   0.003   1.825 -0.2517  0.5041  0.1123
 7703SOL    HW134745   2.506   4.646   1.843  0.8669 -0.0021 -2.2745
 7703SOL    HW234746   2.442   0.027   1.766  0.6325  2.3390 -0.2065
 7704SOL     OW34747   3.983   0.813  15.788  1.0516  0.1666  0.5659
 7704SOL    HW134748   3.979   0.811  15.692  0.6165 -1.7082  0.6377
 7704SOL    HW234749   4.077   0.820  15.806  0.7175 -1.3669  2.8194
 7705SOL     OW34750   3.194   4.395   8.730 -0.0494  0.0438  0.4395
 7705SOL    HW134751   3.203   4.301   8.745 -0.4589 -0.0598  0.0561
 7705SOL    HW234752   3.264   4.437   8.780 -1.2189 -0.1853  2.3028
 7706SOL     OW34753   2.579   2.744   9.874 -0.8941 -0.3236  0.2738
 7706SOL    HW134754   2.587   2.678   9.943 -1.6597  2.4609  2.9753
 7706SOL    HW234755   2.492   2.729   9.838 -0.7832  1.8595 -0.8428
 7707SOL     OW34756   1.189   0.116   7.447  0.0719 -0.1764  0.0778
 7707SOL    HW134757   1.137   0.179   7.497  2.1547  2.0801 -0.6191
 7707SOL    HW234758   1.271   0.165   7.455  0.5414 -0.7083 -1.5537
 7708SOL     OW34759   4.401   2.394   3.355  0.6293 -0.2681 -0.7296
 7708SOL    HW134760   4.335   2.442   3.404  0.7547 -1.5615  0.7189
 7708SOL    HW234761   4.442   2.339   3.422 -2.1326  0.8617  1.8850
 7709SOL     OW34762   4.432   1.158   1.814  0.4283  0.0566 -0.7481
 7709SOL    HW134763   4.406   1.213   1.888 -0.2664  0.6166 -1.4188
 7709SOL    HW234764   4.522   1.145   1.845  0.3505  0.9345 -0.1581
 7710SOL     OW34765   0.603   3.282   3.291  0.6804  0.0854 -0.5894
 7710SOL    HW134766   0.638   3.244   3.211  0.6847 -0.0814 -0.5078
 7710SOL    HW234767   0.578   3.202   3.338  2.3453 -1.2888 -2.0251
 7711SOL     OW34768   4.249   2.915  12.409  0.3480  0.2538 -0.2720
 7711SOL    HW134769   4.302   2.994  12.415  0.7827 -0.3023  3.2968
 7711SOL    HW234770   4.244   2.907  12.313  2.5050 -1.6920 -0.2196
 7712SOL     OW34771   0.501   3.215   7.527 -0.2355 -0.6243 -0.1774
 7712SOL    HW134772   0.448   3.135   7.533 -4.0305  1.9545  1.2052
 7712SOL    HW234773   0.557   3.198   7.451 -0.1650  0.1770 -0.3022
 7713SOL     OW34774   2.634   3.613   4.721  0.2757 -0.2153  0.9845
 7713SOL    HW134775   2.666   3.682   4.780  2.6312 -0.5609  0.0981
 7713SOL    HW234776   2.703   3.599   4.656 -0.7202  1.6828 -0.4773
 7714SOL     OW34777   3.606   0.308   4.233 -0.0010 -0.2166 -0.1708
 7714SOL    HW134778   3.608   0.374   4.301 -0.3393  0.8475 -1.1952
 7714SOL    HW234779   3.511   0.293   4.231  0.0716 -1.0733  2.7951
 7715SOL     OW34780   0.669   3.727   4.352  0.2614  0.4018  0.7166
 7715SOL    HW134781   0.745   3.678   4.322  0.6379 -0.1960  2.6739
 7715SOL    HW234782   0.660   3.681   4.435 -0.4215 -0.4441  0.1812
 7716SOL     OW34783   0.521   3.214  14.762  0.3555  0.3434  0.1981
 7716SOL    HW134784   0.588   3.176  14.705  1.5886  0.7531  1.3935
 7716SOL    HW234785   0.451   3.244  14.705 -0.0138 -3.5224 -1.4290
 7717SOL     OW34786   1.110   0.523   3.326  0.0342  0.4941  0.4877
 7717SOL    HW134787   1.201   0.530   3.355 -0.4557  1.2885  1.8532
 7717SOL    HW234788   1.125   0.558   3.238  0.3842 -1.8328 -0.3816
 7718SOL     OW34789   2.240   1.876   2.967  0.5487  0.1455 -0.2153
 7718SOL    HW134790   2.307   1.900   2.903  2.3924 -0.3371  1.5119
 7718SOL    HW234791   2.252   1.781   2.964  1.3377  0.2771 -0.9725
 7719SOL     OW34792   0.916   3.631   8.186 -0.3317  0.0390  0.0543
 7719SOL    HW134793   0.991   3.676   8.225 -0.4676  0.8018 -0.5615
 7719SOL    HW234794   0.839   3.672   8.226  0.1473 -1.7535  2.7450
 7720SOL     OW34795   2.794   4.471   0.825  0.1923  0.3615 -0.2433
 7720SOL    HW134796   2.813   4.561   0.850 -1.8814  0.4874  0.8816
 7720SOL    HW234797   2.877   4.444   0.786  1.3546  1.3767  1.5339
 7721SOL     OW34798   1.005   0.275   4.916  0.4737  0.0400  0.1438
 7721SOL    HW134799   1.077   0.319   4.871 -0.5364  0.8374 -0.6712
 7721SOL    HW234800   1.034   0.277   5.007  1.4330  1.8063 -0.2003
 7722SOL     OW34801   3.999   0.383   1.195 -0.5205 -0.2056 -0.2943
 7722SOL    HW134802   4.064   0.353   1.132 -0.5332 -0.6045 -0.1141
 7722SOL    HW234803   3.962   0.460   1.151  0.7780  2.4642  3.2982
 7723SOL     OW34804   1.141   4.143   4.406 -0.5593 -0.0032  0.4786
 7723SOL    HW134805   1.120   4.108   4.319  2.1659  1.9912 -0.9689
 7723SOL    HW234806   1.137   4.237   4.392 -0.6787 -0.4269 -2.4047
 7724SOL     OW34807   1.695   0.333   1.685  0.3043 -0.4206  0.0629
 7724SOL    HW134808   1.750   0.256   1.699  0.4385 -0.0225  1.7203
 7724SOL    HW234809   1.609   0.314   1.723  0.1749 -2.0152 -1.0387
 7725SOL     OW34810   2.813   0.129   7.330 -0.0874 -0.7908  0.1995
 7725SOL    HW134811   2.862   0.192   7.276  1.5862 -1.0377  1.4373
 7725SOL    HW234812   2.754   0.184   7.382  1.0396  0.1318  0.4858
 7726SOL     OW34813   2.814   2.557   7.796 -0.3668  0.3809 -0.3917
 7726SOL    HW134814   2.858   2.633   7.758 -0.5714  0.7729  0.1531
 7726SOL    HW234815   2.844   2.483   7.743 -0.4843 -0.7721  1.1437
 7727SOL     OW34816   2.650   0.238  11.719 -0.3626 -0.4565  0.4268
 7727SOL    HW134817   2.675   0.153  11.683  0.1807  0.8266 -2.2281
 7727SOL    HW234818   2.730   0.264  11.764 -0.2353  1.7608 -1.0908
 7728SOL     OW34819   0.446   3.049   3.464 -0.1222 -0.2345 -1.3398
 7728SOL    HW134820   0.419   2.957   3.473 -0.1114 -0.0072  1.0344
 7728SOL    HW234821   0.381   3.069   3.397  0.4742 -0.0847 -1.8610
 7729SOL     OW34822   3.784   3.315   3.997 -0.3411 -0.0570  0.0325
 7729SOL    HW134823   3.740   3.400   3.997 -1.1921 -0.5177  3.1684
 7729SOL    HW234824   3.709   3.259   4.012 -0.5219  1.3192  4.2238
 7730SOL     OW34825   3.505   4.057   6.878 -0.2967  0.0642  0.4875
 7730SOL    HW134826   3.483   4.072   6.786 -2.4760  1.2349  1.1939
 7730SOL    HW234827   3.422   4.096   6.905  0.7741  0.9650  2.4980
 7731SOL     OW34828   1.379   0.602   7.725  0.5544  0.1646 -0.1464
 7731SOL    HW134829   1.342   0.625   7.810  0.8306 -1.2042  0.3426
 7731SOL    HW234830   1.448   0.542   7.753  0.8055  0.7612  0.5336
 7732SOL     OW34831   2.460   0.337  11.932 -0.1099 -0.0632 -0.6522
 7732SOL    HW134832   2.454   0.245  11.959  0.9595 -0.0691 -0.4188
 7732SOL    HW234833   2.514   0.337  11.853  0.0917 -0.0011 -0.5172
 7733SOL     OW34834   4.228   1.332   8.160  0.2617 -0.1376  0.2870
 7733SOL    HW134835   4.286   1.382   8.103 -1.0078  0.5571 -0.3857
 7733SOL    HW234836   4.180   1.277   8.099  2.0046 -0.6623 -0.6105
 7734SOL     OW34837   3.258   3.671   2.232  0.3895 -0.3513  0.3166
 7734SOL    HW134838   3.351   3.672   2.210  0.5693 -0.0488  1.0719
 7734SOL    HW234839   3.251   3.585   2.274  0.0318 -0.6661 -0.3902
 7735SOL     OW34840   4.359   1.653   2.300 -0.3710  0.1420 -0.2799
 7735SOL    HW134841   4.401   1.699   2.374 -0.0240 -0.4199 -0.1255
 7735SOL    HW234842   4.305   1.586   2.341  1.9885 -2.0229 -0.6735
 7736SOL     OW34843   1.787   3.301   3.819 -0.0171  0.2073  0.4583
 7736SOL    HW134844   1.694   3.311   3.801 -0.3799  1.0435  2.7524
 7736SOL    HW234845   1.783   3.295   3.914  1.5576 -0.8825  0.4541
 7737SOL     OW34846   3.887   0.620   3.936 -0.1113  0.9967 -0.6798
 7737SOL    HW134847   3.819   0.576   3.987  1.2417 -0.2251  0.0834
 7737SOL    HW234848   3.965   0.600   3.988 -0.0886  0.7868 -0.7934
 7738SOL     OW34849   2.919   3.233  15.161 -0.0608  0.0329 -0.1906
 7738SOL    HW134850   2.824   3.227  15.173 -0.3023 -0.1521 -2.1561
 7738SOL    HW234851   2.961   3.235  15.247  1.4781 -1.1923 -0.9173
 7739SOL     OW34852   2.923   3.405   3.408 -0.7771  0.0931 -0.3595
 7739SOL    HW134853   3.004   3.376   3.366 -1.7941 -0.3162 -2.0497
 7739SOL    HW234854   2.861   3.381   3.339 -1.4216  2.7786 -0.6823
 7740SOL     OW34855   0.538   4.457   8.467  0.1567  0.2701  0.3890
 7740SOL    HW134856   0.569   4.370   8.442 -2.4092 -0.3667 -0.6232
 7740SOL    HW234857   0.454   4.455   8.421  0.7309  1.6763 -0.7175
 7741SOL     OW34858   0.706   2.209   0.253 -0.1308 -0.1650  0.3974
 7741SOL    HW134859   0.724   2.250   0.168  1.6418 -1.6005  0.1115
 7741SOL    HW234860   0.720   2.288   0.306  0.5818  0.1624 -0.2717
 7742SOL     OW34861   0.185   0.420   7.659 -0.3906  0.9035 -0.1139
 7742SOL    HW134862   0.195   0.472   7.739  0.1066  0.2212  0.2733
 7742SOL    HW234863   0.138   0.344   7.694 -2.1642  2.5046  1.0123
 7743SOL     OW34864   0.122   2.800   3.410 -0.5163 -0.0504  0.2338
 7743SOL    HW134865   0.154   2.810   3.321  1.4128  3.7698  1.3733
 7743SOL    HW234866   0.070   2.880   3.418  0.1798  0.3610  0.6771
 7744SOL     OW34867   4.224   0.439   1.470 -0.1079  0.3036  0.1824
 7744SOL    HW134868   4.261   0.429   1.382 -1.2611 -4.2199  0.2277
 7744SOL    HW234869   4.294   0.399   1.522 -0.8046  0.1761  1.0148
 7745SOL     OW34870   1.380   4.056   3.589 -0.1335  0.2943 -0.2713
 7745SOL    HW134871   1.357   3.970   3.554 -0.7992 -0.1701  1.2857
 7745SOL    HW234872   1.438   4.089   3.521  2.3767 -2.7900  0.3621
 7746SOL     OW34873   1.598   1.178   2.651 -0.4384 -0.3458  0.0939
 7746SOL    HW134874   1.584   1.101   2.597  0.4949  0.0185 -0.6621
 7746SOL    HW234875   1.514   1.221   2.634  0.4205  0.7430 -1.3733
 7747SOL     OW34876   2.310   4.230  16.892 -0.0434 -0.4683 -0.5239
 7747SOL    HW134877   2.387   4.244  16.836  1.5938 -3.0543  1.0880
 7747SOL    HW234878   2.311   4.307  16.949  2.5327 -0.8430 -0.0623
 7748SOL     OW34879   0.851   4.274  11.702 -0.9836  0.0401  0.1127
 7748SOL    HW134880   0.922   4.223  11.740 -1.1216 -0.7898 -0.7278
 7748SOL    HW234881   0.888   4.354  11.664 -1.5055 -0.9066 -2.4258
 7749SOL     OW34882   2.873   3.540   2.461  0.0618 -0.4836 -0.6908
 7749SOL    HW134883   2.839   3.455   2.436 -2.4595  1.0034 -2.2846
 7749SOL    HW234884   2.932   3.560   2.388  0.9765  0.0641  0.1846
 7750SOL     OW34885   1.893   2.539   9.855  0.3712 -0.1847 -0.8081
 7750SOL    HW134886   1.907   2.463   9.798 -1.7632 -0.6211 -0.7481
 7750SOL    HW234887   1.863   2.491   9.932  0.0985  2.5107  0.7541
 7751SOL     OW34888   4.413   1.202   8.714  0.5105 -0.2975 -0.2502
 7751SOL    HW134889   4.359   1.180   8.790 -0.0426 -0.9055 -0.8247
 7751SOL    HW234890   4.471   1.268   8.751 -0.0017 -0.5361  0.9837
 7752SOL     OW34891   1.682   0.605   6.475  0.1724  0.6278  0.0771
 7752SOL    HW134892   1.648   0.695   6.477 -0.2696  0.4838 -1.6589
 7752SOL    HW234893   1.603   0.552   6.477  1.2266 -0.9349 -0.0246
 7753SOL     OW34894   2.269   1.534  16.866 -0.0173 -0.1272 -0.4225
 7753SOL    HW134895   2.276   1.477  16.943  0.7121 -0.1804 -0.5320
 7753SOL    HW234896   2.173   1.529  16.858 -0.1731  1.7507  0.2378
 7754SOL     OW34897   0.650   1.813   8.095 -0.1669  0.0721 -0.4437
 7754SOL    HW134898   0.608   1.877   8.153  2.8660  0.9097  0.8235
 7754SOL    HW234899   0.613   1.731   8.128  3.1297 -0.5485  1.6737
 7755SOL     OW34900   3.096   3.233   9.122  0.4925  0.1649  0.1860
 7755SOL    HW134901   3.157   3.281   9.178  1.2051  1.8899 -2.0467
 7755SOL    HW234902   3.017   3.287   9.128  0.6614  0.1677  2.3691
 7756SOL     OW34903   2.827   1.551  10.727  0.3322  0.2501 -0.5324
 7756SOL    HW134904   2.735   1.527  10.712  0.2140 -0.5517  1.4425
 7756SOL    HW234905   2.864   1.465  10.749 -0.1160 -0.9537 -4.5510
 7757SOL     OW34906   3.407   1.585  17.736 -0.2662 -0.0664 -0.3458
 7757SOL    HW134907   3.317   1.558   0.004 -0.6149  1.2042 -0.1545
 7757SOL    HW234908   3.395   1.618  17.648  1.3157 -1.0342 -0.9222
 7758SOL     OW34909   3.191   0.194   3.612 -0.3885 -0.0884 -0.0807
 7758SOL    HW134910   3.103   0.200   3.650  0.2728  0.8259  1.2852
 7758SOL    HW234911   3.192   0.098   3.612 -0.4783 -0.0888  0.3403
 7759SOL     OW34912   0.216   3.142   3.342  0.1299  0.2841  0.2947
 7759SOL    HW134913   0.141   3.142   3.282  1.1629  2.7866 -1.0262
 7759SOL    HW234914   0.260   3.224   3.317 -0.4129 -0.5668 -3.4509
 7760SOL     OW34915   4.635   1.717   5.501 -0.1907  0.5719 -0.2235
 7760SOL    HW134916   4.596   1.630   5.504 -0.4560  0.6796 -0.5697
 7760SOL    HW234917   4.723   1.685   5.480 -0.4499 -0.3326  0.0993
 7761SOL     OW34918   4.049   2.501  13.161 -0.3233  0.6057  0.7749
 7761SOL    HW134919   4.073   2.458  13.079  0.8615  0.9535  0.9391
 7761SOL    HW234920   4.111   2.450  13.213 -1.1461 -0.3334  0.8313
 7762SOL     OW34921   4.042   2.202   7.686  0.3279  0.2808  0.5264
 7762SOL    HW134922   3.993   2.238   7.759  1.5994  1.5758  0.7288
 7762SOL    HW234923   4.048   2.119   7.733 -1.0727  0.1836  0.5333
 7763SOL     OW34924   3.071   1.727   7.910 -0.7081 -0.5583  0.2557
 7763SOL    HW134925   3.036   1.770   7.832 -0.0099  0.4377  0.4923
 7763SOL    HW234926   3.044   1.783   7.983  0.2811 -0.2939  0.4163
 7764SOL     OW34927   1.425   1.711   8.048 -0.0444 -0.6720 -0.0391
 7764SOL    HW134928   1.470   1.663   8.117 -0.4645 -0.9007  0.0744
 7764SOL    HW234929   1.429   1.801   8.080  1.9864 -1.2584  1.2960
 7765SOL     OW34930   4.359   2.006   9.696 -0.0576 -0.1346  0.2817
 7765SOL    HW134931   4.278   2.005   9.746  0.3284  0.2191  0.9178
 7765SOL    HW234932   4.388   1.915   9.691  1.0829  0.2830 -0.8985
 7766SOL     OW34933   0.830   3.945   2.913 -0.0046 -0.2732  0.0970
 7766SOL    HW134934   0.882   3.953   2.992  0.2038 -0.1400 -0.0529
 7766SOL    HW234935   0.763   3.883   2.940  0.6462 -0.8964  0.2748
 7767SOL     OW34936   3.755   3.658   8.459 -0.8135 -0.2582  0.2879
 7767SOL    HW134937   3.826   3.600   8.487  0.6404  0.5463 -1.7021
 7767SOL    HW234938   3.695   3.658   8.533 -0.6320  0.0665  0.4390
 7768SOL     OW34939   3.548   3.372  14.570 -0.0300 -0.1606  0.0091
 7768SOL    HW134940   3.484   3.429  14.525 -0.1855 -0.8921 -0.7000
 7768SOL    HW234941   3.482   3.337  14.630  0.4950 -1.0241  0.0692
 7769SOL     OW34942   4.307   1.955   5.056  0.6329  0.0951  0.2341
 7769SOL    HW134943   4.282   2.015   5.126 -0.1583  0.5339 -0.4272
 7769SOL    HW234944   4.401   1.947   5.070  0.4499  0.1384  1.4968
 7770SOL     OW34945   2.531   1.333   5.576  0.1444 -0.4749 -0.0022
 7770SOL    HW134946   2.463   1.312   5.640  0.4381  0.2896  0.5569
 7770SOL    HW234947   2.571   1.247   5.563 -0.4277 -0.6639 -0.5154
 7771SOL     OW34948   0.867   1.403   0.946  0.0869 -0.2740  0.2455
 7771SOL    HW134949   0.846   1.453   0.868 -1.1985  1.2492  1.5957
 7771SOL    HW234950   0.958   1.431   0.954 -0.3155  1.1665 -0.3987
 7772SOL     OW34951   4.721   0.206   8.616 -0.0340 -0.2840  0.2572
 7772SOL    HW134952   4.632   0.210   8.651  0.5340  0.2299  1.6436
 7772SOL    HW234953   4.707   0.164   8.531  0.8158  0.1138 -0.0789
 7773SOL     OW34954   4.593   1.621   2.972 -0.4200  0.4134  0.1283
 7773SOL    HW134955   4.665   1.576   3.017 -1.0056  1.1095  1.7627
 7773SOL    HW234956   4.534   1.627   3.047  0.0409  4.0498  0.1893
 7774SOL     OW34957   0.476   0.395   0.883  0.4234 -0.1516  0.6826
 7774SOL    HW134958   0.489   0.304   0.859 -2.0468 -0.0880 -0.8014
 7774SOL    HW234959   0.402   0.391   0.944 -0.1218  1.4103  0.1127
 7775SOL     OW34960   2.518   2.616   6.292  0.1424  0.4274  0.2681
 7775SOL    HW134961   2.592   2.596   6.235  0.0592  0.7119  0.0620
 7775SOL    HW234962   2.474   2.531   6.304  1.9526 -0.5770 -0.1918
 7776SOL     OW34963   3.060   1.449   2.098  0.1592 -0.7170  0.1589
 7776SOL    HW134964   3.148   1.420   2.076  0.7900  1.7549 -0.5749
 7776SOL    HW234965   3.058   1.432   2.192  0.0608 -0.4666  0.2003
 7777SOL     OW34966   1.060   2.062  15.368 -0.3170  0.3259  0.3304
 7777SOL    HW134967   1.006   2.110  15.431 -1.2736  0.7555 -0.8122
 7777SOL    HW234968   1.143   2.092  15.405  0.3854 -0.5979 -0.5393
 7778SOL     OW34969   0.122   2.121   5.845 -0.5453  0.6185 -0.4810
 7778SOL    HW134970   0.047   2.158   5.892 -0.8762 -0.2863 -0.3060
 7778SOL    HW234971   0.192   2.186   5.856  0.0265  0.0892 -1.0022
 7779SOL     OW34972   0.924   0.054   7.984 -0.0783 -0.0816 -0.1220
 7779SOL    HW134973   0.937   0.032   7.891 -1.4759 -1.2487 -0.0407
 7779SOL    HW234974   0.965   0.140   7.977  1.0786 -0.4937  1.6353
 7780SOL     OW34975   3.105   2.593  17.644 -0.1445  0.0284  0.1176
 7780SOL    HW134976   3.014   2.619  17.657  0.3087  1.6372  0.0810
 7780SOL    HW234977   3.156   2.674  17.649  1.2686 -0.7954 -0.6867
 7781SOL     OW34978   1.791   0.640  16.137  0.6560 -0.2422 -0.1053
 7781SOL    HW134979   1.780   0.586  16.215  0.0360 -1.3366 -0.9553
 7781SOL    HW234980   1.770   0.727  16.172 -1.9877  0.3752 -3.1819
 7782SOL     OW34981   1.938   2.090   6.492  0.2445 -0.2229  0.7908
 7782SOL    HW134982   2.017   2.107   6.544  0.3886  0.9661  0.1712
 7782SOL    HW234983   1.882   2.048   6.557 -2.2866  3.7602  1.1454
 7783SOL     OW34984   4.199   2.146   3.218 -0.3622 -0.2037  0.1735
 7783SOL    HW134985   4.112   2.111   3.202 -0.8528  1.1206 -0.0572
 7783SOL    HW234986   4.228   2.174   3.131 -1.1469  1.6769  0.5069
 7784SOL     OW34987   4.664   0.969  14.575  0.0811 -0.1034 -0.0769
 7784SOL    HW134988   4.657   0.957  14.481 -2.8784 -0.4996  0.2211
 7784SOL    HW234989   4.656   0.880  14.608  1.9902 -1.2600 -2.7755
 7785SOL     OW34990   0.277   4.647  15.859  0.3450  0.5782 -0.4596
 7785SOL    HW134991   0.331   4.721  15.832  0.2224 -0.1129 -2.5794
 7785SOL    HW234992   0.272   4.597  15.777 -0.9038 -0.9193  0.5360
 7786SOL     OW34993   0.690   3.223   1.929 -0.1075  0.4125 -0.3682
 7786SOL    HW134994   0.692   3.281   2.005  0.3765 -1.8947  1.4055
 7786SOL    HW234995   0.602   3.189   1.942  0.5824 -1.0867  0.3899
 7787SOL     OW34996   1.374   0.251   5.689  0.0379 -0.1157  0.7110
 7787SOL    HW134997   1.452   0.286   5.646 -1.0040  2.1625  0.6817
 7787SOL    HW234998   1.315   0.326   5.702  0.1405  0.1105 -0.1329
 7788SOL     OW34999   0.010   0.597   4.451 -0.9549 -0.0633  0.4240
 7788SOL    HW135000   0.081   0.540   4.479 -0.8084 -0.1721 -0.1776
 7788SOL    HW235001   0.019   0.668   4.514  0.7974 -0.1507  0.2698
 7789SOL     OW35002   2.412   0.422   8.844  0.4756 -0.1014 -0.8004
 7789SOL    HW135003   2.382   0.498   8.894  2.3923 -0.7110  1.2749
 7789SOL    HW235004   2.387   0.455   8.758 -1.7724 -1.4009 -0.6518
 7790SOL     OW35005   0.234   0.676   1.608  0.3561 -0.2130 -0.0462
 7790SOL    HW135006   0.291   0.731   1.663  0.1880  1.5523 -1.6361
 7790SOL    HW235007   0.297   0.623   1.559  0.0014 -0.5132 -0.1695
 7791SOL     OW35008   3.577   1.227   6.839 -0.3441 -0.0060  0.4157
 7791SOL    HW135009   3.555   1.268   6.756  0.7006 -1.4314 -0.5600
 7791SOL    HW235010   3.493   1.184   6.857 -0.6681  0.1035 -0.8054
 7792SOL     OW35011   0.398   1.695   9.083 -0.1053 -1.0610  0.3679
 7792SOL    HW135012   0.429   1.730   9.167 -0.9516  1.9835 -0.5976
 7792SOL    HW235013   0.399   1.777   9.033  0.7764 -2.5315 -2.0140
 7793SOL     OW35014   1.088   1.806  11.648 -0.2533 -0.5678 -0.2633
 7793SOL    HW135015   1.177   1.774  11.637  0.7759  2.2416 -0.0833
 7793SOL    HW235016   1.053   1.741  11.709 -1.4539  0.1708 -0.1461
 7794SOL     OW35017   3.373   1.958   1.642  0.5507 -0.0795 -0.3783
 7794SOL    HW135018   3.317   2.020   1.596 -0.0234  0.4554  1.0329
 7794SOL    HW235019   3.415   1.910   1.570 -1.2250 -0.9813 -0.8249
 7795SOL     OW35020   3.826   1.299   6.148 -0.5612 -0.5805  0.6547
 7795SOL    HW135021   3.906   1.252   6.173 -0.4623 -1.3596 -1.1942
 7795SOL    HW235022   3.847   1.319   6.057 -0.7642  0.8173  0.9139
 7796SOL     OW35023   2.222   2.333   9.580  0.1003  0.4131  0.0703
 7796SOL    HW135024   2.270   2.359   9.501 -0.5224 -2.1345 -1.1596
 7796SOL    HW235025   2.246   2.410   9.631 -0.6272  0.3045  0.5792
 7797SOL     OW35026   3.130   2.092   1.912 -0.3487 -0.2331 -0.3229
 7797SOL    HW135027   3.124   1.999   1.936  3.5194 -0.7594 -1.4094
 7797SOL    HW235028   3.135   2.127   2.001 -0.1133 -0.1074 -0.3870
 7798SOL     OW35029   3.752   4.118   5.396 -0.1620  0.5224 -0.4280
 7798SOL    HW135030   3.666   4.128   5.437 -0.7523  0.8958 -1.7550
 7798SOL    HW235031   3.782   4.209   5.407 -3.2041  1.4728  0.0448
 7799SOL     OW35032   0.107   0.851   3.736 -0.5944 -0.1199  0.3883
 7799SOL    HW135033   0.073   0.874   3.650  1.6847  2.1941  0.1102
 7799SOL    HW235034   0.201   0.850   3.719 -0.3936  3.1158  1.3663
 7800SOL     OW35035   0.657   2.938   1.920 -0.7693  0.1764 -0.2829
 7800SOL    HW135036   0.741   2.983   1.913 -0.4852 -0.0815  1.4825
 7800SOL    HW235037   0.683   2.873   1.986  0.5108  0.2310 -0.7283
 7801SOL     OW35038   3.458   1.867   1.390 -0.3352 -0.5480  0.4564
 7801SOL    HW135039   3.505   1.796   1.347  1.0312  0.0392  0.9910
 7801SOL    HW235040   3.390   1.874   1.323  1.2721  2.0883 -0.8793
 7802SOL     OW35041   4.701   4.239   3.908 -0.4010  0.6763 -0.6038
 7802SOL    HW135042   4.638   4.291   3.857 -0.4695  2.7222  1.5647
 7802SOL    HW235043   4.640   4.195   3.967  1.0718  1.4205  1.4728
 7803SOL     OW35044   4.109   4.072   5.648 -0.2762  0.2585 -0.2413
 7803SOL    HW135045   4.076   4.020   5.575  1.7509  1.8667 -2.3332
 7803SOL    HW235046   4.078   4.023   5.723  2.1600 -1.3905 -0.3382
 7804SOL     OW35047   0.761   2.452   0.349  0.4753  0.3291 -0.2168
 7804SOL    HW135048   0.828   2.516   0.372  1.3134 -1.0285  1.1226
 7804SOL    HW235049   0.724   2.509   0.282 -1.2509 -0.0459  0.4250
 7805SOL     OW35050   1.868   3.820  13.752 -0.2798 -0.4865 -0.5670
 7805SOL    HW135051   1.792   3.765  13.766 -0.5941 -0.1171 -0.8294
 7805SOL    HW235052   1.837   3.871  13.677  0.2078  0.6702  0.0119
 7806SOL     OW35053   2.898   3.573  16.305  0.0793  0.0638 -0.1563
 7806SOL    HW135054   2.823   3.552  16.362 -1.0098 -0.7485 -1.9005
 7806SOL    HW235055   2.904   3.667  16.319  1.0767  0.1262 -1.0611
 7807SOL     OW35056   0.453   4.250   7.395  0.4928 -0.5335 -0.1012
 7807SOL    HW135057   0.446   4.219   7.305 -3.0545 -0.0714  0.0198
 7807SOL    HW235058   0.370   4.298   7.400  1.2137  0.7049 -0.0117
 7808SOL     OW35059   1.313   0.394   6.283  0.2811 -0.2731  0.6309
 7808SOL    HW135060   1.298   0.308   6.322 -0.4368  0.2491  1.5008
 7808SOL    HW235061   1.329   0.446   6.362  1.1609  0.5316 -0.0678
 7809SOL     OW35062   0.408   0.337   6.043 -0.1377  0.2307  0.3965
 7809SOL    HW135063   0.457   0.407   6.086 -0.6262 -0.1226  1.5457
 7809SOL    HW235064   0.432   0.357   5.953 -0.4971  0.1163  0.2762
 7810SOL     OW35065   0.690   3.562   2.696 -0.0977 -0.3424 -0.4181
 7810SOL    HW135066   0.663   3.549   2.787 -1.1685  0.8174 -0.5574
 7810SOL    HW235067   0.692   3.480   2.648  2.9918 -1.2531  1.2665
 7811SOL     OW35068   2.187   4.517   7.896 -0.2100 -0.2534  0.0879
 7811SOL    HW135069   2.204   4.559   7.980 -0.1006 -0.5005  0.1882
 7811SOL    HW235070   2.247   4.444   7.905 -1.6190 -1.5073 -0.7634
 7812SOL     OW35071   2.801   1.146  11.706 -0.1553  0.0696 -0.2533
 7812SOL    HW135072   2.824   1.199  11.630  0.1795 -0.8550 -0.7941
 7812SOL    HW235073   2.736   1.089  11.666  1.8062  0.4946 -3.9861
 7813SOL     OW35074   2.801   4.691   6.949 -0.2059 -0.3698  1.0075
 7813SOL    HW135075   2.874   0.006   6.982  0.3229 -1.6076  1.7838
 7813SOL    HW235076   2.728   0.011   6.973  0.5563  0.4310  1.4490
 7814SOL     OW35077   1.677   2.038   1.788  0.0067  0.3309 -0.1390
 7814SOL    HW135078   1.652   1.967   1.728 -0.7451  1.1981 -0.8520
 7814SOL    HW235079   1.758   2.080   1.759  1.5105 -2.5919 -0.1640
 7815SOL     OW35080   0.558   3.619   4.030 -0.5404 -0.2457  0.0907
 7815SOL    HW135081   0.502   3.683   3.987 -1.3137 -1.7812 -1.2012
 7815SOL    HW235082   0.637   3.668   4.052 -1.7415  1.5439  0.4170
 7816SOL     OW35083   1.555   1.943  11.866 -0.6074  1.0600 -0.5128
 7816SOL    HW135084   1.587   1.985  11.946  0.0132 -0.2408 -0.0891
 7816SOL    HW235085   1.635   1.927  11.816  0.2629 -1.6267  1.7708
 7817SOL     OW35086   2.270   1.349   2.665  0.1428  0.3621  0.2009
 7817SOL    HW135087   2.261   1.419   2.600  0.9406  1.6853  1.5160
 7817SOL    HW235088   2.199   1.360   2.729  1.0638  1.9838  0.9404
 7818SOL     OW35089   0.575   0.755   9.136 -0.2893 -0.1307 -0.4567
 7818SOL    HW135090   0.541   0.667   9.119 -1.8470  0.4258 -0.2465
 7818SOL    HW235091   0.662   0.748   9.098  0.0946  0.5295  0.2945
 7819SOL     OW35092   1.186   0.985  13.858 -0.1854 -0.1396 -0.3385
 7819SOL    HW135093   1.241   1.062  13.868 -0.8232  0.3657 -0.6873
 7819SOL    HW235094   1.124   1.022  13.794 -0.0644  1.8671  0.7216
 7820SOL     OW35095   0.324   3.873   4.678  0.6798 -0.1041  0.0182
 7820SOL    HW135096   0.338   3.835   4.591 -0.1427 -0.2758 -0.0389
 7820SOL    HW235097   0.417   3.879   4.702  1.2375  0.5550 -2.2653
 7821SOL     OW35098   0.699   1.685   0.400  0.2615 -0.2235 -0.1244
 7821SOL    HW135099   0.698   1.771   0.443  2.2557  0.3835 -1.2875
 7821SOL    HW235100   0.614   1.657   0.434  0.1587 -1.2849 -1.2611
 7822SOL     OW35101   3.116   4.244  12.539 -0.4320 -0.4912 -0.0049
 7822SOL    HW135102   3.168   4.318  12.507  0.4198 -1.0181  0.1494
 7822SOL    HW235103   3.164   4.172  12.500  1.8404  1.5580 -0.9954
 7823SOL     OW35104   3.323   1.908   1.159  0.8233 -0.2314 -0.3396
 7823SOL    HW135105   3.335   1.833   1.100 -0.5000 -2.5443  2.3514
 7823SOL    HW235106   3.368   1.983   1.120  2.0462  0.0496  1.6785
 7824SOL     OW35107   1.884   3.872   6.356  0.0137  0.4387  0.1241
 7824SOL    HW135108   1.804   3.903   6.315 -1.0541  0.2994  2.1103
 7824SOL    HW235109   1.906   3.800   6.296 -3.5529 -0.4995 -0.0621
 7825SOL     OW35110   3.738   0.747   0.858  0.1897  0.1919  0.0800
 7825SOL    HW135111   3.650   0.709   0.855  0.4081 -0.1596 -1.7600
 7825SOL    HW235112   3.717   0.833   0.894 -0.9339 -0.7284  1.6568
 7826SOL     OW35113   1.865   4.316   5.344 -0.2889  0.9485  0.0923
 7826SOL    HW135114   1.842   4.296   5.253 -2.7533  1.2998  0.6376
 7826SOL    HW235115   1.937   4.261   5.372 -0.1755  0.7163 -0.6597
 7827SOL     OW35116   0.418   0.278   8.233 -0.1273  0.2315  0.4330
 7827SOL    HW135117   0.494   0.245   8.184 -0.8880 -0.9556  0.0439
 7827SOL    HW235118   0.426   0.238   8.320 -0.8599 -1.8456 -0.4444
 7828SOL     OW35119   3.045   0.328   7.546 -0.1578 -0.1622  0.0184
 7828SOL    HW135120   2.976   0.389   7.571  1.2426  0.9943  1.0726
 7828SOL    HW235121   3.014   0.242   7.575  0.5348 -1.0845 -2.0416
 7829SOL     OW35122   0.462   0.504   5.201  0.1981  0.5389  0.0689
 7829SOL    HW135123   0.516   0.582   5.211 -0.2459  0.7740  0.5933
 7829SOL    HW235124   0.516   0.440   5.249  0.9816  1.1410  0.0010
 7830SOL     OW35125   0.007   2.601   6.407  0.2063  0.2264 -0.3212
 7830SOL    HW135126   4.649   2.601   6.393  0.1880 -1.5311 -0.2185
 7830SOL    HW235127   0.015   2.687   6.448 -1.8558 -0.8782  2.4226
 7831SOL     OW35128   3.543   2.123  15.212 -0.1391  0.4779  0.1338
 7831SOL    HW135129   3.487   2.200  15.213 -1.3799 -0.4039 -1.1710
 7831SOL    HW235130   3.626   2.154  15.250 -0.3630 -0.1181  1.0948
 7832SOL     OW35131   2.858   3.256  11.801 -0.6450  0.2009 -0.0989
 7832SOL    HW135132   2.779   3.294  11.840 -0.2234  0.8853  0.0695
 7832SOL    HW235133   2.905   3.334  11.772 -0.3865 -0.3040 -1.0328
 7833SOL     OW35134   3.103   1.045  12.223 -0.0735  0.1814  0.1740
 7833SOL    HW135135   3.043   1.018  12.292 -0.9171 -0.9586 -0.9807
 7833SOL    HW235136   3.178   0.987  12.232  1.5046  2.5447  2.0690
 7834SOL     OW35137   1.948   2.264   6.986 -0.2875  0.5729 -0.2293
 7834SOL    HW135138   2.024   2.268   6.927 -0.3613  0.9646 -0.2990
 7834SOL    HW235139   1.885   2.237   6.920 -2.4755  2.2425  1.1999
 7835SOL     OW35140   4.598   1.499   2.402 -0.3687  0.1108  0.1798
 7835SOL    HW135141   4.669   1.472   2.460 -0.6914  1.8595  1.3742
 7835SOL    HW235142   4.576   1.586   2.433  0.1852 -0.4144  2.0154
 7836SOL     OW35143   4.170   2.248   7.211  0.0692 -0.4924 -0.1989
 7836SOL    HW135144   4.124   2.287   7.285 -1.6376  1.4068 -2.2566
 7836SOL    HW235145   4.092   2.238   7.157 -0.9687  1.8544  0.8686
 7837SOL     OW35146   2.379   1.346   6.543 -0.2050  0.0059  0.0365
 7837SOL    HW135147   2.406   1.299   6.622  1.0988  0.8720  0.1067
 7837SOL    HW235148   2.466   1.385   6.534 -0.2444 -0.1851 -1.0759
 7838SOL     OW35149   3.027   0.544   1.239 -0.7071  0.6727 -0.1557
 7838SOL    HW135150   3.007   0.551   1.332  1.5362  0.1899  0.3586
 7838SOL    HW235151   3.036   0.639   1.239  1.2066  0.5163 -2.9745
 7839SOL     OW35152   2.604   2.262   3.878 -0.1688 -0.7579 -0.1818
 7839SOL    HW135153   2.600   2.347   3.921 -1.2654 -1.1570  0.5307
 7839SOL    HW235154   2.691   2.225   3.893  0.2343  0.7425  1.1396
 7840SOL     OW35155   4.329   3.277   4.655  0.0738  0.0160  0.9349
 7840SOL    HW135156   4.249   3.270   4.602 -0.3588  0.8163  1.4863
 7840SOL    HW235157   4.341   3.187   4.685  0.0830 -0.3092 -0.0319
 7841SOL     OW35158   1.783   1.654   4.640  0.6163  0.2970  0.0953
 7841SOL    HW135159   1.860   1.602   4.616  0.7094 -0.2040  1.4827
 7841SOL    HW235160   1.770   1.617   4.727 -1.9386  3.1215  0.9209
 7842SOL     OW35161   2.133   2.446   7.496 -1.0614 -0.2862  0.0958
 7842SOL    HW135162   2.208   2.505   7.485 -1.2733 -0.0684 -0.1752
 7842SOL    HW235163   2.063   2.495   7.453  0.2786 -0.1547 -1.9285
 7843SOL     OW35164   2.232   2.391   6.869  0.2392 -0.7552  0.1701
 7843SOL    HW135165   2.265   2.453   6.803  0.2972 -0.6061  0.3403
 7843SOL    HW235166   2.231   2.454   6.941  0.8792 -1.1682  0.5341
 7844SOL     OW35167   1.391   2.382   3.215 -0.5105  0.0468  0.2319
 7844SOL    HW135168   1.295   2.384   3.216 -0.5206 -0.4848  0.0639
 7844SOL    HW235169   1.410   2.328   3.139 -1.3075 -1.1192  0.8659
 7845SOL     OW35170   4.603   1.427   0.390  0.2042 -0.6037  0.3447
 7845SOL    HW135171   4.673   1.485   0.360  0.5102  0.7702  3.6223
 7845SOL    HW235172   4.529   1.461   0.339  1.6545 -0.7170 -1.8243
 7846SOL     OW35173   4.693   3.912   6.277 -0.2442 -0.1447 -0.0576
 7846SOL    HW135174   4.720   3.905   6.369 -1.9804  0.0417  0.4664
 7846SOL    HW235175   4.726   3.826   6.252  0.3624 -0.6021  2.3008
 7847SOL     OW35176   0.393   0.781   4.423 -0.0528  0.2839 -0.0941
 7847SOL    HW135177   0.454   0.840   4.380 -2.8667  3.0706 -0.2451
 7847SOL    HW235178   0.326   0.844   4.450  1.1235  1.5857 -0.2300
 7848SOL     OW35179   3.442   1.463   5.773  0.2355  0.3517  0.4495
 7848SOL    HW135180   3.454   1.420   5.857  0.5935 -1.0575 -0.3257
 7848SOL    HW235181   3.412   1.551   5.794 -1.3919 -0.1940  0.3919
 7849SOL     OW35182   3.895   4.373   6.412 -0.0296  0.7395 -0.2225
 7849SOL    HW135183   3.824   4.309   6.415 -0.8804  1.6604 -0.7343
 7849SOL    HW235184   3.904   4.400   6.503 -0.4608  0.5189 -0.1129
 7850SOL     OW35185   0.923   2.412   4.116  0.0391  0.0322  0.1769
 7850SOL    HW135186   0.900   2.335   4.064 -2.8289  0.0817  1.4008
 7850SOL    HW235187   1.017   2.410   4.137  0.1999  2.0987 -0.3401
 7851SOL     OW35188   0.218   2.563   2.605 -0.1823 -0.2805  0.2049
 7851SOL    HW135189   0.267   2.543   2.684 -0.1558 -1.8741 -0.2041
 7851SOL    HW235190   0.136   2.527   2.638  0.9278 -2.5771  0.5014
 7852SOL     OW35191   3.159   0.423   7.279  0.3254 -0.0550  0.1366
 7852SOL    HW135192   3.247   0.389   7.294 -0.1671 -0.2781  2.3939
 7852SOL    HW235193   3.129   0.398   7.366  0.5689 -1.3827 -0.1541
 7853SOL     OW35194   3.977   0.681   0.304  0.1400 -0.1579 -0.3817
 7853SOL    HW135195   3.992   0.587   0.294 -0.0265 -0.3413  1.0369
 7853SOL    HW235196   4.018   0.693   0.389  1.2491  1.4951 -1.1604
 7854SOL     OW35197   3.703   3.319  17.625 -0.1547 -0.2710  0.2154
 7854SOL    HW135198   3.684   3.346  17.536  1.9229 -1.7917 -0.6767
 7854SOL    HW235199   3.792   3.291  17.606 -0.5621 -0.3486 -1.5464
 7855SOL     OW35200   2.267   0.622  12.741 -0.1912 -0.3608 -0.7800
 7855SOL    HW135201   2.181   0.624  12.783 -0.3016 -0.8830 -0.9866
 7855SOL    HW235202   2.238   0.601  12.652  0.1035  1.3255 -1.2772
 7856SOL     OW35203   0.356   0.345   7.945  0.1677  0.3872  0.1868
 7856SOL    HW135204   0.329   0.265   7.899 -0.2968 -1.1700  3.1362
 7856SOL    HW235205   0.377   0.314   8.033  0.6979 -0.1317 -0.1199
 7857SOL     OW35206   3.930   3.903   3.331  0.0172 -0.2242  0.0489
 7857SOL    HW135207   3.855   3.850   3.304  1.0797 -0.5364 -2.3146
 7857SOL    HW235208   3.952   3.858   3.413 -0.7673 -0.2818  0.2253
 7858SOL     OW35209   2.512   3.556   6.502  0.3172  0.5015  0.0110
 7858SOL    HW135210   2.594   3.525   6.540  0.6111  0.3471 -0.7364
 7858SOL    HW235211   2.526   3.549   6.407  0.8238 -0.0378  0.1278
 7859SOL     OW35212   1.288   2.107   6.958 -0.4647 -0.8797 -0.2107
 7859SOL    HW135213   1.302   2.183   6.901 -0.9281 -2.4424 -2.3997
 7859SOL    HW235214   1.291   2.160   7.037 -1.9255  1.1774 -1.5202
 7860SOL     OW35215   2.686   1.528   4.096  0.0389  0.0675 -0.3909
 7860SOL    HW135216   2.649   1.483   4.020  1.0937  0.5441 -1.1984
 7860SOL    HW235217   2.646   1.485   4.171 -0.2110 -1.1221 -1.2012
 7861SOL     OW35218   1.149   0.952   2.031 -0.0199 -0.6098 -0.1106
 7861SOL    HW135219   1.206   0.960   1.954 -0.7557 -0.8242 -0.6807
 7861SOL    HW235220   1.114   0.863   2.019 -0.7226 -0.4140  0.5453
 7862SOL     OW35221   1.146   4.493   1.974 -0.4487 -0.1739 -0.0163
 7862SOL    HW135222   1.051   4.503   1.978 -0.3006  1.2997  0.1508
 7862SOL    HW235223   1.163   4.399   1.974 -1.5423 -0.3658  0.2002
 7863SOL     OW35224   4.660   4.235   2.756  0.2352  0.2197 -0.0386
 7863SOL    HW135225   0.012   4.222   2.725 -0.6363  0.8407 -2.8007
 7863SOL    HW235226   4.661   4.178   2.833  0.4573  2.2039  1.4057
 7864SOL     OW35227   2.193   3.405  12.622  0.3263  0.2133  0.0066
 7864SOL    HW135228   2.151   3.328  12.659  0.1810  0.0011 -0.6052
 7864SOL    HW235229   2.236   3.362  12.548  1.6072  0.0371  0.8653
 7865SOL     OW35230   0.078   2.496  17.084  0.2928 -0.1842 -0.1947
 7865SOL    HW135231   0.039   2.519  16.999  0.5421 -1.2893 -0.6065
 7865SOL    HW235232   0.002   2.454  17.124 -0.1736  1.2564  0.4642
 7866SOL     OW35233   3.985   4.212   4.253 -0.2598 -0.8985  0.2327
 7866SOL    HW135234   3.970   4.266   4.330 -1.0055  2.7222 -2.4080
 7866SOL    HW235235   4.032   4.276   4.199 -1.0391  0.2792  0.9564
 7867SOL     OW35236   4.183   4.408   4.142 -0.4416 -0.3945 -0.0473
 7867SOL    HW135237   4.263   4.380   4.188  0.5633  0.2917 -1.3836
 7867SOL    HW235238   4.215   4.427   4.054 -0.9115 -0.6836 -0.2796
 7868SOL     OW35239   1.520   3.060   5.303  0.3520 -0.1546  0.2610
 7868SOL    HW135240   1.545   2.967   5.302 -1.0110 -0.5168 -1.1584
 7868SOL    HW235241   1.607   3.096   5.290 -0.4340  0.4706 -3.1907
 7869SOL     OW35242   2.592   3.259   5.290 -0.1430  0.3083 -0.2518
 7869SOL    HW135243   2.559   3.170   5.301  0.3301  0.2530  0.7402
 7869SOL    HW235244   2.516   3.307   5.323  0.8089  1.1666  0.7064
 7870SOL     OW35245   4.351   0.534   6.615 -0.0040 -0.3034  0.9477
 7870SOL    HW135246   4.256   0.525   6.609  0.0172 -1.0992  1.6982
 7870SOL    HW235247   4.367   0.442   6.640 -0.4368 -0.6757 -0.1627
 7871SOL     OW35248   0.418   1.271   3.145  0.3170  0.6588  0.1990
 7871SOL    HW135249   0.485   1.339   3.141  1.3157 -0.4275 -2.1014
 7871SOL    HW235250   0.346   1.318   3.187 -0.3230 -0.5353  0.4418
 7872SOL     OW35251   3.949   0.564   5.977 -0.0698  0.0370 -0.0309
 7872SOL    HW135252   3.857   0.573   6.002 -0.4370 -1.8833 -0.6923
 7872SOL    HW235253   3.992   0.642   6.011  0.0066 -0.0879  0.1552
 7873SOL     OW35254   2.201   0.076   8.067 -0.7932 -0.6712 -0.0265
 7873SOL    HW135255   2.295   0.061   8.071 -1.2005 -3.1303  0.4684
 7873SOL    HW235256   2.179   0.160   8.026 -0.1833  0.0015  1.0393
 7874SOL     OW35257   1.281   1.156  10.543 -0.1549 -0.2473 -0.6801
 7874SOL    HW135258   1.211   1.206  10.584  0.5168 -0.1888  0.3786
 7874SOL    HW235259   1.266   1.177  10.451 -1.9069  0.7026 -0.1560
 7875SOL     OW35260   3.967   3.104   3.653 -0.3309  0.3153  0.3225
 7875SOL    HW135261   4.000   3.181   3.700  1.9079 -0.8605  0.7103
 7875SOL    HW235262   3.880   3.088   3.688 -1.1666  0.3060 -1.7860
 7876SOL     OW35263   1.483   0.113   8.303 -0.5833  0.1519 -0.3771
 7876SOL    HW135264   1.411   0.128   8.364 -1.2119  1.5308 -1.4773
 7876SOL    HW235265   1.438   0.126   8.220 -2.4112 -1.7528  0.3048
 7877SOL     OW35266   0.205   3.843   4.101 -0.5723 -0.1137  0.2174
 7877SOL    HW135267   0.215   3.869   4.009 -0.2931 -0.1710  0.2314
 7877SOL    HW235268   0.187   3.749   4.094 -1.3720  0.0711 -0.2361
 7878SOL     OW35269   1.660   0.267   2.847 -0.2510 -0.1004 -0.0592
 7878SOL    HW135270   1.654   0.343   2.905  3.5085  0.4921 -0.4676
 7878SOL    HW235271   1.724   0.302   2.785 -0.5312 -2.5911 -1.7780
 7879SOL     OW35272   3.472   3.389   5.638 -0.0367 -0.4837  0.3446
 7879SOL    HW135273   3.414   3.313   5.630 -1.3024  0.3204  2.0791
 7879SOL    HW235274   3.423   3.458   5.593  2.5968 -1.7037 -4.4438
 7880SOL     OW35275   3.744   2.166   7.435 -0.1765 -0.4655  0.1208
 7880SOL    HW135276   3.777   2.243   7.482 -0.5195  0.7270 -1.5875
 7880SOL    HW235277   3.799   2.094   7.466 -0.3514 -0.0528  1.4036
 7881SOL     OW35278   3.577   3.861   8.207 -0.1292  0.4121  0.4487
 7881SOL    HW135279   3.667   3.828   8.206  0.0539  0.9748 -2.2219
 7881SOL    HW235280   3.595   3.950   8.178 -0.0064 -0.4262 -2.0550
 7882SOL     OW35281   3.047   1.063  11.817 -0.6046 -0.5295  0.6976
 7882SOL    HW135282   3.078   1.113  11.742  1.8254 -1.5040  1.0477
 7882SOL    HW235283   2.955   1.064  11.791 -0.9060 -0.1147  1.8155
 7883SOL     OW35284   2.522   1.703  14.573  0.2114 -0.0537  0.6309
 7883SOL    HW135285   2.497   1.674  14.661  1.2392 -1.0808  0.5865
 7883SOL    HW235286   2.500   1.627  14.520  2.3994  1.3948 -2.3336
 7884SOL     OW35287   3.024   2.603   9.795 -0.2230  0.2338  0.3012
 7884SOL    HW135288   2.938   2.637   9.770  0.0241  0.6121 -0.0333
 7884SOL    HW235289   3.055   2.600   9.704  0.4868  0.9195  0.5206
 7885SOL     OW35290   1.235   2.570  16.115 -0.2770  0.2789  0.0479
 7885SOL    HW135291   1.262   2.560  16.206 -2.1009  0.0507  0.5499
 7885SOL    HW235292   1.246   2.481  16.081 -0.2629  0.6824 -1.0029
 7886SOL     OW35293   2.129   1.811  16.866 -0.1890 -0.0877  0.0960
 7886SOL    HW135294   2.112   1.723  16.832 -1.2878 -0.0535  0.5642
 7886SOL    HW235295   2.042   1.838  16.895 -0.7057 -0.8005 -0.7991
 7887SOL     OW35296   1.907   3.560   7.879  0.1716 -0.2619  0.0383
 7887SOL    HW135297   1.896   3.524   7.791  3.1331 -1.3340  0.1161
 7887SOL    HW235298   1.999   3.585   7.877  0.4096 -1.1921 -0.4656
 7888SOL     OW35299   0.076   0.246  16.211 -0.4659  0.1635  0.1141
 7888SOL    HW135300   0.107   0.209  16.293  0.3945 -0.4335 -0.4718
 7888SOL    HW235301   0.160   0.257  16.166 -1.4776 -0.9060 -2.0338
 7889SOL     OW35302   1.585   4.124   6.412  0.1245 -0.0924  0.0194
 7889SOL    HW135303   1.623   4.211   6.403  4.5156 -1.4962  4.6013
 7889SOL    HW235304   1.503   4.141   6.366  1.1507 -0.3606 -1.8938
 7890SOL     OW35305   0.018   2.784  16.643 -0.5052  1.0247 -0.2948
 7890SOL    HW135306   4.710   2.758  16.724 -0.9560  0.2035 -0.8029
 7890SOL    HW235307   4.682   2.770  16.583 -3.0317  0.2021  2.9244
 7891SOL     OW35308   4.114   0.408   5.122 -0.4690  0.5170 -0.6370
 7891SOL    HW135309   4.199   0.389   5.082 -0.6620 -1.3986 -0.1759
 7891SOL    HW235310   4.127   0.446   5.209 -0.2818 -0.3544 -0.2757
 7892SOL     OW35311   0.519   1.192  11.704  0.1635  0.1971 -0.5878
 7892SOL    HW135312   0.560   1.171  11.619  1.3029 -0.8029  0.2102
 7892SOL    HW235313   0.438   1.235  11.675 -0.6517 -2.0606 -1.6765
 7893SOL     OW35314   3.257   1.947   3.135 -0.0367 -0.0663 -0.3695
 7893SOL    HW135315   3.298   2.033   3.145 -1.4160  0.3850  1.2565
 7893SOL    HW235316   3.198   1.942   3.209 -0.1860  2.5863 -0.3153
 7894SOL     OW35317   2.491   0.982   4.810  0.2217  0.0261 -0.6558
 7894SOL    HW135318   2.489   0.915   4.742  2.4826  0.8587 -1.5139
 7894SOL    HW235319   2.435   1.051   4.773 -0.3318  0.1455  0.3740
 7895SOL     OW35320   4.700   3.410  16.304  0.0769 -0.2053  0.1069
 7895SOL    HW135321   0.052   3.439  16.320  1.3869 -4.1937  0.1282
 7895SOL    HW235322   4.687   3.392  16.397 -4.2292  0.0337 -0.4229
 7896SOL     OW35323   1.277   3.500   5.806  0.3987 -0.5229 -0.6111
 7896SOL    HW135324   1.281   3.591   5.837  0.7650 -0.5994 -0.4299
 7896SOL    HW235325   1.368   3.482   5.781  1.0325  1.2795  0.3618
 7897SOL     OW35326   4.202   4.032  11.796 -0.4043  0.2170 -0.2664
 7897SOL    HW135327   4.272   4.069  11.850  0.2501  0.5254 -1.3363
 7897SOL    HW235328   4.219   4.061  11.707 -0.9350 -0.2835 -0.5331
 7898SOL     OW35329   2.151   3.657   7.475 -0.0597 -0.6203  0.2489
 7898SOL    HW135330   2.240   3.693   7.470 -0.1811 -0.2042  1.2749
 7898SOL    HW235331   2.160   3.580   7.418  2.6056 -1.4252  1.7556
 7899SOL     OW35332   1.701   3.668   2.222 -0.0719 -0.1115  0.2161
 7899SOL    HW135333   1.759   3.592   2.227  0.0551  0.1778  2.9941
 7899SOL    HW235334   1.668   3.663   2.132 -1.5283  3.3683  0.5619
 7900SOL     OW35335   1.374   1.414   2.443 -0.3133 -0.3548  0.4055
 7900SOL    HW135336   1.384   1.344   2.507  1.2593 -0.3398  0.1826
 7900SOL    HW235337   1.318   1.373   2.377 -3.0730  3.8697  0.1169
 7901SOL     OW35338   3.171   0.679   3.641 -0.2509 -0.3584  0.7917
 7901SOL    HW135339   3.094   0.719   3.600  0.6998 -0.8240 -1.4702
 7901SOL    HW235340   3.172   0.603   3.582  0.3756 -0.1265  0.5064
 7902SOL     OW35341   2.773   3.793   9.283  0.7100 -0.0824 -0.0895
 7902SOL    HW135342   2.757   3.698   9.276  0.8999 -0.0718 -0.6520
 7902SOL    HW235343   2.735   3.816   9.368  3.4248 -2.1401  1.6756
 7903SOL     OW35344   2.683   2.015   4.567 -0.3363 -0.0740  0.2874
 7903SOL    HW135345   2.646   2.033   4.653  0.9044 -0.4257  0.8869
 7903SOL    HW235346   2.649   2.092   4.523 -0.4579  0.8304  1.9720
 7904SOL     OW35347   1.087   3.731  12.609  0.2179 -0.6364 -0.2196
 7904SOL    HW135348   1.014   3.754  12.666  1.7087  1.9790  0.6619
 7904SOL    HW235349   1.036   3.683  12.544 -0.1839  0.5449 -0.7768
 7905SOL     OW35350   2.331   3.872   2.174  0.0803 -0.5498 -0.0025
 7905SOL    HW135351   2.266   3.829   2.229  2.4610 -2.2968  1.4393
 7905SOL    HW235352   2.358   3.803   2.114 -0.6707 -1.8935  1.2215
 7906SOL     OW35353   4.514   2.839   2.518 -0.0263 -0.0807 -0.6558
 7906SOL    HW135354   4.561   2.795   2.589 -0.2903 -0.8025 -0.9233
 7906SOL    HW235355   4.453   2.889   2.571  0.6154 -1.0453  0.9778
 7907SOL     OW35356   2.445   2.502   5.869  0.1900 -0.5082 -0.5623
 7907SOL    HW135357   2.502   2.437   5.909 -1.4835 -0.3398  2.0979
 7907SOL    HW235358   2.361   2.460   5.886  0.1400  0.4720  1.6004
 7908SOL     OW35359   0.888   2.574   7.316 -0.0953  0.1841  0.0147
 7908SOL    HW135360   0.835   2.494   7.313 -0.5047  0.4740 -0.5737
 7908SOL    HW235361   0.839   2.631   7.256 -0.3737  0.6570  0.6894
 7909SOL     OW35362   2.107   4.293   2.153  0.3929  0.1537  0.5965
 7909SOL    HW135363   2.134   4.319   2.240 -0.9708  1.5470  0.5953
 7909SOL    HW235364   2.108   4.378   2.109  2.2982  0.1887  0.7267
 7910SOL     OW35365   0.318   3.440   9.252 -0.3366 -0.4790 -0.1927
 7910SOL    HW135366   0.404   3.404   9.232  0.9088  1.9568  0.7895
 7910SOL    HW235367   0.283   3.440   9.163  1.2426  0.6911 -0.8139
 7911SOL     OW35368   0.140   4.691   1.998  0.3332  0.5535 -0.6201
 7911SOL    HW135369   0.164   4.613   1.948 -0.9808  0.4834 -1.1340
 7911SOL    HW235370   0.152   4.665   2.090 -1.7509 -2.2661 -1.1605
 7912SOL     OW35371   4.587   0.431   2.365 -0.2722 -0.1359 -0.1711
 7912SOL    HW135372   4.579   0.358   2.304  0.7024 -1.1191  0.8704
 7912SOL    HW235373   4.677   0.415   2.395  0.0626  2.0202 -0.0164
 7913SOL     OW35374   0.050   1.278   4.855  0.5563  0.3231 -0.1324
 7913SOL    HW135375   0.054   1.307   4.946  0.1480  0.8350 -0.2762
 7913SOL    HW235376   4.700   1.310   4.830  0.1966 -0.1178  0.5430
 7914SOL     OW35377   2.531   3.258   9.859  0.1319  0.2551 -0.1994
 7914SOL    HW135378   2.480   3.287   9.783  0.7235  0.4329 -0.5323
 7914SOL    HW235379   2.523   3.165   9.838  0.9773 -0.2262  1.5362
 7915SOL     OW35380   0.405   3.329   4.740  0.0253  0.0966 -0.2334
 7915SOL    HW135381   0.341   3.379   4.791 -0.8411  0.0349 -1.2764
 7915SOL    HW235382   0.440   3.268   4.805  1.0682  2.3696  1.3092
 7916SOL     OW35383   1.340   1.244  12.097  0.0264 -0.6028 -0.1817
 7916SOL    HW135384   1.315   1.220  12.186 -0.1368  1.6299  0.3787
 7916SOL    HW235385   1.429   1.274  12.115 -0.9923  0.1092  3.5590
 7917SOL     OW35386   3.204   3.191   9.640 -0.2619  0.3668  0.3147
 7917SOL    HW135387   3.290   3.170   9.603  0.9706 -1.9037  4.5193
 7917SOL    HW235388   3.220   3.146   9.723  1.4094  1.0708  0.3892
 7918SOL     OW35389   4.470   4.660   3.919  0.1148  0.3258  0.3461
 7918SOL    HW135390   4.550   4.643   3.969 -0.9815  0.4382  2.1241
 7918SOL    HW235391   4.466   0.018   3.929  2.8667  0.4212  0.5115
 7919SOL     OW35392   3.561   1.161   4.649 -0.3276 -0.1271  0.4346
 7919SOL    HW135393   3.473   1.124   4.659 -0.1747 -1.4501 -3.1300
 7919SOL    HW235394   3.622   1.088   4.658  1.7884  1.7394  0.9927
 7920SOL     OW35395   0.089   4.062   7.836  0.5559  0.1430 -0.0629
 7920SOL    HW135396   0.171   4.048   7.883 -0.0717 -0.8850  0.7099
 7920SOL    HW235397   0.018   4.020   7.885  2.3102 -0.2050  2.1371
 7921SOL     OW35398   1.022   2.601   1.719  0.7985  0.0858 -0.2584
 7921SOL    HW135399   1.013   2.548   1.640 -0.3053  1.5338 -1.1118
 7921SOL    HW235400   0.939   2.648   1.712  0.3015 -0.8722 -0.7724
 7922SOL     OW35401   2.513   3.084   3.477  0.0656  0.1119 -0.2468
 7922SOL    HW135402   2.558   3.165   3.501  2.5614 -1.5873  0.8363
 7922SOL    HW235403   2.563   3.028   3.537 -0.5296  0.2212  0.3502
 7923SOL     OW35404   4.572   1.402   7.693  0.5591 -0.0748  0.5952
 7923SOL    HW135405   4.596   1.391   7.601 -0.2336 -1.0633  0.5091
 7923SOL    HW235406   4.601   1.318   7.730 -0.1534 -0.6791 -0.2288
 7924SOL     OW35407   2.705   2.967   3.254 -0.3356 -0.0640  0.1029
 7924SOL    HW135408   2.660   2.896   3.208 -2.7221  2.4980 -1.5014
 7924SOL    HW235409   2.657   2.955   3.337 -1.9499  1.2335 -0.6529
 7925SOL     OW35410   2.402   0.241   4.848  0.2724 -0.2698  0.1682
 7925SOL    HW135411   2.403   0.336   4.841  1.3868 -0.1164  2.3397
 7925SOL    HW235412   2.318   0.222   4.806  0.4012 -0.2689 -0.0921
 7926SOL     OW35413   0.377   0.773  14.748 -0.1367 -0.0741  0.0640
 7926SOL    HW135414   0.302   0.734  14.703  1.3257 -1.1142 -1.4999
 7926SOL    HW235415   0.407   0.696  14.796  0.3812  0.4500  0.5941
 7927SOL     OW35416   4.388   3.004  14.476 -0.1728 -0.0776  0.2075
 7927SOL    HW135417   4.305   2.999  14.429  1.4118 -2.4172 -2.3766
 7927SOL    HW235418   4.424   3.080  14.430 -1.0222  0.1339 -0.1023
 7928SOL     OW35419   2.254   2.006   0.964  0.4707 -0.4482  0.0241
 7928SOL    HW135420   2.192   2.048   0.904  1.1110  1.3561  0.6403
 7928SOL    HW235421   2.299   2.082   1.000  0.0312 -0.7470  1.2011
 7929SOL     OW35422   3.474   0.444   1.770 -0.0321  0.3716 -0.0944
 7929SOL    HW135423   3.387   0.434   1.730 -0.6139 -0.1032  1.2649
 7929SOL    HW235424   3.463   0.522   1.825  0.2438 -0.8283  1.6587
 7930SOL     OW35425   1.681   3.882   9.105  0.4445 -0.0478 -0.2448
 7930SOL    HW135426   1.623   3.809   9.128 -0.1224  1.2495  2.4064
 7930SOL    HW235427   1.730   3.890   9.188  0.3506  0.9063 -0.2839
 7931SOL     OW35428   3.653   0.821   6.868  1.1085  0.5605 -0.2101
 7931SOL    HW135429   3.666   0.891   6.932 -0.1405 -0.6133  1.3111
 7931SOL    HW235430   3.678   0.861   6.784 -0.6819  3.1902  0.4929
 7932SOL     OW35431   1.856   0.653  16.436  0.1851 -0.4668  0.3683
 7932SOL    HW135432   1.784   0.656  16.499  0.7585 -2.6232  1.1269
 7932SOL    HW235433   1.827   0.732  16.390  1.7374 -0.0249  0.1131
 7933SOL     OW35434   4.098   3.007   0.944  0.1665  0.4440  0.2794
 7933SOL    HW135435   4.161   2.965   0.885  1.2638 -0.0843  1.8132
 7933SOL    HW235436   4.164   3.008   1.014  2.1079 -1.2527 -1.5508
 7934SOL     OW35437   0.132   3.976   2.239  0.3367 -0.5129 -0.3837
 7934SOL    HW135438   0.143   3.889   2.201  1.8652 -1.0063  1.2113
 7934SOL    HW235439   0.083   3.958   2.319  1.2508 -0.6341  0.1505
 7935SOL     OW35440   2.488   3.134   2.523  0.1545  0.0258  0.3377
 7935SOL    HW135441   2.503   3.228   2.525  0.4850  0.0071 -1.3418
 7935SOL    HW235442   2.573   3.090   2.528 -0.1648 -0.4604  1.6363
 7936SOL     OW35443   3.682   1.410   4.897 -0.2310  0.1409  0.1622
 7936SOL    HW135444   3.770   1.442   4.918  0.4499 -1.5359 -0.1277
 7936SOL    HW235445   3.637   1.409   4.981 -4.1438 -0.0145 -1.9229
 7937SOL     OW35446   1.406   1.705   7.740  0.2554  0.2337 -0.0730
 7937SOL    HW135447   1.432   1.723   7.831  1.6303  2.3945 -0.8949
 7937SOL    HW235448   1.368   1.618   7.748 -0.2858  0.5904  1.2745
 7938SOL     OW35449   0.324   3.256   5.970 -0.2229 -0.8466  0.2518
 7938SOL    HW135450   0.334   3.256   6.066  2.1936  0.1365  0.0004
 7938SOL    HW235451   0.296   3.342   5.939  1.6202 -0.5636 -0.6154
 7939SOL     OW35452   4.163   0.162  10.494 -0.0325  0.4898 -0.0278
 7939SOL    HW135453   4.153   0.248  10.535 -1.2645  0.3581 -0.0694
 7939SOL    HW235454   4.211   0.185  10.414 -0.5676 -0.1567 -0.5380
 7940SOL     OW35455   0.588   3.552  14.681 -0.0680  0.0879  0.6183
 7940SOL    HW135456   0.672   3.584  14.716 -0.8056  0.6803  1.8533
 7940SOL    HW235457   0.613   3.461  14.666 -1.5831 -0.1995 -0.2000
 7941SOL     OW35458   1.372   0.823   0.827 -0.6855 -0.2203  0.0252
 7941SOL    HW135459   1.421   0.811   0.908 -0.4544  0.3624 -0.0295
 7941SOL    HW235460   1.313   0.748   0.827  0.1992 -0.8971  1.4862
 7942SOL     OW35461   0.355   1.672   8.723  0.4377  0.2685 -0.1816
 7942SOL    HW135462   0.389   1.676   8.633 -1.8649 -0.1367 -1.0756
 7942SOL    HW235463   0.299   1.750   8.726  1.5476  1.1966 -3.6769
 7943SOL     OW35464   4.373   1.717   5.894  0.0769  0.4598 -0.1228
 7943SOL    HW135465   4.385   1.796   5.947  0.8952 -0.2686  0.7889
 7943SOL    HW235466   4.455   1.678   5.924 -0.8212 -1.1984  0.1824
 7944SOL     OW35467   1.141   1.435   6.584 -0.6465 -0.6392 -0.1373
 7944SOL    HW135468   1.230   1.464   6.604 -0.4944  1.0404 -3.3702
 7944SOL    HW235469   1.134   1.443   6.489 -2.7252  1.2364  0.1910
 7945SOL     OW35470   2.871   4.345  12.620  0.1500  0.7062 -0.3338
 7945SOL    HW135471   2.951   4.298  12.596 -1.1921 -1.3650 -0.6869
 7945SOL    HW235472   2.831   4.380  12.540  1.8662  1.4530 -0.8874
 7946SOL     OW35473   0.820   2.186   3.974 -0.6650 -0.1157 -0.1786
 7946SOL    HW135474   0.782   2.214   3.891  1.2759  0.2166 -0.9545
 7946SOL    HW235475   0.878   2.119   3.938 -0.6521 -0.1264 -0.1387
 7947SOL     OW35476   3.101   2.328   0.742 -0.1259  0.4612  0.0339
 7947SOL    HW135477   3.080   2.394   0.676  0.5196 -0.0822 -0.7210
 7947SOL    HW235478   3.024   2.335   0.798 -0.9566  1.6929 -1.2472
 7948SOL     OW35479   4.723   4.631   8.219  0.4060 -0.3477 -0.7363
 7948SOL    HW135480   0.038   4.589   8.287  0.7159 -1.5587 -1.7364
 7948SOL    HW235481   4.731   4.564   8.152  1.5595 -0.1236 -0.8271
 7949SOL     OW35482   3.731   3.223   8.281  0.4211  0.5340 -0.7263
 7949SOL    HW135483   3.747   3.315   8.264 -0.6887  1.0686  1.1713
 7949SOL    HW235484   3.767   3.224   8.369  0.0295  0.2057 -0.5592
 7950SOL     OW35485   0.610   1.062   8.163  0.3265 -0.0168 -0.3667
 7950SOL    HW135486   0.663   0.995   8.120 -1.2980 -0.9599 -0.8935
 7950SOL    HW235487   0.542   1.069   8.096  1.1966 -1.3522 -1.3833
 7951SOL     OW35488   1.095   1.511   6.309  0.1485  0.2496  0.4148
 7951SOL    HW135489   1.049   1.590   6.337 -1.7089 -0.0461 -1.7586
 7951SOL    HW235490   1.019   1.455   6.292  0.2984  0.8347 -2.1505
 7952SOL     OW35491   1.103   3.874   7.757 -0.3346  0.4209 -0.1857
 7952SOL    HW135492   1.170   3.834   7.813  0.0013  1.4206  0.1262
 7952SOL    HW235493   1.121   3.967   7.771  2.2054  0.1498 -1.6942
 7953SOL     OW35494   1.543   3.508   2.564 -0.0482 -0.3717  0.4067
 7953SOL    HW135495   1.530   3.449   2.639 -0.3540 -2.5147 -1.3012
 7953SOL    HW235496   1.516   3.442   2.499 -1.8812  0.9578 -0.1747
 7954SOL     OW35497   1.519   0.117   6.865  0.5164 -0.2461 -0.7076
 7954SOL    HW135498   1.575   0.067   6.806  0.8080  0.0800 -0.7033
 7954SOL    HW235499   1.574   0.136   6.941 -0.5758 -3.1684  0.8396
 7955SOL     OW35500   3.708   1.896   0.988  0.9929  0.1201 -0.6649
 7955SOL    HW135501   3.676   1.851   0.910  0.0035 -0.3563  0.0146
 7955SOL    HW235502   3.645   1.969   0.992  1.2951  0.1633  3.1466
 7956SOL     OW35503   2.063   1.896   6.264 -0.5328 -0.5518  0.6294
 7956SOL    HW135504   1.988   1.875   6.208 -1.5021 -1.9808  2.4358
 7956SOL    HW235505   2.022   1.961   6.321 -0.8777 -0.2206 -0.0052
 7957SOL     OW35506   0.944   2.413  14.910 -0.3670  0.0172 -0.4506
 7957SOL    HW135507   0.978   2.345  14.852  1.9557  2.3864 -1.9085
 7957SOL    HW235508   0.904   2.482  14.858 -0.2176  0.9760  0.6895
 7958SOL     OW35509   2.520   1.223   2.121  0.4985 -0.3676  0.1582
 7958SOL    HW135510   2.533   1.129   2.111  0.4336 -0.4944  1.2006
 7958SOL    HW235511   2.485   1.233   2.210  0.0507 -2.0713  0.1803
 7959SOL     OW35512   2.639   3.232  15.136 -0.7432 -0.0355  0.6029
 7959SOL    HW135513   2.604   3.260  15.052 -0.4414 -1.4851 -0.0042
 7959SOL    HW235514   2.584   3.155  15.150 -0.7387  0.0443  1.0630
 7960SOL     OW35515   2.250   2.724  15.784  0.1922  0.4224 -0.1941
 7960SOL    HW135516   2.291   2.675  15.855  0.0128  1.5042  0.6566
 7960SOL    HW235517   2.287   2.812  15.781  2.4609 -0.5051  0.2447
 7961SOL     OW35518   3.094   2.616  17.050  0.3251 -0.5867 -0.2768
 7961SOL    HW135519   3.121   2.699  17.090  0.5530 -0.4997 -0.6133
 7961SOL    HW235520   3.113   2.561  17.126  1.0983 -0.5860 -0.4686
 7962SOL     OW35521   3.498   0.661   5.061  0.1160 -0.3088 -0.1259
 7962SOL    HW135522   3.403   0.664   5.057  0.1613 -0.3491 -1.0988
 7962SOL    HW235523   3.523   0.668   4.969  1.7540  0.8850  0.3996
 7963SOL     OW35524   3.416   2.287   1.924  0.4416  0.1812 -0.1285
 7963SOL    HW135525   3.435   2.363   1.979  1.5461 -3.1512  4.1389
 7963SOL    HW235526   3.366   2.321   1.850 -1.0543 -1.5329  0.0868
 7964SOL     OW35527   3.879   1.019   5.653  0.2700  0.2446  0.0940
 7964SOL    HW135528   3.812   1.070   5.607 -0.9018 -1.6922 -0.3449
 7964SOL    HW235529   3.822   0.945   5.672  0.5062 -0.0153 -0.2088
 7965SOL     OW35530   1.466   0.713   7.074 -0.4047  0.7505  0.4662
 7965SOL    HW135531   1.409   0.731   7.149  0.7867  0.2100  1.5194
 7965SOL    HW235532   1.424   0.643   7.023 -0.2888  1.4555 -0.5754
 7966SOL     OW35533   3.391   3.000  14.483 -0.2883  0.2576  0.4037
 7966SOL    HW135534   3.341   3.082  14.478 -0.0000  0.4393  0.5094
 7966SOL    HW235535   3.329   2.928  14.468 -0.7900  0.6115  0.7555
 7967SOL     OW35536   1.221   4.689   4.135 -0.8818 -0.2886 -0.1567
 7967SOL    HW135537   1.130   4.718   4.145 -0.7447 -0.1349  0.6664
 7967SOL    HW235538   1.197   4.598   4.118 -0.5930 -0.0800 -1.6755
 7968SOL     OW35539   0.628   0.906   9.353 -0.2006  0.4105 -0.1280
 7968SOL    HW135540   0.587   0.862   9.278  1.8959 -0.4639 -0.7551
 7968SOL    HW235541   0.717   0.875   9.340  0.5475  2.2463  0.6920
 7969SOL     OW35542   1.110   3.572   9.055 -0.3279 -0.7177 -0.5827
 7969SOL    HW135543   1.184   3.520   9.087  0.6101  0.3597 -0.9885
 7969SOL    HW235544   1.143   3.661   9.042 -0.6155 -0.7629 -1.6687
 7970SOL     OW35545   3.218   2.354   5.533 -0.4370  0.0615  0.5840
 7970SOL    HW135546   3.138   2.337   5.482 -1.1198  1.3915  1.2099
 7970SOL    HW235547   3.205   2.312   5.618  0.1511 -2.7055 -0.6993
 7971SOL     OW35548   3.376   1.730   5.834  0.5834  0.4888 -0.0851
 7971SOL    HW135549   3.333   1.814   5.818 -0.2396 -0.3520 -2.3267
 7971SOL    HW235550   3.462   1.769   5.846 -0.2105  2.1180  0.3667
 7972SOL     OW35551   0.154   1.623  10.776 -0.2749 -0.6800  0.2096
 7972SOL    HW135552   0.123   1.706  10.738  0.6837 -0.9356 -1.1139
 7972SOL    HW235553   0.080   1.608  10.834  0.2716  0.9572  1.3347
 7973SOL     OW35554   1.220   4.250   5.579 -0.0381 -0.2481 -0.9096
 7973SOL    HW135555   1.187   4.166   5.610  2.1429 -1.3236 -1.5021
 7973SOL    HW235556   1.141   4.299   5.560  0.4063  0.2051 -1.5735
 7974SOL     OW35557   4.425   3.932  13.777  0.0966  0.0910  0.1391
 7974SOL    HW135558   4.397   3.841  13.793 -0.2522  0.2674  0.5347
 7974SOL    HW235559   4.340   3.972  13.756 -0.2021 -1.3456 -1.4827
 7975SOL     OW35560   2.540   2.389   8.178 -0.3604  0.8054  0.1811
 7975SOL    HW135561   2.486   2.465   8.200 -1.6270  0.5311 -1.9708
 7975SOL    HW235562   2.524   2.393   8.084  0.9633  1.0836 -0.0279
 7976SOL     OW35563   4.649   0.464  14.960 -0.1160  0.1765 -0.3092
 7976SOL    HW135564   4.701   0.541  14.981  0.2800 -0.0699 -0.3847
 7976SOL    HW235565   4.701   0.403  15.012 -1.2408 -1.7168 -1.3856
 7977SOL     OW35566   0.556   2.197   7.943  0.0763  0.0025  0.4344
 7977SOL    HW135567   0.486   2.236   7.891 -0.4446  1.5717  2.3090
 7977SOL    HW235568   0.509   2.215   8.025 -0.8943 -1.6083  0.2356
 7978SOL     OW35569   0.212   1.400   3.316 -0.1227 -0.2571  0.2683
 7978SOL    HW135570   0.217   1.495   3.310  2.8848 -0.4366 -0.1094
 7978SOL    HW235571   0.257   1.387   3.400  0.0003 -1.9749 -0.0636
 7979SOL     OW35572   2.725   0.217   2.123  0.4152  0.3826  0.3299
 7979SOL    HW135573   2.719   0.304   2.163  3.0770  1.0198 -0.6878
 7979SOL    HW235574   2.637   0.184   2.103  1.2416 -0.9805 -1.0576
 7980SOL     OW35575   4.644   2.525   4.692  0.1323  0.3408  0.2741
 7980SOL    HW135576   4.571   2.498   4.748 -1.1389  1.6513 -0.7488
 7980SOL    HW235577   4.606   2.586   4.629 -2.2545 -0.8298  0.5816
 7981SOL     OW35578   1.645   1.618  13.374  0.1266 -0.1265  0.1698
 7981SOL    HW135579   1.732   1.642  13.340  0.4842  2.8864  3.1839
 7981SOL    HW235580   1.592   1.698  13.372  0.9382  0.3972 -0.4681
 7982SOL     OW35581   3.825   3.633  13.611 -0.0588  0.7051  0.1780
 7982SOL    HW135582   3.744   3.682  13.625 -0.8033 -0.5347  0.1870
 7982SOL    HW235583   3.795   3.545  13.630  0.8010  0.0753 -1.3547
 7983SOL     OW35584   0.341   1.151   6.439 -0.3231  0.5337  0.0164
 7983SOL    HW135585   0.247   1.165   6.425 -0.7698 -0.9323  1.6054
 7983SOL    HW235586   0.356   1.094   6.364  0.1711  1.3900 -0.5442
 7984SOL     OW35587   2.346   4.492  17.711 -0.7629 -0.3285  0.0797
 7984SOL    HW135588   2.429   4.533  17.739 -1.7008 -0.0747  2.5220
 7984SOL    HW235589   2.279   4.538   0.015  0.8809 -1.2387  3.0924
 7985SOL     OW35590   3.256   2.632   4.083 -0.5914 -0.4257  0.6723
 7985SOL    HW135591   3.219   2.668   4.003  0.7496  1.8099  1.0554
 7985SOL    HW235592   3.198   2.557   4.094 -1.3143  0.1290  0.5978
 7986SOL     OW35593   0.453   2.649   8.424 -0.6615  0.0403 -0.4690
 7986SOL    HW135594   0.546   2.669   8.415 -0.8401  1.3616  0.6391
 7986SOL    HW235595   0.427   2.653   8.332 -1.1514 -4.1881 -0.5005
 7987SOL     OW35596   3.509   3.787   2.056 -0.2289 -0.3968  0.2808
 7987SOL    HW135597   3.523   3.692   2.051 -0.9250 -0.4019 -1.3779
 7987SOL    HW235598   3.598   3.818   2.074 -0.1081 -0.7983  0.3767
 7988SOL     OW35599   2.023   2.997  14.687 -0.8111  0.0585  0.1785
 7988SOL    HW135600   2.094   2.933  14.675  1.9557  3.2006 -0.2286
 7988SOL    HW235601   1.952   2.939  14.661 -1.4091  0.8337  0.1127
 7989SOL     OW35602   0.600   2.442   4.954 -0.1996  0.5492  0.2671
 7989SOL    HW135603   0.601   2.361   5.004 -0.2411  0.5783  0.3159
 7989SOL    HW235604   0.598   2.409   4.865 -3.0608 -1.2425  1.0016
 7990SOL     OW35605   0.613   2.586   5.258  0.4151  0.1474  0.1304
 7990SOL    HW135606   0.575   2.589   5.170 -0.0890 -0.2817  0.3396
 7990SOL    HW235607   0.603   2.677   5.286 -0.5179  0.2617 -0.5539
 7991SOL     OW35608   3.718   1.470  13.845  0.1365  0.2216  0.0015
 7991SOL    HW135609   3.713   1.469  13.940 -0.5103 -3.0498 -0.0420
 7991SOL    HW235610   3.809   1.440  13.839  0.6142  1.4550  1.2356
 7992SOL     OW35611   4.276   4.485   1.114 -0.3699 -0.0351 -0.0837
 7992SOL    HW135612   4.243   4.569   1.084  2.6623  1.1504 -0.1362
 7992SOL    HW235613   4.195   4.449   1.149 -0.5658  0.6652  0.1712
 7993SOL     OW35614   3.966   4.726   6.612  0.4752  0.0232  0.1609
 7993SOL    HW135615   3.871   4.736   6.618  0.3468 -1.6104  1.0217
 7993SOL    HW235616   3.984   0.008   6.520 -0.2517  0.5032  0.1183
 7994SOL     OW35617   1.860   0.472   9.763 -0.3239  0.3067  0.3011
 7994SOL    HW135618   1.859   0.520   9.680  1.0099 -1.0696 -0.5143
 7994SOL    HW235619   1.783   0.509   9.806 -1.1491 -0.8659 -0.1580
 7995SOL     OW35620   4.618   3.737   7.481 -0.7415  0.0648  0.5145
 7995SOL    HW135621   4.568   3.772   7.407 -0.5984  1.5752  1.1254
 7995SOL    HW235622   4.680   3.810   7.490 -0.9449  0.4133 -0.8716
 7996SOL     OW35623   4.543   0.597  11.439  0.2751  0.1642 -0.8177
 7996SOL    HW135624   4.482   0.659  11.480 -2.2662 -2.3061 -0.8127
 7996SOL    HW235625   4.586   0.573  11.521 -0.7943 -0.9140 -0.5576
 7997SOL     OW35626   1.935   3.096   8.198 -0.2275 -0.1542 -0.3660
 7997SOL    HW135627   1.897   3.009   8.213 -0.0555  0.3409  2.9054
 7997SOL    HW235628   1.959   3.129   8.285  0.8491 -1.8189 -0.0298
 7998SOL     OW35629   3.720   0.266   7.676  0.0871  0.2975  0.3535
 7998SOL    HW135630   3.788   0.216   7.720  2.1997  1.6958 -1.3390
 7998SOL    HW235631   3.774   0.314   7.614 -2.6914  1.2320 -1.3504
 7999SOL     OW35632   1.973   4.467   8.618 -0.3113  0.2126 -0.1602
 7999SOL    HW135633   1.981   4.443   8.711 -0.7226  2.5536  0.4627
 7999SOL    HW235634   2.005   4.384   8.583 -1.3394  0.3553 -1.4319
 8000SOL     OW35635   3.752   3.562  15.591  0.3493 -0.1415 -0.2037
 8000SOL    HW135636   3.665   3.549  15.629 -0.2648 -0.0789 -1.5942
 8000SOL    HW235637   3.749   3.658  15.586 -1.0080 -0.2595 -1.4617
 8001SOL     OW35638   0.278   3.106   1.729  0.0672 -0.0516  0.3757
 8001SOL    HW135639   0.225   3.034   1.694 -0.0429  0.6422 -0.8981
 8001SOL    HW235640   0.296   3.153   1.648 -1.1758 -0.6047 -0.2133
 8002SOL     OW35641   1.176   1.558   1.211  0.4699 -0.5555  0.2380
 8002SOL    HW135642   1.160   1.533   1.120  1.9194 -0.1065 -0.1264
 8002SOL    HW235643   1.270   1.545   1.222  0.7757  1.0945 -0.4461
 8003SOL     OW35644   2.142   0.217   9.350 -0.0108 -0.8639  0.0825
 8003SOL    HW135645   2.066   0.267   9.379  1.0370  0.3946  0.6886
 8003SOL    HW235646   2.216   0.252   9.400  0.8995 -2.5468 -0.0813
 8004SOL     OW35647   3.696   1.731   5.528 -0.1233 -0.2558  0.3130
 8004SOL    HW135648   3.699   1.819   5.565  1.3498  1.4564 -3.9129
 8004SOL    HW235649   3.692   1.671   5.602 -0.2540  1.0180  1.3356
 8005SOL     OW35650   3.812   1.849   4.392  0.1851 -0.4070  0.1538
 8005SOL    HW135651   3.794   1.931   4.439 -0.3089 -1.0643  1.1125
 8005SOL    HW235652   3.903   1.868   4.368 -0.2621 -0.5810 -1.6675
 8006SOL     OW35653   2.887   4.683   6.379 -0.5886 -0.0211  0.8532
 8006SOL    HW135654   2.858   4.623   6.310 -1.3502 -1.3299  2.3144
 8006SOL    HW235655   2.974   4.714   6.355 -0.5859 -0.8594 -0.2327
 8007SOL     OW35656   2.176   0.675   6.330 -0.3361  0.1585 -0.3151
 8007SOL    HW135657   2.250   0.624   6.361 -0.3330 -0.0359 -0.6424
 8007SOL    HW235658   2.206   0.765   6.346  1.1846 -0.7758  1.9898
 8008SOL     OW35659   2.785   3.104   6.244  0.1997  0.2773 -0.2705
 8008SOL    HW135660   2.871   3.102   6.286 -0.7104  1.7699  1.6510
 8008SOL    HW235661   2.731   3.051   6.303  0.7115 -0.5230 -0.5287
 8009SOL     OW35662   2.418   4.411  12.464 -0.5178  0.0465  0.6315
 8009SOL    HW135663   2.368   4.330  12.454  1.0741 -0.8532 -0.0756
 8009SOL    HW235664   2.352   4.480  12.455 -0.1838  0.1547 -1.0209
 8010SOL     OW35665   0.546   2.774   5.485 -0.5258  0.0517  0.0254
 8010SOL    HW135666   0.522   2.812   5.570 -0.3425 -0.5407  0.3402
 8010SOL    HW235667   0.600   2.844   5.448 -0.7068  0.7183  0.9966
 8011SOL     OW35668   2.482   3.175   9.421  0.2271 -0.1550 -0.0975
 8011SOL    HW135669   2.551   3.128   9.468  0.7608  1.3714  0.6458
 8011SOL    HW235670   2.507   3.260   9.459  2.4438 -1.1054  0.5870
 8012SOL     OW35671   0.823   3.159   4.283 -0.0673 -0.3540  0.3744
 8012SOL    HW135672   0.889   3.102   4.245  0.6758  0.4208  0.4948
 8012SOL    HW235673   0.755   3.156   4.216 -0.6107  0.7535  0.8780
 8013SOL     OW35674   4.395   4.260   6.779 -0.5448  0.4980  0.4580
 8013SOL    HW135675   4.307   4.258   6.742  0.8197 -2.8096 -2.6394
 8013SOL    HW235676   4.433   4.187   6.730  1.7521  3.0686 -1.6423
 8014SOL     OW35677   0.931   2.679  13.034  0.4163 -0.0683  0.4737
 8014SOL    HW135678   0.988   2.756  13.024 -1.0009  0.9974  0.5126
 8014SOL    HW235679   0.869   2.701  13.103 -1.2230 -2.5918 -0.2008
 8015SOL     OW35680   0.838   2.861   2.442 -0.2127 -0.4535 -0.2021
 8015SOL    HW135681   0.930   2.843   2.460 -0.0573  1.2736  0.7074
 8015SOL    HW235682   0.801   2.773   2.446 -0.6175 -0.1923  1.8729
 8016SOL     OW35683   4.414   1.076   8.460 -0.0375 -0.3233 -0.0497
 8016SOL    HW135684   4.508   1.057   8.455  0.2289  0.6712  1.2414
 8016SOL    HW235685   4.419   1.127   8.540  1.9044 -0.1095 -0.3117
 8017SOL     OW35686   1.557   3.709   2.833 -0.3990 -0.4845  0.1057
 8017SOL    HW135687   1.585   3.685   2.745 -0.2234 -2.4300  0.7005
 8017SOL    HW235688   1.545   3.630   2.884  0.5343  0.5642  1.9465
 8018SOL     OW35689   1.324   4.206   1.526  0.0814  0.2871  0.6355
 8018SOL    HW135690   1.309   4.260   1.603 -0.5186 -2.3143  2.3429
 8018SOL    HW235691   1.366   4.126   1.558 -3.3069 -2.9493 -3.0145
 8019SOL     OW35692   2.222   1.589   8.781 -0.1737 -0.3399 -0.3671
 8019SOL    HW135693   2.259   1.661   8.832  1.3093  0.5888 -2.7300
 8019SOL    HW235694   2.221   1.638   8.698 -2.5332  0.8320  0.3837
 8020SOL     OW35695   1.560   1.707  11.341 -0.4000  0.0742  0.2552
 8020SOL    HW135696   1.618   1.742  11.273  0.2989 -1.1654  0.2092
 8020SOL    HW235697   1.479   1.758  11.330 -0.8837 -1.2599 -2.3356
 8021SOL     OW35698   2.777   2.810  16.311  0.0625 -0.5418 -0.0706
 8021SOL    HW135699   2.822   2.805  16.395  1.0307  1.7041 -0.4636
 8021SOL    HW235700   2.742   2.899  16.308 -1.1146 -0.9370  1.5566
 8022SOL     OW35701   0.248   2.303  13.322 -0.2342  0.5977  0.0545
 8022SOL    HW135702   0.217   2.375  13.267  0.1961 -0.5481 -1.6818
 8022SOL    HW235703   0.241   2.226  13.265  0.1114 -0.9523  2.0943
 8023SOL     OW35704   1.330   4.231   2.520  0.6406  0.1150  0.1739
 8023SOL    HW135705   1.371   4.209   2.603 -1.9647 -0.3534  1.3260
 8023SOL    HW235706   1.317   4.146   2.477 -0.6761 -0.8834  2.5301
 8024SOL     OW35707   3.162   1.651   8.909 -0.0635 -0.5389 -0.1177
 8024SOL    HW135708   3.239   1.701   8.882 -0.3500 -0.3229 -0.5271
 8024SOL    HW235709   3.183   1.635   9.001  2.0142 -2.6114 -0.9363
 8025SOL     OW35710   1.783   2.785   6.108  0.0914  0.4647 -0.0934
 8025SOL    HW135711   1.724   2.858   6.125 -0.2397  0.2226 -0.1999
 8025SOL    HW235712   1.794   2.749   6.196  1.0092 -0.3313 -0.5270
 8026SOL     OW35713   0.703   4.189  15.854 -0.5029  0.1714 -0.0309
 8026SOL    HW135714   0.654   4.120  15.899 -1.7215  0.1597 -1.3931
 8026SOL    HW235715   0.630   4.234  15.812  1.3043  1.5276 -1.6784
 8027SOL     OW35716   1.407   2.010   4.609  0.0306  0.6344 -0.2726
 8027SOL    HW135717   1.433   2.090   4.654 -1.4595  0.7781  0.3280
 8027SOL    HW235718   1.450   1.945   4.664  1.3459  1.7167 -0.0430
 8028SOL     OW35719   0.517   1.967  10.119  0.8882  0.1174 -0.6530
 8028SOL    HW135720   0.428   2.003  10.129 -0.5622 -3.1982 -1.4255
 8028SOL    HW235721   0.545   1.975  10.210 -2.0873 -1.5075  0.4240
 8029SOL     OW35722   3.555   4.449   2.034  0.0928  0.8434  0.1526
 8029SOL    HW135723   3.630   4.499   2.001  0.9909  2.0225  4.0652
 8029SOL    HW235724   3.499   4.516   2.073  1.0834  0.2623  2.5781
 8030SOL     OW35725   1.899   2.410   7.918  0.5367  0.1623  0.3609
 8030SOL    HW135726   1.970   2.446   7.865 -0.5544  1.1680 -0.4107
 8030SOL    HW235727   1.884   2.485   7.976 -2.1979  0.5147 -0.7848
 8031SOL     OW35728   2.532   3.398   2.489 -0.0858 -0.1359  0.5555
 8031SOL    HW135729   2.606   3.376   2.433 -0.7411  2.1577 -1.2127
 8031SOL    HW235730   2.470   3.428   2.421  0.2474 -0.4310  0.1194
 8032SOL     OW35731   0.033   1.393  10.535  0.0682  0.1233 -0.5359
 8032SOL    HW135732   0.111   1.377  10.482 -0.4036 -1.0373 -0.8756
 8032SOL    HW235733   0.062   1.374  10.624  0.8863 -2.2319 -1.3102
 8033SOL     OW35734   0.644   2.151   8.838 -0.1882 -0.8135 -1.0991
 8033SOL    HW135735   0.559   2.190   8.856 -0.1859 -1.1009 -0.4459
 8033SOL    HW235736   0.685   2.222   8.788  0.2743  1.1517  2.0981
 8034SOL     OW35737   2.706   0.411   1.735 -0.2302  0.0895  0.3404
 8034SOL    HW135738   2.680   0.373   1.651 -1.5345 -1.3311  1.3816
 8034SOL    HW235739   2.751   0.331   1.762  2.1796  1.0971 -0.6594
 8035SOL     OW35740   1.379   1.580   6.623 -0.0663  0.1147 -0.1568
 8035SOL    HW135741   1.427   1.656   6.655 -1.9448  1.6782 -1.0694
 8035SOL    HW235742   1.452   1.538   6.577 -0.2065  0.2541 -0.5039
 8036SOL     OW35743   2.731   0.759   3.771 -0.1856 -0.1279  0.6405
 8036SOL    HW135744   2.672   0.694   3.732  0.2500 -0.0557 -0.1420
 8036SOL    HW235745   2.793   0.768   3.698 -0.8616  1.7204  0.3152
 8037SOL     OW35746   1.423   1.920   2.432  0.0633 -0.2301  0.5010
 8037SOL    HW135747   1.342   1.964   2.457  0.4394  0.7558 -0.0020
 8037SOL    HW235748   1.405   1.844   2.487 -0.7681 -1.4393 -1.4400
 8038SOL     OW35749   0.737   0.388   0.966 -0.1293  0.3270 -0.4243
 8038SOL    HW135750   0.731   0.382   0.870 -0.4872 -0.4612 -0.3496
 8038SOL    HW235751   0.646   0.417   0.976  0.3062  1.5902 -0.1344
 8039SOL     OW35752   3.162   3.861   8.544  0.1881 -0.0772 -0.0686
 8039SOL    HW135753   3.201   3.799   8.606 -1.1923 -0.8341  0.0377
 8039SOL    HW235754   3.241   3.869   8.490 -0.9334 -0.0433 -1.7216
 8040SOL     OW35755   0.775   3.620  12.906 -0.1482  0.2795 -0.1198
 8040SOL    HW135756   0.856   3.622  12.957 -0.9983  0.3919  1.2176
 8040SOL    HW235757   0.793   3.695  12.849 -2.1246  0.9522  0.1487
 8041SOL     OW35758   2.095   2.132   7.225  0.2564 -0.0661 -0.1476
 8041SOL    HW135759   2.064   2.161   7.139 -0.6066 -0.7740 -0.0783
 8041SOL    HW235760   2.026   2.158   7.287 -1.0146 -0.2236 -1.5063
 8042SOL     OW35761   4.736   3.452   3.138  0.3015  0.0799  0.3142
 8042SOL    HW135762   4.643   3.454   3.159  0.2319 -0.0528  0.0270
 8042SOL    HW235763   0.006   3.506   3.060  1.7919  0.7902  0.9353
 8043SOL     OW35764   0.801   2.312   7.335 -0.5565 -0.7057 -0.3269
 8043SOL    HW135765   0.722   2.330   7.384  0.5047  0.5963  0.9180
 8043SOL    HW235766   0.808   2.218   7.352  0.0621 -0.5847  0.0956
 8044SOL     OW35767   3.443   2.192   2.281 -0.2271 -0.5875  0.4205
 8044SOL    HW135768   3.431   2.098   2.265 -1.5680 -0.1190 -1.2899
 8044SOL    HW235769   3.500   2.186   2.358 -0.3581  0.1674  0.5740
 8045SOL     OW35770   4.052   2.238   0.505  0.3184  0.6136 -0.3006
 8045SOL    HW135771   4.000   2.164   0.475  1.1127 -0.4676  1.0204
 8045SOL    HW235772   3.997   2.314   0.522 -2.5726 -1.7593  0.8793
 8046SOL     OW35773   4.389   4.676   2.720 -0.8714 -0.0416  0.1646
 8046SOL    HW135774   4.386   4.639   2.808 -3.8947  1.4655  0.7240
 8046SOL    HW235775   4.477   4.712   2.729  0.6757 -3.8269  0.2953
 8047SOL     OW35776   4.064   2.387   9.767 -0.1086 -0.2944  0.2200
 8047SOL    HW135777   4.146   2.396   9.816 -0.3474 -0.6563  0.6898
 8047SOL    HW235778   4.081   2.426   9.681 -1.5082 -2.0173 -0.8113
 8048SOL     OW35779   2.899   0.834   4.461 -0.4406 -0.6572  0.4207
 8048SOL    HW135780   2.914   0.762   4.523  1.4226 -0.3002  0.4034
 8048SOL    HW235781   2.990   0.844   4.433 -0.5490 -0.4638  0.1476
 8049SOL     OW35782   1.089   3.398  14.319 -0.2355  0.3894 -0.1357
 8049SOL    HW135783   1.106   3.473  14.376 -0.6704 -0.2986  0.9009
 8049SOL    HW235784   1.001   3.417  14.286 -0.0675  1.2506 -0.0755
 8050SOL     OW35785   3.146   0.344   2.767  0.8220 -0.3830  0.0070
 8050SOL    HW135786   3.057   0.367   2.739  0.3461 -0.9844  1.0326
 8050SOL    HW235787   3.142   0.251   2.746 -0.4912 -0.4827  0.7263
 8051SOL     OW35788   3.747   1.299   2.662 -0.2838 -0.6274 -0.1844
 8051SOL    HW135789   3.653   1.306   2.676 -0.2778 -0.0490 -0.4301
 8051SOL    HW235790   3.775   1.225   2.715  2.0524  0.1062 -0.3655
 8052SOL     OW35791   0.142   0.542   5.683 -0.1429 -0.3384  0.6719
 8052SOL    HW135792   0.213   0.549   5.747 -0.0907  2.8201  0.2577
 8052SOL    HW235793   0.176   0.585   5.605  0.1017 -0.4587  0.7119
 8053SOL     OW35794   0.535   4.601   1.871  0.1192 -0.4653  0.5023
 8053SOL    HW135795   0.549   4.523   1.818 -0.3092 -0.2059 -0.0021
 8053SOL    HW235796   0.441   4.602   1.889  0.0947  0.1353  0.3675
 8054SOL     OW35797   0.977   2.564   6.883  0.0124 -0.6982  0.2053
 8054SOL    HW135798   1.019   2.553   6.969  0.1231  2.1025  0.5235
 8054SOL    HW235799   0.917   2.634   6.910  1.8444 -0.1739  2.9037
 8055SOL     OW35800   4.346   2.958   6.270 -0.0844 -0.3086 -0.2767
 8055SOL    HW135801   4.348   2.995   6.182  0.5652  1.7912  0.6165
 8055SOL    HW235802   4.434   2.988   6.292 -0.1490 -0.8117  0.6756
 8056SOL     OW35803   0.687   1.117   3.133 -0.3802  0.3138  0.3085
 8056SOL    HW135804   0.664   1.208   3.112  1.6914  0.9968  1.0041
 8056SOL    HW235805   0.661   1.119   3.225 -0.3580 -1.8543  0.3705
 8057SOL     OW35806   2.331   2.007   8.545 -0.3059 -0.0320 -0.0515
 8057SOL    HW135807   2.362   2.093   8.519 -1.4533  0.3126 -0.2499
 8057SOL    HW235808   2.264   1.988   8.479  0.5562 -0.2062 -0.8776
 8058SOL     OW35809   2.354   1.594   6.307  0.1411 -0.2155  0.1693
 8058SOL    HW135810   2.416   1.570   6.376 -0.3121  0.0585  0.6716
 8058SOL    HW235811   2.416   1.640   6.250  0.1210  0.4124  0.6467
 8059SOL     OW35812   4.612   0.829   4.724 -0.0768  0.5420 -0.3255
 8059SOL    HW135813   4.565   0.802   4.803  1.0820 -0.4081  0.0267
 8059SOL    HW235814   4.700   0.794   4.736  0.1510  1.0158 -0.6156
 8060SOL     OW35815   4.530   3.435   2.432  0.0641  0.0698  0.3347
 8060SOL    HW135816   4.525   3.511   2.374 -1.5985 -0.4651 -0.2386
 8060SOL    HW235817   4.443   3.399   2.412 -0.8014  0.9349  2.5049
 8061SOL     OW35818   1.958   3.929   5.251 -0.1960 -0.5269  0.0284
 8061SOL    HW135819   1.870   3.910   5.218 -0.5773  0.8167  0.2720
 8061SOL    HW235820   2.011   3.944   5.173 -0.0644 -0.1116  0.1921
 8062SOL     OW35821   0.612   0.019   5.310 -0.4950  0.4587 -0.1848
 8062SOL    HW135822   0.592   4.686   5.373 -1.8738  0.1235 -0.9707
 8062SOL    HW235823   0.684   4.718   5.260 -1.7032  0.3808 -1.9069
 8063SOL     OW35824   4.473   1.453   3.452 -0.0246  0.9486 -0.4064
 8063SOL    HW135825   4.405   1.394   3.483  1.0508 -0.4209 -0.6246
 8063SOL    HW235826   4.464   1.530   3.507  0.9970  0.5913  0.2724
 8064SOL     OW35827   1.439   4.714   7.875  0.1245 -0.5354  0.1561
 8064SOL    HW135828   1.379   4.654   7.920  0.5993 -0.7468  0.4988
 8064SOL    HW235829   1.501   4.653   7.836 -0.8369 -0.2800 -1.8119
 8065SOL     OW35830   1.853   0.492   0.392 -0.0544  0.4296 -0.0631
 8065SOL    HW135831   1.920   0.451   0.447 -0.2667  0.3208  0.1135
 8065SOL    HW235832   1.798   0.420   0.362  0.5410  0.3292 -0.9202
 8066SOL     OW35833   1.513   0.405   3.628  0.5849 -0.2802 -0.4362
 8066SOL    HW135834   1.515   0.424   3.722 -0.9920  1.4148 -0.7421
 8066SOL    HW235835   1.475   0.318   3.631 -0.4017  0.2157  1.9789
 8067SOL     OW35836   4.323   2.123   3.959 -0.1019 -0.2347  0.1179
 8067SOL    HW135837   4.352   2.207   3.994 -0.0673 -1.0924  2.1449
 8067SOL    HW235838   4.242   2.101   4.006 -0.9746  1.4830 -0.5696
 8068SOL     OW35839   0.878   3.982   4.777  0.5061  0.1079 -0.1943
 8068SOL    HW135840   0.942   4.013   4.713 -1.1002  3.5827 -0.1236
 8068SOL    HW235841   0.906   4.044   4.846  1.6070  1.5026 -1.8976
 8069SOL     OW35842   2.312   2.543   6.651 -0.1165 -0.1243  0.2683
 8069SOL    HW135843   2.350   2.480   6.590  4.4763  0.5643  2.3991
 8069SOL    HW235844   2.332   2.614   6.589  2.7026 -1.0583  0.1245
 8070SOL     OW35845   3.762   0.050   5.085  0.3926 -0.3442 -0.2315
 8070SOL    HW135846   3.737   0.142   5.080 -1.6279 -0.9485 -1.0789
 8070SOL    HW235847   3.840   0.063   5.140 -0.0457  0.6883  0.1336
 8071SOL     OW35848   3.116   1.220   3.253 -0.1550  0.4741 -0.4479
 8071SOL    HW135849   3.181   1.150   3.255 -0.6750 -0.0511 -1.7133
 8071SOL    HW235850   3.141   1.265   3.172  2.3372  0.6554  0.4187
 8072SOL     OW35851   4.272   3.339   2.383 -0.2989  0.3595  0.1648
 8072SOL    HW135852   4.256   3.247   2.363 -0.6819  0.4941 -0.1504
 8072SOL    HW235853   4.214   3.379   2.318 -1.5178 -2.3476 -0.3826
 8073SOL     OW35854   4.353   2.958  15.879 -0.1833  0.1023  0.1085
 8073SOL    HW135855   4.264   2.948  15.843  0.1986  0.9586 -1.0612
 8073SOL    HW235856   4.362   3.053  15.879 -2.0368  0.2783  0.2981
 8074SOL     OW35857   4.381   1.392   0.227  0.8029 -0.8607  0.5276
 8074SOL    HW135858   4.392   1.300   0.203 -1.2025 -0.6946 -1.0231
 8074SOL    HW235859   4.375   1.443   0.147 -1.3507 -2.2241 -0.1713
 8075SOL     OW35860   2.161   2.125   9.229  0.0934  0.0708  0.3274
 8075SOL    HW135861   2.226   2.174   9.280  0.0700 -0.6658  1.0695
 8075SOL    HW235862   2.097   2.196   9.231 -1.5353 -1.4242  0.2398
 8076SOL     OW35863   2.631   3.487   8.845 -0.6447  0.0389 -0.5361
 8076SOL    HW135864   2.657   3.439   8.767 -3.1989  3.2567 -3.3753
 8076SOL    HW235865   2.551   3.443   8.875 -2.3796  2.7271 -1.1028
 8077SOL     OW35866   0.910   1.155   7.469  0.4369 -0.8709 -0.0701
 8077SOL    HW135867   0.892   1.090   7.536 -0.5815 -0.2697  0.2472
 8077SOL    HW235868   0.835   1.212   7.488 -1.2263 -2.8375 -0.7946
 8078SOL     OW35869   3.049   2.513   0.546 -0.2773  0.7136  0.4636
 8078SOL    HW135870   2.999   2.592   0.526 -1.3580 -0.1698 -0.3037
 8078SOL    HW235871   3.022   2.454   0.476 -0.7246 -0.6125  1.7570
 8079SOL     OW35872   1.148   1.288   4.364 -0.3949  0.0976  0.6971
 8079SOL    HW135873   1.148   1.370   4.315 -0.5390 -0.5520 -0.3881
 8079SOL    HW235874   1.239   1.262   4.357  0.0432  1.9514 -0.5541
 8080SOL     OW35875   1.757   4.073  16.279  0.2661 -0.1892  0.0229
 8080SOL    HW135876   1.830   4.134  16.270  1.7533 -1.9050  0.4339
 8080SOL    HW235877   1.712   4.080  16.195  0.8818 -0.0567 -0.2895
 8081SOL     OW35878   4.302   1.694   6.790  0.5456  0.2180  0.3613
 8081SOL    HW135879   4.278   1.768   6.846  0.0310  0.0754  0.3280
 8081SOL    HW235880   4.315   1.745   6.710 -0.0257 -2.7082 -1.5935
 8082SOL     OW35881   3.307   1.687   3.074 -0.2608 -0.7628 -0.3904
 8082SOL    HW135882   3.268   1.762   3.120 -1.0860 -2.3585  1.4877
 8082SOL    HW235883   3.281   1.707   2.984  0.8268 -2.9805 -1.2013
 8083SOL     OW35884   3.634   1.818   7.844 -0.0005  0.5849 -0.2076
 8083SOL    HW135885   3.617   1.749   7.780 -1.2038 -2.3673  3.3020
 8083SOL    HW235886   3.588   1.777   7.918 -1.4081  0.5305 -1.1092
 8084SOL     OW35887   1.932   1.021  12.039 -0.1106  0.1975 -0.0894
 8084SOL    HW135888   1.843   0.997  12.063  0.1232 -0.9418 -0.3638
 8084SOL    HW235889   1.933   0.979  11.953  2.4872  3.8190 -1.8279
 8085SOL     OW35890   3.216   0.430  11.819  0.2705  0.2879  0.2747
 8085SOL    HW135891   3.207   0.347  11.865 -0.1905  0.2631  0.1368
 8085SOL    HW235892   3.312   0.437  11.810  0.1899 -0.2771 -1.0725
 8086SOL     OW35893   0.260   0.261  10.222  0.2674  0.0066  0.2346
 8086SOL    HW135894   0.205   0.333  10.252 -0.4881  1.4529 -4.5631
 8086SOL    HW235895   0.222   0.191  10.274 -2.1390  0.0390 -1.4692
 8087SOL     OW35896   0.656   2.303   6.256 -0.2189  0.2194 -0.2390
 8087SOL    HW135897   0.578   2.303   6.201 -1.0142  1.2769  0.8934
 8087SOL    HW235898   0.637   2.356   6.333 -0.9861 -1.2823  0.5978
 8088SOL     OW35899   2.191   3.639   1.899 -0.2992 -0.3885 -0.1256
 8088SOL    HW135900   2.201   3.593   1.815 -1.0489 -2.8816  1.1280
 8088SOL    HW235901   2.261   3.703   1.904 -1.1919  0.6020 -0.3592
 8089SOL     OW35902   0.968   2.921   4.212  0.4826 -0.5388 -0.7619
 8089SOL    HW135903   0.925   2.841   4.242 -0.7754 -0.1093 -1.4219
 8089SOL    HW235904   1.008   2.894   4.129  2.9470  2.4571 -0.5593
 8090SOL     OW35905   4.423   0.793  11.571 -0.0876  0.8780 -0.3520
 8090SOL    HW135906   4.353   0.824  11.514 -1.3740 -0.6602  0.4154
 8090SOL    HW235907   4.376   0.788  11.655 -0.1367  2.5167 -0.2793
 8091SOL     OW35908   2.669   4.422  10.697 -0.4779  0.3554 -0.1192
 8091SOL    HW135909   2.592   4.367  10.711 -0.4643  0.3165 -0.1958
 8091SOL    HW235910   2.651   4.458  10.610  0.4657 -0.5877 -0.6958
 8092SOL     OW35911   2.081   2.405  13.799 -0.1777  0.4046  0.0139
 8092SOL    HW135912   2.114   2.408  13.709  0.7137  2.2858  0.3914
 8092SOL    HW235913   2.082   2.501  13.799 -1.8427  0.4092 -1.7676
 8093SOL     OW35914   2.142   2.385   4.337  0.4961  0.2704  0.2388
 8093SOL    HW135915   2.228   2.394   4.379  0.0175  1.4369  0.9687
 8093SOL    HW235916   2.100   2.461   4.377  0.7039  0.1217  0.7310
 8094SOL     OW35917   1.253   0.127   6.865  0.1327  0.1345  0.6264
 8094SOL    HW135918   1.342   0.096   6.881  0.8951  2.6070  1.1158
 8094SOL    HW235919   1.236   0.186   6.938 -1.9535 -0.1979  0.4308
 8095SOL     OW35920   1.610   3.338  11.988  0.4470 -0.6479  0.1488
 8095SOL    HW135921   1.610   3.422  12.034 -0.2935  0.1059 -1.2208
 8095SOL    HW235922   1.521   3.341  11.951  0.1682 -2.5172  0.6842
 8096SOL     OW35923   1.108   2.301   8.572  0.2509 -0.1061  0.0092
 8096SOL    HW135924   1.112   2.341   8.658 -1.7668  3.2056 -1.4129
 8096SOL    HW235925   1.034   2.247   8.600 -0.0899  1.2996  1.7484
 8097SOL     OW35926   4.253   0.261  15.293  0.4957  0.0935  0.3264
 8097SOL    HW135927   4.235   0.198  15.224  2.2861  0.6761 -0.6644
 8097SOL    HW235928   4.293   0.332  15.242  1.7304 -1.6120 -1.0499
 8098SOL     OW35929   0.179   0.100  11.330 -0.0699 -0.3295 -0.0203
 8098SOL    HW135930   0.179   0.128  11.422 -0.1000  0.4665 -0.2687
 8098SOL    HW235931   0.164   0.006  11.333  0.5053 -0.3876  1.3402
 8099SOL     OW35932   3.011   3.475   4.914  0.7631  0.0865  0.0358
 8099SOL    HW135933   2.990   3.527   4.836 -2.4591 -2.5819 -0.8839
 8099SOL    HW235934   2.955   3.516   4.980  0.7143 -1.6321  1.0670
 8100SOL     OW35935   4.686   2.578   4.028  0.1777  0.4647  0.2263
 8100SOL    HW135936   4.695   2.507   4.092 -2.6227  1.1282  1.3248
 8100SOL    HW235937   4.610   2.621   4.065  0.2434  0.9449 -0.1995
 8101SOL     OW35938   2.611   3.304  16.850 -0.4235  0.1525  0.7485
 8101SOL    HW135939   2.676   3.243  16.886  0.1717 -0.5955 -1.5970
 8101SOL    HW235940   2.556   3.323  16.926  0.6821 -1.6998  2.0341
 8102SOL     OW35941   3.394   3.281  17.295 -0.4697  0.0717 -0.3568
 8102SOL    HW135942   3.469   3.285  17.354 -0.7150 -3.0257  0.1556
 8102SOL    HW235943   3.408   3.364  17.248 -0.6308  0.6604  0.6296
 8103SOL     OW35944   0.597   4.395   3.624 -0.3463  0.3758  0.5978
 8103SOL    HW135945   0.569   4.305   3.612  0.6940 -0.2016  2.5085
 8103SOL    HW235946   0.534   4.438   3.565  0.4404  0.4364 -0.1867
 8104SOL     OW35947   0.034   0.010  13.948 -0.1835 -0.0959 -0.0767
 8104SOL    HW135948   0.027   4.700  14.031 -0.6100 -0.1241 -0.1251
 8104SOL    HW235949   0.115   4.706  13.918 -0.1623  0.0473 -0.2200
 8105SOL     OW35950   2.875   3.183   6.614  0.4445 -0.2761  0.3028
 8105SOL    HW135951   2.969   3.176   6.626  0.4344 -0.9167 -0.0066
 8105SOL    HW235952   2.851   3.128   6.689  1.1719 -2.9245 -1.3997
 8106SOL     OW35953   1.184   3.681   3.280  0.2753  0.0048 -0.1508
 8106SOL    HW135954   1.254   3.633   3.236  1.5113  0.7377  1.0381
 8106SOL    HW235955   1.135   3.694   3.199 -0.0153  1.6668  0.2929
 8107SOL     OW35956   2.554   2.403  15.907  0.1348 -0.1969 -0.0822
 8107SOL    HW135957   2.559   2.340  15.836 -1.3601  0.7861 -1.0425
 8107SOL    HW235958   2.586   2.486  15.870 -1.0637  0.4049  0.2266
 8108SOL     OW35959   3.848   4.225   9.210  0.6509  0.5600  0.0306
 8108SOL    HW135960   3.908   4.157   9.242  1.0313 -0.1173 -2.1661
 8108SOL    HW235961   3.773   4.196   9.262 -0.1722 -0.3618 -1.7096
 8109SOL     OW35962   3.162   2.486   2.022  0.2302 -0.4910 -0.2238
 8109SOL    HW135963   3.196   2.575   2.023  2.1472 -1.2167 -0.6251
 8109SOL    HW235964   3.121   2.470   2.107  1.6224  2.8045  1.0577
 8110SOL     OW35965   0.130   3.244   5.104  0.2171  0.2914  0.4056
 8110SOL    HW135966   0.038   3.272   5.108  0.1048 -0.4186  3.2475
 8110SOL    HW235967   0.116   3.157   5.068 -0.3772  1.5260 -2.3023
 8111SOL     OW35968   2.457   4.731   8.078  0.2209 -0.2029 -0.4820
 8111SOL    HW135969   2.531   0.040   8.039 -1.0910  2.4513  0.1465
 8111SOL    HW235970   2.471   4.640   8.053 -2.2669 -1.1613  1.6113
 8112SOL     OW35971   4.076   1.005   7.196  0.7324 -0.3544  0.1702
 8112SOL    HW135972   4.025   0.924   7.191 -0.6801  0.4377  1.3609
 8112SOL    HW235973   4.008   1.064   7.163 -0.4172 -2.8983 -2.0532
 8113SOL     OW35974   1.112   0.990   6.647 -0.0758 -0.4747 -0.2767
 8113SOL    HW135975   1.180   1.019   6.587  0.7210  0.2616  0.9683
 8113SOL    HW235976   1.084   0.913   6.598 -1.2748 -1.1592  1.4665
 8114SOL     OW35977   2.747   3.247   6.004 -0.7418  0.2519  0.5916
 8114SOL    HW135978   2.673   3.197   5.970  0.5360 -1.5121  0.4316
 8114SOL    HW235979   2.795   3.180   6.052 -0.0286 -1.0356 -1.9422
 8115SOL     OW35980   0.298   2.562   3.262 -0.4921  1.1414  0.8658
 8115SOL    HW135981   0.310   2.565   3.356  1.9464 -1.0053  0.6119
 8115SOL    HW235982   0.372   2.509   3.232 -0.3345  2.4211 -1.0164
 8116SOL     OW35983   2.831   4.453   7.463  0.3991  0.0447  0.4090
 8116SOL    HW135984   2.746   4.477   7.501 -0.2034 -1.6648  0.1612
 8116SOL    HW235985   2.883   4.533   7.469  1.1416 -0.4157  0.0687
 8117SOL     OW35986   3.189   1.491   9.141 -0.3296  0.2609 -0.1540
 8117SOL    HW135987   3.187   1.418   9.204  3.8716  1.1253  0.9658
 8117SOL    HW235988   3.172   1.443   9.060 -0.3067 -1.2671  0.7438
 8118SOL     OW35989   0.639   0.270  16.546 -0.3064 -0.2800  0.1533
 8118SOL    HW135990   0.713   0.324  16.518  0.5005 -1.3325  0.2398
 8118SOL    HW235991   0.667   0.274  16.637 -0.1393 -0.0285  0.0911
 8119SOL     OW35992   0.114   1.464   2.157  0.2229  0.2373  0.5070
 8119SOL    HW135993   0.115   1.556   2.133  0.8716 -0.1317 -0.9019
 8119SOL    HW235994   0.116   1.466   2.253  0.0407  0.5276  0.5040
 8120SOL     OW35995   1.868   0.328   6.315 -0.4203 -0.0193 -0.3326
 8120SOL    HW135996   1.787   0.328   6.367  1.2248  2.0510  2.2237
 8120SOL    HW235997   1.885   0.234   6.315  2.0676  0.4528 -0.3044
 8121SOL     OW35998   1.111   1.910  13.878  0.3560 -0.0884  0.6285
 8121SOL    HW135999   1.085   1.870  13.795  0.1095  0.6320  0.3618
 8121SOL    HW236000   1.069   1.842  13.932 -1.0214  1.3862  1.4022
 8122SOL     OW36001   1.128   0.372   8.308  0.4136  0.5911  0.4339
 8122SOL    HW136002   1.127   0.361   8.403  5.0224  1.0127  0.5306
 8122SOL    HW236003   1.126   0.281   8.278 -1.8638  1.0795 -0.8552
 8123SOL     OW36004   4.074   0.913   4.428 -0.6624  0.2977  0.1762
 8123SOL    HW136005   3.990   0.918   4.383  0.0599  1.1624 -1.1029
 8123SOL    HW236006   4.056   0.973   4.500  1.1581  0.8739  0.1720
 8124SOL     OW36007   1.209   1.881   9.086 -0.4308 -0.2617  0.0358
 8124SOL    HW136008   1.149   1.950   9.112  0.1335 -0.1960  1.1691
 8124SOL    HW236009   1.238   1.912   9.000  1.4374 -1.7218  0.1349
 8125SOL     OW36010   4.467   1.982   3.361 -0.5616 -0.2936  0.4145
 8125SOL    HW136011   4.395   1.975   3.299 -0.1141 -1.0902 -0.0352
 8125SOL    HW236012   4.474   1.903   3.415 -1.6550  0.0180  0.9923
 8126SOL     OW36013   4.678   2.607  15.054 -0.3110 -0.1797  0.1356
 8126SOL    HW136014   4.713   2.518  15.053 -0.5450 -0.2889  2.1176
 8126SOL    HW236015   0.018   2.663  15.063 -1.8502  2.0570 -0.6199
 8127SOL     OW36016   1.861   3.843   7.073 -0.0619 -0.1583  0.2930
 8127SOL    HW136017   1.916   3.766   7.080  0.3616 -0.0111 -1.4089
 8127SOL    HW236018   1.778   3.802   7.097  1.2282 -2.5009  0.6954
 8128SOL     OW36019   3.142   2.246  14.985  0.5225  0.0048  0.3655
 8128SOL    HW136020   3.106   2.238  14.896  1.3514 -0.3343  0.0592
 8128SOL    HW236021   3.094   2.325  15.009  1.5894  0.1712  1.9542
 8129SOL     OW36022   3.974   2.323   6.312  0.4498  0.4481 -0.4074
 8129SOL    HW136023   3.977   2.303   6.405  1.1283 -3.3387 -1.2604
 8129SOL    HW236024   3.958   2.417   6.309  1.2468  0.6753  2.4858
 8130SOL     OW36025   4.192   0.520  10.811  0.1191  0.0603 -0.1278
 8130SOL    HW136026   4.250   0.522  10.887 -1.6847  1.1779  1.2242
 8130SOL    HW236027   4.183   0.614  10.796  0.5037  0.2607  0.8906
 8131SOL     OW36028   0.395   4.080   2.189 -0.3794 -0.1472 -0.1617
 8131SOL    HW136029   0.329   4.023   2.229  0.1885 -0.5832  0.1573
 8131SOL    HW236030   0.470   4.031   2.224  0.5967  1.5331  0.1054
 8132SOL     OW36031   2.361   2.985  10.024 -0.3231  0.1808  0.0771
 8132SOL    HW136032   2.437   3.014   9.973 -1.3471  1.2102 -0.8653
 8132SOL    HW236033   2.369   3.043  10.101 -0.8407  0.4002 -0.0328
 8133SOL     OW36034   0.531   2.796   5.786  0.1406 -0.3799 -0.1492
 8133SOL    HW136035   0.568   2.714   5.818 -0.6160 -0.6986 -0.0799
 8133SOL    HW236036   0.608   2.849   5.804 -0.9238  1.2752 -0.5059
 8134SOL     OW36037   1.061   2.013  10.007 -0.1849  0.1370  0.0239
 8134SOL    HW136038   1.113   1.980  10.081 -1.9834 -2.3722  0.2020
 8134SOL    HW236039   1.086   1.957   9.933  0.2040 -1.2736  1.2106
 8135SOL     OW36040   3.581   0.073   4.451 -0.1833  0.1330  0.2490
 8135SOL    HW136041   3.639   0.039   4.518  1.3155 -1.2581 -1.7637
 8135SOL    HW236042   3.624   0.155   4.425 -1.5341  1.1340  1.2124
 8136SOL     OW36043   0.637   1.687  14.603 -0.1306 -0.5819 -0.2843
 8136SOL    HW136044   0.630   1.642  14.518  1.4352 -1.8622  0.2570
 8136SOL    HW236045   0.670   1.614  14.656  2.4991  0.7109 -0.1591
 8137SOL     OW36046   1.422   2.172   5.572  0.0763 -0.4897  0.0882
 8137SOL    HW136047   1.359   2.103   5.592 -2.0411  1.3782 -0.0542
 8137SOL    HW236048   1.421   2.204   5.662 -0.8187 -0.3084  0.0156
 8138SOL     OW36049   2.540   0.130   4.602  0.2276 -0.4212 -0.0917
 8138SOL    HW136050   2.543   0.036   4.617 -0.1185 -0.3032  0.6816
 8138SOL    HW236051   2.524   0.168   4.688 -1.7341 -2.5158  0.4738
 8139SOL     OW36052   2.802   1.223   2.388  0.3617  0.2458  0.4045
 8139SOL    HW136053   2.890   1.205   2.420  0.8234 -1.4757 -1.8688
 8139SOL    HW236054   2.806   1.312   2.351 -2.6013  0.3202  0.2318
 8140SOL     OW36055   0.448   1.125   7.413  0.5796  0.1626 -0.1797
 8140SOL    HW136056   0.425   1.135   7.321 -0.9377 -0.8001  0.0852
 8140SOL    HW236057   0.404   1.045   7.441  2.2168 -0.2011  1.3328
 8141SOL     OW36058   4.709   0.450   6.255  1.1004 -0.2241  0.0024
 8141SOL    HW136059   0.000   0.401   6.332 -1.3619  0.4249  1.3043
 8141SOL    HW236060   4.672   0.526   6.299  1.7785 -1.2688  2.3263
 8142SOL     OW36061   0.595   4.514   9.710  0.0557 -0.2373 -0.0688
 8142SOL    HW136062   0.688   4.495   9.702  0.2061  0.9987 -1.2270
 8142SOL    HW236063   0.587   4.608   9.697 -0.0878 -0.3058 -0.4965
 8143SOL     OW36064   1.399   1.289   1.138  0.3211 -0.7275  0.2929
 8143SOL    HW136065   1.324   1.251   1.093  1.2835 -1.5015 -0.6671
 8143SOL    HW236066   1.445   1.208   1.159 -1.4480 -1.6464  0.6369
 8144SOL     OW36067   4.549   3.687   3.566  0.2248  0.5332  0.1120
 8144SOL    HW136068   4.478   3.746   3.539 -0.3916 -0.5990 -0.7161
 8144SOL    HW236069   4.619   3.749   3.546 -0.6059  2.0701  1.9034
 8145SOL     OW36070   0.407   4.543  15.381  0.4264 -0.5431 -0.0307
 8145SOL    HW136071   0.479   4.498  15.424 -0.0497 -0.1173  1.2228
 8145SOL    HW236072   0.336   4.509  15.436  0.7946  0.1344  0.8842
 8146SOL     OW36073   1.793   0.979   4.522 -0.0815 -0.0532  0.2446
 8146SOL    HW136074   1.780   0.937   4.437 -0.9703  1.9594 -0.6066
 8146SOL    HW236075   1.714   1.024   4.553  0.8333  1.5263  0.2823
 8147SOL     OW36076   4.297   3.692   8.487  0.5620  0.0078 -0.1705
 8147SOL    HW136077   4.330   3.702   8.398 -2.6091 -2.0822 -1.5507
 8147SOL    HW236078   4.329   3.609   8.522 -1.9921 -0.5663  0.8092
 8148SOL     OW36079   4.455   0.101   6.523 -0.2446  0.4152  0.8632
 8148SOL    HW136080   4.392   0.170   6.542  1.6765  2.5691 -0.5923
 8148SOL    HW236081   4.435   0.074   6.433  0.2604  0.7327  0.6523
 8149SOL     OW36082   3.282   1.004   8.023  0.1242  0.2502 -0.0967
 8149SOL    HW136083   3.317   0.968   7.942 -1.7388 -0.3524 -0.6164
 8149SOL    HW236084   3.307   0.944   8.093  0.4599  2.2061  1.4888
 8150SOL     OW36085   3.183   0.782   9.056 -0.6932  0.2211 -0.1698
 8150SOL    HW136086   3.147   0.871   9.052 -0.5699  0.1811 -2.5690
 8150SOL    HW236087   3.112   0.742   9.006 -0.2510  0.9231 -1.3700
 8151SOL     OW36088   0.242   0.867  17.688 -0.3567  0.0028  0.2890
 8151SOL    HW136089   0.258   0.894   0.032  1.1217 -0.4269  0.1622
 8151SOL    HW236090   0.235   0.771  17.689  1.4435 -0.1334 -0.0339
 8152SOL     OW36091   0.791   1.463  16.145 -0.0097 -0.1028 -0.0821
 8152SOL    HW136092   0.836   1.498  16.068 -1.6927 -0.4126 -1.1998
 8152SOL    HW236093   0.820   1.521  16.216 -0.4635 -1.7188  1.4230
 8153SOL     OW36094   0.216   3.676   9.316 -0.1439  0.1372 -0.1655
 8153SOL    HW136095   0.268   3.599   9.291  0.4650  0.7871 -0.9343
 8153SOL    HW236096   0.277   3.749   9.323  2.8820 -2.3388 -0.5235
 8154SOL     OW36097   2.249   2.079  16.164 -0.5401 -0.3380 -0.3481
 8154SOL    HW136098   2.195   2.074  16.242  0.5063  0.3140  0.4205
 8154SOL    HW236099   2.181   2.082  16.097 -1.1336  0.2316  0.2858
 8155SOL     OW36100   1.910   1.312  16.652 -0.2025  0.4872  0.1813
 8155SOL    HW136101   1.947   1.259  16.722 -0.2597  0.7105  0.3790
 8155SOL    HW236102   1.956   1.281  16.574 -0.6590 -0.7278  0.4027
 8156SOL     OW36103   0.519   0.536   4.130 -0.1805 -0.3540  0.8022
 8156SOL    HW136104   0.533   0.628   4.153  2.4050 -1.0471  1.9526
 8156SOL    HW236105   0.591   0.523   4.069 -0.7094  0.5048 -0.0085
 8157SOL     OW36106   2.181   2.465   2.331 -0.4896  0.0399  0.5020
 8157SOL    HW136107   2.183   2.375   2.298 -1.6731 -0.4471  1.7538
 8157SOL    HW236108   2.102   2.467   2.385 -0.9794  0.6580 -0.2378
 8158SOL     OW36109   0.098   4.288   5.763 -0.5649 -0.1189 -0.1811
 8158SOL    HW136110   0.192   4.296   5.778 -0.7507  1.2194  0.2809
 8158SOL    HW236111   0.076   4.212   5.816  0.3496  0.6487  1.3111
 8159SOL     OW36112   3.521   1.475  11.500  0.3192 -0.3377 -0.1551
 8159SOL    HW136113   3.477   1.391  11.510  0.8189 -0.4339  1.3279
 8159SOL    HW236114   3.488   1.495  11.413 -0.1877  2.1439  0.5939
 8160SOL     OW36115   2.619   4.031   2.904 -0.2766 -0.3257 -0.4950
 8160SOL    HW136116   2.628   3.940   2.932 -1.4410 -0.1251  0.5618
 8160SOL    HW236117   2.631   4.024   2.810  4.0255 -1.6841  0.1623
 8161SOL     OW36118   2.556   4.217   5.378  0.0079 -0.6553  0.2814
 8161SOL    HW136119   2.482   4.272   5.405  0.5715 -0.6547  1.8026
 8161SOL    HW236120   2.586   4.187   5.464  1.2319  1.8757  0.7337
 8162SOL     OW36121   0.543   1.828   9.843  0.0972  0.4008  0.1690
 8162SOL    HW136122   0.593   1.882   9.904  2.5318 -1.1322 -0.4516
 8162SOL    HW236123   0.600   1.823   9.766  0.6746  2.8865  0.4575
 8163SOL     OW36124   4.275   0.702   4.985  0.2651  0.2778  1.1015
 8163SOL    HW136125   4.244   0.781   4.939 -2.0361 -1.3734 -0.2028
 8163SOL    HW236126   4.221   0.634   4.944 -2.1110  2.2168  0.9699
 8164SOL     OW36127   1.545   3.590   6.613 -0.3005  0.0078  0.3270
 8164SOL    HW136128   1.512   3.599   6.524  1.9590 -0.4202 -0.5541
 8164SOL    HW236129   1.523   3.671   6.659 -0.2852 -0.3218  0.9244
 8165SOL     OW36130   1.007   0.488   6.014 -0.0889  0.0695  0.4649
 8165SOL    HW136131   1.085   0.537   6.042 -0.5016  0.2373  1.3311
 8165SOL    HW236132   0.988   0.447   6.099 -1.3272 -2.4322 -1.0341
 8166SOL     OW36133   0.046   1.183   7.338 -0.1125 -0.2993 -0.1067
 8166SOL    HW136134   0.016   1.093   7.348  0.3160 -0.5322 -0.9484
 8166SOL    HW236135   0.119   1.158   7.281  0.1661  0.5320 -0.1195
 8167SOL     OW36136   3.702   2.560   1.935 -0.3408  0.2523  0.1997
 8167SOL    HW136137   3.674   2.569   2.026  0.4150  1.4683  0.3190
 8167SOL    HW236138   3.619   2.578   1.890  2.1782  3.0459 -3.4137
 8168SOL     OW36139   2.406   1.861   4.017  0.6268 -0.2256  0.2158
 8168SOL    HW136140   2.344   1.801   4.058  0.9322  0.3931  1.5981
 8168SOL    HW236141   2.479   1.863   4.079  1.8354 -0.2128 -1.2084
 8169SOL     OW36142   0.316   4.594   5.621  0.1173 -0.2943 -0.0026
 8169SOL    HW136143   0.266   4.667   5.660  0.3691  0.1003 -0.4191
 8169SOL    HW236144   0.404   4.632   5.626 -0.7833  1.9080 -0.7725
 8170SOL     OW36145   2.788   1.763  10.341 -0.0520  0.1368 -0.1257
 8170SOL    HW136146   2.883   1.749  10.338  0.0252  0.5274  0.5395
 8170SOL    HW236147   2.786   1.857  10.324 -2.2694  0.5398  2.3143
 8171SOL     OW36148   3.654   2.556   5.273 -0.3614 -0.2087  0.1206
 8171SOL    HW136149   3.676   2.600   5.355  2.1189 -0.4148 -0.4247
 8171SOL    HW236150   3.588   2.615   5.238  0.2705 -0.2995 -1.2331
 8172SOL     OW36151   2.716   3.301   8.157  0.2681  1.1518  0.4280
 8172SOL    HW136152   2.683   3.333   8.073 -1.1800 -1.3326  0.0635
 8172SOL    HW236153   2.643   3.243   8.179  1.3338  0.2085  1.3986
 8173SOL     OW36154   3.673   3.286  11.297 -0.3366  0.5346  0.4236
 8173SOL    HW136155   3.675   3.325  11.210  1.1968 -1.2641 -0.3472
 8173SOL    HW236156   3.584   3.310  11.324 -1.4860 -1.8417 -1.2486
 8174SOL     OW36157   4.343   0.863  13.249  0.0774  0.1226 -0.6361
 8174SOL    HW136158   4.409   0.886  13.314 -0.4677  1.6727 -0.6314
 8174SOL    HW236159   4.298   0.948  13.247 -1.1125 -0.5297 -1.4578
 8175SOL     OW36160   0.679   1.117   0.048  0.0680 -0.3336 -0.8346
 8175SOL    HW136161   0.611   1.176   0.015  0.3177 -0.5458 -1.7176
 8175SOL    HW236162   0.712   1.175   0.116 -2.4609 -1.0517  1.0003
 8176SOL     OW36163   4.101   3.532   4.365  0.1176 -0.9976 -0.2141
 8176SOL    HW136164   4.047   3.610   4.376  1.0159 -0.6931  2.1480
 8176SOL    HW236165   4.189   3.565   4.381 -0.7611  1.2767 -0.0783
 8177SOL     OW36166   0.799   0.935   0.475 -0.0930 -0.4840 -0.1896
 8177SOL    HW136167   0.826   0.923   0.384 -2.1565 -1.5981 -0.6575
 8177SOL    HW236168   0.830   1.024   0.491  0.8316 -0.5136 -1.8072
 8178SOL     OW36169   2.580   0.289   4.382 -0.6534  0.1980  0.2331
 8178SOL    HW136170   2.560   0.231   4.455 -0.5371 -1.6098 -1.1827
 8178SOL    HW236171   2.532   0.237   4.317 -0.8243  2.4862 -1.4987
 8179SOL     OW36172   2.733   0.443  16.401 -0.5541  0.3182 -0.0780
 8179SOL    HW136173   2.749   0.369  16.341 -0.2704  1.9047 -1.9428
 8179SOL    HW236174   2.710   0.516  16.344 -0.5969  1.5667  1.5558
 8180SOL     OW36175   1.056   1.671  14.028  0.0456 -0.6453  0.0877
 8180SOL    HW136176   0.982   1.643  13.974  0.1864 -0.7364 -0.0609
 8180SOL    HW236177   1.019   1.674  14.116 -0.2083  0.2296 -0.0501
 8181SOL     OW36178   0.947   4.242   3.925 -0.5257 -0.0247  0.3625
 8181SOL    HW136179   0.856   4.224   3.945 -0.6167 -1.0683 -0.9092
 8181SOL    HW236180   0.943   4.239   3.829 -0.8887 -1.6273  0.4228
 8182SOL     OW36181   0.293   1.901   3.081  0.5008 -0.3835 -0.2536
 8182SOL    HW136182   0.248   1.876   3.162 -0.1704  2.5488  0.2890
 8182SOL    HW236183   0.251   1.985   3.063  1.8137  0.2727 -0.2436
 8183SOL     OW36184   1.416   1.389   0.007  0.4603  0.4601  0.2358
 8183SOL    HW136185   1.420   1.443  17.674 -0.1001 -0.0393 -0.1286
 8183SOL    HW236186   1.422   1.458   0.074 -0.6042  0.6306  0.1574
 8184SOL     OW36187   0.211   0.675   8.948 -0.3785 -0.0255  0.1761
 8184SOL    HW136188   0.264   0.599   8.926  0.2384  1.1916 -2.5735
 8184SOL    HW236189   0.246   0.747   8.895 -0.1353 -0.3331 -0.0845
 8185SOL     OW36190   0.137   2.664  16.455  0.0249  0.1649 -0.1398
 8185SOL    HW136191   0.096   2.722  16.519  1.5153  1.1553 -0.0850
 8185SOL    HW236192   0.174   2.723  16.389  0.1934  0.6756  0.4198
 8186SOL     OW36193   1.156   3.680   2.908 -0.0133 -0.5439 -0.5131
 8186SOL    HW136194   1.078   3.666   2.854 -0.9832 -0.0900  0.7695
 8186SOL    HW236195   1.195   3.756   2.866  0.0733 -0.2050  0.1887
 8187SOL     OW36196   1.441   0.133   0.947  0.3502 -0.5820  0.3237
 8187SOL    HW136197   1.348   0.125   0.968  0.3923  1.7263  1.4392
 8187SOL    HW236198   1.429   0.114   0.854 -0.3352  1.4711 -0.0180
 8188SOL     OW36199   2.225   2.025   7.437  0.2333 -0.3324 -0.7108
 8188SOL    HW136200   2.153   1.963   7.452  0.9603 -0.8928  0.4549
 8188SOL    HW236201   2.196   2.077   7.362  0.7103 -0.3757 -0.9287
 8189SOL     OW36202   3.518   3.937   3.808  0.0846  0.0675 -0.1689
 8189SOL    HW136203   3.575   4.012   3.795 -0.2613  0.1519 -1.1370
 8189SOL    HW236204   3.435   3.979   3.789  0.2277 -0.0152 -0.9561
 8190SOL     OW36205   2.718   2.888  15.253  0.1832  0.3704 -0.1185
 8190SOL    HW136206   2.694   2.797  15.237  0.3571  0.5162 -1.1977
 8190SOL    HW236207   2.628   2.917  15.268 -0.6405 -1.4186 -1.5623
 8191SOL     OW36208   3.627   4.646  10.332  0.0133  0.5748 -0.0670
 8191SOL    HW136209   3.651   4.733  10.301 -1.8037  1.1808  0.1891
 8191SOL    HW236210   3.608   4.683  10.418 -0.0780 -0.8168  0.5151
 8192SOL     OW36211   3.928   3.640   2.851  0.0396 -0.0004  0.3618
 8192SOL    HW136212   3.872   3.708   2.887 -1.1692  0.2464 -1.9889
 8192SOL    HW236213   3.877   3.605   2.778  1.9756  0.5491 -1.2628
 8193SOL     OW36214   3.890   1.346   7.630 -0.2552  0.1400  0.2055
 8193SOL    HW136215   3.926   1.264   7.597 -3.1903 -0.8137 -0.6520
 8193SOL    HW236216   3.808   1.313   7.668  0.2610  1.2936  2.3419
 8194SOL     OW36217   3.772   4.393  10.329 -0.2094 -0.4906 -0.7705
 8194SOL    HW136218   3.708   4.464  10.333 -1.4864 -1.6360 -0.8656
 8194SOL    HW236219   3.792   4.385  10.422  0.7303 -2.6601 -1.1652
 8195SOL     OW36220   1.161   4.440   7.255  0.2540 -0.2280 -0.3106
 8195SOL    HW136221   1.071   4.448   7.287  0.1389  0.2042 -0.7268
 8195SOL    HW236222   1.149   4.509   7.189 -0.2941 -1.7807 -1.8283
 8196SOL     OW36223   2.605   4.485   7.082 -0.0002  0.4374  0.1444
 8196SOL    HW136224   2.580   4.565   7.127 -0.7670 -0.1268  0.7099
 8196SOL    HW236225   2.638   4.522   7.000  1.5984  0.0901  0.6282
 8197SOL     OW36226   4.106   2.530   6.875 -0.0742  0.0838 -0.3403
 8197SOL    HW136227   4.023   2.528   6.921 -0.2935 -0.7584 -0.7784
 8197SOL    HW236228   4.085   2.558   6.786 -0.8784 -0.3375 -0.2840
 8198SOL     OW36229   1.787   2.545   5.850  0.5178  0.4090  0.2005
 8198SOL    HW136230   1.769   2.546   5.944 -0.1799 -0.6255  0.0720
 8198SOL    HW236231   1.731   2.471   5.829 -1.0650  1.9510 -0.9412
 8199SOL     OW36232   1.496   3.435   2.971  0.1329  0.1179  0.3286
 8199SOL    HW136233   1.411   3.410   2.934  0.3633 -0.3612  0.1354
 8199SOL    HW236234   1.528   3.359   3.019 -0.7203 -0.4717 -0.0316
 8200SOL     OW36235   0.818   1.761   2.848 -0.0143 -0.6154 -0.0999
 8200SOL    HW136236   0.723   1.751   2.840 -0.2485  0.6206  1.2458
 8200SOL    HW236237   0.836   1.739   2.756  0.2732 -1.8716  0.2723
 8201SOL     OW36238   4.414   0.193   4.016 -0.4229  0.5550 -0.1392
 8201SOL    HW136239   4.369   0.262   4.065 -4.3573 -3.4852  1.9091
 8201SOL    HW236240   4.501   0.181   4.055 -0.2930 -1.5533 -1.0964
 8202SOL     OW36241   1.874   3.453   4.313  0.5300 -0.3197  0.2221
 8202SOL    HW136242   1.793   3.502   4.296 -0.5818 -1.4020  2.3740
 8202SOL    HW236243   1.937   3.519   4.283  0.4170 -0.6162 -0.6658
 8203SOL     OW36244   4.211   0.890  17.595 -0.1672  0.0674 -0.2661
 8203SOL    HW136245   4.189   0.807  17.637  0.6256 -0.0448 -0.0731
 8203SOL    HW236246   4.178   0.866  17.509 -1.0696  1.3842 -0.2876
 8204SOL     OW36247   3.643   2.544  12.069 -1.0791  0.6145 -0.1601
 8204SOL    HW136248   3.701   2.596  12.014  0.9715 -1.2995  0.2260
 8204SOL    HW236249   3.642   2.585  12.156 -3.4616  0.8363 -0.2852
 8205SOL     OW36250   3.802   4.074   6.080 -0.3883  0.6393  0.2037
 8205SOL    HW136251   3.724   4.033   6.117 -0.8361  1.0483 -0.3052
 8205SOL    HW236252   3.754   4.155   6.062 -0.5849  0.3014 -0.7744
 8206SOL     OW36253   1.080   0.514  15.177  0.2224 -0.0539 -0.4973
 8206SOL    HW136254   1.126   0.430  15.165 -1.5956 -0.8065 -2.2619
 8206SOL    HW236255   0.987   0.493  15.169  0.0440  0.4893  0.2417
 8207SOL     OW36256   1.723   1.348  10.660  0.3420  0.3436 -0.2493
 8207SOL    HW136257   1.641   1.299  10.670  0.5017 -0.0581 -0.9385
 8207SOL    HW236258   1.753   1.346  10.751  0.3986 -0.9937 -0.2982
 8208SOL     OW36259   1.309   3.035   8.707  1.0592 -0.3736 -0.0431
 8208SOL    HW136260   1.288   3.122   8.672  0.1754 -0.1465  1.0621
 8208SOL    HW236261   1.383   3.063   8.761  1.6954 -2.2888  0.0466
 8209SOL     OW36262   2.456   1.723   1.818 -0.1014 -0.5336 -0.1521
 8209SOL    HW136263   2.495   1.785   1.757 -0.0880 -0.2343  0.1563
 8209SOL    HW236264   2.521   1.653   1.817  1.5886  1.0368  0.6030
 8210SOL     OW36265   2.738   0.878   2.971 -0.0103 -0.1537  0.1623
 8210SOL    HW136266   2.741   0.974   2.973 -0.1490 -0.2068  2.5888
 8210SOL    HW236267   2.650   0.871   2.934  1.1346  0.0084 -2.5637
 8211SOL     OW36268   4.698   3.057  16.528  0.2359 -0.2771 -0.0447
 8211SOL    HW136269   0.051   3.030  16.546 -0.2524 -1.5981  0.4010
 8211SOL    HW236270   4.690   3.152  16.516 -0.0508 -0.1666  0.9714
 8212SOL     OW36271   0.934   3.267  17.619 -0.4107  0.0680 -0.5401
 8212SOL    HW136272   0.981   3.346  17.593  0.2722  0.4650  1.8951
 8212SOL    HW236273   0.849   3.292  17.583 -0.6620 -0.3430 -0.2329
 8213SOL     OW36274   1.870   2.737   3.355  0.4697 -0.3043  0.0748
 8213SOL    HW136275   1.786   2.691   3.361  0.1754  0.1849 -0.3836
 8213SOL    HW236276   1.881   2.758   3.448 -2.6547  1.3593  0.0642
 8214SOL     OW36277   1.956   4.111   0.528 -0.5617  0.4162  0.2776
 8214SOL    HW136278   1.907   4.183   0.569  1.3499  2.5720 -1.2088
 8214SOL    HW236279   2.033   4.156   0.493 -0.8229 -0.0256 -0.8368
 8215SOL     OW36280   0.687   4.446   6.672  0.2694 -0.8937  0.2094
 8215SOL    HW136281   0.695   4.477   6.582 -0.7927  1.9946  1.1075
 8215SOL    HW236282   0.780   4.424   6.683  0.7206  1.0364  0.2764
 8216SOL     OW36283   3.448   4.586   8.779  0.5230 -0.0647  0.8675
 8216SOL    HW136284   3.402   4.631   8.850  0.8145  1.3684  0.1276
 8216SOL    HW236285   3.475   4.651   8.715  0.9112 -0.1528  0.9429
 8217SOL     OW36286   3.482   4.211   3.865  0.5768 -0.6849 -0.0292
 8217SOL    HW136287   3.490   4.164   3.948 -0.4448  0.9035  0.9466
 8217SOL    HW236288   3.537   4.284   3.890  0.1942 -1.0382  1.8120
 8218SOL     OW36289   1.911   3.442   1.210 -0.0207 -0.0749 -0.3834
 8218SOL    HW136290   1.882   3.512   1.151  2.3778 -0.6722 -2.2855
 8218SOL    HW236291   1.848   3.374   1.187 -1.0624  0.8734 -0.3825
 8219SOL     OW36292   2.801   0.107   1.449 -0.8170 -0.1456 -0.0717
 8219SOL    HW136293   2.895   0.121   1.453 -0.5648 -0.7264 -4.0628
 8219SOL    HW236294   2.777   0.115   1.541 -0.4926 -0.1738  0.0144
 8220SOL     OW36295   3.408   1.713   3.314 -0.3456  0.2592 -0.6889
 8220SOL    HW136296   3.385   1.701   3.222 -1.0876 -0.2745 -0.4268
 8220SOL    HW236297   3.500   1.737   3.300  0.3924 -1.2439  1.5095
 8221SOL     OW36298   3.817   3.232   4.279 -1.0301 -0.4299 -0.0293
 8221SOL    HW136299   3.821   3.210   4.186 -0.3280  3.6689 -0.9469
 8221SOL    HW236300   3.900   3.197   4.311 -0.9275 -1.3037 -1.2636
 8222SOL     OW36301   1.117   2.422   3.212  0.3743 -0.2573 -0.7104
 8222SOL    HW136302   1.114   2.393   3.120  0.9330  2.9721 -1.7408
 8222SOL    HW236303   1.044   2.481   3.232 -0.0266 -1.5409  1.5333
 8223SOL     OW36304   0.855   1.210  13.278 -0.2078  0.1022  0.6014
 8223SOL    HW136305   0.828   1.198  13.187  2.1875  1.9051 -0.3581
 8223SOL    HW236306   0.945   1.240  13.267 -0.5178  0.4882 -0.9011
 8224SOL     OW36307   1.690   3.152   5.953  0.6135 -0.3035 -0.2812
 8224SOL    HW136308   1.600   3.121   5.954  0.2965  0.5967 -0.6593
 8224SOL    HW236309   1.720   3.078   6.005  0.9885  1.1149  1.5228
 8225SOL     OW36310   2.583   4.201   8.796 -0.5705  0.0856  0.1286
 8225SOL    HW136311   2.678   4.202   8.783 -0.6986 -0.3075 -0.8752
 8225SOL    HW236312   2.568   4.221   8.888  2.1668  1.2998  0.3308
 8226SOL     OW36313   0.146   4.618  11.074 -0.0082  0.0115  0.7495
 8226SOL    HW136314   0.228   4.598  11.118  1.1779 -0.3501 -1.5943
 8226SOL    HW236315   0.168   4.599  10.982 -0.0948  1.5042  0.4137
 8227SOL     OW36316   2.358   0.859   6.775  0.3168  0.0722  0.1870
 8227SOL    HW136317   2.402   0.852   6.690 -0.3034  2.0826 -0.3076
 8227SOL    HW236318   2.420   0.910   6.828 -0.4559  0.4459  0.7242
 8228SOL     OW36319   0.964   1.997  12.905 -0.2208 -0.1701 -0.0132
 8228SOL    HW136320   0.932   1.913  12.937 -1.0667 -0.4945 -1.7384
 8228SOL    HW236321   1.031   1.978  12.840  0.8236 -1.8917  1.5807
 8229SOL     OW36322   1.887   2.399   2.449 -0.5145 -0.7228  0.0500
 8229SOL    HW136323   1.833   2.458   2.396 -0.1865 -0.9110 -0.4881
 8229SOL    HW236324   1.932   2.340   2.389  1.5022 -0.2060  1.0462
 8230SOL     OW36325   2.712   2.888   5.046 -0.3689  0.1051  0.3533
 8230SOL    HW136326   2.632   2.933   5.075 -1.6603 -0.9149 -1.5753
 8230SOL    HW236327   2.774   2.960   5.031 -1.6386  0.9866 -0.7926
 8231SOL     OW36328   2.015   0.246   4.448 -0.3761 -0.3854  0.1468
 8231SOL    HW136329   2.051   0.158   4.439 -0.8541 -0.5276 -0.3809
 8231SOL    HW236330   2.099   0.289   4.460 -0.2462 -0.8204  0.7941
 8232SOL     OW36331   1.160   3.469   5.218 -0.0822  0.2974  0.7380
 8232SOL    HW136332   1.071   3.500   5.238 -1.0495 -1.9176 -0.2377
 8232SOL    HW236333   1.175   3.502   5.130  0.4492 -0.0184  0.7133
 8233SOL     OW36334   0.623   0.218   1.866  0.0065 -0.0007 -0.2211
 8233SOL    HW136335   0.611   0.203   1.960  0.9947 -2.1407 -0.4274
 8233SOL    HW236336   0.716   0.239   1.862 -0.0535  0.5753  1.4710
 8234SOL     OW36337   2.813   3.720   9.977  0.4115 -0.5739  0.0522
 8234SOL    HW136338   2.867   3.640   9.976  0.4207 -0.5474 -1.3073
 8234SOL    HW236339   2.856   3.773  10.044  0.5109 -2.4984  1.5310
 8235SOL     OW36340   0.599   0.036   5.985 -0.0918  0.4458 -0.1418
 8235SOL    HW136341   0.556   4.687   5.986  2.2085 -0.6752  2.0628
 8235SOL    HW236342   0.526   0.094   5.966 -0.8582 -0.3382  0.4071
 8236SOL     OW36343   1.550   3.048   1.630 -0.0229  0.0032  0.0143
 8236SOL    HW136344   1.516   3.071   1.544  1.8663 -1.0457 -1.0207
 8236SOL    HW236345   1.615   3.117   1.643 -2.0517  1.8217  0.3834
 8237SOL     OW36346   0.198   2.156  15.262  0.0701  0.3827 -0.7149
 8237SOL    HW136347   0.264   2.129  15.198  1.5158  0.1050  0.9060
 8237SOL    HW236348   0.180   2.070  15.300  1.5005 -0.0217 -0.9372
 8238SOL     OW36349   3.710   1.706   8.497 -0.0317 -0.5388  0.7023
 8238SOL    HW136350   3.732   1.653   8.421 -1.0065  0.6293 -0.3806
 8238SOL    HW236351   3.795   1.694   8.541  0.8295 -2.3837 -1.4441
 8239SOL     OW36352   4.358   1.267   7.354  0.1452  0.1209 -0.3553
 8239SOL    HW136353   4.288   1.311   7.305  0.7459  0.4878 -0.8717
 8239SOL    HW236354   4.310   1.197   7.398 -0.0140  0.2349 -0.3458
 8240SOL     OW36355   0.661   2.101  13.577  0.0113  0.0822  0.0584
 8240SOL    HW136356   0.750   2.074  13.554 -0.9798 -1.9497 -1.4392
 8240SOL    HW236357   0.662   2.182  13.526 -0.1166  0.8148  1.2287
 8241SOL     OW36358   2.428   2.119  16.773 -0.2187 -0.1644  0.3484
 8241SOL    HW136359   2.481   2.092  16.698 -0.7303  1.4446 -0.5967
 8241SOL    HW236360   2.474   2.080  16.848 -1.4105  0.3193  1.3210
 8242SOL     OW36361   2.252   1.397  14.895 -0.0387 -0.1954  0.3267
 8242SOL    HW136362   2.205   1.409  14.977  1.6850  1.0248  1.1348
 8242SOL    HW236363   2.342   1.368  14.910  0.3853  2.1480  2.3299
 8243SOL     OW36364   2.874   2.246   5.787 -0.3412  0.0866 -0.4648
 8243SOL    HW136365   2.811   2.211   5.851  1.0816 -1.4389  0.1013
 8243SOL    HW236366   2.818   2.291   5.724 -2.0869  1.7110  2.2764
 8244SOL     OW36367   1.966   2.993   2.511  0.1735  0.2962 -0.6023
 8244SOL    HW136368   2.051   3.033   2.532  0.2740  1.3228 -2.9338
 8244SOL    HW236369   1.946   2.949   2.593  0.4368 -1.4633 -1.4748
 8245SOL     OW36370   2.929   1.950   9.150  0.8686 -0.0924  0.0015
 8245SOL    HW136371   2.864   1.921   9.085  1.2491  1.4027 -1.0507
 8245SOL    HW236372   2.956   1.861   9.173  0.9220 -0.5940 -2.0278
 8246SOL     OW36373   0.384   1.097  15.473 -0.7313 -0.0786  0.3797
 8246SOL    HW136374   0.310   1.063  15.424 -0.2121  1.5606 -1.5439
 8246SOL    HW236375   0.454   1.080  15.410 -0.8586 -0.3284  0.3062
 8247SOL     OW36376   2.213   3.100   2.467  0.4816  0.1987 -0.0582
 8247SOL    HW136377   2.256   3.100   2.382  1.9443  0.6902  0.6892
 8247SOL    HW236378   2.287   3.086   2.525  0.2684  0.7483  0.3431
 8248SOL     OW36379   0.719   2.816   3.769  0.2291 -0.0203 -0.6544
 8248SOL    HW136380   0.757   2.734   3.800  0.7788  0.5259  0.1187
 8248SOL    HW236381   0.691   2.782   3.684  0.3117 -0.0842 -0.6559
 8249SOL     OW36382   0.195   3.979   3.106  0.5278 -0.2903 -0.7645
 8249SOL    HW136383   0.243   3.896   3.110  2.5368  0.9349  0.5378
 8249SOL    HW236384   0.268   4.042   3.107 -0.6062  0.9487  2.0231
 8250SOL     OW36385   2.517   1.369  14.990  0.0869 -0.1013  0.1066
 8250SOL    HW136386   2.598   1.412  15.016 -0.5950 -0.2568  2.4431
 8250SOL    HW236387   2.476   1.346  15.073  1.8586 -1.5907  0.5680
 8251SOL     OW36388   3.034   4.115   1.846 -0.4014  0.4037  0.1706
 8251SOL    HW136389   3.109   4.103   1.788 -0.5810  1.9517 -0.3802
 8251SOL    HW236390   2.986   4.174   1.788 -0.2048 -1.9808 -2.4141
 8252SOL     OW36391   2.593   0.281   2.424  0.2363  0.8042 -0.0795
 8252SOL    HW136392   2.644   0.200   2.421 -3.0656 -1.3485  1.2747
 8252SOL    HW236393   2.611   0.298   2.516 -1.2100 -0.5040  0.4559
 8253SOL     OW36394   2.014   4.485  14.100 -0.2712  0.0589  0.3761
 8253SOL    HW136395   2.043   4.402  14.138 -0.6557 -0.8494 -1.3473
 8253SOL    HW236396   1.922   4.488  14.124 -0.0336 -0.8867  1.4466
 8254SOL     OW36397   1.324   0.764   4.759  0.1228  0.3475  0.4264
 8254SOL    HW136398   1.369   0.712   4.825 -2.2439  1.4563  2.9131
 8254SOL    HW236399   1.283   0.838   4.805 -0.6920  0.8167 -1.0614
 8255SOL     OW36400   3.391   0.804   3.760 -0.4083 -0.4458 -0.2370
 8255SOL    HW136401   3.352   0.886   3.789 -1.0895  0.8397 -4.8399
 8255SOL    HW236402   3.313   0.759   3.729 -1.2308 -0.3499  1.6774
 8256SOL     OW36403   3.617   3.534   5.927  0.5271  0.3895 -0.5860
 8256SOL    HW136404   3.541   3.477   5.914  1.1968 -0.6191 -0.0732
 8256SOL    HW236405   3.656   3.498   6.007 -0.2837 -0.5942 -0.6397
 8257SOL     OW36406   1.342   1.176   8.925 -0.2412  0.3563 -0.0063
 8257SOL    HW136407   1.260   1.128   8.915  0.3193 -0.2202 -1.9049
 8257SOL    HW236408   1.316   1.265   8.901  2.0727  0.8361 -0.7533
 8258SOL     OW36409   1.043   2.048  13.161  0.4025 -0.4261  0.3030
 8258SOL    HW136410   1.017   2.057  13.069 -2.0854  0.6108  1.1169
 8258SOL    HW236411   0.964   2.081  13.204  0.6530  2.3755 -1.4462
 8259SOL     OW36412   0.950   0.332   6.218  0.3821  0.6279 -0.2636
 8259SOL    HW136413   0.858   0.336   6.192  0.2961  0.6113  0.0410
 8259SOL    HW236414   0.938   0.367   6.306 -0.7547  0.3335 -0.2989
 8260SOL     OW36415   2.335   2.695   3.410 -0.3756 -0.5269  0.5692
 8260SOL    HW136416   2.379   2.616   3.440 -0.0408 -0.2429  0.8193
 8260SOL    HW236417   2.254   2.667   3.368  0.2756  0.1300 -1.1623
 8261SOL     OW36418   4.088   1.236  12.261  0.0061  0.4288  0.6816
 8261SOL    HW136419   4.123   1.248  12.173 -2.0055  3.0466  0.2235
 8261SOL    HW236420   4.020   1.304  12.259  0.4639  0.8067 -2.2993
 8262SOL     OW36421   0.063   2.470   3.801 -0.8014 -0.2337  0.0513
 8262SOL    HW136422   0.013   2.504   3.875  0.0325 -1.9888  1.4200
 8262SOL    HW236423   0.035   2.526   3.729  2.1136 -1.9183 -2.3926
 8263SOL     OW36424   0.040   4.572   3.154  0.3316  0.2257  0.1793
 8263SOL    HW136425   0.000   4.485   3.148 -0.3860  0.6018 -0.5803
 8263SOL    HW236426   0.095   4.578   3.076 -1.7525 -0.1943 -1.3227
 8264SOL     OW36427   1.253   1.653  17.637 -0.0719 -0.1684 -0.2407
 8264SOL    HW136428   1.181   1.633  17.696 -1.3564 -0.0923 -1.7616
 8264SOL    HW236429   1.296   1.718  17.692 -0.6537  0.0419 -0.0388
 8265SOL     OW36430   0.406   0.921  15.689  0.2931  0.4867  0.0282
 8265SOL    HW136431   0.441   0.971  15.763  1.4202  0.2409 -0.3417
 8265SOL    HW236432   0.423   0.985  15.620  2.5743 -0.7510 -0.5487
 8266SOL     OW36433   0.128   4.114  13.956  0.0502 -0.3593  0.0330
 8266SOL    HW136434   0.069   4.093  13.884  1.3306 -0.4519 -0.9857
 8266SOL    HW236435   0.186   4.171  13.905 -1.1795  1.5510  0.7582
 8267SOL     OW36436   1.467   3.796   7.020  0.1377 -0.6230 -0.0362
 8267SOL    HW136437   1.478   3.857   7.093  0.9383 -0.0232 -0.6582
 8267SOL    HW236438   1.465   3.716   7.072  1.0973 -1.0304 -0.6286
 8268SOL     OW36439   3.481   0.497   7.439 -0.4496  0.6406  0.3583
 8268SOL    HW136440   3.509   0.571   7.385  0.8075  0.7269  1.1256
 8268SOL    HW236441   3.455   0.543   7.519  0.7221 -1.3810  1.8962
 8269SOL     OW36442   4.606   0.669  10.899 -0.3478  0.5658 -0.0528
 8269SOL    HW136443   4.670   0.599  10.883 -3.1492 -2.2203  0.9397
 8269SOL    HW236444   4.538   0.621  10.947  0.3912  0.6771  1.1088
 8270SOL     OW36445   0.828   1.421   5.572 -0.0616 -0.4146  0.2520
 8270SOL    HW136446   0.744   1.465   5.580 -2.1589 -4.1623 -1.2153
 8270SOL    HW236447   0.886   1.495   5.552  1.8409 -2.0429 -0.2479
 8271SOL     OW36448   3.121   2.137   4.391 -0.0376  0.3337 -0.5307
 8271SOL    HW136449   3.145   2.217   4.439 -1.5495  0.5562 -0.1677
 8271SOL    HW236450   3.203   2.093   4.371  0.7103  2.3440 -1.9564
 8272SOL     OW36451   0.488   3.773  10.260 -0.4520  0.5846 -0.3040
 8272SOL    HW136452   0.582   3.765  10.277 -0.5319  0.8160  0.2574
 8272SOL    HW236453   0.499   3.784  10.166  2.3828  0.8159  0.0520
 8273SOL     OW36454   3.474   3.256   9.544  0.0490 -0.5805  0.5033
 8273SOL    HW136455   3.495   3.282   9.634  0.5179  0.5213  0.0823
 8273SOL    HW236456   3.565   3.231   9.523 -0.0176 -0.2229 -0.2198
 8274SOL     OW36457   0.019   1.280  17.425  0.5043  0.0941  0.2071
 8274SOL    HW136458   0.032   1.205  17.483 -3.8942 -0.8137  0.0096
 8274SOL    HW236459   4.711   1.343  17.480  3.7501  0.3107  2.6019
 8275SOL     OW36460   0.927   3.121  11.960 -0.8682 -0.2442 -0.2598
 8275SOL    HW136461   0.921   3.216  11.965  0.0319 -0.2197  0.3304
 8275SOL    HW236462   0.945   3.098  12.051 -1.1521 -1.5282 -0.5238
 8276SOL     OW36463   0.891   0.981   9.077 -0.5185 -0.7188 -0.1974
 8276SOL    HW136464   0.803   1.010   9.053  0.4672  0.7930 -2.0177
 8276SOL    HW236465   0.875   0.887   9.085 -2.9449 -0.3611 -0.7751
 8277SOL     OW36466   0.804   0.547   1.880 -0.7368  0.1969 -0.6145
 8277SOL    HW136467   0.745   0.537   1.955  0.1238 -0.1608  0.0143
 8277SOL    HW236468   0.739   0.552   1.809 -1.8324 -0.9018  0.3009
 8278SOL     OW36469   0.093   1.222  15.773 -0.1985  0.4682  0.5243
 8278SOL    HW136470   0.088   1.175  15.690 -1.0233  1.0548  0.2316
 8278SOL    HW236471   0.018   1.191  15.825  0.3015  0.5140  1.2712
 8279SOL     OW36472   1.781   2.712   4.847 -0.5409 -0.7299 -0.3918
 8279SOL    HW136473   1.777   2.736   4.755 -1.3629  0.3624 -0.0595
 8279SOL    HW236474   1.778   2.617   4.833 -1.1710 -0.6317 -0.8875
 8280SOL     OW36475   0.283   2.920   9.223 -0.2958 -0.6538  0.1936
 8280SOL    HW136476   0.200   2.892   9.261  1.5864 -1.7041  3.5766
 8280SOL    HW236477   0.273   3.015   9.214 -0.8017 -0.6280  1.0672
 8281SOL     OW36478   0.739   1.231   4.176  0.1787 -0.2399 -0.2773
 8281SOL    HW136479   0.748   1.183   4.258  2.1913  1.0998  0.2980
 8281SOL    HW236480   0.814   1.198   4.127  0.7701  2.3787 -1.1606
 8282SOL     OW36481   0.232   0.822  15.140  0.4299 -0.6582  0.1745
 8282SOL    HW136482   0.221   0.901  15.087  2.4012  0.0724  0.8436
 8282SOL    HW236483   0.162   0.770  15.100 -0.2759  0.4650 -0.0522
 8283SOL     OW36484   4.224   1.994  12.267 -0.1876 -0.3839  0.5536
 8283SOL    HW136485   4.178   1.912  12.251  1.2768 -0.7497 -1.7094
 8283SOL    HW236486   4.304   1.950  12.296  1.0577  1.4242 -0.1529
 8284SOL     OW36487   0.534   1.035   2.274  0.2383  0.7286  0.2803
 8284SOL    HW136488   0.615   1.047   2.224  0.0193 -0.6898 -0.4049
 8284SOL    HW236489   0.479   0.980   2.218  1.3005  0.8097 -0.8358
 8285SOL     OW36490   2.954   2.808   8.873 -0.2208  0.2960  0.4259
 8285SOL    HW136491   2.888   2.848   8.816 -0.8843 -1.9775 -0.4127
 8285SOL    HW236492   2.899   2.735   8.902 -0.9742  1.0233  0.8312
 8286SOL     OW36493   0.226   1.439  17.691 -0.0936  0.5138  0.1457
 8286SOL    HW136494   0.139   1.476  17.672  0.3201  2.0535  1.1880
 8286SOL    HW236495   0.287   1.499  17.648  0.0417 -0.1892 -0.6390
 8287SOL     OW36496   1.797   1.755   8.670 -0.0484  0.1680  0.4086
 8287SOL    HW136497   1.801   1.734   8.764  2.7794 -1.5712 -0.1075
 8287SOL    HW236498   1.870   1.817   8.666  0.0428  0.1507  1.7396
 8288SOL     OW36499   1.684   4.473   8.728 -0.3414  0.0070  0.3582
 8288SOL    HW136500   1.752   4.413   8.759  0.7423  1.3245  0.5536
 8288SOL    HW236501   1.716   4.559   8.756 -2.3434  1.0526 -0.5196
 8289SOL     OW36502   0.308   3.141  10.282 -0.4580  0.2715  0.0826
 8289SOL    HW136503   0.228   3.178  10.244 -0.4020 -0.0603 -0.3637
 8289SOL    HW236504   0.274   3.114  10.367  1.4914  0.6108  0.9573
 8290SOL     OW36505   3.378   4.300   9.027 -0.1236 -0.0923 -0.1755
 8290SOL    HW136506   3.346   4.264   9.110 -2.1324 -0.6167 -1.1650
 8290SOL    HW236507   3.473   4.303   9.036 -0.3817  2.2595  1.4170
 8291SOL     OW36508   0.364   0.144   2.621  0.2097 -0.0187 -0.0728
 8291SOL    HW136509   0.432   0.126   2.686  1.1833  2.7939 -0.2832
 8291SOL    HW236510   0.290   0.088   2.646  1.8387 -2.2465 -0.2864
 8292SOL     OW36511   1.487   4.194   8.994 -0.0273 -0.0760  0.6019
 8292SOL    HW136512   1.440   4.241   8.926 -0.8048  0.5349  1.5750
 8292SOL    HW236513   1.560   4.148   8.952 -1.7588  0.4394 -2.9869
 8293SOL     OW36514   2.597   0.257   7.452 -0.0061 -0.3850  0.4033
 8293SOL    HW136515   2.550   0.340   7.460  2.8177  1.2660 -0.4291
 8293SOL    HW236516   2.536   0.213   7.392 -0.7969 -0.1923  1.0707
 8294SOL     OW36517   4.488   4.519  14.315  0.3380  0.7960 -0.0713
 8294SOL    HW136518   4.570   4.523  14.266 -0.5876 -1.5270 -1.8371
 8294SOL    HW236519   4.498   4.595  14.372 -0.4825  1.9487 -1.4858
 8295SOL     OW36520   4.211   0.096   3.246  0.2438  0.9736  0.3510
 8295SOL    HW136521   4.127   0.133   3.274 -1.2903 -0.9684 -1.6580
 8295SOL    HW236522   4.243   0.055   3.326  2.4062  1.0448 -0.4817
 8296SOL     OW36523   2.551   1.987   5.407  0.3725 -0.2129 -0.5728
 8296SOL    HW136524   2.531   2.016   5.318 -0.1958 -0.0205 -0.3871
 8296SOL    HW236525   2.474   2.025   5.451  1.1263  0.6393  0.0061
 8297SOL     OW36526   0.217   1.756  17.678 -0.1962  0.0193 -0.8002
 8297SOL    HW136527   0.259   1.679  17.639 -2.2829 -0.8442 -1.3416
 8297SOL    HW236528   0.190   1.819  17.611 -0.1973  2.4377  1.4774
 8298SOL     OW36529   3.986   0.852  17.373  0.4634  0.1075 -0.1297
 8298SOL    HW136530   4.074   0.828  17.342  0.1520  1.0691 -1.7425
 8298SOL    HW236531   3.944   0.768  17.394  0.2141  0.4160  0.6029
 8299SOL     OW36532   3.327   1.517   5.476  0.3653  0.2162  0.1331
 8299SOL    HW136533   3.274   1.577   5.528  0.7930  2.4282 -1.9501
 8299SOL    HW236534   3.379   1.579   5.423  0.8562 -0.5759 -0.3131
 8300SOL     OW36535   2.125   0.629   9.078  0.0012 -0.0681 -0.3704
 8300SOL    HW136536   2.170   0.595   9.155 -1.4524  0.4086  0.6922
 8300SOL    HW236537   2.197   0.644   9.016  0.9863 -3.3438 -0.0300
 8301SOL     OW36538   0.352   3.328  15.135  0.2621 -0.1757  0.9110
 8301SOL    HW136539   0.389   3.245  15.106  1.1783  0.0734  1.3665
 8301SOL    HW236540   0.376   3.390  15.066  1.6982 -1.9408 -0.1754
 8302SOL     OW36541   0.988   3.535   8.501  0.0691 -0.0649 -0.1359
 8302SOL    HW136542   0.947   3.487   8.573  0.1680  0.6872  0.4162
 8302SOL    HW236543   0.951   3.483   8.430 -1.9122  2.6570 -1.0495
 8303SOL     OW36544   2.224   3.243   6.651 -0.5498 -0.0316 -0.2035
 8303SOL    HW136545   2.171   3.255   6.730 -0.4061  0.7784 -0.2292
 8303SOL    HW236546   2.221   3.328   6.607 -2.4260  0.1029  0.1867
 8304SOL     OW36547   3.629   1.045   6.122  0.3130  0.7146  0.3202
 8304SOL    HW136548   3.635   1.083   6.035 -2.8604 -0.4336 -0.4112
 8304SOL    HW236549   3.687   0.970   6.121  0.2413  0.6848 -1.2015
 8305SOL     OW36550   0.954   2.680   2.820 -0.0280 -0.2327 -0.7121
 8305SOL    HW136551   0.971   2.703   2.729 -1.9720 -0.1653 -1.0526
 8305SOL    HW236552   0.978   2.587   2.816  1.5268  0.1059  0.6560
 8306SOL     OW36553   3.370   2.619   7.161  0.0640  0.3991 -1.1409
 8306SOL    HW136554   3.407   2.547   7.213  0.3962  2.2041  1.0795
 8306SOL    HW236555   3.447   2.664   7.127  0.8281 -1.0305 -1.3054
 8307SOL     OW36556   1.760   4.547  14.203 -0.2209  0.0367 -0.3357
 8307SOL    HW136557   1.741   4.628  14.249 -0.4560 -0.4912  0.5087
 8307SOL    HW236558   1.786   4.585  14.119  2.8097 -0.8291  0.1840
 8308SOL     OW36559   3.498   2.023  10.930  0.3040  0.4597  0.0036
 8308SOL    HW136560   3.583   2.051  10.963  0.1706 -1.2060  1.7737
 8308SOL    HW236561   3.497   2.070  10.847 -1.4872 -0.1705 -0.3353
 8309SOL     OW36562   1.852   1.099   8.597  0.3508 -0.0364 -0.0641
 8309SOL    HW136563   1.946   1.116   8.607  0.4470  0.2111 -1.3048
 8309SOL    HW236564   1.813   1.183   8.574 -3.2967 -1.6956  0.1118
 8310SOL     OW36565   1.418   1.200   2.103 -0.2305  0.6748  0.1905
 8310SOL    HW136566   1.446   1.111   2.079 -0.0549  1.1549 -1.4051
 8310SOL    HW236567   1.496   1.255   2.110  0.2386 -0.1484  1.3045
 8311SOL     OW36568   4.213   2.807  11.921  0.1836 -0.0174  0.2280
 8311SOL    HW136569   4.192   2.718  11.950 -1.2255 -0.1094 -1.0797
 8311SOL    HW236570   4.271   2.774  11.852  0.4792  0.0177  0.4635
 8312SOL     OW36571   3.164   2.158   9.596 -0.1297  0.6913  0.1166
 8312SOL    HW136572   3.203   2.211   9.527 -1.9175  0.8127 -0.8089
 8312SOL    HW236573   3.115   2.103   9.535 -0.7596 -0.3192  1.5347
 8313SOL     OW36574   1.822   2.850   8.218  0.4105  0.1999 -0.0425
 8313SOL    HW136575   1.732   2.834   8.188  0.2745  0.3960  0.2589
 8313SOL    HW236576   1.873   2.777   8.184  0.8224 -0.3164  1.7303
 8314SOL     OW36577   1.961   0.744   9.269  0.0043 -0.0355  0.2991
 8314SOL    HW136578   2.023   0.707   9.206 -0.3526 -2.0746  1.1517
 8314SOL    HW236579   1.881   0.702   9.238  0.6449  0.7065 -2.3519
 8315SOL     OW36580   3.119   3.014   7.347  0.1722 -0.7775  0.1497
 8315SOL    HW136581   3.165   3.072   7.286  2.0163 -2.3300  0.0699
 8315SOL    HW236582   3.068   3.072   7.404 -0.0343  1.7434 -2.5318
 8316SOL     OW36583   3.360   3.325   2.113 -0.2798  0.1964  0.0348
 8316SOL    HW136584   3.340   3.262   2.043  1.4359 -1.6598  1.2252
 8316SOL    HW236585   3.425   3.284   2.171  0.6917  1.7196  0.0132
 8317SOL     OW36586   1.866   0.463   1.975 -0.3018 -0.3752  0.0006
 8317SOL    HW136587   1.826   0.435   1.893  0.8922 -0.6688 -0.4937
 8317SOL    HW236588   1.796   0.508   2.021 -0.7381  1.0426 -2.0853
 8318SOL     OW36589   3.845   2.061   0.628  0.2026  0.2096  0.0564
 8318SOL    HW136590   3.888   2.017   0.555 -2.2848 -0.6203 -0.8974
 8318SOL    HW236591   3.920   2.076   0.686 -1.2633 -0.5104  2.1496
 8319SOL     OW36592   4.539   0.858   3.577 -0.0049  0.7151  0.2627
 8319SOL    HW136593   4.606   0.896   3.520  0.2466  1.2034  0.8816
 8319SOL    HW236594   4.547   0.766   3.552 -1.2124  0.8882 -0.7709
 8320SOL     OW36595   0.245   3.429   3.275 -0.0900 -0.4443  0.3073
 8320SOL    HW136596   0.193   3.439   3.195  0.5608  1.3073  0.0883
 8320SOL    HW236597   0.319   3.487   3.260 -0.0802 -0.5205  0.0558
 8321SOL     OW36598   1.937   1.148   3.962  0.7978  0.3162  0.2518
 8321SOL    HW136599   1.925   1.216   3.897 -2.3738 -2.0767 -1.6442
 8321SOL    HW236600   2.027   1.123   3.939  0.3614 -1.0601  0.0434
 8322SOL     OW36601   4.172   4.378   5.155  0.7559 -0.0925 -0.1341
 8322SOL    HW136602   4.173   4.471   5.135  0.0368  0.6964  3.3646
 8322SOL    HW236603   4.079   4.359   5.158  0.4245  1.7769  1.3865
 8323SOL     OW36604   2.181   2.970   3.776 -0.2658 -0.1298  0.2711
 8323SOL    HW136605   2.208   3.062   3.770 -1.0626  0.0412 -0.7946
 8323SOL    HW236606   2.088   2.977   3.797 -0.5110 -1.3727 -0.3825
 8324SOL     OW36607   1.625   0.589   6.847 -0.4004  0.1326 -0.6572
 8324SOL    HW136608   1.652   0.549   6.929 -0.5004  2.8916  0.7364
 8324SOL    HW236609   1.540   0.547   6.834  0.8256 -2.9880  1.5742
 8325SOL     OW36610   4.425   3.845   9.827  0.0400  0.3277 -0.3924
 8325SOL    HW136611   4.478   3.780   9.781  0.3249 -0.6817  1.3534
 8325SOL    HW236612   4.338   3.830   9.791 -0.3693  0.7479  0.4322
 8326SOL     OW36613   3.101   4.329  11.695 -0.0236 -0.1429 -0.2611
 8326SOL    HW136614   3.007   4.347  11.692  0.1471  1.0417  1.1692
 8326SOL    HW236615   3.120   4.367  11.781  0.6441 -2.7818  0.7549
 8327SOL     OW36616   3.147   4.392   6.415  0.0571  0.1228 -0.0031
 8327SOL    HW136617   3.159   4.386   6.510 -0.6835  2.3435  0.2331
 8327SOL    HW236618   3.198   4.470   6.395 -0.2412  1.0731  2.8506
 8328SOL     OW36619   0.735   3.015   7.541  0.5044  0.2074 -0.1672
 8328SOL    HW136620   0.812   2.972   7.505  0.3008 -2.0413  2.1494
 8328SOL    HW236621   0.682   3.037   7.464 -0.2030  0.4265  0.3793
 8329SOL     OW36622   1.624   2.199   2.552 -0.2558  0.9512 -0.2806
 8329SOL    HW136623   1.530   2.204   2.531 -0.1961 -0.7142 -1.0082
 8329SOL    HW236624   1.627   2.109   2.585  2.0612  1.4722  0.8910
 8330SOL     OW36625   0.255   1.503  12.856 -0.1409  0.4871  0.0270
 8330SOL    HW136626   0.248   1.462  12.770 -1.4351 -0.0569  0.3899
 8330SOL    HW236627   0.301   1.433  12.901 -0.2665  1.1652  1.2284
 8331SOL     OW36628   3.416   4.462   4.883  0.0511  0.7959  0.3840
 8331SOL    HW136629   3.446   4.427   4.967 -0.9533 -2.1021 -0.4776
 8331SOL    HW236630   3.465   4.409   4.821  0.3191 -0.5811  1.7719
 8332SOL     OW36631   1.577   0.011   2.830  0.2192 -0.4306  0.1299
 8332SOL    HW136632   1.595   0.102   2.856 -0.7941 -0.0075 -0.6626
 8332SOL    HW236633   1.661   4.731   2.787  1.9979  0.1905  3.3807
 8333SOL     OW36634   3.184   1.387   7.280 -0.6877  0.2009  0.0229
 8333SOL    HW136635   3.271   1.415   7.250 -2.0453 -0.0791 -4.1177
 8333SOL    HW236636   3.212   1.334   7.355 -0.8376 -2.3852 -1.7250
 8334SOL     OW36637   4.072   2.570   6.624  0.1886  0.3886 -0.7108
 8334SOL    HW136638   3.989   2.616   6.635 -0.0348 -0.6424  2.0441
 8334SOL    HW236639   4.119   2.626   6.563  2.0312  1.8303  2.0082
 8335SOL     OW36640   2.764   3.310   2.390 -0.2923 -0.0775  0.1285
 8335SOL    HW136641   2.750   3.220   2.418 -1.5812  0.5945  1.5782
 8335SOL    HW236642   2.791   3.309   2.298  0.5880 -1.4006  0.3972
 8336SOL     OW36643   4.354   1.394   3.096  0.3537  0.8658 -0.1661
 8336SOL    HW136644   4.281   1.435   3.051 -2.7498 -2.2186  1.9983
 8336SOL    HW236645   4.310   1.310   3.109 -0.7327  1.7790  1.9792
 8337SOL     OW36646   4.675   2.911   8.220 -0.0011 -0.3619  0.0304
 8337SOL    HW136647   4.644   2.990   8.264 -0.4932 -1.4114  1.5642
 8337SOL    HW236648   4.592   2.865   8.214 -0.7662  0.5845  3.2922
 8338SOL     OW36649   3.596   0.689   9.247 -0.4075 -0.3280 -0.0326
 8338SOL    HW136650   3.515   0.739   9.235  0.7747  1.1848 -1.7405
 8338SOL    HW236651   3.595   0.617   9.184  0.2645  0.2812 -0.7388
 8339SOL     OW36652   4.372   4.092   8.369  0.1705 -0.0077  0.0681
 8339SOL    HW136653   4.410   4.006   8.352 -0.9828 -0.6060  0.5456
 8339SOL    HW236654   4.350   4.131   8.284  0.5894  0.1386  0.0240
 8340SOL     OW36655   4.293   3.134   8.803 -0.5008 -0.2874  0.2768
 8340SOL    HW136656   4.296   3.040   8.784  1.0844 -0.0950 -0.4373
 8340SOL    HW236657   4.358   3.150   8.871 -1.7105  0.7912  1.1858
 8341SOL     OW36658   2.045   3.158   6.852 -0.2132  0.1915 -0.0070
 8341SOL    HW136659   1.965   3.105   6.850  0.0577 -0.2345  0.5956
 8341SOL    HW236660   2.096   3.110   6.917 -0.2532  1.4147  0.9412
 8342SOL     OW36661   4.262   4.171  15.235 -0.6019 -0.6055  0.3698
 8342SOL    HW136662   4.332   4.108  15.252 -0.0607 -0.8938 -2.7847
 8342SOL    HW236663   4.271   4.194  15.142  0.0683  3.3601  1.4468
 8343SOL     OW36664   0.561   3.973  10.569 -0.0668 -0.2537 -0.9539
 8343SOL    HW136665   0.540   3.954  10.661 -0.3431  2.3824 -0.4675
 8343SOL    HW236666   0.543   4.067  10.563 -0.5695 -0.3040 -0.2423
 8344SOL     OW36667   4.631   3.833   3.118 -0.3840 -0.3699 -0.5615
 8344SOL    HW136668   4.688   3.790   3.181  0.0643  1.7351  0.4570
 8344SOL    HW236669   4.547   3.791   3.138 -0.2881 -1.5032 -2.4880
 8345SOL     OW36670   1.234   0.596   6.118  0.1905 -0.5514 -0.5829
 8345SOL    HW136671   1.311   0.651   6.106 -1.7951  3.3587  4.4387
 8345SOL    HW236672   1.267   0.526   6.174 -3.2093 -1.2536  0.5608
 8346SOL     OW36673   2.952   0.930  12.448 -0.0737  0.3788  0.5483
 8346SOL    HW136674   2.915   0.908  12.362 -2.4171  0.0491  1.6328
 8346SOL    HW236675   2.871   0.964  12.488  0.5108  0.7597  1.4004
 8347SOL     OW36676   1.422   0.509   2.761  0.3917 -0.2414  0.2084
 8347SOL    HW136677   1.452   0.445   2.696 -1.1040 -1.1587  0.4091
 8347SOL    HW236678   1.372   0.446   2.814  0.6097 -0.9308 -0.4078
 8348SOL     OW36679   4.564   1.956   2.271 -0.4843 -0.4476 -0.6837
 8348SOL    HW136680   4.622   1.997   2.206 -1.5486 -1.5589 -2.3204
 8348SOL    HW236681   4.478   1.968   2.232 -0.8033  0.1368  0.1987
 8349SOL     OW36682   0.489   1.481   2.253  0.1279  0.6197 -0.2289
 8349SOL    HW136683   0.485   1.463   2.159  1.0389 -1.3906  0.1123
 8349SOL    HW236684   0.577   1.513   2.273  0.4758 -0.6562  0.3043
 8350SOL     OW36685   0.231   0.569   7.904  0.4338 -0.2865 -0.5372
 8350SOL    HW136686   0.270   0.491   7.942 -0.0974  0.7047  2.0546
 8350SOL    HW236687   0.293   0.631   7.942 -0.0722 -0.6824  0.9252
 8351SOL     OW36688   2.113   0.193   5.610  0.0778 -0.0474  0.1718
 8351SOL    HW136689   2.101   0.219   5.518  1.6215  1.8980  0.5181
 8351SOL    HW236690   2.147   0.104   5.604 -0.7729 -0.4082  0.6737
 8352SOL     OW36691   0.829   1.405   2.601  0.1355  0.0818 -0.3609
 8352SOL    HW136692   0.807   1.339   2.535  0.9828 -0.4707 -0.0880
 8352SOL    HW236693   0.775   1.387   2.679 -0.4634  1.0212 -0.5541
 8353SOL     OW36694   4.051   1.744   3.959 -0.4584  0.1184  0.4040
 8353SOL    HW136695   4.005   1.827   3.971 -1.3051 -0.2821 -0.1345
 8353SOL    HW236696   4.060   1.710   4.048  1.6066  0.1865  0.2294
 8354SOL     OW36697   2.596   0.998   6.800 -0.4325  0.0028  0.1130
 8354SOL    HW136698   2.584   1.086   6.764 -1.3210  0.2217  0.9708
 8354SOL    HW236699   2.612   1.021   6.891  0.1498 -4.1431  1.0520
 8355SOL     OW36700   0.656   2.412   8.772  0.2178 -0.1140  0.0328
 8355SOL    HW136701   0.642   2.486   8.713 -1.2578  0.1972  0.7733
 8355SOL    HW236702   0.603   2.440   8.847 -2.1213 -0.7385 -1.3766
 8356SOL     OW36703   0.198   3.168   9.175  0.5277  0.4021 -0.3322
 8356SOL    HW136704   0.158   3.254   9.184  3.1309  1.7413 -1.5790
 8356SOL    HW236705   0.292   3.185   9.162  1.1571 -1.3024  1.9916
 8357SOL     OW36706   0.861   0.352   9.555  0.0257  0.6026 -0.2720
 8357SOL    HW136707   0.768   0.333   9.540  0.2647 -0.7076 -0.1674
 8357SOL    HW236708   0.888   0.279   9.612  0.6905  1.5235  0.5797
 8358SOL     OW36709   2.726   3.393   9.972  0.3234  0.0758  0.4217
 8358SOL    HW136710   2.683   3.327   9.917 -0.5834  1.4144 -0.4771
 8358SOL    HW236711   2.649   3.440  10.004 -1.7801 -1.6415 -2.0595
 8359SOL     OW36712   0.738   4.006   9.079 -0.1891 -0.4823  0.0093
 8359SOL    HW136713   0.802   4.005   9.008  0.8015 -0.9529  0.9093
 8359SOL    HW236714   0.796   3.975   9.149 -0.4935  2.0725  1.3984
 8360SOL     OW36715   3.653   3.832  13.368  0.2627  0.2123 -0.1558
 8360SOL    HW136716   3.626   3.740  13.375  2.3181 -0.4180 -0.5802
 8360SOL    HW236717   3.708   3.831  13.290  2.1190 -1.0887  1.1642
 8361SOL     OW36718   2.435   3.895   3.646 -0.2286  0.6692  0.3852
 8361SOL    HW136719   2.446   3.966   3.583  0.8018 -1.2755 -1.6000
 8361SOL    HW236720   2.489   3.825   3.609 -0.5095  0.5843  0.1349
 8362SOL     OW36721   1.969   2.014   3.311  0.1405  0.0966 -0.1548
 8362SOL    HW136722   1.934   2.103   3.313 -1.0092 -0.3424 -0.6152
 8362SOL    HW236723   2.026   2.014   3.235 -0.3235  0.3246 -0.5052
 8363SOL     OW36724   1.849   2.760   6.832  0.2473  0.7206  0.4863
 8363SOL    HW136725   1.799   2.841   6.818  0.0307  0.2563 -1.3849
 8363SOL    HW236726   1.885   2.797   6.912  1.6885  0.3371  0.0149
 8364SOL     OW36727   0.556   4.134   7.931  0.8568  0.2077  0.2662
 8364SOL    HW136728   0.576   4.143   7.838 -1.9678 -1.7393 -0.5513
 8364SOL    HW236729   0.609   4.206   7.966  0.4721  0.9184 -0.6292
 8365SOL     OW36730   0.265   4.436   2.038  0.1280  0.1448  0.2283
 8365SOL    HW136731   0.349   4.396   2.016 -0.0890  0.3115 -0.8733
 8365SOL    HW236732   0.222   4.364   2.085 -2.8679  0.7521 -1.5912
 8366SOL     OW36733   4.334   3.157   5.663  0.2595  0.6067 -0.2592
 8366SOL    HW136734   4.350   3.071   5.623  1.1332  1.2089 -1.1991
 8366SOL    HW236735   4.312   3.220   5.594  1.6892  1.8490  0.4464
 8367SOL     OW36736   0.863   3.579   7.165 -0.3082  0.6801  0.1333
 8367SOL    HW136737   0.859   3.498   7.216 -2.9098  0.6896 -0.0168
 8367SOL    HW236738   0.814   3.641   7.219  0.0629  0.1622  1.0639
 8368SOL     OW36739   1.882   1.579   2.506 -0.1788  0.0561  0.0917
 8368SOL    HW136740   1.792   1.545   2.507 -0.9456  2.1067  1.7196
 8368SOL    HW236741   1.871   1.674   2.512 -1.3403 -0.1359  1.0842
 8369SOL     OW36742   3.983   1.522   1.914 -0.6204  0.2547  0.1452
 8369SOL    HW136743   3.891   1.548   1.917 -0.6344  0.1275  0.8370
 8369SOL    HW236744   3.984   1.438   1.961  0.5179 -0.9393 -2.0048
 8370SOL     OW36745   0.271   0.909   7.379  0.3239  0.3772  0.3634
 8370SOL    HW136746   0.263   0.814   7.393 -0.3164  0.1633 -1.4644
 8370SOL    HW236747   0.234   0.914   7.291 -1.4752 -2.3454  0.9613
 8371SOL     OW36748   2.362   0.106   2.040  0.1401  0.1812  0.3547
 8371SOL    HW136749   2.352   0.014   2.066 -0.7831  0.0615 -0.4448
 8371SOL    HW236750   2.414   0.099   1.960  1.2876  2.2715  0.9244
 8372SOL     OW36751   0.446   2.743   1.877 -0.4811  0.0694  0.9568
 8372SOL    HW136752   0.425   2.710   1.964  1.5818  0.4192  1.5718
 8372SOL    HW236753   0.540   2.756   1.886 -0.6305  0.4527  2.0078
 8373SOL     OW36754   1.142   2.019   2.486 -0.0162 -0.4343 -0.0683
 8373SOL    HW136755   1.050   2.045   2.478  0.9308  2.6693 -0.8690
 8373SOL    HW236756   1.129   1.925   2.495  1.2036 -0.5905  0.0348
 8374SOL     OW36757   1.303   4.696   7.189 -0.1380  0.3120  0.1515
 8374SOL    HW136758   1.268   4.672   7.275  3.2187 -0.5405  1.2508
 8374SOL    HW236759   1.243   0.031   7.169 -1.8657 -0.8248  1.2345
 8375SOL     OW36760   0.845   3.453   3.844 -0.1759  0.6620  0.4146
 8375SOL    HW136761   0.766   3.439   3.792  0.0041  1.0440  0.0292
 8375SOL    HW236762   0.909   3.414   3.784  1.6269  1.9132  1.5281
 8376SOL     OW36763   2.847   1.572   6.293  0.4320 -0.0702  0.3218
 8376SOL    HW136764   2.886   1.490   6.263 -1.6472 -0.0850 -2.2328
 8376SOL    HW236765   2.919   1.631   6.313 -0.0817  0.6653 -0.0059
 8377SOL     OW36766   3.015   4.110   8.606  0.0872  0.4456 -0.4721
 8377SOL    HW136767   3.071   4.033   8.595  0.3070  0.5982 -0.4334
 8377SOL    HW236768   3.061   4.140   8.684  0.5128 -1.7994  0.1402
 8378SOL     OW36769   2.363   2.437   5.592 -0.3344 -0.0924  0.3910
 8378SOL    HW136770   2.335   2.472   5.677 -3.4184 -0.3620 -0.5006
 8378SOL    HW236771   2.306   2.360   5.579 -1.6041  0.9568 -0.2777
 8379SOL     OW36772   2.156   0.980  16.389 -0.2703 -0.0162 -0.2201
 8379SOL    HW136773   2.246   0.949  16.400 -0.9773 -1.3972  1.8179
 8379SOL    HW236774   2.118   0.912  16.333 -1.4054  1.0128 -0.6903
 8380SOL     OW36775   0.732   4.192   2.063 -0.1892 -0.3163  0.2707
 8380SOL    HW136776   0.821   4.196   2.026  0.2772 -0.1712  1.3913
 8380SOL    HW236777   0.746   4.181   2.157 -0.2413 -0.2043  0.2913
 8381SOL     OW36778   3.202   2.025   9.149  0.2836  0.1121  0.3356
 8381SOL    HW136779   3.211   2.082   9.226  2.3266  0.2072  0.0298
 8381SOL    HW236780   3.114   1.991   9.164  1.0487 -1.5771  0.9312
 8382SOL     OW36781   2.457   4.105  10.635  0.1078  0.0896  0.2381
 8382SOL    HW136782   2.506   4.049  10.696 -0.5542  0.8376  1.4573
 8382SOL    HW236783   2.509   4.097  10.555 -0.4822  0.7714 -0.2119
 8383SOL     OW36784   0.050   1.546  13.970 -0.0031 -0.1522 -0.3180
 8383SOL    HW136785   4.721   1.532  13.902 -0.8056  0.0703  0.4161
 8383SOL    HW236786   0.125   1.562  13.913  0.0086 -4.0572 -1.4097
 8384SOL     OW36787   2.977   1.426   3.393 -0.4477  0.3455 -0.2536
 8384SOL    HW136788   3.053   1.483   3.402 -0.9419  0.9518 -0.0004
 8384SOL    HW236789   3.008   1.348   3.347  1.4549  0.3706  0.9803
 8385SOL     OW36790   3.614   3.561   2.274 -0.4318  0.0401  0.0440
 8385SOL    HW136791   3.652   3.640   2.311 -1.8601  0.1703  1.2116
 8385SOL    HW236792   3.594   3.507   2.350  1.9094 -2.1563 -0.8720
 8386SOL     OW36793   3.609   3.386  12.315  0.3499 -0.2211  0.3390
 8386SOL    HW136794   3.642   3.475  12.300  0.3735 -0.8021 -2.9091
 8386SOL    HW236795   3.653   3.350  12.392 -2.1128 -0.0473  1.8123
 8387SOL     OW36796   2.725   3.272   4.720 -0.1685  0.1085  0.5928
 8387SOL    HW136797   2.693   3.211   4.654  1.1913 -0.7172  0.6830
 8387SOL    HW236798   2.648   3.308   4.764  0.5431  1.2245  0.9230
 8388SOL     OW36799   3.555   4.266   2.307  0.2152 -0.2741 -0.0321
 8388SOL    HW136800   3.512   4.241   2.389  1.1675 -2.9232 -0.3424
 8388SOL    HW236801   3.473   4.302   2.272  0.5694 -1.4371 -2.0627
 8389SOL     OW36802   4.410   3.675   3.182 -0.1666  0.3782  0.5170
 8389SOL    HW136803   4.441   3.600   3.233 -1.0195 -0.6755 -0.5004
 8389SOL    HW236804   4.376   3.637   3.101  2.9113  0.2965 -0.7619
 8390SOL     OW36805   2.402   1.349   2.371  0.4441  0.1699 -0.1060
 8390SOL    HW136806   2.450   1.323   2.450  1.0207  0.5829 -0.3251
 8390SOL    HW236807   2.361   1.430   2.401 -0.2983  0.6878 -2.5348
 8391SOL     OW36808   3.005   3.234   4.774 -0.3113 -0.2936  0.0832
 8391SOL    HW136809   3.000   3.318   4.820  0.7510 -0.7987  1.1438
 8391SOL    HW236810   2.914   3.223   4.750 -0.0971 -3.7702  0.8421
 8392SOL     OW36811   4.080   3.159  16.640  0.3837  0.5111  0.5752
 8392SOL    HW136812   4.069   3.073  16.681 -1.7017  0.8109  0.6664
 8392SOL    HW236813   4.163   3.145  16.595 -0.1760 -0.8633 -0.0412
 8393SOL     OW36814   3.744   2.932   5.459 -0.3808  0.0099 -0.2334
 8393SOL    HW136815   3.656   2.942   5.424 -0.8694 -0.5940  0.7942
 8393SOL    HW236816   3.734   2.981   5.541  0.1023 -0.3160  0.0271
 8394SOL     OW36817   3.962   2.860  11.866  0.6816 -0.6786  0.1661
 8394SOL    HW136818   3.955   2.766  11.852 -2.2029 -0.3772 -0.4194
 8394SOL    HW236819   4.054   2.862  11.890  0.1706 -0.6089  2.1768
 8395SOL     OW36820   4.085   3.414   9.100  0.5113  0.8040  0.3323
 8395SOL    HW136821   4.078   3.420   9.004 -0.7990  0.2537  0.3938
 8395SOL    HW236822   4.148   3.486   9.111  2.9863 -1.0332 -1.7597
 8396SOL     OW36823   0.642   1.833  14.048 -0.5559  0.2161 -0.0405
 8396SOL    HW136824   0.608   1.779  13.976  1.2428  1.2707 -1.6741
 8396SOL    HW236825   0.638   1.917  14.003 -0.6270  0.0631 -0.3263
 8397SOL     OW36826   3.481   1.200   5.214  0.4187 -0.2588 -0.8492
 8397SOL    HW136827   3.478   1.165   5.303 -0.6064  1.0579 -0.3650
 8397SOL    HW236828   3.476   1.116   5.170 -1.0536 -0.1467 -0.8951
 8398SOL     OW36829   0.945   1.595  16.652  0.1202 -0.3994  0.4612
 8398SOL    HW136830   0.913   1.610  16.741  0.7565  0.7645  0.4949
 8398SOL    HW236831   0.924   1.502  16.643  2.7633 -1.2485  3.4072
 8399SOL     OW36832   0.675   3.165  13.353 -0.6760  0.1732  0.2877
 8399SOL    HW136833   0.759   3.142  13.312 -0.7457  1.3626 -0.5238
 8399SOL    HW236834   0.624   3.121  13.285 -1.1501 -1.7109  1.8630
 8400SOL     OW36835   3.897   4.211   3.269  0.2912  0.2156  0.3006
 8400SOL    HW136836   3.939   4.195   3.185  2.8616  0.7704  1.4696
 8400SOL    HW236837   3.903   4.126   3.312  1.0334 -0.5854 -1.3825
 8401SOL     OW36838   1.973   2.949   2.787  0.2605  0.5927  0.5155
 8401SOL    HW136839   1.884   2.976   2.810  0.5949  0.5033  1.8735
 8401SOL    HW236840   2.005   2.909   2.867  0.0766  1.7130  1.1537
 8402SOL     OW36841   2.127   2.335   4.980  0.0587 -0.6282  0.3638
 8402SOL    HW136842   2.040   2.355   4.943 -0.0215  0.8654  1.3738
 8402SOL    HW236843   2.101   2.251   5.017  1.1507  0.3539  3.3140
 8403SOL     OW36844   3.377   1.254   8.134 -0.0101 -0.6356  0.2754
 8403SOL    HW136845   3.349   1.180   8.080 -1.1421 -0.2202  0.2833
 8403SOL    HW236846   3.368   1.328   8.074  0.5395 -1.2129 -0.5099
 8404SOL     OW36847   3.126   0.032   9.403  0.5322 -0.5919 -0.5391
 8404SOL    HW136848   3.034   0.023   9.380  0.1910 -3.5980  1.8376
 8404SOL    HW236849   3.144   0.126   9.409 -0.0436 -0.6305  1.7465
 8405SOL     OW36850   4.691   2.173   1.644 -0.3074  0.0531  0.2052
 8405SOL    HW136851   4.671   2.085   1.675  0.0646 -0.3797 -0.7953
 8405SOL    HW236852   4.616   2.186   1.586 -0.3409 -3.4089 -0.5009
 8406SOL     OW36853   4.457   2.989  17.083 -0.2289 -0.5639  0.2828
 8406SOL    HW136854   4.511   2.952  17.013  1.2262 -2.5863  2.4840
 8406SOL    HW236855   4.520   3.040  17.134 -0.7664  1.1772 -0.8105
 8407SOL     OW36856   1.343   1.933   3.059 -0.8000  0.0266  0.2383
 8407SOL    HW136857   1.261   1.906   3.018  0.2983 -2.0290 -0.5976
 8407SOL    HW236858   1.322   1.929   3.152 -0.9818 -2.9353  0.0642
 8408SOL     OW36859   0.640   3.567   6.510 -0.3158 -0.3303  0.4237
 8408SOL    HW136860   0.619   3.488   6.561 -2.3872 -0.2895 -0.3565
 8408SOL    HW236861   0.733   3.577   6.530 -0.4490 -1.3868  1.6173
 8409SOL     OW36862   1.704   3.223   6.382 -0.1952 -0.5096  0.3176
 8409SOL    HW136863   1.692   3.178   6.465  4.3324 -0.8890  0.7726
 8409SOL    HW236864   1.798   3.237   6.393 -1.0084  2.5549  3.3451
 8410SOL     OW36865   2.968   2.882   8.196  0.8868  0.0792  0.1132
 8410SOL    HW136866   2.976   2.893   8.101  1.0302 -0.1825  0.0946
 8410SOL    HW236867   2.879   2.848   8.208  0.7283  0.7984  0.9106
 8411SOL     OW36868   2.884   2.066   1.399  0.4482  0.0207 -0.1332
 8411SOL    HW136869   2.960   2.069   1.341  0.2964  1.9840 -0.2407
 8411SOL    HW236870   2.916   2.044   1.486 -0.7415  1.4775  0.6823
 8412SOL     OW36871   4.270   3.446   3.017 -0.4759  0.2482  0.0893
 8412SOL    HW136872   4.247   3.374   3.075 -3.2887  0.3232 -0.9596
 8412SOL    HW236873   4.357   3.421   2.986 -0.0468  0.9259  0.7175
 8413SOL     OW36874   1.327   1.647   9.070 -0.4732 -0.5497 -0.5779
 8413SOL    HW136875   1.389   1.675   9.002 -0.0298 -1.2442 -0.4600
 8413SOL    HW236876   1.283   1.731   9.085  0.9217  0.7001 -3.5679
 8414SOL     OW36877   2.107   4.040  14.683 -0.3780 -0.0809 -0.0050
 8414SOL    HW136878   2.082   4.085  14.764 -1.3609  1.6306 -1.2540
 8414SOL    HW236879   2.103   3.947  14.704  1.6673 -0.1137  0.2915
 8415SOL     OW36880   2.920   4.425  13.461 -0.2507  0.0290 -0.4906
 8415SOL    HW136881   2.945   4.450  13.550 -0.9627  1.0503 -0.5695
 8415SOL    HW236882   2.898   4.333  13.471 -1.4766  0.5112  1.2572
 8416SOL     OW36883   3.434   3.807   5.345  0.2249 -0.5842 -0.6364
 8416SOL    HW136884   3.383   3.800   5.425  2.9617 -0.6647  1.0787
 8416SOL    HW236885   3.371   3.811   5.272 -0.0962 -0.9848 -0.3807
 8417SOL     OW36886   1.479   1.859  16.851 -0.1144  0.3840 -0.2397
 8417SOL    HW136887   1.487   1.821  16.764  1.4299 -1.1393  0.5610
 8417SOL    HW236888   1.558   1.914  16.860  0.4290 -0.8280  2.3615
 8418SOL     OW36889   1.413   4.457   9.842 -0.0393  0.6984 -0.8681
 8418SOL    HW136890   1.325   4.494   9.837 -1.4548 -2.6948 -0.5000
 8418SOL    HW236891   1.461   4.505   9.774 -0.3053 -1.2857 -2.4410
 8419SOL     OW36892   2.890   1.681  16.456 -0.3401  0.0774  0.2890
 8419SOL    HW136893   2.835   1.644  16.387  0.9091 -0.4881 -0.4012
 8419SOL    HW236894   2.976   1.660  16.419 -0.3029  1.2216 -0.2607
 8420SOL     OW36895   2.268   0.559   7.983 -0.2255  0.3448 -0.3681
 8420SOL    HW136896   2.218   0.482   7.956  0.1066 -0.2953  0.8093
 8420SOL    HW236897   2.359   0.533   7.966 -0.3962  0.1760 -1.0219
 8421SOL     OW36898   4.057   3.738  17.060  0.3616  0.0573 -0.4352
 8421SOL    HW136899   4.009   3.655  17.053  0.9184 -0.3329  0.3480
 8421SOL    HW236900   4.132   3.713  17.114 -0.0861 -1.3648 -0.4861
 8422SOL     OW36901   3.784   0.590   4.564  0.0978 -0.1098  0.5787
 8422SOL    HW136902   3.817   0.530   4.497  0.4790  1.1187 -0.3268
 8422SOL    HW236903   3.860   0.643   4.587 -0.3436 -0.7318  3.5296
 8423SOL     OW36904   1.575   0.574   9.640 -0.0250 -0.0992  0.6337
 8423SOL    HW136905   1.547   0.586   9.730 -1.7379  2.6087 -0.2447
 8423SOL    HW236906   1.625   0.656   9.644 -1.5529  0.8918 -0.3588
 8424SOL     OW36907   0.790   4.013   4.180 -0.3655 -0.1430 -0.5359
 8424SOL    HW136908   0.751   4.001   4.266  1.9325 -0.3607  0.4722
 8424SOL    HW236909   0.883   4.031   4.199 -0.2274  0.9261 -2.1822
 8425SOL     OW36910   0.092   4.323   7.535 -0.6332 -0.7679  0.1337
 8425SOL    HW136911   0.142   4.401   7.515 -0.8758 -0.7123 -0.2776
 8425SOL    HW236912   0.109   4.260   7.464  0.9028 -0.5652  0.3344
 8426SOL     OW36913   0.790   2.154   2.719 -0.0930 -0.1859 -0.2150
 8426SOL    HW136914   0.700   2.122   2.724  0.0759 -0.6564 -0.1609
 8426SOL    HW236915   0.815   2.113   2.637  1.4318  1.0541 -0.3694
 8427SOL     OW36916   3.841   0.021  14.408  0.1459  0.5419 -0.2181
 8427SOL    HW136917   3.754   0.060  14.413 -0.2667 -0.5401  1.0671
 8427SOL    HW236918   3.837   4.733  14.315 -0.8295 -0.5792  0.1260
 8428SOL     OW36919   2.946   3.299   8.303  0.0092 -0.7009 -0.6575
 8428SOL    HW136920   2.871   3.328   8.251 -0.2983 -1.2806 -0.5390
 8428SOL    HW236921   2.919   3.208   8.315 -0.3829 -0.4667  0.2413
 8429SOL     OW36922   3.334   3.442   5.243  0.1842  0.2626 -0.1400
 8429SOL    HW136923   3.271   3.404   5.181 -2.5728  2.4266  1.3356
 8429SOL    HW236924   3.380   3.511   5.196 -1.3861 -0.4617 -2.7508
 8430SOL     OW36925   2.814   1.110   1.836  0.3234  0.1943  0.0400
 8430SOL    HW136926   2.748   1.091   1.902  0.3816 -0.5954 -0.1208
 8430SOL    HW236927   2.894   1.102   1.888 -0.7054 -0.1415  1.5566
 8431SOL     OW36928   1.901   0.603   6.860 -0.1452 -0.1676  0.7186
 8431SOL    HW136929   1.924   0.680   6.808 -0.3718  0.1621  1.1058
 8431SOL    HW236930   1.808   0.602   6.840 -0.2775  0.2573  1.3196
 8432SOL     OW36931   3.687   4.691   6.506 -0.5404  0.2066  0.1202
 8432SOL    HW136932   3.663   4.678   6.415 -0.8429  1.0797  0.0743
 8432SOL    HW236933   3.607   4.718   6.551 -0.3557  0.5718  0.2358
 8433SOL     OW36934   2.866   3.872   4.183 -0.1792  0.1884 -0.2692
 8433SOL    HW136935   2.920   3.861   4.105 -0.5267 -0.1283 -0.4699
 8433SOL    HW236936   2.857   3.777   4.196 -1.5354  0.2956 -0.4631
 8434SOL     OW36937   0.355   0.316  17.732 -0.3101 -0.3179 -0.2946
 8434SOL    HW136938   0.290   0.264  17.685 -1.6385 -1.6184  2.9396
 8434SOL    HW236939   0.428   0.254  17.738 -0.7607 -0.6764  1.7458
 8435SOL     OW36940   1.459   2.332   8.057  0.1061  0.3470  0.8814
 8435SOL    HW136941   1.511   2.379   7.992  1.2427 -2.9822 -0.5966
 8435SOL    HW236942   1.403   2.272   8.008 -0.3768  1.3289  0.2182
 8436SOL     OW36943   2.796   4.250  10.006  0.3602 -0.0514  0.4244
 8436SOL    HW136944   2.837   4.188  10.066 -0.8818  1.7769  3.1325
 8436SOL    HW236945   2.787   4.325  10.064 -2.1128 -1.7768  2.2439
 8437SOL     OW36946   2.942   0.407   9.162 -0.0197 -0.2363 -1.0074
 8437SOL    HW136947   2.992   0.398   9.243  1.6189  0.6540 -1.9218
 8437SOL    HW236948   2.863   0.451   9.192  0.3670 -0.6942  0.6698
 8438SOL     OW36949   2.070   3.653   5.298 -0.2798  0.5082  0.4139
 8438SOL    HW136950   2.157   3.683   5.325 -0.4334  1.1446  0.1997
 8438SOL    HW236951   2.011   3.723   5.327  1.3030  2.1635 -0.3432
 8439SOL     OW36952   2.294   1.976  10.530 -0.2035  0.4536  0.6440
 8439SOL    HW136953   2.273   1.887  10.557  1.0979  0.4958  1.8134
 8439SOL    HW236954   2.389   1.974  10.540 -0.2922  0.9337  1.6298
 8440SOL     OW36955   2.796   3.819  13.608  0.1777  0.0940 -0.2018
 8440SOL    HW136956   2.745   3.897  13.632  1.9059  1.4935 -1.0618
 8440SOL    HW236957   2.725   3.760  13.584 -1.3083  1.8612 -0.1199
 8441SOL     OW36958   2.804   0.018   9.619  0.2076 -0.4003 -0.6756
 8441SOL    HW136959   2.844   4.675   9.653  0.8378  1.2261  2.3725
 8441SOL    HW236960   2.846   0.083   9.675  0.5260 -1.2680  0.1113
 8442SOL     OW36961   0.147   1.658   8.941  0.3512  0.3230 -0.3235
 8442SOL    HW136962   0.211   1.651   8.870  0.3582 -1.1622 -0.1837
 8442SOL    HW236963   0.202   1.655   9.019 -0.9503 -0.8141  0.5502
 8443SOL     OW36964   1.509   3.832   6.738 -0.1679 -0.0894 -0.2167
 8443SOL    HW136965   1.516   3.927   6.741  2.4104 -0.2705  0.1110
 8443SOL    HW236966   1.500   3.807   6.830  0.3011  1.2239  0.1862
 8444SOL     OW36967   1.213   3.079   6.212  0.0689 -0.2543 -0.7194
 8444SOL    HW136968   1.155   3.008   6.237  0.5682 -0.6286 -0.6341
 8444SOL    HW236969   1.150   3.151   6.213 -0.1728 -0.5042  1.2972
 8445SOL     OW36970   1.610   4.273   0.093  0.3169  0.4882  0.0413
 8445SOL    HW136971   1.635   4.214   0.022  2.9915  2.1469 -0.3714
 8445SOL    HW236972   1.515   4.264   0.086  0.2637  0.2718  1.1073
 8446SOL     OW36973   2.055   0.363   0.540  0.2046  0.0035 -0.3967
 8446SOL    HW136974   2.094   0.291   0.492 -0.9425 -1.5014  0.9421
 8446SOL    HW236975   2.037   0.332   0.629  0.0900  0.3899 -0.2864
 8447SOL     OW36976   0.467   0.931  11.759  0.6500  0.3637  0.5106
 8447SOL    HW136977   0.384   0.976  11.777 -0.2468 -0.8749 -0.4643
 8447SOL    HW236978   0.523   1.008  11.750  2.7276 -0.9197  2.6303
 8448SOL     OW36979   4.669   3.665   6.156  0.6032  0.5138  0.3400
 8448SOL    HW136980   4.576   3.683   6.141  0.2177 -0.3056  1.7870
 8448SOL    HW236981   4.709   3.680   6.070  1.7755 -2.4307  0.3451
 8449SOL     OW36982   4.487   1.745   9.674 -0.6464 -0.0504  0.0624
 8449SOL    HW136983   4.482   1.761   9.580  0.8630 -0.9120 -0.1585
 8449SOL    HW236984   4.522   1.657   9.682  0.1536  0.1166 -1.5985
 8450SOL     OW36985   0.319   2.485  15.009 -0.5594 -0.3313 -0.3916
 8450SOL    HW136986   0.254   2.491  14.939 -1.6905 -2.7216  0.4643
 8450SOL    HW236987   0.364   2.404  14.985 -0.5742 -0.1444 -1.0606
 8451SOL     OW36988   4.353   2.912   5.564 -0.2595 -0.7153  0.0597
 8451SOL    HW136989   4.334   2.853   5.637 -0.4225 -1.4961 -0.6168
 8451SOL    HW236990   4.370   2.851   5.492 -2.4834  1.5829 -2.4363
 8452SOL     OW36991   1.643   3.057   7.737 -0.1327  0.0412  0.7640
 8452SOL    HW136992   1.637   3.137   7.789  0.0286  2.2256 -2.6049
 8452SOL    HW236993   1.568   3.069   7.679 -0.1964  0.8042  0.9957
 8453SOL     OW36994   3.679   1.698   3.343  0.5350  0.0978  0.4213
 8453SOL    HW136995   3.686   1.764   3.412  1.7564 -0.3381  0.7054
 8453SOL    HW236996   3.673   1.619   3.397  1.7990  0.8936  1.7205
 8454SOL     OW36997   1.039   1.270   4.629 -0.0485 -0.2417 -0.3992
 8454SOL    HW136998   1.114   1.222   4.663 -0.9758  1.4151  3.9260
 8454SOL    HW236999   1.057   1.277   4.535  2.5714  1.6163  0.2198
 8455SOL     OW37000   0.803   2.920   5.253  0.7043  0.3907 -0.1806
 8455SOL    HW137001   0.892   2.910   5.218  0.2302  0.1068 -1.2820
 8455SOL    HW237002   0.753   2.912   5.172  0.1799  0.1318  0.1715
 8456SOL     OW37003   2.685   3.402  16.149  0.2870 -0.2153 -0.3123
 8456SOL    HW137004   2.625   3.476  16.140  0.5019  0.1029  0.9510
 8456SOL    HW237005   2.770   3.445  16.162  0.4198 -0.3459 -0.7285
 8457SOL     OW37006   0.634   4.328   6.096  0.5555 -0.0885 -0.1413
 8457SOL    HW137007   0.588   4.405   6.126 -0.0449 -0.3877 -0.3001
 8457SOL    HW237008   0.679   4.288   6.170  1.2931 -1.8481 -1.5142
 8458SOL     OW37009   0.294   0.971  14.909 -0.4504  0.0793  0.2092
 8458SOL    HW137010   0.327   0.913  14.841  0.6371  0.2895  0.5541
 8458SOL    HW237011   0.219   1.005  14.860  1.0491  1.3447 -1.2000
 8459SOL     OW37012   0.033   3.674  14.596 -0.2107  0.0420 -0.5149
 8459SOL    HW137013   0.031   3.618  14.518 -0.4841  1.8296 -1.7856
 8459SOL    HW237014   4.713   3.747  14.575  0.7521  0.9027 -0.1215
 8460SOL     OW37015   0.345   0.995   3.204 -0.5012  0.1750 -0.0953
 8460SOL    HW137016   0.259   1.011   3.165 -1.8666  1.2095  3.4345
 8460SOL    HW237017   0.371   1.087   3.202  0.3583 -0.0219  3.4322
 8461SOL     OW37018   0.899   1.351   9.587 -0.0221 -0.1535  0.2912
 8461SOL    HW137019   0.962   1.329   9.519  0.3349  0.6586  0.3508
 8461SOL    HW237020   0.826   1.297   9.558  4.0834 -5.7301  0.3273
 8462SOL     OW37021   3.131   3.770   7.612  0.0326  0.1880 -0.3349
 8462SOL    HW137022   3.046   3.750   7.571 -0.8428 -0.6402  1.8646
 8462SOL    HW237023   3.130   3.865   7.622 -1.1347  0.2008 -0.4934
 8463SOL     OW37024   0.387   2.036  15.064  0.0512  0.3561 -0.0666
 8463SOL    HW137025   0.318   2.012  15.003  0.6683 -1.0693 -0.1919
 8463SOL    HW237026   0.432   1.952  15.063  0.0211  0.3119  1.2648
 8464SOL     OW37027   0.350   0.248   7.086  0.2205 -0.0355  0.1290
 8464SOL    HW137028   0.284   0.315   7.067  0.2071  0.1890  0.9525
 8464SOL    HW237029   0.422   0.306   7.109  2.2109 -1.0045 -3.6559
 8465SOL     OW37030   3.299   3.709   1.814  0.3230 -0.6888  0.1555
 8465SOL    HW137031   3.207   3.735   1.807  0.5144  0.6683  2.7467
 8465SOL    HW237032   3.309   3.715   1.909 -0.2477  1.0598  0.1120
 8466SOL     OW37033   2.793   1.031   9.379 -0.1491  0.2728  0.0833
 8466SOL    HW137034   2.769   1.109   9.429 -0.8233 -0.6953  1.2685
 8466SOL    HW237035   2.726   1.016   9.312 -1.2489 -1.2409  1.5165
 8467SOL     OW37036   3.906   1.522   2.371 -0.1003 -0.2036  0.2992
 8467SOL    HW137037   3.961   1.574   2.313  0.9805 -0.5679  0.9762
 8467SOL    HW237038   3.932   1.433   2.346  0.1227  0.2831 -1.1716
 8468SOL     OW37039   1.930   0.096   7.765 -0.2889  0.2426  0.4654
 8468SOL    HW137040   1.905   0.094   7.858 -0.1221  1.9911  0.5329
 8468SOL    HW237041   1.884   0.024   7.722 -1.8646  1.3760  0.2420
 8469SOL     OW37042   1.044   4.634  15.341 -0.6419 -0.1310  0.4020
 8469SOL    HW137043   1.097   4.597  15.412 -1.3894 -0.3397  0.8533
 8469SOL    HW237044   0.955   4.637  15.377 -0.4471  1.2231  0.7892
 8470SOL     OW37045   1.743   2.264   9.326 -0.1650 -0.1660  0.7742
 8470SOL    HW137046   1.681   2.192   9.321 -0.7626  0.4638 -1.0461
 8470SOL    HW237047   1.795   2.245   9.248  0.5718  1.0235  0.9700
 8471SOL     OW37048   1.559   3.718   3.474 -0.5405 -0.0879  0.3898
 8471SOL    HW137049   1.602   3.795   3.511 -0.5194  0.5976 -1.0951
 8471SOL    HW237050   1.534   3.658   3.545  1.1807  0.0209  1.1064
 8472SOL     OW37051   0.087   0.928   6.855 -0.6771 -0.1611  0.3301
 8472SOL    HW137052   0.115   1.015   6.881  0.8580 -0.5309 -0.0463
 8472SOL    HW237053   4.734   0.946   6.880 -0.1669 -0.7642  2.6456
 8473SOL     OW37054   2.303   4.281  15.321 -0.1791 -0.1344  0.3197
 8473SOL    HW137055   2.387   4.246  15.292 -0.6821 -1.3675  0.2973
 8473SOL    HW237056   2.251   4.282  15.240  0.3216  0.8268  0.0194
 8474SOL     OW37057   2.810   3.578   4.177 -0.0638  0.2583 -0.0550
 8474SOL    HW137058   2.873   3.506   4.180  1.0329  1.2820  1.7047
 8474SOL    HW237059   2.730   3.527   4.169 -0.0386  0.5577 -2.0952
 8475SOL     OW37060   0.772   3.969   8.575 -0.2849  0.2602 -0.7196
 8475SOL    HW137061   0.727   3.885   8.586 -0.7540  0.6856  0.5904
 8475SOL    HW237062   0.858   3.945   8.542  0.0157 -1.6023  1.3655
 8476SOL     OW37063   0.649   2.219   3.023  0.3618  0.4506 -0.1137
 8476SOL    HW137064   0.724   2.160   3.012 -1.7002 -2.1381 -0.4348
 8476SOL    HW237065   0.612   2.177   3.101 -1.0005  1.5687 -0.1698
 8477SOL     OW37066   1.865   1.200   1.877  0.0525 -0.5153  0.6164
 8477SOL    HW137067   1.939   1.255   1.849  0.2709 -1.8617 -1.4270
 8477SOL    HW237068   1.906   1.118   1.852  2.2248  0.2747  1.6066
 8478SOL     OW37069   1.730   0.822   7.077  0.1357 -0.1342  1.1095
 8478SOL    HW137070   1.731   0.727   7.083  1.4847 -0.3597 -2.3709
 8478SOL    HW237071   1.636   0.836   7.085  0.3422  1.7708  0.3977
 8479SOL     OW37072   4.626   3.988   6.824 -0.0161 -0.3113 -0.0312
 8479SOL    HW137073   4.622   4.034   6.740  1.3115  1.3029  0.7952
 8479SOL    HW237074   4.624   4.057   6.889  0.5019  0.4929 -0.8670
 8480SOL     OW37075   4.055   4.672   1.115 -0.2536  0.5006  0.5227
 8480SOL    HW137076   3.963   4.667   1.139 -0.3169 -0.3822  0.0694
 8480SOL    HW237077   4.047   0.010   1.055  0.1839  0.3010  0.2127
 8481SOL     OW37078   1.834   1.635   1.675  0.5124  0.6586 -0.3150
 8481SOL    HW137079   1.879   1.670   1.752 -0.7954  1.6138  0.0144
 8481SOL    HW237080   1.906   1.608   1.617  1.3287  0.6632  0.6931
 8482SOL     OW37081   1.247   1.441   8.911  0.1891 -0.2844  0.1161
 8482SOL    HW137082   1.286   1.495   8.980 -2.8068  2.3673 -0.2952
 8482SOL    HW237083   1.163   1.486   8.900 -0.8285 -1.8609  1.3709
 8483SOL     OW37084   4.189   0.607   4.578 -0.1176  0.8718  0.4437
 8483SOL    HW137085   4.148   0.521   4.565 -0.3534  1.5684 -3.3269
 8483SOL    HW237086   4.272   0.578   4.615  0.2734 -3.5908 -3.8911
 8484SOL     OW37087   0.979   3.331   5.494  0.1327  0.2213 -0.5167
 8484SOL    HW137088   0.998   3.329   5.588  0.6659  0.2958 -0.6220
 8484SOL    HW237089   1.063   3.363   5.461  0.7180 -0.4961  0.2669
 8485SOL     OW37090   1.292   3.180   5.804 -0.6405 -0.6866  0.4250
 8485SOL    HW137091   1.210   3.231   5.807 -0.2349  0.0286 -0.5291
 8485SOL    HW237092   1.357   3.226   5.857 -2.0804  0.1525  1.4953
 8486SOL     OW37093   1.583   2.368   2.300  0.0755  0.0340 -0.1654
 8486SOL    HW137094   1.489   2.375   2.313 -0.3498 -1.6387 -2.4312
 8486SOL    HW237095   1.613   2.382   2.390 -1.8791  2.6590  0.0571
 8487SOL     OW37096   4.707   2.362   7.641 -0.1760  0.3528  0.1387
 8487SOL    HW137097   4.696   2.304   7.716  0.8167  2.9583  2.2786
 8487SOL    HW237098   4.717   2.444   7.689  0.8479 -0.9501  2.1254
 8488SOL     OW37099   4.121   3.776   2.511  0.4140 -0.3881 -0.0163
 8488SOL    HW137100   4.187   3.758   2.445  0.2220  0.6792 -0.5079
 8488SOL    HW237101   4.061   3.832   2.461 -0.8187  0.7725  2.7480
 8489SOL     OW37102   2.815   1.597   7.862 -0.4073 -0.3943 -0.3412
 8489SOL    HW137103   2.899   1.639   7.879 -0.6906 -1.0193  2.5681
 8489SOL    HW237104   2.822   1.528   7.928  0.3170 -0.9483 -0.9813
 8490SOL     OW37105   2.034   0.290   9.872  0.5091 -0.0353 -0.0432
 8490SOL    HW137106   1.958   0.343   9.846  0.6805 -0.1420 -0.7526
 8490SOL    HW237107   2.096   0.362   9.867  1.1373 -0.3564  3.0334
 8491SOL     OW37108   2.165   4.660   5.502  0.6716 -0.4709  0.7448
 8491SOL    HW137109   2.175   4.661   5.407  1.2854 -1.2209  0.8027
 8491SOL    HW237110   2.070   4.658   5.513  0.8901  0.6204  2.9402
 8492SOL     OW37111   0.474   3.266   0.616  0.0725 -0.2797 -0.0282
 8492SOL    HW137112   0.383   3.294   0.604  1.3370  3.0366 -1.8142
 8492SOL    HW237113   0.495   3.331   0.684  1.0206 -1.3885  0.7322
 8493SOL     OW37114   0.053   1.118   9.631 -0.2215 -0.0872  0.1584
 8493SOL    HW137115   0.132   1.079   9.596 -0.7518 -0.8775 -0.1507
 8493SOL    HW237116   0.061   1.088   9.721  0.4748 -0.9866 -0.1989
 8494SOL     OW37117   0.657   1.597  10.970 -0.4926  0.2912  0.0218
 8494SOL    HW137118   0.630   1.674  11.021 -0.5189  0.6733 -0.5626
 8494SOL    HW237119   0.601   1.609  10.893  1.6049  0.6543 -1.4483
 8495SOL     OW37120   4.398   3.052   4.371  0.4175 -0.1071 -0.3175
 8495SOL    HW137121   4.483   3.090   4.394  0.4087  0.2447 -0.8425
 8495SOL    HW237122   4.361   3.113   4.307  0.4399 -1.3919 -1.5657
 8496SOL     OW37123   3.589   3.099   3.660  0.5405  0.2441 -0.1265
 8496SOL    HW137124   3.507   3.119   3.705  0.9003  0.7377  0.3151
 8496SOL    HW237125   3.579   3.169   3.595  0.6088 -0.1217 -0.5252
 8497SOL     OW37126   0.798   3.112   2.341 -0.5227 -0.0793 -0.1224
 8497SOL    HW137127   0.820   3.068   2.259  2.3077  1.3808 -0.1289
 8497SOL    HW237128   0.810   3.036   2.399  3.3835 -0.0857 -0.9653
 8498SOL     OW37129   2.025   1.209   9.646 -0.3265 -0.0755 -0.1896
 8498SOL    HW137130   2.054   1.250   9.564 -0.7907  0.2334 -0.2003
 8498SOL    HW237131   1.937   1.247   9.645 -0.1688  0.2938 -0.0078
 8499SOL     OW37132   0.096   1.017   4.735  0.3070  0.3495 -0.0538
 8499SOL    HW137133   0.055   1.101   4.756  3.6842  1.9615  0.0315
 8499SOL    HW237134   0.100   0.970   4.818 -3.5240  0.4579  0.2000
 8500SOL     OW37135   2.885   2.903   1.759  0.0040 -0.4490 -0.3190
 8500SOL    HW137136   2.904   2.838   1.826  0.7025 -1.7639 -1.7800
 8500SOL    HW237137   2.878   2.845   1.682 -2.1786 -1.6277  0.7783
 8501SOL     OW37138   3.057   3.376   9.502  0.0849  0.6084 -0.2133
 8501SOL    HW137139   3.121   3.357   9.434 -3.0555 -1.0358 -2.7358
 8501SOL    HW237140   3.103   3.326   9.570  2.1209 -1.9556 -3.4683
 8502SOL     OW37141   2.929   2.400   1.559 -0.2292  0.5520  0.1279
 8502SOL    HW137142   2.858   2.436   1.612 -0.9154 -2.4697  1.2376
 8502SOL    HW237143   2.991   2.388   1.631 -0.8077 -0.6741  0.4072
 8503SOL     OW37144   4.352   0.944   1.257 -0.6039 -0.3691  0.5655
 8503SOL    HW137145   4.362   0.855   1.290  2.2434 -0.8269 -1.5013
 8503SOL    HW237146   4.424   0.983   1.305 -0.4761  0.3734 -0.2395
 8504SOL     OW37147   1.537   0.787   5.328 -0.5511  0.5013  0.0816
 8504SOL    HW137148   1.492   0.831   5.256  0.3225  3.0149  1.0834
 8504SOL    HW237149   1.502   0.698   5.332 -0.2776  0.4113  0.4799
 8505SOL     OW37150   0.110   2.052   8.121 -0.4210  0.4215 -0.0005
 8505SOL    HW137151   0.031   2.013   8.084  0.7263 -0.0571 -1.9336
 8505SOL    HW237152   0.118   2.012   8.208  1.8737 -0.4396 -0.6151
 8506SOL     OW37153   0.350   4.345   8.312  0.6077 -0.3751  0.3600
 8506SOL    HW137154   0.372   4.257   8.342 -0.3099 -0.4809  0.7236
 8506SOL    HW237155   0.256   4.352   8.330  0.2155 -0.2857 -1.6434
 8507SOL     OW37156   3.066   3.475   1.875  0.0885  0.2848 -0.0326
 8507SOL    HW137157   3.117   3.464   1.796 -2.3786  2.0900 -1.8706
 8507SOL    HW237158   3.054   3.570   1.878 -0.9597  0.2232 -2.0222
 8508SOL     OW37159   2.269   0.549   9.331  0.3424 -0.4576 -0.1489
 8508SOL    HW137160   2.295   0.481   9.393 -0.7606 -1.2537 -0.5603
 8508SOL    HW237161   2.351   0.592   9.309 -0.2746  1.4208  1.1426
 8509SOL     OW37162   2.403   3.446   3.552  0.1653 -0.2865 -0.3321
 8509SOL    HW137163   2.310   3.463   3.569  0.7015  0.9103  1.3640
 8509SOL    HW237164   2.404   3.352   3.570 -0.6568 -0.2625 -0.1597
 8510SOL     OW37165   0.664   3.019   9.433  0.2899 -0.2496  0.0431
 8510SOL    HW137166   0.706   3.009   9.348 -0.2223  0.7212 -0.3239
 8510SOL    HW237167   0.662   3.115   9.430  1.0804 -0.1944  0.9074
 8511SOL     OW37168   2.910   1.565   1.069 -0.2423 -0.1582 -0.2297
 8511SOL    HW137169   2.870   1.563   1.156  0.3450 -0.4195  0.0368
 8511SOL    HW237170   2.994   1.521   1.084 -1.4023 -1.1407  3.3350
 8512SOL     OW37171   0.655   2.478   1.404 -0.6215  0.1161  0.4966
 8512SOL    HW137172   0.572   2.522   1.388 -0.4135  1.6456  3.7128
 8512SOL    HW237173   0.646   2.420   1.328  0.8297 -0.6891  0.9226
 8513SOL     OW37174   1.991   3.748   1.728  0.1872  0.3651  0.5167
 8513SOL    HW137175   2.010   3.836   1.696  1.2790  0.3878  1.2352
 8513SOL    HW237176   2.059   3.740   1.795  1.4852  3.0581 -0.4795
 8514SOL     OW37177   3.653   0.883   5.782 -0.1129  0.6858 -0.5768
 8514SOL    HW137178   3.621   0.963   5.824 -0.0204  1.1103 -1.3207
 8514SOL    HW237179   3.575   0.852   5.736  0.0846 -1.5950  0.6062
 8515SOL     OW37180   1.533   0.514   8.469 -0.3447  0.8249  0.8597
 8515SOL    HW137181   1.604   0.454   8.492  0.3316  0.8941 -1.1408
 8515SOL    HW237182   1.461   0.475   8.519 -0.7237  0.8703  0.3425
 8516SOL     OW37183   1.011   0.797   9.620 -0.0001  0.3612 -0.1379
 8516SOL    HW137184   1.047   0.885   9.626  0.8429  0.0530 -0.6666
 8516SOL    HW237185   1.091   0.746   9.637 -1.0013 -0.9164  0.7433
 8517SOL     OW37186   3.573   2.293  17.701 -0.7630 -0.0251 -0.0587
 8517SOL    HW137187   3.502   2.328   0.008 -0.0447  1.4266 -0.0507
 8517SOL    HW237188   3.635   2.272   0.025 -1.9555 -1.0543  0.7013
 8518SOL     OW37189   2.697   4.643  14.448  0.1231 -0.4380 -0.1600
 8518SOL    HW137190   2.604   4.661  14.460  0.3918 -0.2392  1.5626
 8518SOL    HW237191   2.722   4.675  14.361  1.6275 -0.3771  0.2928
 8519SOL     OW37192   2.076   4.654   3.763  0.1670 -0.4678 -0.3118
 8519SOL    HW137193   2.106   4.687   3.679  2.1246  1.3627  1.1026
 8519SOL    HW237194   2.148   4.600   3.798  0.9401 -0.0897 -1.3206
 8520SOL     OW37195   4.029   0.463   7.430  0.3972 -0.4204 -0.2160
 8520SOL    HW137196   3.987   0.469   7.515 -1.1055  1.2594 -1.0803
 8520SOL    HW237197   3.986   0.381   7.404 -1.1565  0.4997 -0.5262
 8521SOL     OW37198   2.130   1.033  11.780 -0.4787 -0.2007 -0.4120
 8521SOL    HW137199   2.197   1.017  11.714  0.8465 -1.4969  1.2633
 8521SOL    HW237200   2.169   1.114  11.814 -0.0735  0.3574 -2.2053
 8522SOL     OW37201   2.840   2.267   3.361 -0.1064 -0.9451 -0.4495
 8522SOL    HW137202   2.868   2.196   3.303 -1.3154 -0.4588 -1.6200
 8522SOL    HW237203   2.789   2.221   3.427  0.1247  0.8224  0.9386
 8523SOL     OW37204   3.381   3.670   0.647 -0.1527 -0.0835  0.0691
 8523SOL    HW137205   3.438   3.594   0.660  1.4514  1.3188  1.2870
 8523SOL    HW237206   3.393   3.681   0.552 -3.6769  0.0606 -0.3668
 8524SOL     OW37207   4.676   0.141  17.509 -0.5346  0.2697  0.3691
 8524SOL    HW137208   4.666   0.118  17.417  1.7619  1.8868 -0.2854
 8524SOL    HW237209   4.604   0.094  17.550  0.5717 -0.6938  1.2338
 8525SOL     OW37210   3.723   1.754   4.803 -0.1986 -0.4920 -0.0189
 8525SOL    HW137211   3.654   1.688   4.811 -1.9362  1.3870  0.4461
 8525SOL    HW237212   3.805   1.712   4.776 -0.4169 -1.0868  0.2433
 8526SOL     OW37213   0.593   0.180   5.021  0.6033  0.0968  0.5273
 8526SOL    HW137214   0.613   0.094   4.984 -0.6685  0.3071 -0.6504
 8526SOL    HW237215   0.666   0.223   4.977  1.9120 -1.3732  1.2569
 8527SOL     OW37216   3.955   3.559   8.082 -0.0235 -0.3358 -0.2483
 8527SOL    HW137217   3.955   3.463   8.084  1.8147 -0.3411 -0.7456
 8527SOL    HW237218   3.920   3.571   7.994 -3.7575  0.2641  1.3431
 8528SOL     OW37219   1.325   4.235   0.052  0.0867  0.3957  1.2597
 8528SOL    HW137220   1.387   4.165   0.030  0.1957  0.8247  0.2029
 8528SOL    HW237221   1.269   4.249  17.722  1.2960 -0.9704  0.1240
 8529SOL     OW37222   4.635   3.750   5.576 -0.6991 -0.4378 -0.5905
 8529SOL    HW137223   4.544   3.756   5.607 -0.5435  1.9462 -0.6308
 8529SOL    HW237224   4.630   3.775   5.484 -2.2522 -2.8029 -1.1472
 8530SOL     OW37225   3.776   0.607   8.776  0.5044  0.1351 -0.4344
 8530SOL    HW137226   3.790   0.701   8.761 -0.6641  0.0712 -1.8841
 8530SOL    HW237227   3.806   0.577   8.690  1.7108 -0.4685  0.1979
 8531SOL     OW37228   1.369   1.409   7.781 -0.2602 -0.4289 -0.4357
 8531SOL    HW137229   1.280   1.375   7.774 -0.2562 -0.5297 -0.0129
 8531SOL    HW237230   1.422   1.337   7.815  0.2589  0.5293  0.7927
 8532SOL     OW37231   2.546   4.364  15.025 -0.3193 -0.1397  0.6154
 8532SOL    HW137232   2.454   4.362  14.998 -0.4156 -0.8477  0.9747
 8532SOL    HW237233   2.577   4.312  14.951  0.6465  0.7234  0.4146
 8533SOL     OW37234   2.742   2.953   0.407 -0.2015 -0.1533  0.7781
 8533SOL    HW137235   2.776   3.033   0.367 -1.7586 -0.5546 -1.3344
 8533SOL    HW237236   2.669   2.982   0.461  0.0987  0.7399  0.6903
 8534SOL     OW37237   1.299   0.340   3.052  0.1063  0.3678  0.2270
 8534SOL    HW137238   1.384   0.350   3.093 -0.3230  2.5405  0.5900
 8534SOL    HW237239   1.242   0.309   3.123 -0.5351 -0.4071 -0.6296
 8535SOL     OW37240   4.047   2.750  13.076 -0.5389  0.7597  0.5829
 8535SOL    HW137241   3.955   2.767  13.055 -1.1532 -0.1383  2.4878
 8535SOL    HW237242   4.057   2.661  13.110 -1.4309  1.0841  1.7170
 8536SOL     OW37243   2.949   2.418  11.856  0.5678  0.3484  0.0921
 8536SOL    HW137244   2.916   2.381  11.938 -2.2257  0.2965 -1.0252
 8536SOL    HW237245   2.872   2.405  11.800  2.1361  0.9888 -2.2171
 8537SOL     OW37246   3.715   1.253   2.365  0.0152 -0.1001  0.0958
 8537SOL    HW137247   3.810   1.266   2.371 -0.3330  0.7872  3.4888
 8537SOL    HW237248   3.686   1.278   2.453 -1.0065  1.1986 -0.6266
 8538SOL     OW37249   3.881   1.039   8.989  0.3684  0.3193 -0.0910
 8538SOL    HW137250   3.823   1.014   9.061 -1.9531 -1.3122 -2.4918
 8538SOL    HW237251   3.862   1.133   8.984 -0.2956  0.1251 -1.1905
 8539SOL     OW37252   0.804   0.601   2.756  0.9432  0.0870  0.6974
 8539SOL    HW137253   0.894   0.633   2.766  1.5661 -1.2858 -0.5463
 8539SOL    HW237254   0.822   0.508   2.749  0.2224 -0.1096  1.4324
 8540SOL     OW37255   2.181   1.503   5.472 -0.1267  0.6164  0.8028
 8540SOL    HW137256   2.258   1.553   5.443 -0.3678 -0.8465 -2.3410
 8540SOL    HW237257   2.203   1.417   5.436  0.2842  1.4398 -0.8865
 8541SOL     OW37258   3.010   1.837  11.466 -0.1126  0.7578 -0.0703
 8541SOL    HW137259   3.014   1.842  11.370 -0.1326  1.5004 -0.0331
 8541SOL    HW237260   2.942   1.770  11.468  1.3040 -0.6759  0.6260
 8542SOL     OW37261   0.708   2.940   4.478  0.1570 -0.1756  0.0431
 8542SOL    HW137262   0.737   3.029   4.456 -0.1332 -0.5166 -1.7511
 8542SOL    HW237263   0.677   2.948   4.568  0.3762  0.5031  0.0614
 8543SOL     OW37264   0.516   2.767   3.101  0.1344 -0.3170 -0.4645
 8543SOL    HW137265   0.524   2.676   3.129  2.0839  1.0750  3.5359
 8543SOL    HW237266   0.547   2.773   3.011  1.6727  0.2868  0.1073
 8544SOL     OW37267   0.385   4.134   3.933  0.3736 -0.4462  0.0136
 8544SOL    HW137268   0.350   4.194   3.999  0.8441 -0.0294 -0.1161
 8544SOL    HW237269   0.355   4.188   3.859  0.8392  0.3809  0.4263
 8545SOL     OW37270   1.647   1.732   0.238 -0.1594  0.6307  0.1461
 8545SOL    HW137271   1.706   1.748   0.312  0.6396  2.2839 -0.8642
 8545SOL    HW237272   1.684   1.781   0.165 -0.4897  0.4222 -0.1575
 8546SOL     OW37273   3.002   4.562   9.134  0.0986  0.1961 -0.1459
 8546SOL    HW137274   2.912   4.561   9.102  0.2156 -1.0031 -0.4430
 8546SOL    HW237275   2.992   4.635   9.195  1.1001  0.3385 -0.1606
 8547SOL     OW37276   4.450   0.595   9.099  0.3338  0.1689  0.3716
 8547SOL    HW137277   4.393   0.611   9.174 -0.4695 -2.4146  0.3096
 8547SOL    HW237278   4.396   0.646   9.039  1.6525  0.7917 -0.3039
 8548SOL     OW37279   3.225   1.435   0.151  0.1072  0.3852 -0.3268
 8548SOL    HW137280   3.160   1.428   0.221 -0.6347  0.3045 -1.0337
 8548SOL    HW237281   3.166   1.428   0.077  0.8927 -0.3052 -0.8902
 8549SOL     OW37282   1.126   2.929  14.451 -0.2390 -0.1843 -0.5477
 8549SOL    HW137283   1.212   2.916  14.491 -0.1015  0.3093 -0.6814
 8549SOL    HW237284   1.083   2.844  14.461 -0.0350 -0.2303 -0.0948
 8550SOL     OW37285   2.793   0.695  15.582  0.3091  0.2405  0.1406
 8550SOL    HW137286   2.879   0.682  15.543 -0.0849  0.3474 -0.7735
 8550SOL    HW237287   2.814   0.768  15.639  0.0968  1.2566 -1.0881
 8551SOL     OW37288   2.464   2.612   9.369 -0.1302 -0.5183 -0.6300
 8551SOL    HW137289   2.470   2.683   9.306 -0.0552  0.5098  0.5348
 8551SOL    HW237290   2.368   2.605   9.362 -0.2049 -0.3229  0.2101
 8552SOL     OW37291   4.482   3.759  12.766  0.1498  0.1028  0.4432
 8552SOL    HW137292   4.440   3.826  12.711  0.6481 -0.0538 -0.1338
 8552SOL    HW237293   4.576   3.769  12.751 -0.0238  2.6747  1.0486
 8553SOL     OW37294   3.519   4.009   7.680  0.0337 -0.8393 -0.1269
 8553SOL    HW137295   3.470   4.054   7.611  0.7166  1.1621  0.6741
 8553SOL    HW237296   3.456   4.003   7.751 -1.5108  0.5563 -1.3697
 8554SOL     OW37297   4.591   3.084   6.376  0.1728  0.5102 -0.1161
 8554SOL    HW137298   4.597   3.176   6.348  3.1763 -0.0694 -1.3795
 8554SOL    HW237299   4.685   3.065   6.372 -0.0596 -0.7950  0.6086
 8555SOL     OW37300   0.380   3.019  16.042  0.0301 -0.1798 -0.0991
 8555SOL    HW137301   0.301   2.977  16.078  0.5637 -0.8109  0.3285
 8555SOL    HW237302   0.346   3.109  16.040 -0.2219 -0.1848  2.9675
 8556SOL     OW37303   1.177   1.774  12.014 -0.2078 -0.5582 -0.7358
 8556SOL    HW137304   1.240   1.717  11.971  0.8479  0.2733 -0.2891
 8556SOL    HW237305   1.143   1.718  12.083  1.1363  1.2000  1.3558
 8557SOL     OW37306   3.604   2.469  15.271  0.2615  0.3693  0.2521
 8557SOL    HW137307   3.523   2.450  15.317 -0.4144 -1.6929 -1.7751
 8557SOL    HW237308   3.569   2.502  15.188 -0.1383  2.4541  1.2496
 8558SOL     OW37309   2.027   2.688  13.810  0.2437  1.1790 -0.3871
 8558SOL    HW137310   1.978   2.763  13.844 -0.8153  0.4266 -0.2704
 8558SOL    HW237311   1.983   2.680  13.725  1.3071 -2.3979 -0.5865
 8559SOL     OW37312   2.740   2.335   7.152 -0.0503  0.4166 -0.1074
 8559SOL    HW137313   2.770   2.247   7.174  2.0345  1.3595  0.8713
 8559SOL    HW237314   2.694   2.361   7.232 -1.9440  4.0517 -2.3966
 8560SOL     OW37315   2.072   4.723   4.942 -0.0005  0.1968 -0.0791
 8560SOL    HW137316   2.161   4.690   4.932  0.2711  0.8429  0.1779
 8560SOL    HW237317   2.070   0.034   4.858  0.7408  0.9373  0.3260
 8561SOL     OW37318   2.257   0.988   6.015 -0.6152 -0.1449 -0.1478
 8561SOL    HW137319   2.321   0.918   5.998  0.0768  0.6936 -0.9529
 8561SOL    HW237320   2.259   1.045   5.938 -0.0722 -2.1628 -1.6254
 8562SOL     OW37321   1.477   1.201   7.071  0.2902 -0.3425  0.0714
 8562SOL    HW137322   1.424   1.139   7.020 -1.1763  1.8361 -1.0500
 8562SOL    HW237323   1.523   1.145   7.133 -1.3181  0.2610  1.7841
 8563SOL     OW37324   0.584   2.031   5.920 -0.2708  0.1056 -0.4071
 8563SOL    HW137325   0.534   2.015   6.000  2.3568 -0.3855  1.1368
 8563SOL    HW237326   0.517   2.029   5.852 -1.1842  1.7303  0.4449
 8564SOL     OW37327   3.274   2.142   8.626 -0.4660  0.1275 -0.7738
 8564SOL    HW137328   3.222   2.098   8.694  1.1222  0.3459  0.5842
 8564SOL    HW237329   3.338   2.075   8.602  0.0286  0.4843 -0.4536
 8565SOL     OW37330   1.934   4.582  12.532 -0.0141  0.2721 -0.1276
 8565SOL    HW137331   1.933   4.531  12.614  1.5792 -3.8587 -2.6954
 8565SOL    HW237332   1.847   4.620  12.538 -0.5982 -1.3418  1.5784
 8566SOL     OW37333   0.438   1.151   7.937  0.0342  0.0956  0.1307
 8566SOL    HW137334   0.373   1.215   7.964  1.5579  2.0209 -0.7665
 8566SOL    HW237335   0.481   1.203   7.869 -1.3519  0.5666 -0.3809
 8567SOL     OW37336   1.736   0.861  16.294 -0.2983  0.6284  0.1787
 8567SOL    HW137337   1.754   0.947  16.256 -0.2445  1.1482  1.3910
 8567SOL    HW237338   1.642   0.863  16.311 -0.0589 -0.3227  1.5690
 8568SOL     OW37339   3.190   1.304   5.560  0.2057  0.0746 -0.1144
 8568SOL    HW137340   3.260   1.241   5.574  0.3625  0.6041  1.4373
 8568SOL    HW237341   3.240   1.380   5.531 -0.2884  0.9716  1.3782
 8569SOL     OW37342   4.546   2.812  15.993 -0.4161 -0.0673 -0.0453
 8569SOL    HW137343   4.543   2.769  15.907 -1.2199  0.0034 -0.0604
 8569SOL    HW237344   4.477   2.878  15.985  0.5445  0.8609 -0.5295
 8570SOL     OW37345   1.550   1.609   7.534 -0.0630  0.4437  0.3824
 8570SOL    HW137346   1.502   1.661   7.599 -1.6474  0.6231 -0.9185
 8570SOL    HW237347   1.627   1.581   7.582 -0.1464  1.7610  1.3009
 8571SOL     OW37348   1.485   0.433   9.282 -0.1230  0.2264 -0.1064
 8571SOL    HW137349   1.391   0.424   9.264 -0.2461 -0.1118  0.7001
 8571SOL    HW237350   1.518   0.357   9.233 -3.2701  0.7787 -3.0685
 8572SOL     OW37351   1.701   0.112   7.058  0.1875 -0.5492  0.3078
 8572SOL    HW137352   1.774   0.099   6.997 -0.4731 -2.2550 -0.1254
 8572SOL    HW237353   1.742   0.097   7.143 -0.4772 -2.9246  0.2294
 8573SOL     OW37354   2.620   1.723   7.240 -0.1496 -0.3789  0.2561
 8573SOL    HW137355   2.677   1.706   7.315 -1.9973  1.4558  2.1104
 8573SOL    HW237356   2.538   1.754   7.280  0.4932  2.2078 -0.4084
 8574SOL     OW37357   1.743   3.171   8.028 -0.3322 -0.4194 -0.1230
 8574SOL    HW137358   1.804   3.139   8.095 -0.1391 -0.2279 -0.2090
 8574SOL    HW237359   1.658   3.146   8.064 -0.7588 -0.0422 -0.8843
 8575SOL     OW37360   0.691   4.702   4.905  0.4005 -0.0342 -0.4099
 8575SOL    HW137361   0.748   4.630   4.929 -1.3333 -1.0992  0.5339
 8575SOL    HW237362   0.696   4.696   4.809 -1.6478 -0.3717 -0.5102
 8576SOL     OW37363   1.563   0.616   3.241 -0.4138  0.4265  0.0617
 8576SOL    HW137364   1.635   0.668   3.277 -0.4455  1.6794 -1.6843
 8576SOL    HW237365   1.563   0.670   3.162 -1.3430 -0.1998 -0.3553
 8577SOL     OW37366   0.480   3.819  14.425  0.2052 -0.1573 -0.4752
 8577SOL    HW137367   0.481   3.724  14.424 -2.1292 -0.2256  1.6594
 8577SOL    HW237368   0.476   3.839  14.518  1.0661 -0.9315 -0.2777
 8578SOL     OW37369   1.872   3.727   8.449  0.4842 -0.3986  0.6422
 8578SOL    HW137370   1.902   3.666   8.516  2.0270 -2.6551 -2.1142
 8578SOL    HW237371   1.940   3.738   8.383 -1.4107 -2.0726 -1.6044
 8579SOL     OW37372   2.926   3.075   4.995  0.0264 -0.5327  0.0384
 8579SOL    HW137373   2.976   3.107   4.919  1.4017 -0.4471  0.9870
 8579SOL    HW237374   2.874   3.151   5.022 -1.7789 -2.0315  0.7216
 8580SOL     OW37375   2.639   4.127   7.665  1.0637  0.0291 -0.1211
 8580SOL    HW137376   2.611   4.107   7.575  0.8548 -2.4767  0.4947
 8580SOL    HW237377   2.631   4.222   7.660  0.1654 -0.0672 -0.5843
 8581SOL     OW37378   3.098   0.060  13.568  0.5063 -0.3674 -0.8131
 8581SOL    HW137379   3.017   0.046  13.617  0.4439 -0.0708 -0.8324
 8581SOL    HW237380   3.069   0.124  13.504  1.2508  1.5288  0.7572
 8582SOL     OW37381   3.301   4.078  12.805  0.6196 -0.4263  0.1988
 8582SOL    HW137382   3.315   4.149  12.743 -2.2820 -1.0712 -1.1868
 8582SOL    HW237383   3.238   4.120  12.864 -0.8541  0.0146 -1.6994
 8583SOL     OW37384   1.871   1.745  12.235 -0.1588  0.2274  0.0794
 8583SOL    HW137385   1.817   1.717  12.161 -0.4020  1.3361 -0.1680
 8583SOL    HW237386   1.860   1.676  12.300  1.1975  0.8712  0.9929
 8584SOL     OW37387   1.518   4.572   4.752 -0.2356 -0.9266 -0.5458
 8584SOL    HW137388   1.445   4.608   4.702  2.0528  2.8091 -1.1749
 8584SOL    HW237389   1.464   4.505   4.796 -0.5746  0.7141  1.5408
 8585SOL     OW37390   3.014   0.868   8.783  0.4142 -0.3190 -0.2154
 8585SOL    HW137391   3.057   0.949   8.811  1.2606 -0.7298 -0.3477
 8585SOL    HW237392   3.093   0.821   8.757  2.6212  1.9447  2.3204
 8586SOL     OW37393   3.559   1.952   5.971  0.3368 -0.1579  0.0780
 8586SOL    HW137394   3.531   1.928   6.060  0.9754 -0.4395  0.2005
 8586SOL    HW237395   3.483   1.976   5.918 -1.3779 -2.4740  1.4838
 8587SOL     OW37396   4.245   4.560   7.792  0.5671 -0.6736  0.3468
 8587SOL    HW137397   4.303   4.570   7.867  0.2135  0.4288  0.4655
 8587SOL    HW237398   4.164   4.522   7.828  0.4366 -0.4337  0.3034
 8588SOL     OW37399   2.423   2.099   1.669 -0.3105  0.6801  0.5601
 8588SOL    HW137400   2.394   2.189   1.658 -2.2602  0.0883  0.8512
 8588SOL    HW237401   2.382   2.056   1.594  1.7680  1.2052 -0.8782
 8589SOL     OW37402   3.373   4.120   7.475  0.0087 -0.3122 -0.2123
 8589SOL    HW137403   3.316   4.114   7.398  0.4752  0.8649 -0.6439
 8589SOL    HW237404   3.396   4.212   7.468 -2.9942  0.2872 -2.1950
 8590SOL     OW37405   4.685   3.989   5.159  0.0117 -0.0834  0.2056
 8590SOL    HW137406   4.653   4.061   5.104  0.8305 -1.2787 -1.8515
 8590SOL    HW237407   4.667   3.911   5.106  0.9673  0.9079 -1.5877
 8591SOL     OW37408   2.391   3.136   1.784  0.9716 -0.6902 -0.0555
 8591SOL    HW137409   2.460   3.096   1.730 -1.7691  0.0155 -4.0733
 8591SOL    HW237410   2.325   3.068   1.773  0.4036 -0.2712  0.8139
 8592SOL     OW37411   3.044   3.383   8.706 -0.8447 -0.0832  0.3103
 8592SOL    HW137412   2.969   3.328   8.687  0.6869 -2.0802  0.0402
 8592SOL    HW237413   3.039   3.426   8.621 -2.4001  3.5615  2.2075
 8593SOL     OW37414   2.006   1.083   1.225 -0.0254  0.0553 -0.7298
 8593SOL    HW137415   1.986   1.040   1.142  4.0583  0.5170 -1.9685
 8593SOL    HW237416   1.923   1.083   1.273  0.1783  0.9173 -0.3781
 8594SOL     OW37417   1.656   2.705   7.406  1.0502 -0.1595 -0.5162
 8594SOL    HW137418   1.714   2.693   7.481 -1.8192 -2.4655  1.3075
 8594SOL    HW237419   1.642   2.612   7.385 -1.8291 -0.4108  2.5355
 8595SOL     OW37420   1.236   3.396   7.052 -0.0677  0.2658 -0.1959
 8595SOL    HW137421   1.300   3.328   7.030 -1.1816 -0.7869 -0.1680
 8595SOL    HW237422   1.207   3.376   7.141  2.3542 -2.8362 -0.0965
 8596SOL     OW37423   2.879   0.142   4.428  0.2527  0.5374  0.6439
 8596SOL    HW137424   2.904   0.082   4.500 -0.2260  0.5911  0.8533
 8596SOL    HW237425   2.875   0.083   4.353  1.8559  0.4741  0.6051
 8597SOL     OW37426   0.886   3.601   5.495  0.1618 -0.5306  0.2007
 8597SOL    HW137427   0.813   3.613   5.434  0.4875  3.3165  0.5637
 8597SOL    HW237428   0.927   3.516   5.481 -0.7419 -0.3751 -3.2433
 8598SOL     OW37429   4.282   3.971   6.971  0.4190  0.5433  0.2463
 8598SOL    HW137430   4.220   3.914   7.015  0.7189 -1.1369 -1.4943
 8598SOL    HW237431   4.256   4.054   7.012 -1.6028  0.4890 -0.9334
 8599SOL     OW37432   3.362   4.204   9.274  0.2040 -0.0614 -0.9343
 8599SOL    HW137433   3.304   4.128   9.267  0.4548 -0.3583  0.1659
 8599SOL    HW237434   3.307   4.262   9.326 -0.6721 -1.3541 -0.4139
 8600SOL     OW37435   1.965   0.781   4.242 -0.1737  0.5773  0.4730
 8600SOL    HW137436   1.882   0.764   4.288 -1.1337 -1.2112 -1.9030
 8600SOL    HW237437   1.948   0.732   4.161 -0.1656 -0.7768  1.2985
 8601SOL     OW37438   4.699   4.246   6.060 -0.5824 -0.3139  0.5855
 8601SOL    HW137439   0.023   4.185   6.019  1.0075  3.5503 -2.8321
 8601SOL    HW237440   0.017   4.279   6.131 -0.4289 -0.3534  0.4850
 8602SOL     OW37441   1.355   1.151   6.504  0.5602  0.0619  0.2405
 8602SOL    HW137442   1.317   1.214   6.443 -0.3275 -0.3329  0.3820
 8602SOL    HW237443   1.437   1.120   6.464  1.2466 -0.0083  1.6868
 8603SOL     OW37444   3.377   2.447  15.492 -0.2115  0.3160  0.4135
 8603SOL    HW137445   3.417   2.440  15.579  0.0913 -2.2709  0.0529
 8603SOL    HW237446   3.301   2.392  15.509  0.8571 -1.3605 -0.2177
 8604SOL     OW37447   1.584   4.028   6.065 -0.2418 -0.2467  0.2248
 8604SOL    HW137448   1.679   4.039   6.064 -0.1637 -0.4463  4.6178
 8604SOL    HW237449   1.557   4.080   5.989 -0.0689  0.7387  0.8297
 8605SOL     OW37450   3.270   0.967   3.210  0.4842  0.4943  0.6909
 8605SOL    HW137451   3.222   0.897   3.255 -1.2965  0.6813 -0.9071
 8605SOL    HW237452   3.329   0.920   3.151  0.3468 -1.3883  2.0218
 8606SOL     OW37453   3.968   0.312   2.373 -0.1273  1.1151 -0.4133
 8606SOL    HW137454   3.925   0.249   2.315 -0.7407  2.4354 -1.3944
 8606SOL    HW237455   3.910   0.358   2.433 -1.5226 -1.0879 -0.0583
 8607SOL     OW37456   3.209   3.660   8.290 -0.0811  0.2487  0.1868
 8607SOL    HW137457   3.148   3.728   8.261 -1.4300 -1.2285 -0.3860
 8607SOL    HW237458   3.288   3.712   8.304  0.4471 -0.9645  1.7249
 8608SOL     OW37459   2.191   1.842   3.823 -0.0983 -0.6503  0.6874
 8608SOL    HW137460   2.282   1.859   3.847 -1.3472  2.2419  3.2980
 8608SOL    HW237461   2.186   1.867   3.730  2.1443  0.8434  0.9574
 8609SOL     OW37462   1.572   2.037   4.937  0.3602 -0.2380 -0.0687
 8609SOL    HW137463   1.571   1.948   4.901  4.2832  0.0788 -1.0114
 8609SOL    HW237464   1.482   2.065   4.921  0.9546  1.3684 -0.5623
 8610SOL     OW37465   0.841   3.454   0.638  0.2077  0.2696 -0.0244
 8610SOL    HW137466   0.873   3.365   0.652  1.2237  0.4797 -0.9454
 8610SOL    HW237467   0.751   3.447   0.667 -0.2438  0.4274 -1.3672
 8611SOL     OW37468   2.881   2.145   8.838 -0.4629  0.0455 -0.0059
 8611SOL    HW137469   2.970   2.130   8.868 -0.4350 -0.3899 -0.3185
 8611SOL    HW237470   2.884   2.144   8.742  0.6745 -2.2873  0.0568
 8612SOL     OW37471   2.690   2.604   7.028  0.1126 -0.2876 -0.2055
 8612SOL    HW137472   2.627   2.555   6.975  0.0403  0.7986 -1.1219
 8612SOL    HW237473   2.730   2.537   7.084  1.0647 -0.0662 -0.6176
 8613SOL     OW37474   0.244   3.612   4.520 -0.3334 -0.0914  0.4645
 8613SOL    HW137475   0.181   3.647   4.457 -2.7584 -1.7258  1.9961
 8613SOL    HW237476   0.185   3.597   4.594 -0.9065 -0.2204 -0.0265
 8614SOL     OW37477   1.635   1.565   3.429  0.2338  0.3653  0.0069
 8614SOL    HW137478   1.622   1.519   3.513  1.2536  1.2190  0.6280
 8614SOL    HW237479   1.574   1.639   3.423 -1.6887 -1.0499  1.8394
 8615SOL     OW37480   4.255   4.115  11.505 -0.2934  0.0592 -0.1037
 8615SOL    HW137481   4.309   4.128  11.427  0.7018 -0.7314  0.4585
 8615SOL    HW237482   4.294   4.034  11.538 -1.4333 -0.7879 -0.8390
 8616SOL     OW37483   2.045   1.561   4.949 -0.2796  0.1428 -0.2455
 8616SOL    HW137484   1.993   1.534   5.025  0.9176 -0.6558  0.2794
 8616SOL    HW237485   2.005   1.510   4.879  1.4479 -1.5779  0.0370
 8617SOL     OW37486   1.564   1.054   7.300 -0.5318  0.3045 -0.5454
 8617SOL    HW137487   1.637   1.082   7.355 -1.3153 -2.6877  1.9722
 8617SOL    HW237488   1.567   0.963   7.329  1.9439  0.6061  0.1270
 8618SOL     OW37489   3.991   1.323   8.785 -0.0190  0.1572  0.0222
 8618SOL    HW137490   4.044   1.383   8.733  0.5918 -1.2152 -0.9358
 8618SOL    HW237491   3.907   1.369   8.787  0.8870  1.8469 -0.6784
 8619SOL     OW37492   3.382   3.169   7.167  0.2582 -0.2871  0.4834
 8619SOL    HW137493   3.472   3.164   7.134 -0.4576 -1.1044 -1.3038
 8619SOL    HW237494   3.346   3.254   7.143 -0.6146 -0.6945  0.3810
 8620SOL     OW37495   3.384   4.221   6.352 -0.2354  0.3649 -0.0177
 8620SOL    HW137496   3.345   4.199   6.267 -1.3987  0.0983  0.5885
 8620SOL    HW237497   3.326   4.295   6.371 -0.7663 -0.1415  0.3629
 8621SOL     OW37498   0.285   2.269   6.680  0.1265  0.0587 -0.7530
 8621SOL    HW137499   0.246   2.182   6.686 -0.6324  0.4533 -0.0223
 8621SOL    HW237500   0.229   2.295   6.607 -1.1901 -2.1616 -0.5181
 8622SOL     OW37501   2.593   2.252   4.502 -0.1912 -0.3061  0.3878
 8622SOL    HW137502   2.522   2.315   4.496 -0.0531 -0.0884  1.0507
 8622SOL    HW237503   2.656   2.302   4.450 -1.0418  1.1611  0.7683
 8623SOL     OW37504   3.494   0.640   0.929  0.4464  0.1782 -0.3479
 8623SOL    HW137505   3.402   0.666   0.926  0.9378  1.8760 -0.4948
 8623SOL    HW237506   3.515   0.709   0.992  2.4824  0.4771 -1.3801
 8624SOL     OW37507   1.734   0.469  10.389  0.4170 -0.6098  0.4879
 8624SOL    HW137508   1.790   0.465  10.467  0.0676 -1.4982  0.6981
 8624SOL    HW237509   1.661   0.410  10.409  0.7370 -0.5740  1.7743
 8625SOL     OW37510   1.002   2.097   7.478 -0.1019  0.3552 -0.0985
 8625SOL    HW137511   0.921   2.064   7.440 -0.3833 -0.7995  1.5324
 8625SOL    HW237512   1.051   2.017   7.495 -1.4828 -0.5987 -0.7009
 8626SOL     OW37513   3.173   3.515   6.473  0.2320 -0.2887 -0.1643
 8626SOL    HW137514   3.266   3.499   6.463  0.2315  0.1318 -0.8373
 8626SOL    HW237515   3.146   3.474   6.391  0.7521 -1.8863  0.4679
 8627SOL     OW37516   4.515   4.634   3.534 -0.0504 -0.4776 -0.3409
 8627SOL    HW137517   4.434   4.679   3.513 -0.6257 -1.3955 -0.0824
 8627SOL    HW237518   4.573   4.670   3.467  0.1437  0.2069  0.1962
 8628SOL     OW37519   1.335   1.186   5.928  0.0706  0.1437 -0.1234
 8628SOL    HW137520   1.366   1.123   5.862  0.0786  0.2300 -0.2016
 8628SOL    HW237521   1.338   1.267   5.877 -0.7130 -0.0079 -0.4106
 8629SOL     OW37522   2.579   1.687   6.484 -0.1755 -0.1699  0.1836
 8629SOL    HW137523   2.649   1.651   6.429  1.7622  0.0357  2.5104
 8629SOL    HW237524   2.585   1.636   6.564  1.2069  1.3520  1.0527
 8630SOL     OW37525   4.246   2.541  10.094 -0.5703  0.2935 -0.2028
 8630SOL    HW137526   4.279   2.494  10.017 -0.2476 -3.4645  2.2084
 8630SOL    HW237527   4.155   2.556  10.068  0.1502  2.2835 -1.5755
 8631SOL     OW37528   4.360   0.902   7.109 -0.1311  0.1515  0.4297
 8631SOL    HW137529   4.348   0.844   7.035 -0.0917 -0.8866  1.2368
 8631SOL    HW237530   4.272   0.940   7.109  0.0284  0.5265  0.7358
 8632SOL     OW37531   2.830   0.700   7.801 -0.0300 -0.5680 -0.1828
 8632SOL    HW137532   2.922   0.724   7.810 -0.5945  0.6825  2.4089
 8632SOL    HW237533   2.796   0.782   7.764  1.9605  0.5338  0.4198
 8633SOL     OW37534   1.836   2.208   4.182  0.1568  0.5870 -0.0987
 8633SOL    HW137535   1.822   2.121   4.142  1.3013  1.2090 -1.8956
 8633SOL    HW237536   1.788   2.259   4.117  0.5252  1.3451  0.2279
 8634SOL     OW37537   3.274   0.966   5.163 -0.2637 -0.0518  0.3663
 8634SOL    HW137538   3.237   1.048   5.130  0.1310  0.7274  1.8635
 8634SOL    HW237539   3.196   0.912   5.152  0.8507 -1.6884  0.5159
 8635SOL     OW37540   4.088   0.122   3.755 -0.0412 -0.2086 -0.6129
 8635SOL    HW137541   4.180   0.095   3.758  0.2073  1.1171  3.4868
 8635SOL    HW237542   4.045   0.042   3.784 -1.0357  0.3464 -0.5510
 8636SOL     OW37543   4.081   2.260   6.064  0.8877  0.2936  0.7160
 8636SOL    HW137544   4.044   2.306   6.140 -0.6774  0.7189 -0.3033
 8636SOL    HW237545   4.043   2.175   6.085 -0.5523  0.6570 -0.4139
 8637SOL     OW37546   0.756   0.731   5.488 -0.4098  0.1989  0.2046
 8637SOL    HW137547   0.680   0.760   5.438 -0.7565 -0.2813  0.4544
 8637SOL    HW237548   0.801   0.815   5.493 -0.2397  0.1035  0.2777
 8638SOL     OW37549   0.287   2.633   0.185 -0.6023  0.2043  0.3046
 8638SOL    HW137550   0.380   2.628   0.210 -0.3796  2.7678  0.0025
 8638SOL    HW237551   0.243   2.642   0.269  2.3420 -3.0475  2.2191
 8639SOL     OW37552   1.256   1.942   2.100 -0.4601 -0.2886  0.0590
 8639SOL    HW137553   1.345   1.962   2.070 -0.8377  1.1135 -0.1154
 8639SOL    HW237554   1.278   1.906   2.186  0.3446 -0.7028 -0.3187
 8640SOL     OW37555   1.711   2.905   1.815 -0.3317  0.1459 -0.1244
 8640SOL    HW137556   1.710   2.991   1.857 -0.2169 -0.2357  0.6748
 8640SOL    HW237557   1.674   2.925   1.729  0.0650  1.1181 -0.0694
 8641SOL     OW37558   0.275   2.665   9.543  0.4071  0.2997 -0.3867
 8641SOL    HW137559   0.334   2.629   9.476 -0.0289 -0.5296 -0.3190
 8641SOL    HW237560   0.315   2.750   9.562 -2.7529  1.2833  1.8069
 8642SOL     OW37561   2.601   2.233   0.916 -0.1182 -0.3162  0.0697
 8642SOL    HW137562   2.528   2.296   0.921  1.5425  1.6883 -0.9096
 8642SOL    HW237563   2.579   2.179   0.840 -1.8426 -0.3460  0.5825
 8643SOL     OW37564   3.047   3.507   8.469  0.6154  0.3305 -0.3151
 8643SOL    HW137565   3.098   3.551   8.400 -0.7344  0.7734 -1.0281
 8643SOL    HW237566   2.997   3.453   8.408 -1.2256  1.2856  0.3711
 8644SOL     OW37567   0.943   1.245  10.514  0.1597 -0.2237  0.4352
 8644SOL    HW137568   0.971   1.163  10.475  1.6319  0.0334  0.9228
 8644SOL    HW237569   0.890   1.283  10.445 -0.8517 -0.3869  1.1237
 8645SOL     OW37570   2.196   3.619  14.065  0.1401 -0.1444 -0.2357
 8645SOL    HW137571   2.127   3.555  14.048 -0.7403  0.7564 -0.0591
 8645SOL    HW237572   2.257   3.563  14.113 -0.9088 -2.1950 -1.2955
 8646SOL     OW37573   2.437   4.668   0.519 -0.3812  0.0514  0.8948
 8646SOL    HW137574   2.397   4.599   0.465  0.7636 -0.1523  0.3024
 8646SOL    HW237575   2.459   0.005   0.463  0.1341 -1.8744 -1.4673
 8647SOL     OW37576   1.630   2.401   4.496 -0.2221  0.6163 -0.4145
 8647SOL    HW137577   1.688   2.325   4.497 -0.2689  0.5800 -0.6488
 8647SOL    HW237578   1.580   2.375   4.419  0.8005  0.5184 -1.0503
 8648SOL     OW37579   4.163   1.463   6.109  0.7951  0.2719 -0.2338
 8648SOL    HW137580   4.163   1.369   6.092  0.1663 -0.2589  2.7002
 8648SOL    HW237581   4.228   1.458   6.178 -0.3597 -0.3162  0.8077
 8649SOL     OW37582   3.028   1.786   6.208  0.1261  0.1200 -0.1545
 8649SOL    HW137583   3.037   1.841   6.130  1.3425 -0.0957 -0.1722
 8649SOL    HW237584   2.954   1.826   6.254  2.1670 -0.5312  3.7545
 8650SOL     OW37585   3.549   1.931   4.116 -0.0882  0.0295  0.8271
 8650SOL    HW137586   3.558   1.999   4.049 -2.8531 -0.5371 -0.1294
 8650SOL    HW237587   3.510   1.867   4.056  3.1318 -1.7111  0.6153
 8651SOL     OW37588   2.969   3.992   1.006 -0.1211 -0.1550  0.1615
 8651SOL    HW137589   2.957   3.906   0.964  0.9132 -0.6166  0.7904
 8651SOL    HW237590   2.879   4.022   1.008 -0.8672 -2.4919  1.5492
 8652SOL     OW37591   3.869   2.097   8.138  0.0412  0.2328 -0.4667
 8652SOL    HW137592   3.794   2.154   8.125 -1.1589 -1.1118  0.4956
 8652SOL    HW237593   3.813   2.029   8.175 -0.1241  0.9281  0.5406
 8653SOL     OW37594   0.045   4.213   8.143  0.0118 -0.5948  0.6578
 8653SOL    HW137595   4.717   4.146   8.164 -1.0467 -0.0070 -0.7247
 8653SOL    HW237596   0.033   4.234   8.050  3.7514 -0.1577  0.2820
 8654SOL     OW37597   1.398   4.315   7.338 -0.0434  0.5343 -0.0125
 8654SOL    HW137598   1.326   4.375   7.320  0.6510  1.3459 -0.0770
 8654SOL    HW237599   1.396   4.253   7.264 -0.8113 -1.7828  1.9518
 8655SOL     OW37600   4.447   3.992  15.273  0.1207  0.0255  0.0433
 8655SOL    HW137601   4.485   3.926  15.330  1.5200  0.1014 -0.8024
 8655SOL    HW237602   4.425   3.932  15.202 -0.3600 -1.3990  1.3918
 8656SOL     OW37603   3.261   0.630   4.103  0.0818  0.3393  0.4499
 8656SOL    HW137604   3.185   0.670   4.063  0.5321  3.2651  2.5602
 8656SOL    HW237605   3.244   0.541   4.072  0.9975  0.2445  0.2126
 8657SOL     OW37606   2.217   4.356  15.788  0.3392 -0.3937  0.0932
 8657SOL    HW137607   2.282   4.423  15.770  0.3557 -0.9220 -1.7915
 8657SOL    HW237608   2.265   4.278  15.814  1.1433 -0.5283 -1.8200
 8658SOL     OW37609   3.540   3.499   2.033  0.0991 -0.4508 -0.1085
 8658SOL    HW137610   3.561   3.516   2.125  2.3085 -0.6319 -0.5833
 8658SOL    HW237611   3.478   3.428   2.051  1.8819 -1.8899  0.3108
 8659SOL     OW37612   4.686   3.374  14.284 -0.0984 -0.0812 -0.8548
 8659SOL    HW137613   0.026   3.425  14.310  0.8418 -1.9556  0.0377
 8659SOL    HW237614   4.710   3.329  14.202 -0.6621 -2.2498  0.1729
 8660SOL     OW37615   1.514   0.937   2.075 -0.1878  0.3747  0.5054
 8660SOL    HW137616   1.577   0.913   2.143 -0.9342  2.7726  2.0371
 8660SOL    HW237617   1.520   0.873   2.003  0.7322  1.1608 -0.1292
 8661SOL     OW37618   1.054   3.230   7.235  0.0862  0.1940  0.4517
 8661SOL    HW137619   1.001   3.224   7.155  2.6351 -0.4331 -1.1863
 8661SOL    HW237620   1.055   3.138   7.258  0.2471 -0.8271 -3.6271
 8662SOL     OW37621   4.285   4.098   2.569 -0.1147 -0.1725 -0.2517
 8662SOL    HW137622   4.239   4.139   2.496  0.6680  0.0815 -0.6005
 8662SOL    HW237623   4.261   4.148   2.647  1.1330  2.0478 -1.3080
 8663SOL     OW37624   0.344   4.448   8.841  0.2230 -0.1201 -0.4558
 8663SOL    HW137625   0.390   4.381   8.791  1.7077  0.0933  0.6223
 8663SOL    HW237626   0.358   4.425   8.932  0.2322  1.9424  0.0618
 8664SOL     OW37627   0.433   2.360   6.098 -0.0537 -0.4276  0.1641
 8664SOL    HW137628   0.350   2.365   6.147 -0.1954 -1.7459  0.0456
 8664SOL    HW237629   0.416   2.374   6.005 -0.1397 -1.4045  0.0383
 8665SOL     OW37630   1.302   3.637  12.456 -0.2445 -0.1243 -0.2170
 8665SOL    HW137631   1.367   3.650  12.525 -1.8402  1.5691  0.9643
 8665SOL    HW237632   1.221   3.668  12.497  0.3469 -0.7579  1.4642
 8666SOL     OW37633   1.725   2.123   3.733 -0.4534  0.7100 -0.3511
 8666SOL    HW137634   1.812   2.093   3.707 -0.2518  0.6515  0.3900
 8666SOL    HW237635   1.702   2.066   3.806  0.3462  0.3133 -0.4038
 8667SOL     OW37636   1.713   3.512  10.458 -0.3856 -0.4875  0.2066
 8667SOL    HW137637   1.768   3.581  10.495 -1.2332  0.0802  0.3888
 8667SOL    HW237638   1.690   3.554  10.375 -1.4472 -1.4213  0.0283
 8668SOL     OW37639   0.492   3.146   5.281 -0.4300 -0.1664 -0.3159
 8668SOL    HW137640   0.434   3.163   5.355 -0.8187 -0.1663 -0.6213
 8668SOL    HW237641   0.560   3.206   5.311 -1.4088  1.4354 -1.2785
 8669SOL     OW37642   1.801   1.202   8.867 -0.1170  0.4634 -0.1658
 8669SOL    HW137643   1.770   1.131   8.922  0.3690  1.1038  0.9412
 8669SOL    HW237644   1.801   1.171   8.777 -1.3098  0.6906 -0.2454
 8670SOL     OW37645   1.672   0.036   4.935  0.1126  0.1503  1.1243
 8670SOL    HW137646   1.623   4.711   4.882 -4.2811  2.0320  3.0400
 8670SOL    HW237647   1.717   0.077   4.862 -0.8324  0.2153  0.5834
 8671SOL     OW37648   3.317   0.279   1.451  0.3051 -0.0208  0.4508
 8671SOL    HW137649   3.384   0.212   1.444  0.6419  0.4049 -0.3640
 8671SOL    HW237650   3.244   0.217   1.444  0.2136 -0.0627  1.7034
 8672SOL     OW37651   3.730   2.761  10.457 -0.0680 -0.0591  0.4629
 8672SOL    HW137652   3.725   2.830  10.524  2.3737  1.6495 -1.1265
 8672SOL    HW237653   3.636   2.757  10.439  0.1955  0.3460 -1.0341
 8673SOL     OW37654   0.899   1.529   0.290 -0.2109 -0.2290  0.2321
 8673SOL    HW137655   0.827   1.582   0.324 -0.7800  0.9974 -2.8887
 8673SOL    HW237656   0.969   1.541   0.355  1.7620  0.3564 -1.9860
 8674SOL     OW37657   1.707   2.615   3.981 -0.3944 -0.0644  0.1118
 8674SOL    HW137658   1.801   2.598   3.969 -0.2104  0.1371  1.3247
 8674SOL    HW237659   1.679   2.678   3.914  0.2546 -1.9159 -1.9092
 8675SOL     OW37660   1.457   3.881  13.412 -0.2529  0.1636  0.3596
 8675SOL    HW137661   1.532   3.937  13.430  0.0646  0.6874 -2.7636
 8675SOL    HW237662   1.415   3.918  13.334 -0.2233 -3.8775 -1.5565
 8676SOL     OW37663   2.033   0.800  16.213 -0.2990  0.1230  0.0354
 8676SOL    HW137664   2.011   0.803  16.120 -2.3697 -0.8732  0.4975
 8676SOL    HW237665   2.078   0.718  16.231  0.1091  0.4680  0.5694
 8677SOL     OW37666   1.209   2.386   2.945  0.1465  0.0277 -0.6384
 8677SOL    HW137667   1.192   2.315   2.883  1.6429 -1.2966  0.4694
 8677SOL    HW237668   1.279   2.427   2.893  1.6045 -1.5987  0.0593
 8678SOL     OW37669   0.747   1.925   7.847 -0.6471 -0.4534  0.1732
 8678SOL    HW137670   0.828   1.873   7.847 -0.3664 -0.0054 -1.2545
 8678SOL    HW237671   0.698   1.890   7.921 -0.2675 -2.0303 -0.3240
 8679SOL     OW37672   3.093   2.784   8.420 -0.4421 -0.0034 -0.2297
 8679SOL    HW137673   3.047   2.864   8.395  0.0482  0.8951  1.7424
 8679SOL    HW237674   3.069   2.721   8.353 -0.2779  0.7747 -1.0281
 8680SOL     OW37675   3.886   1.736   7.931 -0.3259 -0.1545 -0.3315
 8680SOL    HW137676   3.919   1.717   7.844 -0.2858  0.4101 -0.4371
 8680SOL    HW237677   3.802   1.778   7.911  0.7916 -0.2269 -5.1171
 8681SOL     OW37678   4.377   0.487   7.576 -0.8444  0.2492  0.4154
 8681SOL    HW137679   4.321   0.564   7.564  0.4156  0.7599 -2.1893
 8681SOL    HW237680   4.426   0.499   7.657  1.6972 -0.6280 -0.9946
 8682SOL     OW37681   2.284   0.755  14.278 -0.2762 -0.3576  0.0448
 8682SOL    HW137682   2.331   0.705  14.212  0.5814 -2.6898  2.4332
 8682SOL    HW237683   2.301   0.701  14.356 -1.5496  1.2928  1.4822
 8683SOL     OW37684   2.994   2.501   8.533 -0.4327  0.7396  0.0522
 8683SOL    HW137685   3.067   2.465   8.482 -0.5699  1.3632 -0.5900
 8683SOL    HW237686   3.007   2.449   8.612 -0.0455  1.1391  0.2495
 8684SOL     OW37687   4.023   1.648   8.403 -0.0453  0.2496  0.2900
 8684SOL    HW137688   4.071   1.729   8.391  0.8443 -0.1947  0.8490
 8684SOL    HW237689   4.014   1.631   8.309 -0.5306  0.7379  0.2475
 8685SOL     OW37690   1.763   0.217   4.756 -0.1582  0.2686  0.5031
 8685SOL    HW137691   1.839   0.256   4.799  0.4961  0.3511 -0.7519
 8685SOL    HW237692   1.712   0.296   4.772  0.5290  1.0002 -0.9446
 8686SOL     OW37693   4.473   1.930   4.725  0.6080 -0.1367 -0.7291
 8686SOL    HW137694   4.523   1.859   4.684 -1.0178 -1.6671 -0.0808
 8686SOL    HW237695   4.390   1.884   4.743  1.5318 -0.5413  2.5758
 8687SOL     OW37696   3.971   4.431   8.162 -0.1864  0.5176  0.0801
 8687SOL    HW137697   3.942   4.365   8.226  0.0436 -0.0287 -0.3814
 8687SOL    HW237698   4.038   4.376   8.122 -0.8340  0.0615 -0.3695
 8688SOL     OW37699   0.533   1.852   9.271  0.3489 -0.0486  0.4023
 8688SOL    HW137700   0.624   1.825   9.256 -0.0288 -1.4069  0.5031
 8688SOL    HW237701   0.538   1.947   9.283  1.3911 -0.1934  1.1808
 8689SOL     OW37702   0.498   1.784  15.014 -0.5415  0.1196 -0.1146
 8689SOL    HW137703   0.526   1.755  15.101  0.7855  2.5380  0.2726
 8689SOL    HW237704   0.463   1.702  14.980 -1.4391  0.6831 -0.5471
 8690SOL     OW37705   0.697   4.639   4.617  0.2199 -0.0308  0.3089
 8690SOL    HW137706   0.680   4.722   4.572  0.1867 -0.8195 -1.1404
 8690SOL    HW237707   0.638   4.584   4.565 -1.2289  0.5556  1.3194
 8691SOL     OW37708   0.732   3.706   8.596  0.3430 -0.4709 -0.4929
 8691SOL    HW137709   0.688   3.681   8.677  0.3459  1.8042  0.1975
 8691SOL    HW237710   0.820   3.704   8.633  0.6250  1.2634 -1.0960
 8692SOL     OW37711   2.091   0.903  13.810 -0.3782 -0.4351 -0.1871
 8692SOL    HW137712   2.105   0.879  13.902 -0.5206  4.5170  1.1051
 8692SOL    HW237713   2.079   0.812  13.783 -1.1071 -0.8581  1.5644
 8693SOL     OW37714   2.926   1.188   6.573 -0.3954  0.2762 -0.0719
 8693SOL    HW137715   2.951   1.193   6.665  1.3801  2.4383 -0.6515
 8693SOL    HW237716   2.962   1.102   6.554  2.6280  1.5593 -0.1109
 8694SOL     OW37717   2.899   0.246   3.201  0.2748 -0.4343  0.0661
 8694SOL    HW137718   2.885   0.256   3.107  0.6722 -3.1555 -0.2661
 8694SOL    HW237719   2.995   0.256   3.203  0.3720 -1.0389 -1.6614
 8695SOL     OW37720   4.072   2.066   4.822  0.8007  0.0586  0.2931
 8695SOL    HW137721   4.009   2.018   4.875  1.5053  0.0969  1.1608
 8695SOL    HW237722   4.039   2.077   4.732 -0.6780  0.3909  0.8806
 8696SOL     OW37723   3.556   1.592   5.322  0.4887  0.5484  0.1664
 8696SOL    HW137724   3.629   1.562   5.268  1.2145  1.0955  0.8289
 8696SOL    HW237725   3.594   1.674   5.354  0.2038  1.3803 -1.6744
 8697SOL     OW37726   3.224   3.161   6.514  0.1073 -0.0634 -0.2479
 8697SOL    HW137727   3.242   3.182   6.422 -1.1594  1.8460 -0.0589
 8697SOL    HW237728   3.256   3.239   6.558  2.9044 -1.4604  0.1769
 8698SOL     OW37729   0.143   0.679   6.730  0.0761 -0.3226 -0.2349
 8698SOL    HW137730   0.228   0.658   6.769 -1.1263 -0.8090  2.1230
 8698SOL    HW237731   0.117   0.760   6.775 -0.7431 -2.4650  3.1675
 8699SOL     OW37732   0.947   2.011   3.405  0.1681  0.5680  1.4141
 8699SOL    HW137733   0.951   1.924   3.446 -1.2007 -0.1575  0.0305
 8699SOL    HW237734   0.856   2.036   3.420 -0.1812  0.3326 -0.2394
 8700SOL     OW37735   3.146   3.511   8.046  0.3153 -0.3638  0.0366
 8700SOL    HW137736   3.100   3.544   8.123  0.0206 -2.0581  0.5929
 8700SOL    HW237737   3.171   3.594   8.006  2.3265 -1.8403 -1.7582
 8701SOL     OW37738   2.169   4.197  17.202  0.3958  0.0074 -0.3932
 8701SOL    HW137739   2.149   4.129  17.266  0.7919  1.1644  0.9768
 8701SOL    HW237740   2.148   4.140  17.128 -0.5943  1.8905 -1.5739
 8702SOL     OW37741   0.257   3.969   6.192  0.4731 -0.2963 -0.0528
 8702SOL    HW137742   0.226   3.924   6.271  0.2011 -2.2037 -1.2449
 8702SOL    HW237743   0.308   4.042   6.226 -1.7111  0.2500  2.0338
 8703SOL     OW37744   1.205   3.837   9.033 -0.1238  0.5796 -0.3110
 8703SOL    HW137745   1.150   3.914   9.022  0.0196  0.4016 -2.1500
 8703SOL    HW237746   1.258   3.854   9.111  1.0353  1.4503 -1.2964
 8704SOL     OW37747   1.868   4.421   4.299  0.0607 -0.4233  0.0575
 8704SOL    HW137748   1.788   4.419   4.352 -0.6292  0.6485 -0.9348
 8704SOL    HW237749   1.866   4.503   4.250  1.6777  1.3041  2.9088
 8705SOL     OW37750   4.544   3.655   7.089  0.0212  0.5213  0.5464
 8705SOL    HW137751   4.500   3.735   7.061 -1.3774 -1.3807 -2.7250
 8705SOL    HW237752   4.608   3.643   7.019 -0.7114 -1.9001  0.2805
 8706SOL     OW37753   4.219   2.779  14.616  0.0694 -0.1073 -0.5778
 8706SOL    HW137754   4.275   2.842  14.570  1.0459 -0.7425 -0.2443
 8706SOL    HW237755   4.260   2.759  14.700  0.6000 -0.2780 -0.8754
 8707SOL     OW37756   4.316   0.855   4.646 -0.1576 -0.0752 -0.1301
 8707SOL    HW137757   4.400   0.829   4.606  0.1285 -0.2706  0.6020
 8707SOL    HW237758   4.253   0.822   4.582  0.3079 -1.9466  0.3565
 8708SOL     OW37759   1.274   0.234   3.981 -0.3645  0.6932  0.2319
 8708SOL    HW137760   1.180   0.215   3.980 -0.2442  0.1126 -0.2149
 8708SOL    HW237761   1.297   0.190   3.899 -1.5535  0.5018  0.0058
 8709SOL     OW37762   3.984   2.302   6.586  0.3197 -0.4066  0.4304
 8709SOL    HW137763   3.928   2.271   6.658 -0.3816 -1.5108 -0.5932
 8709SOL    HW237764   4.005   2.394   6.601  0.0568 -0.5597  1.7319
 8710SOL     OW37765   4.615   2.404   0.137  0.2398  0.2369  0.0332
 8710SOL    HW137766   4.548   2.336   0.143  0.5146  0.1960  2.7492
 8710SOL    HW237767   4.621   2.412   0.042 -1.4331 -2.0476 -0.2693
 8711SOL     OW37768   0.788   0.607  14.881 -0.3272  0.1565  0.5839
 8711SOL    HW137769   0.749   0.580  14.964  2.7027  0.1689  2.0217
 8711SOL    HW237770   0.776   0.526  14.831 -1.0048  1.2992 -1.1095
 8712SOL     OW37771   0.972   2.168   5.666 -0.5750 -0.1593 -0.5379
 8712SOL    HW137772   0.878   2.162   5.648 -0.7773 -0.5902  0.6424
 8712SOL    HW237773   1.007   2.152   5.579 -1.1424 -0.0503 -0.7820
 8713SOL     OW37774   3.313   2.760  17.712 -0.2672 -0.1206  0.1680
 8713SOL    HW137775   3.300   2.828   0.032 -0.0539  0.5643 -0.4901
 8713SOL    HW237776   3.402   2.731  17.734 -0.3868 -0.2650  0.4657
 8714SOL     OW37777   4.337   2.429  15.360  0.2718  0.1976  0.2432
 8714SOL    HW137778   4.294   2.408  15.277  2.1100 -0.4789 -0.5292
 8714SOL    HW237779   4.401   2.497  15.340 -0.0225  0.6051  0.7006
 8715SOL     OW37780   3.865   4.074   2.973  0.8522  0.3342 -1.0007
 8715SOL    HW137781   3.860   4.126   2.892 -0.5346 -0.0722 -1.1835
 8715SOL    HW237782   3.780   4.096   3.011  0.5231 -0.5934 -1.1990
 8716SOL     OW37783   0.628   2.924   8.487 -0.3222  0.0728  0.6799
 8716SOL    HW137784   0.570   2.966   8.424 -3.6600 -2.3533  2.1072
 8716SOL    HW237785   0.693   2.985   8.521  0.9396 -0.8575 -0.0727
 8717SOL     OW37786   1.498   1.586  15.128 -0.0025 -1.1447  0.0887
 8717SOL    HW137787   1.418   1.634  15.105 -0.1695 -0.8457  1.2608
 8717SOL    HW237788   1.463   1.498  15.111 -2.3730 -0.4093  1.1055
 8718SOL     OW37789   4.540   0.764   5.643 -0.6455  0.3759 -0.3723
 8718SOL    HW137790   4.469   0.710   5.608 -2.1953  1.5240  1.0063
 8718SOL    HW237791   4.492   0.803   5.717 -1.9640 -1.1306 -0.4306
 8719SOL     OW37792   3.016   0.968   3.435  0.4244  0.4576  0.5015
 8719SOL    HW137793   3.012   0.931   3.347 -0.5973  3.3515 -0.6596
 8719SOL    HW237794   3.037   1.057   3.407  2.2418 -0.2321 -0.3026
 8720SOL     OW37795   0.319   4.533  14.594  0.4230 -0.3453  0.4132
 8720SOL    HW137796   0.333   4.504  14.504  2.8327 -1.9571  1.3165
 8720SOL    HW237797   0.249   4.477  14.627 -0.7609  1.7491  1.4657
 8721SOL     OW37798   1.944   4.588   9.065  0.3409 -0.1176  0.0690
 8721SOL    HW137799   1.917   4.676   9.038 -2.8860 -0.5044  2.1291
 8721SOL    HW237800   1.941   4.540   8.982  1.2854  0.7111 -0.4511
 8722SOL     OW37801   3.187   2.620   2.775 -0.0802 -0.0798 -0.2237
 8722SOL    HW137802   3.222   2.689   2.719 -0.4111 -0.3814 -0.7953
 8722SOL    HW237803   3.204   2.659   2.861 -0.2816  2.7632 -1.4911
 8723SOL     OW37804   4.425   0.506  15.746  0.0655  0.3794 -0.1417
 8723SOL    HW137805   4.435   0.543  15.834 -0.4646 -0.8632  0.4374
 8723SOL    HW237806   4.468   0.579  15.700 -0.1232  0.5984  0.0278
 8724SOL     OW37807   4.001   2.627  14.619 -0.0286  0.1663 -0.3001
 8724SOL    HW137808   3.976   2.615  14.528 -1.0552  0.2964 -0.0458
 8724SOL    HW237809   4.087   2.667  14.606 -0.9267  2.4700  0.6294
 8725SOL     OW37810   0.177   3.698   2.080  0.3793 -0.1595  0.0286
 8725SOL    HW137811   0.107   3.661   2.026 -0.9987  4.2958 -1.2611
 8725SOL    HW237812   0.247   3.707   2.015  1.9902 -1.6881  1.5462
 8726SOL     OW37813   0.570   1.285  11.966  0.2838 -0.6781  0.3594
 8726SOL    HW137814   0.602   1.374  11.952 -0.9627 -0.2788  0.0615
 8726SOL    HW237815   0.556   1.261  11.874  1.8431  0.6387 -0.2273
 8727SOL     OW37816   1.736   3.813   1.775  0.2265 -0.2515  0.5036
 8727SOL    HW137817   1.824   3.778   1.764  0.5939  0.3195  1.6707
 8727SOL    HW237818   1.739   3.907   1.790  1.5854  0.2331 -2.8074
 8728SOL     OW37819   0.044   2.471   5.113 -0.1050  0.0738  0.0045
 8728SOL    HW137820   4.714   2.403   5.115  0.2186 -0.2431 -0.0942
 8728SOL    HW237821   0.098   2.438   5.041  2.3395  1.6622  1.1070
 8729SOL     OW37822   1.165   0.188   6.041 -0.0380 -0.0917 -0.1531
 8729SOL    HW137823   1.196   0.181   6.131 -0.5666 -1.0374 -0.0438
 8729SOL    HW237824   1.098   0.255   6.052 -0.5486 -0.6939  0.4630
 8730SOL     OW37825   1.275   2.704   3.513  0.0082  0.2903 -0.2635
 8730SOL    HW137826   1.317   2.619   3.527  0.7252  1.0157  1.9795
 8730SOL    HW237827   1.207   2.704   3.580 -0.7068  0.5563 -0.9833
 8731SOL     OW37828   2.908   2.889  14.430  0.1838 -0.2017 -0.7265
 8731SOL    HW137829   2.949   2.926  14.508  1.4626  1.7790 -2.3487
 8731SOL    HW237830   2.888   2.978  14.401  1.2516  0.3965  0.3332
 8732SOL     OW37831   3.000   0.182   2.150 -0.0099  0.5083 -0.0606
 8732SOL    HW137832   2.907   0.187   2.127  0.1241 -0.7769 -0.8281
 8732SOL    HW237833   3.045   0.198   2.068  0.7084 -2.4696 -0.2263
 8733SOL     OW37834   3.060   4.312  10.446  0.1497 -0.4775  0.0305
 8733SOL    HW137835   3.137   4.256  10.446  1.0196  0.7100  2.1649
 8733SOL    HW237836   3.036   4.311  10.539 -0.1695  0.1438 -0.0428
 8734SOL     OW37837   2.308   3.075  16.598 -0.1794  0.2151  0.2960
 8734SOL    HW137838   2.309   3.000  16.539 -0.5818  0.3630  0.1021
 8734SOL    HW237839   2.402   3.095  16.596  0.0057 -0.8423 -2.0934
 8735SOL     OW37840   3.769   2.981   3.826  0.5033 -0.3714 -0.0314
 8735SOL    HW137841   3.764   3.007   3.918  1.1472 -0.2946 -0.0163
 8735SOL    HW237842   3.697   3.027   3.784  0.7809 -0.6611 -0.8281
 8736SOL     OW37843   0.481   2.609  14.206  0.3320 -0.1361  0.7360
 8736SOL    HW137844   0.428   2.545  14.158  0.1146 -0.1240  0.9595
 8736SOL    HW237845   0.466   2.578  14.296 -3.6522  1.7597  0.7332
 8737SOL     OW37846   3.184   3.198  15.830 -0.0432 -0.2113  0.0989
 8737SOL    HW137847   3.212   3.278  15.874 -0.2997  0.1383 -0.3801
 8737SOL    HW237848   3.240   3.133  15.873  1.3486  0.4590 -0.6886
 8738SOL     OW37849   3.234   3.085   7.699 -0.1267 -0.1122 -0.6256
 8738SOL    HW137850   3.165   3.125   7.752 -0.7654 -3.3924  1.0318
 8738SOL    HW237851   3.226   2.997   7.736  1.2557 -0.7008 -1.7560
 8739SOL     OW37852   1.059   1.330   2.734  0.1363  0.0382  0.1459
 8739SOL    HW137853   1.025   1.399   2.792 -0.6191 -0.5174  0.3620
 8739SOL    HW237854   0.997   1.336   2.661 -1.5544  1.1299  1.6443
 8740SOL     OW37855   4.566   0.366  16.147 -0.1796 -0.0671  0.0646
 8740SOL    HW137856   4.646   0.339  16.192 -1.0096  2.3267  3.0113
 8740SOL    HW237857   4.522   0.423  16.211 -0.0815  0.9904 -0.7996
 8741SOL     OW37858   3.240   2.005  14.624 -0.1594  0.0259  0.3717
 8741SOL    HW137859   3.275   1.940  14.562 -0.9184 -0.6135  0.6065
 8741SOL    HW237860   3.320   2.028  14.671 -2.1632  1.7912  2.8861
 8742SOL     OW37861   3.990   0.166   8.357  0.0026 -0.2119 -0.2036
 8742SOL    HW137862   4.077   0.206   8.352  0.3856 -1.4075 -3.0814
 8742SOL    HW237863   3.969   0.174   8.450  1.3712  1.8624 -0.0700
 8743SOL     OW37864   4.253   1.912   4.177 -0.2829 -0.3733  0.1476
 8743SOL    HW137865   4.216   1.824   4.171 -1.6192  0.1878  0.2299
 8743SOL    HW237866   4.293   1.910   4.264  3.2586  0.3279 -1.4595
 8744SOL     OW37867   3.700   3.433   6.174  0.4970 -0.1824 -0.1835
 8744SOL    HW137868   3.778   3.383   6.152  0.1613 -0.4094 -0.8571
 8744SOL    HW237869   3.728   3.524   6.188 -0.7707  0.1112  0.4827
 8745SOL     OW37870   4.407   4.039   5.681  0.0214  0.5386 -0.1783
 8745SOL    HW137871   4.313   4.056   5.694 -0.2256 -0.7352 -0.2811
 8745SOL    HW237872   4.447   4.107   5.734  2.2900 -1.8303  1.1789
 8746SOL     OW37873   4.191   4.608   8.282 -0.3594 -0.4466 -0.4179
 8746SOL    HW137874   4.112   4.574   8.239 -0.9517  0.2768  0.0963
 8746SOL    HW237875   4.157   4.616   8.372 -0.3906 -1.2322 -0.3601
 8747SOL     OW37876   3.172   0.766  15.234 -0.5683  0.3958 -0.3269
 8747SOL    HW137877   3.090   0.799  15.197 -0.0382  2.1965  0.1202
 8747SOL    HW237878   3.199   0.843  15.283 -1.5482  1.0212 -0.7631
 8748SOL     OW37879   4.453   3.536   1.174  0.3633 -0.3992 -0.1962
 8748SOL    HW137880   4.439   3.607   1.237 -0.2807 -1.0245  0.3728
 8748SOL    HW237881   4.398   3.559   1.100  0.6721  0.4757 -0.1572
 8749SOL     OW37882   2.253   4.039  11.870  0.5353 -0.0980  0.0761
 8749SOL    HW137883   2.334   4.005  11.832 -0.3748 -0.9154 -1.1396
 8749SOL    HW237884   2.207   4.072  11.793  1.9576 -1.0036 -1.1738
 8750SOL     OW37885   4.199   4.468  14.319  0.0676 -0.3945 -0.2283
 8750SOL    HW137886   4.170   4.549  14.361  0.7556 -0.3003  0.0640
 8750SOL    HW237887   4.284   4.493  14.281 -1.3792 -0.2337 -3.3534
 8751SOL     OW37888   1.222   4.147   3.174 -0.7169  0.3773 -0.0697
 8751SOL    HW137889   1.271   4.229   3.165  1.2930 -0.6971  1.0501
 8751SOL    HW237890   1.295   4.086   3.180 -0.2127  0.9894  0.0504
 8752SOL     OW37891   4.092   1.320   3.920  0.1475  0.0037  0.3246
 8752SOL    HW137892   4.140   1.238   3.929  2.2580  0.9506 -2.3845
 8752SOL    HW237893   4.148   1.372   3.978 -1.7849  0.7071  1.5984
 8753SOL     OW37894   4.313   4.033   7.416 -0.0973 -0.1701 -0.9156
 8753SOL    HW137895   4.401   4.006   7.393 -0.8250 -1.7766 -1.8229
 8753SOL    HW237896   4.301   4.111   7.361 -2.1331 -1.0138 -1.6667
 8754SOL     OW37897   0.954   2.207   4.570 -0.6475 -0.6723  0.3658
 8754SOL    HW137898   1.004   2.177   4.646  1.7606  0.6960 -0.6633
 8754SOL    HW237899   0.864   2.182   4.589 -0.2377 -2.5824 -0.2167
 8755SOL     OW37900   3.043   1.362  13.916 -0.2829 -0.2937 -1.1158
 8755SOL    HW137901   3.023   1.281  13.962  0.1307  0.1804 -0.1054
 8755SOL    HW237902   3.123   1.340  13.869  0.7186  1.0854 -0.0464
 8756SOL     OW37903   2.631   1.869   8.359 -0.1758  0.1495  0.7396
 8756SOL    HW137904   2.668   1.786   8.330  1.8803  0.8971  1.2350
 8756SOL    HW237905   2.610   1.835   8.446 -2.2398  0.9295  0.5465
 8757SOL     OW37906   0.186   0.136  16.433  0.2595 -0.2938  0.2197
 8757SOL    HW137907   0.165   0.077  16.505 -0.3882  1.9942  1.8764
 8757SOL    HW237908   0.266   0.176  16.469  0.0989 -0.1354  0.3962
 8758SOL     OW37909   4.293   3.686   5.034  0.1522 -0.1263  0.3368
 8758SOL    HW137910   4.201   3.707   5.051  0.1805 -0.1598  0.5324
 8758SOL    HW237911   4.303   3.593   5.056 -0.8279 -0.5697 -1.1075
 8759SOL     OW37912   0.490   0.840  12.044 -0.2330 -0.5800  0.0125
 8759SOL    HW137913   0.406   0.795  12.039  0.4321 -1.9326  0.8169
 8759SOL    HW237914   0.491   0.890  11.963  0.8118  0.4179  0.6328
 8760SOL     OW37915   1.834   2.095   9.832 -0.2367 -0.2950  0.3396
 8760SOL    HW137916   1.782   2.166   9.794 -0.2004  0.7118  2.1541
 8760SOL    HW237917   1.909   2.149   9.859 -0.4890 -0.0472  0.5476
 8761SOL     OW37918   2.541   3.709   2.531 -0.9482  0.8122  0.1713
 8761SOL    HW137919   2.585   3.656   2.597 -1.2943  1.3169  0.8049
 8761SOL    HW237920   2.589   3.690   2.451 -2.0430 -2.2499  0.2201
 8762SOL     OW37921   4.221   2.981   7.666 -0.0222 -0.4082 -0.1361
 8762SOL    HW137922   4.194   2.928   7.592 -2.6033 -0.6966  1.0215
 8762SOL    HW237923   4.271   3.050   7.622 -2.1379  0.2722 -1.4617
 8763SOL     OW37924   4.161   3.653  14.340 -0.0996 -0.1860 -0.0753
 8763SOL    HW137925   4.200   3.569  14.315  1.1715  0.3779  0.0101
 8763SOL    HW237926   4.117   3.674  14.257 -0.7596  0.3393  0.4094
 8764SOL     OW37927   1.515   2.895   4.946  0.4322 -0.1376 -0.4552
 8764SOL    HW137928   1.535   2.815   4.897 -0.0060 -1.4479  1.5087
 8764SOL    HW237929   1.563   2.885   5.028 -1.1973  0.6838  0.5951
 8765SOL     OW37930   4.053   3.367   8.842  0.3444  0.1948 -0.6587
 8765SOL    HW137931   4.124   3.312   8.810 -0.4891  0.7516 -3.5529
 8765SOL    HW237932   3.987   3.303   8.815  0.5968 -0.1445 -0.4691
 8766SOL     OW37933   2.566   1.313   7.334 -0.5333 -0.0908 -0.2059
 8766SOL    HW137934   2.621   1.345   7.262 -2.2742  3.1647 -0.0992
 8766SOL    HW237935   2.482   1.325   7.290  0.3885 -0.0040 -1.9474
 8767SOL     OW37936   1.553   3.667  13.202  0.1833  0.0998 -0.0954
 8767SOL    HW137937   1.633   3.624  13.172  1.3241  2.3948 -0.3014
 8767SOL    HW237938   1.584   3.709  13.281  0.9926  0.2934 -0.5184
 8768SOL     OW37939   4.645   2.995   4.620  0.2513 -0.5626 -0.2160
 8768SOL    HW137940   4.609   3.068   4.670  0.6830  0.2781 -1.1369
 8768SOL    HW237941   4.727   3.034   4.590 -0.7761  2.0218  0.2920
 8769SOL     OW37942   4.346   4.440   7.548 -0.4918  0.3326 -0.2292
 8769SOL    HW137943   4.358   4.345   7.556 -0.3128  0.4611  1.0149
 8769SOL    HW237944   4.340   4.457   7.642  1.0807 -1.6461  0.2384
 8770SOL     OW37945   2.322   0.496   2.451  0.3914  0.0256 -0.3930
 8770SOL    HW137946   2.248   0.443   2.479  1.2016 -0.5741  0.6260
 8770SOL    HW237947   2.362   0.537   2.528 -0.2206 -1.6078  0.8020
 8771SOL     OW37948   3.177   1.567  10.891 -0.0259 -0.8028  0.2687
 8771SOL    HW137949   3.182   1.497  10.827  2.7778  0.2324 -0.6708
 8771SOL    HW237950   3.245   1.631  10.870 -0.2918 -0.5549  0.1510
 8772SOL     OW37951   2.050   3.916   8.893  0.1241 -0.2288 -0.9010
 8772SOL    HW137952   1.993   3.847   8.927 -0.4852  0.4997 -0.4428
 8772SOL    HW237953   2.133   3.873   8.914 -1.1244 -1.6043  1.1519
 8773SOL     OW37954   0.771   2.011   9.909  0.2326 -0.2619 -0.0285
 8773SOL    HW137955   0.845   2.014   9.969  0.9117 -0.2420 -0.8679
 8773SOL    HW237956   0.807   2.063   9.837 -0.9691 -1.6609 -1.6622
 8774SOL     OW37957   3.259   2.838   4.253 -0.4177 -0.6944  0.2799
 8774SOL    HW137958   3.290   2.801   4.336 -0.2985  0.7047  0.8604
 8774SOL    HW237959   3.264   2.762   4.194  1.3010 -1.7828  1.8173
 8775SOL     OW37960   3.240   0.427  15.628 -1.1166  0.3477  0.2193
 8775SOL    HW137961   3.313   0.480  15.594 -2.3012  0.8329 -1.5304
 8775SOL    HW237962   3.280   0.345  15.657 -1.4800  0.2617  0.4758
 8776SOL     OW37963   1.372   0.856  15.853 -0.5299 -0.7052  0.0485
 8776SOL    HW137964   1.341   0.935  15.810  0.7443 -0.2927 -0.0929
 8776SOL    HW237965   1.448   0.828  15.801 -0.6155 -1.2297  0.1976
 8777SOL     OW37966   0.633   3.749   2.083 -0.0505  0.1527  0.3994
 8777SOL    HW137967   0.561   3.772   2.025  0.4470 -1.9712 -1.0423
 8777SOL    HW237968   0.693   3.715   2.017 -0.6693 -4.1312  2.0455
 8778SOL     OW37969   3.594   0.796   1.149  0.2906 -0.4257 -0.6519
 8778SOL    HW137970   3.578   0.703   1.169  1.0112 -0.5999 -0.8901
 8778SOL    HW237971   3.655   0.820   1.218 -3.2027 -2.3530  3.1393
 8779SOL     OW37972   0.606   4.005   7.175  0.2220  0.8600  0.2315
 8779SOL    HW137973   0.621   3.970   7.087 -0.0299  1.6520 -0.1240
 8779SOL    HW237974   0.577   3.930   7.226 -0.9199  0.4401 -1.0475
 8780SOL     OW37975   0.587   4.264   7.007  0.1091  0.9461 -0.1035
 8780SOL    HW137976   0.534   4.233   7.081 -1.4413 -3.2507 -2.9840
 8780SOL    HW237977   0.641   4.331   7.050  1.8674 -0.8767  0.4983
 8781SOL     OW37978   1.555   4.588   7.087 -0.2967  0.2901 -0.0512
 8781SOL    HW137979   1.622   4.593   7.154 -0.7105 -1.9407  0.5312
 8781SOL    HW237980   1.484   4.632   7.133 -0.2697  2.1963 -1.8385
 8782SOL     OW37981   3.454   2.894   2.061 -0.6168  0.0638  0.3232
 8782SOL    HW137982   3.388   2.959   2.037  0.6189 -0.0843 -3.3691
 8782SOL    HW237983   3.531   2.913   2.007 -0.8639  0.1892  0.0130
 8783SOL     OW37984   1.205   3.741   2.308 -0.1561  0.0614  0.3412
 8783SOL    HW137985   1.160   3.726   2.224  2.2554 -3.3507 -0.3145
 8783SOL    HW237986   1.275   3.678   2.292 -0.8702  0.2832 -3.7375
 8784SOL     OW37987   0.107   1.966   8.402  0.7586  0.6547 -0.3902
 8784SOL    HW137988   0.118   1.872   8.396 -0.6677  0.4616 -0.0157
 8784SOL    HW237989   0.038   1.982   8.467  0.6015 -0.3309 -0.3116
 8785SOL     OW37990   0.356   1.082  17.506 -0.0096  0.0498 -0.3505
 8785SOL    HW137991   0.393   1.153  17.558 -0.5343 -1.3980  2.0081
 8785SOL    HW237992   0.325   1.022  17.575 -1.2894 -0.9860 -1.8327
 8786SOL     OW37993   0.309   1.237   4.761  0.5811 -0.2522 -0.3958
 8786SOL    HW137994   0.316   1.308   4.697  1.3046  0.8086  0.8668
 8786SOL    HW237995   0.217   1.243   4.787  1.1146  1.3167  1.0957
 8787SOL     OW37996   1.927   0.914   6.583 -0.2249  0.0912  0.0420
 8787SOL    HW137997   1.984   0.862   6.641 -0.0704  1.5108  1.1635
 8787SOL    HW237998   1.851   0.913   6.642  0.2024 -0.0523  0.5908
 8788SOL     OW37999   2.746   4.472   6.261 -0.5004 -0.3767  0.4927
 8788SOL    HW138000   2.658   4.471   6.297  0.0519 -0.7990  1.8271
 8788SOL    HW238001   2.733   4.446   6.170 -0.2028  0.0521  0.3242
 8789SOL     OW38002   1.931   1.839  17.300  0.0743 -0.3298  0.0421
 8789SOL    HW138003   2.023   1.820  17.284 -0.0447 -0.0926 -0.8864
 8789SOL    HW238004   1.934   1.909  17.236 -1.2578 -0.9090 -0.6414
 8790SOL     OW38005   3.991   4.559   8.486 -0.2067  0.6024  0.1824
 8790SOL    HW138006   3.912   4.573   8.538 -1.3939 -0.5278 -1.2971
 8790SOL    HW238007   3.978   4.474   8.445  1.1599  1.4133 -1.9666
 8791SOL     OW38008   3.488   3.848   3.051  0.1843 -0.0618 -0.0968
 8791SOL    HW138009   3.465   3.756   3.055  2.3194 -0.5574  0.7766
 8791SOL    HW238010   3.467   3.881   2.963 -0.1453  0.7066  0.2640
 8792SOL     OW38011   0.865   4.433   3.580 -0.1278 -0.1337 -0.1592
 8792SOL    HW138012   0.858   4.420   3.486  0.0349 -2.4882  0.1751
 8792SOL    HW238013   0.774   4.410   3.599 -0.4988  1.4949  0.0910
 8793SOL     OW38014   0.155   1.857   4.343 -0.5812 -0.4256  0.4339
 8793SOL    HW138015   0.223   1.806   4.299  1.7796  1.4048  1.9314
 8793SOL    HW238016   0.095   1.853   4.269 -3.1947  4.0281  2.2764
 8794SOL     OW38017   2.229   1.095   7.836 -0.0881 -0.7728 -0.0310
 8794SOL    HW138018   2.253   1.109   7.928  0.2241  3.3892 -0.7714
 8794SOL    HW238019   2.135   1.115   7.844  0.7329  2.0207  2.7184
 8795SOL     OW38020   2.869   3.555   3.881 -0.4052 -0.2795  0.3771
 8795SOL    HW138021   2.820   3.631   3.910  0.9279  1.4214 -1.8428
 8795SOL    HW238022   2.800   3.497   3.851  1.6035 -1.7218 -1.4979
 8796SOL     OW38023   4.140   3.894   6.676 -0.0771 -0.1639 -0.4029
 8796SOL    HW138024   4.225   3.855   6.699 -0.8423 -1.1547  0.7316
 8796SOL    HW238025   4.160   3.981   6.642  0.3119 -0.0348  0.1574
 8797SOL     OW38026   1.890   0.370  17.263 -0.3469  0.0085  0.0483
 8797SOL    HW138027   1.834   0.297  17.238  0.7139 -0.8094  0.0465
 8797SOL    HW238028   1.825   0.438  17.279  0.1591 -0.2344  3.1087
 8798SOL     OW38029   4.213   1.601   7.552 -0.5409  0.2039 -0.6762
 8798SOL    HW138030   4.153   1.656   7.502 -0.5270  2.5966  1.9608
 8798SOL    HW238031   4.276   1.658   7.597 -1.9348 -0.5651  2.2627
 8799SOL     OW38032   2.885   3.957   1.442  0.5347 -0.1611  0.3594
 8799SOL    HW138033   2.888   3.862   1.451 -0.3286 -0.2028  0.2453
 8799SOL    HW238034   2.972   3.980   1.411  1.3909 -2.3840  1.1585
 8800SOL     OW38035   1.540   2.146  13.053  0.1529  0.4539 -0.9733
 8800SOL    HW138036   1.578   2.059  13.060  1.6733  1.3083  1.2897
 8800SOL    HW238037   1.618   2.201  13.056  0.1681  0.3133  1.3060
 8801SOL     OW38038   4.222   4.540  10.936  0.2198 -0.1899  0.1231
 8801SOL    HW138039   4.228   4.571  11.026  1.3936 -1.3297  0.4384
 8801SOL    HW238040   4.299   4.591  10.909  0.4980  0.3452  1.9140
 8802SOL     OW38041   4.457   0.030   8.555  0.4783 -0.6191  0.3668
 8802SOL    HW138042   4.492   4.692   8.604 -1.9814 -2.3040 -0.4486
 8802SOL    HW238043   4.438   0.094   8.623  2.9856  1.4999 -0.9151
 8803SOL     OW38044   3.403   2.398   2.775  0.1607 -0.9544 -0.3872
 8803SOL    HW138045   3.396   2.413   2.681  0.2341  1.4788  0.0070
 8803SOL    HW238046   3.348   2.468   2.810  1.6488  0.0690 -0.1154
 8804SOL     OW38047   1.361   1.721   3.395 -0.6160 -0.3024  0.6795
 8804SOL    HW138048   1.312   1.801   3.376 -1.7547 -0.8672  1.2694
 8804SOL    HW238049   1.312   1.674   3.463 -0.5033 -2.3238 -0.6310
 8805SOL     OW38050   0.301   2.261   4.552  0.3895  0.3018  0.1960
 8805SOL    HW138051   0.272   2.340   4.597  1.1933  1.6604 -1.7141
 8805SOL    HW238052   0.264   2.281   4.467 -0.8953 -0.2972  0.6116
 8806SOL     OW38053   2.796   1.896   4.840 -0.1825  0.2845 -0.3497
 8806SOL    HW138054   2.858   1.920   4.772  0.4083  1.5975  0.6501
 8806SOL    HW238055   2.712   1.937   4.820 -0.2327 -0.5495 -1.7972
 8807SOL     OW38056   4.522   4.064  12.406  0.0627 -0.2632 -0.3407
 8807SOL    HW138057   4.575   4.132  12.447  1.0741  0.5009 -2.9295
 8807SOL    HW238058   4.476   4.023  12.479  0.5057 -1.0577 -0.4945
 8808SOL     OW38059   0.579   4.458   4.397 -0.8054  0.0939  0.5562
 8808SOL    HW138060   0.543   4.370   4.409 -1.3301  0.0326 -1.4820
 8808SOL    HW238061   0.620   4.448   4.311 -0.6457 -0.3936  0.6885
 8809SOL     OW38062   0.321   2.331   5.847  0.0416 -0.2685  0.2836
 8809SOL    HW138063   0.274   2.407   5.814  1.5998 -0.0056 -1.3477
 8809SOL    HW238064   0.386   2.327   5.777 -2.6871  2.2006 -2.3355
 8810SOL     OW38065   1.260   4.069   6.969  0.2091 -0.2542 -0.6379
 8810SOL    HW138066   1.218   4.128   6.906  0.7850 -0.2606 -1.0277
 8810SOL    HW238067   1.185   4.017   6.999 -0.2537  1.7510  1.6871
 8811SOL     OW38068   0.910   1.287  14.569 -0.1458 -0.4469  0.1551
 8811SOL    HW138069   0.891   1.212  14.512  3.6525 -1.4111  0.1282
 8811SOL    HW238070   0.950   1.339  14.499 -1.2049 -1.1683 -0.9924
 8812SOL     OW38071   4.626   3.691   7.885  0.5760  0.1094  0.1854
 8812SOL    HW138072   4.721   3.705   7.881  0.4628  0.6473 -0.6298
 8812SOL    HW238073   4.627   3.637   7.964 -0.1709  2.9377  2.1031
 8813SOL     OW38074   2.242   1.217  15.471 -0.5183  0.0024  0.1601
 8813SOL    HW138075   2.329   1.214  15.511 -0.0636 -0.1587 -0.8487
 8813SOL    HW238076   2.182   1.216  15.545  1.1275 -1.3618  1.4780
 8814SOL     OW38077   4.181   4.286  11.025  0.3353  0.6883 -0.5392
 8814SOL    HW138078   4.185   4.373  10.986  1.5536  0.0522 -1.8389
 8814SOL    HW238079   4.153   4.305  11.114 -0.3640 -0.0903 -0.5948
 8815SOL     OW38080   2.919   2.071   7.164 -0.1114 -0.3167  0.0760
 8815SOL    HW138081   2.998   2.088   7.112 -1.8106 -0.1002 -2.4169
 8815SOL    HW238082   2.916   1.977   7.147 -0.6295 -0.0324 -1.4262
 8816SOL     OW38083   4.387   3.776  11.327  0.3840 -0.1758 -0.6580
 8816SOL    HW138084   4.391   3.814  11.415  1.7185  1.2357 -1.3387
 8816SOL    HW238085   4.393   3.859  11.280  1.3738  0.3130  0.3329
 8817SOL     OW38086   2.392   3.683   2.871 -0.5794  0.4866  0.5997
 8817SOL    HW138087   2.362   3.624   2.941 -0.2601 -0.1747  0.1849
 8817SOL    HW238088   2.313   3.690   2.817  0.2656 -0.1719 -0.7094
 8818SOL     OW38089   0.151   1.523   8.534  0.0264  0.0406 -0.1385
 8818SOL    HW138090   0.101   1.586   8.585 -2.3979 -1.8796 -0.1097
 8818SOL    HW238091   0.079   1.460   8.541 -1.3081  1.5185 -0.6957
 8819SOL     OW38092   3.580   2.668  17.720  0.0424  0.2520  0.5389
 8819SOL    HW138093   3.629   2.609  17.664 -1.1926  0.2478 -0.5196
 8819SOL    HW238094   3.585   2.619   0.056 -1.6199 -1.6211 -0.5002
 8820SOL     OW38095   3.794   0.280   3.911 -0.5471  0.4654 -0.0232
 8820SOL    HW138096   3.884   0.290   3.941  0.2238 -0.0062 -2.1315
 8820SOL    HW238097   3.740   0.270   3.989 -0.7093 -0.7797 -0.2921
 8821SOL     OW38098   1.791   3.574   3.869 -0.3546  0.0674 -0.1331
 8821SOL    HW138099   1.801   3.480   3.854  0.1583  0.0434  0.3478
 8821SOL    HW238100   1.841   3.616   3.798 -0.1848  2.4630  1.3900
 8822SOL     OW38101   3.320   0.273   5.470 -0.5317 -0.1420 -0.3034
 8822SOL    HW138102   3.377   0.345   5.441  0.5440 -1.3027 -1.0486
 8822SOL    HW238103   3.377   0.230   5.534  1.0114 -0.0487 -1.6246
 8823SOL     OW38104   2.384   1.070  10.850 -0.1515  0.3401  0.0419
 8823SOL    HW138105   2.426   1.156  10.848  2.0562 -0.6941  2.1986
 8823SOL    HW238106   2.298   1.103  10.876 -1.0345 -0.0218 -2.4157
 8824SOL     OW38107   3.161   3.763   0.776 -0.0618 -0.0815  0.1056
 8824SOL    HW138108   3.226   3.747   0.708  0.1240  0.7476  0.0794
 8824SOL    HW238109   3.097   3.695   0.758 -1.3830  1.4763 -1.0664
 8825SOL     OW38110   2.452   1.360  12.091 -0.2763  0.0028  0.4551
 8825SOL    HW138111   2.480   1.421  12.159 -0.2703 -0.3622  0.7744
 8825SOL    HW238112   2.534   1.323  12.061 -1.0783 -0.4706 -1.1671
 8826SOL     OW38113   1.281   2.321   6.450  0.5184  0.1207  0.0724
 8826SOL    HW138114   1.247   2.335   6.538  1.2145 -0.8332  0.4915
 8826SOL    HW238115   1.202   2.362   6.414  0.4462 -0.8048 -0.8346
 8827SOL     OW38116   2.311   1.578   4.804 -0.1661  0.3321  0.1565
 8827SOL    HW138117   2.222   1.596   4.833 -0.5990  3.5596 -3.2045
 8827SOL    HW238118   2.334   1.660   4.760 -1.3404  0.9939  0.8012
 8828SOL     OW38119   4.647   1.911   7.131 -0.2604  0.2609  0.3520
 8828SOL    HW138120   4.566   1.864   7.149  1.0963 -1.7796  1.2339
 8828SOL    HW238121   4.699   1.847   7.082 -0.2289  0.6835 -0.1686
 8829SOL     OW38122   4.159   0.646   7.673  0.3314 -0.2543 -0.2895
 8829SOL    HW138123   4.075   0.636   7.718  0.5886 -2.1018 -0.2223
 8829SOL    HW238124   4.194   0.725   7.715 -2.9025  0.3084  1.3638
 8830SOL     OW38125   1.617   2.569   3.010  0.1146 -0.5253  0.1461
 8830SOL    HW138126   1.707   2.600   3.000  0.6669 -2.3474 -0.6496
 8830SOL    HW238127   1.615   2.507   2.937 -1.1850  0.5555 -0.7353
 8831SOL     OW38128   3.890   3.442   6.491  0.4202  0.1728  0.3107
 8831SOL    HW138129   3.800   3.456   6.462  0.0951  0.2966  1.3854
 8831SOL    HW238130   3.926   3.531   6.481 -0.4363  0.5424  0.5062
 8832SOL     OW38131   3.336   3.896  11.017 -0.1479 -0.2191 -0.6918
 8832SOL    HW138132   3.410   3.955  11.000  1.2875 -1.6401  0.5379
 8832SOL    HW238133   3.256   3.938  10.989 -1.0967 -1.9433 -0.5864
 8833SOL     OW38134   2.379   2.640  16.478  0.3751 -0.2077  0.0598
 8833SOL    HW138135   2.448   2.695  16.517  0.2599 -0.9329  1.3032
 8833SOL    HW238136   2.316   2.708  16.457  3.4109  2.5812 -0.1475
 8834SOL     OW38137   2.879   3.619   5.109  0.8408 -0.3110  0.6819
 8834SOL    HW138138   2.845   3.567   5.182 -2.2237 -0.9518 -1.1728
 8834SOL    HW238139   2.930   3.682   5.160 -1.7807  0.6222  2.1859
 8835SOL     OW38140   3.202   0.696  10.600 -0.3676  0.0961 -0.0394
 8835SOL    HW138141   3.169   0.776  10.642  0.9770  0.4505  0.3588
 8835SOL    HW238142   3.148   0.713  10.523  0.3612 -0.7480 -0.7289
 8836SOL     OW38143   3.427   1.439   3.511 -0.1649  0.0429  0.0802
 8836SOL    HW138144   3.516   1.473   3.517 -0.1499 -0.3277  2.0026
 8836SOL    HW238145   3.381   1.517   3.541  0.8068  2.0226 -3.5136
 8837SOL     OW38146   2.112   0.493   2.106 -0.4072  0.2120  0.4057
 8837SOL    HW138147   2.156   0.573   2.080 -1.5762  1.0674  1.0424
 8837SOL    HW238148   2.038   0.478   2.046  0.6335  2.3739 -1.4279
 8838SOL     OW38149   0.552   0.180   2.126  0.3375 -0.0912  0.3656
 8838SOL    HW138150   0.502   0.190   2.207 -1.0029 -0.1097 -0.4641
 8838SOL    HW238151   0.560   0.085   2.118  2.7646  0.1774 -0.3972
 8839SOL     OW38152   1.876   2.021  16.629 -0.3707 -0.1969 -0.8405
 8839SOL    HW138153   1.967   1.991  16.631 -0.3480 -0.0518  0.0843
 8839SOL    HW238154   1.850   2.020  16.537  0.5017 -0.9904 -1.0780
 8840SOL     OW38155   3.547   0.700   0.079  0.3584 -0.3429 -0.1057
 8840SOL    HW138156   3.609   0.673   0.147  0.2457 -0.6943 -0.1433
 8840SOL    HW238157   3.475   0.743   0.125  0.3040 -1.1857  0.5972
 8841SOL     OW38158   2.729   1.942   6.168  0.0999 -0.1215  0.5355
 8841SOL    HW138159   2.738   1.991   6.086 -2.6555  0.2596  0.4658
 8841SOL    HW238160   2.690   2.010   6.223 -0.6182  1.1481 -1.5399
 8842SOL     OW38161   2.993   1.141   4.874 -0.6683 -0.8150 -0.0653
 8842SOL    HW138162   2.950   1.179   4.951  0.9229  1.2051 -0.1646
 8842SOL    HW238163   2.958   1.193   4.802 -1.9756 -2.9615 -0.9640
 8843SOL     OW38164   2.274   3.726  17.553  0.4093 -0.1766  0.3305
 8843SOL    HW138165   2.263   3.803  17.609 -0.1876  0.5712 -0.8156
 8843SOL    HW238166   2.204   3.669  17.586 -1.1449  1.0981 -0.7523
 8844SOL     OW38167   2.571   4.240   6.427 -0.5197  0.2068  0.4052
 8844SOL    HW138168   2.530   4.321   6.398  1.3708  0.3459 -1.9020
 8844SOL    HW238169   2.502   4.199   6.479 -2.0269  0.2685 -1.5597
 8845SOL     OW38170   3.111   2.191  12.959  0.2003 -0.3950  0.6681
 8845SOL    HW138171   3.124   2.268  12.904 -2.1856 -1.9009 -2.0297
 8845SOL    HW238172   3.202   2.161  12.959 -0.0289 -1.1072 -0.2341
 8846SOL     OW38173   1.571   1.585   8.250 -0.1839  0.4216  0.0755
 8846SOL    HW138174   1.617   1.610   8.330  1.9008 -1.7859 -0.4197
 8846SOL    HW238175   1.622   1.514   8.210  1.1531  1.0071  0.7250
 8847SOL     OW38176   1.934   1.591   6.404  0.5285  0.5795  0.3798
 8847SOL    HW138177   1.861   1.643   6.372 -0.1803 -0.3343  0.5196
 8847SOL    HW238178   1.965   1.537   6.331  2.0469  1.2343  0.5365
 8848SOL     OW38179   4.318   0.718   3.100  0.6363  0.0496 -0.5223
 8848SOL    HW138180   4.290   0.635   3.062 -0.9912 -0.2654  1.3744
 8848SOL    HW238181   4.402   0.701   3.142  0.8564  1.4457 -0.3886
 8849SOL     OW38182   3.855   1.844  11.763  0.0106  0.3197  0.1305
 8849SOL    HW138183   3.783   1.873  11.818 -1.7093 -0.5914 -1.6443
 8849SOL    HW238184   3.926   1.847  11.827  0.3974 -1.6653 -0.2065
 8850SOL     OW38185   1.781   2.538  12.510 -0.1291  0.1658  0.6116
 8850SOL    HW138186   1.688   2.522  12.524 -0.2492  0.2053 -0.1586
 8850SOL    HW238187   1.785   2.628  12.477 -0.4752  0.2726  0.8559
 8851SOL     OW38188   3.044   3.335   2.109 -0.0431 -0.5455 -0.4336
 8851SOL    HW138189   3.137   3.337   2.089  0.0426  2.4658  0.3009
 8851SOL    HW238190   3.013   3.399   2.045  0.3018 -0.8503 -0.9104
 8852SOL     OW38191   2.792   3.710   0.832 -0.6965  0.1254 -0.3414
 8852SOL    HW138192   2.733   3.780   0.860 -0.8235 -0.6001  1.2019
 8852SOL    HW238193   2.767   3.707   0.740  1.2251  1.4976 -0.9105
 8853SOL     OW38194   1.699   3.273   7.483 -0.4881 -0.1167  0.1961
 8853SOL    HW138195   1.672   3.312   7.400 -1.2939  0.7915  0.8740
 8853SOL    HW238196   1.687   3.342   7.549  5.1739  0.6048  0.4581
 8854SOL     OW38197   4.403   1.894   8.925 -0.2141  0.5213 -0.1844
 8854SOL    HW138198   4.329   1.837   8.907  0.1038  0.1492 -0.3120
 8854SOL    HW238199   4.474   1.830   8.927  0.4479  1.2346 -0.6923
 8855SOL     OW38200   1.237   2.207   2.115 -0.5000  0.1364  0.4922
 8855SOL    HW138201   1.252   2.113   2.110 -1.3457  0.0125  0.2557
 8855SOL    HW238202   1.233   2.233   2.023 -0.9678 -0.0253  0.4656
 8856SOL     OW38203   0.810   1.353   8.457  0.1979  0.0740 -0.1436
 8856SOL    HW138204   0.899   1.321   8.471 -0.6644 -1.3470  2.1423
 8856SOL    HW238205   0.763   1.269   8.447 -0.3810  0.4422 -0.5553
 8857SOL     OW38206   2.018   2.800   8.833 -0.0075  0.5115  0.2198
 8857SOL    HW138207   1.962   2.744   8.887  1.8700  0.2712  1.8902
 8857SOL    HW238208   1.958   2.869   8.804 -0.8096 -0.9001 -1.4490
 8858SOL     OW38209   3.290   3.168   3.703 -0.3938  0.4410 -0.5265
 8858SOL    HW138210   3.339   3.247   3.726  0.6135 -0.3779  0.1537
 8858SOL    HW238211   3.217   3.191   3.760 -0.0551 -2.0451  0.9194
 8859SOL     OW38212   3.580   0.901   7.475  0.5831  0.4058  0.3160
 8859SOL    HW138213   3.486   0.899   7.490  0.3246  0.2011 -1.2671
 8859SOL    HW238214   3.580   0.914   7.380  2.5066  3.4117  0.7125
 8860SOL     OW38215   2.487   1.425   8.830 -0.1573  0.0757 -0.0157
 8860SOL    HW138216   2.524   1.481   8.761  0.7176 -2.4539 -1.5988
 8860SOL    HW238217   2.392   1.420   8.820 -0.1698  2.2993 -1.0236
 8861SOL     OW38218   1.245   2.945   5.334 -0.6456 -0.2628  0.3078
 8861SOL    HW138219   1.334   2.975   5.318 -1.1137  2.2848  2.4678
 8861SOL    HW238220   1.194   3.011   5.288 -1.9602 -0.3651  1.6029
 8862SOL     OW38221   0.822   1.029   4.969 -0.5752 -0.1213  0.8240
 8862SOL    HW138222   0.813   0.958   5.033  0.2406 -0.5557  0.4542
 8862SOL    HW238223   0.729   1.047   4.952 -0.6407 -1.0338  0.2516
 8863SOL     OW38224   2.073   4.629   8.218  0.1127  0.0422 -0.0908
 8863SOL    HW138225   2.129   4.553   8.207  0.3707  0.4996 -1.8905
 8863SOL    HW238226   2.118   4.681   8.152  1.3873  0.5637  1.1843
 8864SOL     OW38227   4.216   3.402  17.145  0.0970  0.2113  0.0297
 8864SOL    HW138228   4.311   3.401  17.157  0.2501 -0.6030 -1.1764
 8864SOL    HW238229   4.210   3.398  17.049  0.1991  2.5790 -0.0553
 8865SOL     OW38230   4.206   2.026   5.776 -0.1670  0.3049  0.0253
 8865SOL    HW138231   4.246   2.110   5.797  2.5299 -0.2644 -2.7331
 8865SOL    HW238232   4.272   1.967   5.812 -1.1138 -0.7950 -0.0149
 8866SOL     OW38233   4.675   0.276   6.916 -0.1254 -0.0744 -0.5136
 8866SOL    HW138234   4.691   0.189   6.881  0.0792  0.3673 -1.5147
 8866SOL    HW238235   4.670   0.334   6.841  0.9911  0.8524  0.1094
 8867SOL     OW38236   4.358   0.372   4.950  0.3916  0.1731  0.0076
 8867SOL    HW138237   4.430   0.318   4.982  0.6702  0.0533 -0.8195
 8867SOL    HW238238   4.401   0.440   4.898 -0.9404  0.8100 -0.2749
 8868SOL     OW38239   2.180   1.074   1.956 -0.1240 -0.3027 -0.5193
 8868SOL    HW138240   2.244   1.129   1.910  0.7594 -0.7105  0.2184
 8868SOL    HW238241   2.167   1.129   2.033  1.1474 -0.6913 -0.0271
 8869SOL     OW38242   0.980   0.120   3.454  0.1008  0.3094 -0.2424
 8869SOL    HW138243   1.008   0.048   3.510 -1.2405 -0.5441 -0.6786
 8869SOL    HW238244   0.981   0.196   3.512  0.3680  1.2025 -1.3997
 8870SOL     OW38245   1.566   0.727   8.739  0.1227 -0.2237  0.2792
 8870SOL    HW138246   1.531   0.817   8.737 -0.7321 -0.5419  0.7694
 8870SOL    HW238247   1.658   0.753   8.739  0.6505 -2.1095 -1.4472
 8871SOL     OW38248   3.525   4.607  15.852 -0.0886 -0.3969 -0.1064
 8871SOL    HW138249   3.556   4.689  15.891  1.5783 -0.8708 -0.4133
 8871SOL    HW238250   3.590   4.600  15.781  0.5266  3.0026  0.1027
 8872SOL     OW38251   0.249   4.268  16.151  0.2246  0.2769  0.0872
 8872SOL    HW138252   0.242   4.252  16.245  0.0982  2.1012  0.3987
 8872SOL    HW238253   0.188   4.341  16.139  1.4590  1.1689 -0.8904
 8873SOL     OW38254   1.365   1.446   8.322 -0.7013 -0.3302 -0.8197
 8873SOL    HW138255   1.337   1.529   8.361 -3.8319 -1.7513 -0.0168
 8873SOL    HW238256   1.439   1.484   8.275  0.0376 -0.3558  0.3294
 8874SOL     OW38257   4.097   4.679  14.470  0.0294  0.0652 -0.4715
 8874SOL    HW138258   4.005   4.677  14.443 -0.5715 -0.7155  1.6183
 8874SOL    HW238259   4.128   0.010  14.410  1.4253  1.7428  2.1482
 8875SOL     OW38260   0.281   3.102   3.999  0.4193 -0.2559  0.8827
 8875SOL    HW138261   0.318   3.187   3.975 -1.0250 -0.4081 -1.9114
 8875SOL    HW238262   0.332   3.037   3.951 -0.5357  1.4341 -2.4921
 8876SOL     OW38263   3.027   1.165   6.081  0.2655 -0.2192  0.0876
 8876SOL    HW138264   2.954   1.225   6.064 -0.3967 -1.6366 -2.0693
 8876SOL    HW238265   3.041   1.199   6.169  0.9888  0.8845 -0.4433
 8877SOL     OW38266   0.792   1.834  13.251 -0.0127 -0.4535 -0.6060
 8877SOL    HW138267   0.838   1.824  13.167  0.9522 -1.2460  0.0139
 8877SOL    HW238268   0.733   1.907  13.232 -0.7567 -0.2779  2.4729
 8878SOL     OW38269   1.744   2.800   5.112 -0.0103  0.0004  0.1159
 8878SOL    HW138270   1.834   2.811   5.143  0.0229 -1.9799  0.7420
 8878SOL    HW238271   1.746   2.788   5.017 -1.5810 -1.4980  0.2609
 8879SOL     OW38272   4.527   0.982  10.470 -0.1130 -0.3797 -1.0830
 8879SOL    HW138273   4.449   1.037  10.481 -0.9117 -1.3767 -1.8778
 8879SOL    HW238274   4.582   1.046  10.423  2.0580  0.4991  2.6163
 8880SOL     OW38275   3.621   2.897   1.010  0.0773  0.1334 -0.4748
 8880SOL    HW138276   3.603   2.807   0.983 -1.5374  0.3058  0.0268
 8880SOL    HW238277   3.716   2.898   0.999 -0.1782  1.1643 -2.5006
 8881SOL     OW38278   2.314   1.720   7.278  0.2648  0.2869 -0.3583
 8881SOL    HW138279   2.222   1.745   7.290  0.0538 -0.9450  0.5073
 8881SOL    HW238280   2.335   1.763   7.195 -1.2092  0.3172 -0.7142
 8882SOL     OW38281   0.213   1.298   8.002  0.2324  0.1076 -0.0702
 8882SOL    HW138282   0.118   1.303   7.987 -0.0641  0.5139  1.9281
 8882SOL    HW238283   0.239   1.344   7.922 -0.6700 -0.3593 -0.6410
 8883SOL     OW38284   1.013   0.807   3.150 -0.3936 -0.5459 -0.3967
 8883SOL    HW138285   0.937   0.831   3.096 -0.8208  0.7920  0.8256
 8883SOL    HW238286   1.030   0.719   3.114  0.7782  0.4036 -2.2131
 8884SOL     OW38287   0.935   1.948   3.853  0.0321 -0.6503 -0.4500
 8884SOL    HW138288   0.958   1.915   3.765  1.9090 -2.2330  0.6152
 8884SOL    HW238289   0.843   1.923   3.860 -0.8644  2.5762 -0.7669
 8885SOL     OW38290   0.914   1.866  17.033  0.4931  0.1364  0.6010
 8885SOL    HW138291   0.908   1.954  16.995  0.4400  0.1479  0.6363
 8885SOL    HW238292   1.009   1.860  17.046  0.7111  1.4378 -0.3201
 8886SOL     OW38293   2.133   4.215   8.877 -0.3642  0.4582  0.1380
 8886SOL    HW138294   2.197   4.235   8.945  0.4957 -3.4411  0.4631
 8886SOL    HW238295   2.189   4.221   8.800 -2.8884  0.6752 -1.6947
 8887SOL     OW38296   3.510   0.581   0.638 -0.2668 -0.1494 -0.2952
 8887SOL    HW138297   3.499   0.630   0.719  1.6567  0.8698 -0.6384
 8887SOL    HW238298   3.591   0.532   0.653 -0.2848 -0.0525  0.1275
 8888SOL     OW38299   4.702   1.239   3.633  0.4596  0.0684 -0.0275
 8888SOL    HW138300   4.636   1.211   3.570 -0.6093  0.9196  0.6983
 8888SOL    HW238301   0.043   1.241   3.579 -0.0738 -1.5331 -0.8494
 8889SOL     OW38302   3.536   0.023   7.916  0.5445 -0.4883 -0.4912
 8889SOL    HW138303   3.539   4.685   7.974 -1.0705 -0.1170  0.0786
 8889SOL    HW238304   3.610   0.075   7.947 -0.7991  0.8656  0.4038
 8890SOL     OW38305   2.982   1.777   6.498  0.0203 -0.8079 -0.0593
 8890SOL    HW138306   3.033   1.770   6.579 -1.2778 -1.2099  0.7379
 8890SOL    HW238307   3.052   1.808   6.441  1.5584 -1.3093  1.5447
 8891SOL     OW38308   4.302   0.982   2.548 -0.2619  0.6552  0.5868
 8891SOL    HW138309   4.394   0.990   2.526 -0.1839 -2.8142 -0.4027
 8891SOL    HW238310   4.271   0.948   2.464  0.3660  0.1686  0.5567
 8892SOL     OW38311   2.824   4.154   6.051 -0.4827 -0.0247 -0.5229
 8892SOL    HW138312   2.879   4.174   6.127 -1.2565 -0.6687  0.2181
 8892SOL    HW238313   2.753   4.104   6.094 -1.5303  0.0325 -2.1939
 8893SOL     OW38314   2.917   0.874  16.841 -0.2448 -0.2482 -0.4800
 8893SOL    HW138315   2.973   0.856  16.917 -1.1310 -1.4938 -0.1228
 8893SOL    HW238316   2.947   0.963  16.823 -1.4313  0.2154 -0.1606
 8894SOL     OW38317   2.828   4.085  12.835  0.1356 -0.2355 -0.7165
 8894SOL    HW138318   2.916   4.122  12.831 -0.1914  0.7986  1.8322
 8894SOL    HW238319   2.846   4.009  12.890  0.8211  0.9921  0.7587
 8895SOL     OW38320   4.472   0.527  14.311 -0.0881 -1.0724 -1.0276
 8895SOL    HW138321   4.461   0.492  14.223 -0.8562 -0.9269 -0.9862
 8895SOL    HW238322   4.563   0.500  14.323 -0.3022 -3.0923 -3.8008
 8896SOL     OW38323   1.948   3.179   4.329  0.2375 -0.3976  0.7504
 8896SOL    HW138324   1.918   3.268   4.349 -1.8140 -0.6149 -1.3530
 8896SOL    HW238325   2.041   3.193   4.311  0.3672 -3.6293 -1.0374
 8897SOL     OW38326   0.708   3.712  16.409  0.3393  0.0567 -0.3626
 8897SOL    HW138327   0.746   3.772  16.344  0.1630  1.6550  1.0095
 8897SOL    HW238328   0.784   3.665  16.443 -1.2605 -2.7580 -0.6726
 8898SOL     OW38329   2.019   3.991   2.024  0.0747  0.0896  0.3390
 8898SOL    HW138330   2.074   4.049   1.971 -1.7790  2.4651  1.0028
 8898SOL    HW238331   1.997   4.041   2.102 -1.0693 -3.7175  2.4156
 8899SOL     OW38332   2.887   3.207   6.980  0.5889  0.0610 -0.4657
 8899SOL    HW138333   2.807   3.159   6.957 -0.3250  0.1531  2.5183
 8899SOL    HW238334   2.947   3.178   6.911 -1.7477 -2.1523 -1.6142
 8900SOL     OW38335   1.167   2.198   9.178  0.2084  0.5704  0.3899
 8900SOL    HW138336   1.141   2.130   9.240  0.1834  0.8724  0.7117
 8900SOL    HW238337   1.126   2.274   9.218  1.8321  0.4276  2.3364
 8901SOL     OW38338   3.773   3.691   6.201 -0.9855  0.0611 -0.2459
 8901SOL    HW138339   3.713   3.761   6.176  0.2109  1.1563 -0.0730
 8901SOL    HW238340   3.850   3.730   6.243 -0.0978 -2.1766  0.1610
 8902SOL     OW38341   4.212   4.192   7.773  0.4963 -0.6717  0.0338
 8902SOL    HW138342   4.166   4.137   7.836 -0.5436  0.8454  0.6112
 8902SOL    HW238343   4.138   4.231   7.725  1.7265 -0.1815 -1.4604
 8903SOL     OW38344   3.963   1.352  13.820 -0.0580 -0.0787  0.6467
 8903SOL    HW138345   4.005   1.305  13.749 -3.5123 -0.9822 -0.8207
 8903SOL    HW238346   3.943   1.276  13.874  0.9569  0.7502  2.2055
 8904SOL     OW38347   0.167   3.575  11.959  0.1782  0.2713  0.4216
 8904SOL    HW138348   0.086   3.571  12.010 -0.1216  0.7088 -0.0203
 8904SOL    HW238349   0.217   3.500  11.992  1.1335 -0.0053 -1.6292
 8905SOL     OW38350   1.314   3.365   8.913  0.0893  0.1227  0.1030
 8905SOL    HW138351   1.344   3.279   8.886  0.9182 -0.6758  3.6325
 8905SOL    HW238352   1.387   3.416   8.878 -0.3437  1.0066  0.4815
 8906SOL     OW38353   3.701   0.569   1.913 -0.4197 -0.2296 -0.3957
 8906SOL    HW138354   3.716   0.499   1.850 -2.2248 -1.0943  0.1338
 8906SOL    HW238355   3.726   0.533   1.999  0.8060  0.9122 -0.2796
 8907SOL     OW38356   3.909   0.906   0.077  0.7642  0.2115  0.0268
 8907SOL    HW138357   3.868   0.974   0.131 -2.4937  0.9002 -3.3275
 8907SOL    HW238358   3.987   0.880   0.126  0.8387  0.4742  0.0484
 8908SOL     OW38359   4.389   3.701   1.365 -0.1573 -0.4890 -0.1260
 8908SOL    HW138360   4.358   3.774   1.311  2.7551  0.3778 -0.6301
 8908SOL    HW238361   4.321   3.690   1.431 -0.5741 -0.6394 -0.5792
 8909SOL     OW38362   1.917   2.824   9.802 -0.1191 -0.5233  0.7041
 8909SOL    HW138363   1.875   2.740   9.822 -1.4374  0.5540  2.4419
 8909SOL    HW238364   1.957   2.843   9.886 -1.3810  0.6482  1.0430
 8910SOL     OW38365   2.560   2.642   7.832  0.1385 -0.1940 -0.5315
 8910SOL    HW138366   2.654   2.624   7.829  0.0204 -0.7525 -0.9635
 8910SOL    HW238367   2.517   2.558   7.848 -2.5478  0.9574 -1.6305
 8911SOL     OW38368   3.359   4.607   9.344 -0.5176  0.3602 -0.0144
 8911SOL    HW138369   3.276   4.641   9.379 -0.0883  2.7881 -1.3828
 8911SOL    HW238370   3.326   4.530   9.298  2.0797  0.0915 -1.3800
 8912SOL     OW38371   2.036   4.695   8.482 -0.0702  0.3849  1.0070
 8912SOL    HW138372   2.032   4.629   8.551  1.2454 -0.6263  0.1022
 8912SOL    HW238373   2.041   4.640   8.404 -0.3264  1.4324  0.2552
 8913SOL     OW38374   0.553   3.456   8.294 -0.1009 -0.1457 -0.5064
 8913SOL    HW138375   0.577   3.462   8.201  1.6625 -0.5951 -0.0786
 8913SOL    HW238376   0.457   3.451   8.289 -0.2495  1.4395  0.9148
 8914SOL     OW38377   3.287   3.634  15.522 -0.3326 -0.3450 -0.2139
 8914SOL    HW138378   3.257   3.565  15.464 -2.8213  1.1181 -0.6410
 8914SOL    HW238379   3.353   3.675  15.466 -0.1170 -1.1551 -0.5489
 8915SOL     OW38380   1.084   3.113   8.085  0.4203 -0.3755 -0.2067
 8915SOL    HW138381   1.039   3.197   8.074 -1.5126 -1.3302  0.4187
 8915SOL    HW238382   1.143   3.120   8.010  2.3645 -1.4563  1.2466
 8916SOL     OW38383   1.344   1.833   5.045 -0.0165 -0.5166  0.0900
 8916SOL    HW138384   1.289   1.757   5.024 -0.0265 -0.3418 -0.5208
 8916SOL    HW238385   1.285   1.896   5.085  0.3771  0.0348 -0.2024
 8917SOL     OW38386   4.200   3.921   3.010  0.2940 -0.5759  0.0471
 8917SOL    HW138387   4.175   3.832   2.983  2.7399 -1.0155 -0.8227
 8917SOL    HW238388   4.212   3.950   2.920  2.2055 -1.5404 -0.0169
 8918SOL     OW38389   4.655   3.775   5.026 -0.2378 -0.7422  0.2341
 8918SOL    HW138390   4.707   3.718   5.082  1.8152  0.5518 -0.3381
 8918SOL    HW238391   4.626   3.720   4.953  1.0088  0.1832 -0.9569
 8919SOL     OW38392   2.684   1.836   3.878  0.0749  0.4714  0.1409
 8919SOL    HW138393   2.634   1.767   3.835  1.0922  0.2939 -0.7418
 8919SOL    HW238394   2.649   1.838   3.967 -2.9835 -5.0172 -0.9512
 8920SOL     OW38395   1.897   0.629   2.291  0.5580  0.2607 -0.0506
 8920SOL    HW138396   1.975   0.598   2.246  0.8242  0.7463  0.0729
 8920SOL    HW238397   1.928   0.657   2.377  0.2669 -0.8849  0.4192
 8921SOL     OW38398   0.928   2.118  13.499  0.3088 -0.1335 -0.2696
 8921SOL    HW138399   0.943   2.024  13.494  1.3023  0.0050  0.3232
 8921SOL    HW238400   1.014   2.149  13.527  0.2800  0.1348 -0.4757
 8922SOL     OW38401   0.214   0.005  14.956 -0.2301 -0.1109 -0.5006
 8922SOL    HW138402   0.137   0.051  14.921 -0.5851  0.5890  1.1600
 8922SOL    HW238403   0.288   0.035  14.903 -0.5338  0.4231 -0.6259
 8923SOL     OW38404   1.429   1.346   5.500  0.1146  0.1658 -0.1630
 8923SOL    HW138405   1.505   1.377   5.451  0.7894 -1.3810 -0.0905
 8923SOL    HW238406   1.364   1.410   5.468  1.1858  2.0153  1.3358
 8924SOL     OW38407   1.190   1.728   2.505  0.2728  0.2613 -0.3343
 8924SOL    HW138408   1.143   1.713   2.587  2.7097 -0.7662  0.8821
 8924SOL    HW238409   1.240   1.648   2.491  2.9397  1.5630  1.8651
 8925SOL     OW38410   3.341   0.766   5.377 -0.3941  0.3306  0.6242
 8925SOL    HW138411   3.268   0.718   5.416  0.2077 -1.0181  0.1061
 8925SOL    HW238412   3.289   0.812   5.311 -0.8741 -0.6219  0.3385
 8926SOL     OW38413   0.162   0.058   8.051 -0.5182  0.1393 -0.3944
 8926SOL    HW138414   0.234   0.058   8.115  0.1967  0.9714 -1.1952
 8926SOL    HW238415   0.081   0.049   8.100  0.5160 -0.3639  1.2506
 8927SOL     OW38416   0.931   3.793   5.677 -0.8058  0.2855  0.2124
 8927SOL    HW138417   0.922   3.774   5.770 -0.6545  1.9254  0.5617
 8927SOL    HW238418   0.922   3.710   5.631 -1.0559  0.2682  0.2922
 8928SOL     OW38419   0.145   0.908  17.054  0.6152  1.0697  0.2621
 8928SOL    HW138420   0.145   0.918  17.149 -2.0111  1.1080  0.2517
 8928SOL    HW238421   0.126   0.814  17.050  0.6878  1.1164 -1.1331
 8929SOL     OW38422   2.141   1.936  13.045 -0.0511 -0.0931  0.6726
 8929SOL    HW138423   2.164   1.850  13.009  0.6666  1.9937 -3.8015
 8929SOL    HW238424   2.168   1.927  13.137  1.0033 -0.7932  0.2886
 8930SOL     OW38425   0.540   0.965  12.695 -0.1188  0.2925  0.4896
 8930SOL    HW138426   0.472   1.014  12.741 -1.3875 -0.2920 -0.7729
 8930SOL    HW238427   0.578   1.027  12.633 -1.2983  2.4873  1.9607
 8931SOL     OW38428   2.368   2.057   3.169 -0.2944  0.5285  0.7087
 8931SOL    HW138429   2.451   2.043   3.124 -0.7593 -0.5472  0.1871
 8931SOL    HW238430   2.322   1.981   3.135 -0.7411  1.4010 -0.6353
 8932SOL     OW38431   0.859   0.659   8.762  0.2727  0.2720  0.0915
 8932SOL    HW138432   0.773   0.649   8.721 -0.5028  2.0052  1.2752
 8932SOL    HW238433   0.896   0.715   8.694  3.1611 -0.4395  1.0833
 8933SOL     OW38434   1.213   1.494  13.875 -0.2353  0.0858 -0.9671
 8933SOL    HW138435   1.240   1.532  13.792 -0.0852 -0.7801 -1.3154
 8933SOL    HW238436   1.167   1.564  13.921  1.0128  0.1789  0.1422
 8934SOL     OW38437   2.915   2.263  17.717 -0.2734  0.2014 -0.2161
 8934SOL    HW138438   2.969   2.335   0.004  0.3590  0.2517 -1.3412
 8934SOL    HW238439   2.892   2.216   0.051 -1.1875  0.3816 -0.3720
 8935SOL     OW38440   4.485   2.487  11.936 -0.1993 -0.3305  0.1849
 8935SOL    HW138441   4.560   2.456  11.987 -0.8404 -2.3391 -0.1025
 8935SOL    HW238442   4.427   2.500  12.012 -0.8812  0.1421 -0.4174
 8936SOL     OW38443   2.337   0.854   3.639 -0.3028 -0.5700  0.3405
 8936SOL    HW138444   2.254   0.877   3.682 -1.0950  2.1797 -2.6180
 8936SOL    HW238445   2.375   0.793   3.702  1.2531 -1.1882 -1.1981
 8937SOL     OW38446   4.615   2.740  10.814  0.1288  0.0263  0.5576
 8937SOL    HW138447   4.644   2.666  10.761 -0.0629  1.1540 -1.1028
 8937SOL    HW238448   4.521   2.720  10.817  0.4049 -1.2932  0.6481
 8938SOL     OW38449   3.978   2.044   6.441  0.4089  0.0653 -0.6122
 8938SOL    HW138450   4.059   2.017   6.398  0.5034  0.1675 -0.4972
 8938SOL    HW238451   3.998   2.124   6.489 -0.7333 -1.3682  2.2436
 8939SOL     OW38452   0.771   4.730  16.797 -0.2690  0.2665 -0.0159
 8939SOL    HW138453   0.826   4.695  16.868 -0.2460  2.4005  1.0445
 8939SOL    HW238454   0.794   4.672  16.725  1.0457 -0.1594  0.7282
 8940SOL     OW38455   0.602   4.645   2.145  0.4085  0.3060  0.1200
 8940SOL    HW138456   0.628   4.563   2.186  0.3434  0.0395 -0.3687
 8940SOL    HW238457   0.563   4.610   2.065  0.0520  0.1521  0.3639
 8941SOL     OW38458   3.555   4.052  10.965 -0.0029  0.1065 -0.3060
 8941SOL    HW138459   3.582   4.136  11.002  0.3606 -0.1835  0.0992
 8941SOL    HW238460   3.637   4.011  10.937  0.6335 -0.4091  2.3104
 8942SOL     OW38461   3.747   3.485   5.694  0.9487 -1.0171 -0.2209
 8942SOL    HW138462   3.678   3.423   5.671  0.9713 -0.4904 -1.7189
 8942SOL    HW238463   3.716   3.521   5.777 -1.5976  1.3604 -2.1738
 8943SOL     OW38464   4.579   0.193  11.517  0.0042 -0.2204  0.1026
 8943SOL    HW138465   4.671   0.185  11.544 -0.3226  0.7243  1.5359
 8943SOL    HW238466   4.594   0.245  11.438 -0.4163  0.5823  0.5502
 8944SOL     OW38467   2.768   1.904   9.776 -0.0530  0.1941 -0.0997
 8944SOL    HW138468   2.787   1.859   9.858  0.8756 -2.5662 -1.8320
 8944SOL    HW238469   2.793   1.994   9.796 -0.5216 -0.2480  2.4482
 8945SOL     OW38470   3.274   0.427   1.112  0.3298  0.3325  0.0382
 8945SOL    HW138471   3.331   0.476   1.172  0.5085  0.1440  0.0234
 8945SOL    HW238472   3.195   0.481   1.111 -0.6616 -1.0957  1.2231
 8946SOL     OW38473   2.552   3.050  12.747  0.5397 -1.2081 -0.4610
 8946SOL    HW138474   2.586   3.067  12.835  0.2021 -1.4553 -0.2846
 8946SOL    HW238475   2.554   2.955  12.740  0.4452 -1.0653 -2.4735
 8947SOL     OW38476   0.619   3.932   2.298  0.2071  0.7131  0.5715
 8947SOL    HW138477   0.641   3.882   2.377  0.3502 -0.4445 -0.1945
 8947SOL    HW238478   0.608   3.865   2.230 -0.3511  0.5026  0.8581
 8948SOL     OW38479   2.097   1.158   5.472 -0.1192  0.5923  0.3666
 8948SOL    HW138480   2.099   1.083   5.530  1.5389  1.3493  1.2971
 8948SOL    HW238481   2.009   1.192   5.488 -0.8169 -0.4158 -1.4162
 8949SOL     OW38482   2.980   1.955  12.938 -0.6020  0.1354 -0.0912
 8949SOL    HW138483   3.016   2.041  12.962  2.3763 -1.2655  0.4772
 8949SOL    HW238484   3.002   1.949  12.845 -1.4094 -1.1787 -0.2042
 8950SOL     OW38485   1.706   0.598   0.128 -0.3976  0.3898 -0.4059
 8950SOL    HW138486   1.738   0.631   0.212  2.2586  1.9494 -2.0268
 8950SOL    HW238487   1.717   0.504   0.144 -0.5420  0.2115 -1.3233
 8951SOL     OW38488   0.020   0.770   0.312 -0.1158 -0.3806 -0.2561
 8951SOL    HW138489   0.108   0.758   0.277 -0.0575  1.7766 -0.8883
 8951SOL    HW238490   0.034   0.732   0.399  0.6354  1.6134  0.4947
 8952SOL     OW38491   4.376   4.653   1.890  0.7411  0.1958  0.0764
 8952SOL    HW138492   4.388   0.010   1.878  2.0392  0.1318  0.9462
 8952SOL    HW238493   4.400   4.654   1.982  0.4052  0.7998  0.1563
 8953SOL     OW38494   0.159   2.002   7.799 -0.2833 -0.1974 -0.5073
 8953SOL    HW138495   0.088   2.064   7.817 -0.6926 -0.1521 -2.2506
 8953SOL    HW238496   0.190   1.982   7.887 -0.5014 -0.5768 -0.5164
 8954SOL     OW38497   1.924   1.696   7.167  0.1151 -0.5234  0.2578
 8954SOL    HW138498   1.970   1.734   7.092  0.4015  0.2295  0.8251
 8954SOL    HW238499   1.880   1.776   7.197  3.1301  0.9862  0.5976
 8955SOL     OW38500   0.466   1.350  17.344 -0.4621  0.0074  0.1925
 8955SOL    HW138501   0.387   1.354  17.291  0.0036 -2.2859 -0.6769
 8955SOL    HW238502   0.495   1.271  17.298  2.6615  0.7355  0.8671
 8956SOL     OW38503   0.099   0.109   5.128 -0.7997  0.0310 -0.1989
 8956SOL    HW138504   0.064   0.028   5.091 -2.3302 -0.0002  1.3512
 8956SOL    HW238505   0.175   0.073   5.174 -1.6251 -0.4790  0.7619
 8957SOL     OW38506   0.875   2.170   8.996  0.1049  0.2224 -0.1333
 8957SOL    HW138507   0.783   2.155   8.973  0.0464  0.8590 -0.3045
 8957SOL    HW238508   0.882   2.152   9.089 -1.9486  0.9972  0.1628
 8958SOL     OW38509   3.677   0.704  12.541  0.5549  1.0218 -0.4514
 8958SOL    HW138510   3.767   0.709  12.572 -0.1146 -0.0359  1.6335
 8958SOL    HW238511   3.642   0.661  12.619  0.4254 -2.3438 -2.3709
 8959SOL     OW38512   3.177   0.860   4.430  0.4495  0.2790  1.2434
 8959SOL    HW138513   3.180   0.764   4.429 -2.7947  0.1736  1.3350
 8959SOL    HW238514   3.255   0.894   4.385  0.4020 -0.3792  0.6638
 8960SOL     OW38515   2.671   1.511   5.926 -0.1279  0.1588  0.1397
 8960SOL    HW138516   2.615   1.540   5.998  0.2310  2.4007 -0.4917
 8960SOL    HW238517   2.605   1.455   5.885  0.4875 -1.2121  1.0430
 8961SOL     OW38518   1.179   2.563   2.152  0.1797  0.6529 -0.0316
 8961SOL    HW138519   1.248   2.608   2.104  1.0922 -0.7816 -0.0888
 8961SOL    HW238520   1.112   2.555   2.084 -0.7298 -0.2564  0.9784
 8962SOL     OW38521   2.997   2.636  11.669 -0.5342  0.1483 -0.2101
 8962SOL    HW138522   2.979   2.550  11.707 -1.0772  0.7694  0.9229
 8962SOL    HW238523   2.923   2.690  11.695 -0.2393  1.5515 -2.2110
 8963SOL     OW38524   3.856   1.155   5.096 -0.4500 -0.4165  0.1042
 8963SOL    HW138525   3.846   1.060   5.083 -1.1108 -0.3608  0.1963
 8963SOL    HW238526   3.938   1.165   5.145  0.2135  1.0861 -1.3370
 8964SOL     OW38527   4.241   2.081  17.725  0.2283  0.2469 -1.0653
 8964SOL    HW138528   4.254   1.990  17.698  1.9330  0.7775 -2.0840
 8964SOL    HW238529   4.205   2.120  17.645 -0.1195  1.3878 -0.3505
 8965SOL     OW38530   0.128   1.128  14.634 -0.1823 -0.1711  0.3084
 8965SOL    HW138531   0.051   1.073  14.617  0.5749 -1.2567  0.4055
 8965SOL    HW238532   0.197   1.068  14.606 -0.3075  0.5956 -1.6957
 8966SOL     OW38533   2.643   2.670   2.264 -0.0772 -0.2273 -0.5718
 8966SOL    HW138534   2.632   2.608   2.191  3.1554  0.5731 -1.7355
 8966SOL    HW238535   2.550   2.665   2.286  0.5248 -0.5117  1.9038
 8967SOL     OW38536   1.638   4.408   0.692  0.8680  0.6616 -0.9020
 8967SOL    HW138537   1.722   4.361   0.686  1.0319  0.9047 -0.4841
 8967SOL    HW238538   1.579   4.336   0.715  1.7944  0.3832  0.6470
 8968SOL     OW38539   4.066   1.118  12.518 -0.3359 -0.8014  0.0617
 8968SOL    HW138540   4.010   1.185  12.557  0.2649  0.4509 -1.2116
 8968SOL    HW238541   4.062   1.143  12.425 -1.3724  0.8096  0.5411
 8969SOL     OW38542   2.041   2.816   4.903  0.3349  0.7341 -0.0312
 8969SOL    HW138543   2.073   2.847   4.818  0.7155 -4.7241 -1.9069
 8969SOL    HW238544   1.950   2.792   4.886  1.0398 -1.6353 -0.3851
 8970SOL     OW38545   0.312   4.300   5.996 -0.2672 -0.4046 -0.0344
 8970SOL    HW138546   0.344   4.377   5.949  1.1265 -1.0543 -0.1614
 8970SOL    HW238547   0.331   4.312   6.089  0.6779 -0.8207 -0.1680
 8971SOL     OW38548   1.526   1.431  12.378  0.0144 -0.1273  0.3676
 8971SOL    HW138549   1.432   1.422  12.363  0.4001  0.5240 -2.5163
 8971SOL    HW238550   1.534   1.522  12.348 -1.0240 -0.2536 -0.3096
 8972SOL     OW38551   0.302   1.489  14.645  1.4436  0.8789  0.0178
 8972SOL    HW138552   0.390   1.522  14.631  1.0594  2.4384  1.2749
 8972SOL    HW238553   0.336   1.406  14.678 -0.1403 -0.9888 -3.0537
 8973SOL     OW38554   0.774   0.841  16.171  0.0566  0.8920  0.0482
 8973SOL    HW138555   0.787   0.936  16.166 -0.7903  0.9552 -0.8402
 8973SOL    HW238556   0.797   0.840  16.264 -3.2326 -0.5288  0.8144
 8974SOL     OW38557   1.679   0.025   5.901 -0.4817  0.3542 -0.2671
 8974SOL    HW138558   1.664   4.669   5.915 -2.3133  0.2516 -2.8456
 8974SOL    HW238559   1.587   0.051   5.901 -0.9556 -1.3244  0.1488
 8975SOL     OW38560   0.920   3.121   1.642 -0.0959 -0.1068  0.9325
 8975SOL    HW138561   0.956   3.034   1.657 -0.4806 -0.6228 -1.0595
 8975SOL    HW238562   0.989   3.165   1.592 -0.1963  0.1584  1.0312
 8976SOL     OW38563   3.052   3.816   3.973  0.7422  0.6460 -0.1652
 8976SOL    HW138564   3.103   3.893   3.998  1.5523 -0.1287  0.5735
 8976SOL    HW238565   2.986   3.866   3.925  0.3802 -0.2531 -0.6113
 8977SOL     OW38566   2.066   1.023   3.607  0.0897  0.1754  0.6194
 8977SOL    HW138567   2.018   1.087   3.553 -0.6603 -0.7213  0.2193
 8977SOL    HW238568   2.042   0.941   3.564  2.0265 -0.3647  0.5973
 8978SOL     OW38569   0.297   4.610   7.082  0.4803  0.4754 -0.6837
 8978SOL    HW138570   0.252   4.651   7.156  3.0616 -0.4198  1.3664
 8978SOL    HW238571   0.386   4.598   7.114 -0.0580  0.2616  0.7126
 8979SOL     OW38572   0.834   3.183   6.498  0.0914  0.1968  0.2082
 8979SOL    HW138573   0.865   3.229   6.420  0.2072 -0.1797  0.0339
 8979SOL    HW238574   0.909   3.129   6.521  1.2081  1.5843 -0.1909
 8980SOL     OW38575   3.218   2.263   6.548 -0.8339 -0.1064 -0.5399
 8980SOL    HW138576   3.138   2.314   6.554 -0.5461  0.3943 -0.9526
 8980SOL    HW238577   3.200   2.211   6.626 -2.3458  0.8323 -0.2685
 8981SOL     OW38578   1.182   2.218   1.823 -0.0563  0.0754  0.8724
 8981SOL    HW138579   1.262   2.190   1.777 -1.2052  0.8351 -1.6085
 8981SOL    HW238580   1.113   2.165   1.784  1.2199 -0.2363 -0.9816
 8982SOL     OW38581   2.520   4.236   0.357 -0.3759  0.2709 -0.3027
 8982SOL    HW138582   2.465   4.260   0.432 -0.3687 -1.2983  0.2145
 8982SOL    HW238583   2.564   4.160   0.395 -0.5766  0.3299  0.0500
 8983SOL     OW38584   1.157   1.205   0.990 -0.2090 -0.0278  0.1610
 8983SOL    HW138585   1.094   1.184   1.058  0.7841 -2.1298  0.4667
 8983SOL    HW238586   1.138   1.142   0.920  0.5817 -1.2799  1.0624
 8984SOL     OW38587   0.651   0.964   5.995 -0.4242  0.5245  0.1869
 8984SOL    HW138588   0.741   0.967   5.964 -0.6456 -1.5787 -0.6540
 8984SOL    HW238589   0.666   0.999   6.083  2.0508  0.9893 -0.4282
 8985SOL     OW38590   2.656   2.444   7.559 -0.5372  0.2408 -0.1856
 8985SOL    HW138591   2.631   2.505   7.628 -3.5547 -0.3658 -0.7559
 8985SOL    HW238592   2.597   2.369   7.568  1.1921 -1.2865 -1.3551
 8986SOL     OW38593   4.367   2.238   5.798 -0.2094  0.1198  0.3846
 8986SOL    HW138594   4.453   2.262   5.763 -0.3792  0.9625  0.5516
 8986SOL    HW238595   4.336   2.328   5.810  2.8972  1.2318 -0.0169
 8987SOL     OW38596   4.420   3.131   7.541  0.5640 -0.4879 -0.1477
 8987SOL    HW138597   4.473   3.085   7.476  0.4004 -0.5397 -0.2461
 8987SOL    HW238598   4.476   3.125   7.618  0.5322  1.1017 -0.0032
 8988SOL     OW38599   2.800   0.192  16.228 -0.2352  0.1902 -0.7337
 8988SOL    HW138600   2.884   0.231  16.205  0.7633 -1.7230 -0.3114
 8988SOL    HW238601   2.833   0.110  16.265 -0.9340 -0.2543 -1.0874
 8989SOL     OW38602   0.695   3.755   2.507  0.0859 -0.0459 -0.3423
 8989SOL    HW138603   0.677   3.709   2.590  3.0065  0.7267  0.6902
 8989SOL    HW238604   0.706   3.839   2.551 -0.7706  1.4769 -3.0804
 8990SOL     OW38605   0.966   4.178   4.940  0.6742 -0.6475  0.0308
 8990SOL    HW138606   1.022   4.242   4.895 -1.0147  1.1964  0.5057
 8990SOL    HW238607   1.012   4.171   5.023 -2.2602  1.4601  1.8416
 8991SOL     OW38608   0.272   3.074   7.549 -0.3534 -0.3127 -0.3504
 8991SOL    HW138609   0.238   3.026   7.624 -2.9419  2.5073  0.2924
 8991SOL    HW238610   0.186   3.099   7.515 -0.9967 -1.6221  0.3389
 8992SOL     OW38611   2.328   3.616  12.408  0.0087  0.6682  0.3986
 8992SOL    HW138612   2.292   3.527  12.406  0.2209  0.5759  0.6515
 8992SOL    HW238613   2.249   3.669  12.394 -0.4280 -0.2425 -0.6224
 8993SOL     OW38614   3.422   1.206   6.315  0.2285 -0.6793  0.1603
 8993SOL    HW138615   3.344   1.238   6.269 -0.3651  0.2866  1.8483
 8993SOL    HW238616   3.479   1.160   6.254  0.9367  1.6221 -0.9074
 8994SOL     OW38617   3.202   3.390   5.774  0.4742  0.0958  0.3893
 8994SOL    HW138618   3.188   3.407   5.681  0.5761  0.1659  0.3877
 8994SOL    HW238619   3.128   3.329   5.785 -0.8404  1.7360  0.6885
 8995SOL     OW38620   3.852   4.247   2.752 -0.0616  0.4060 -0.3529
 8995SOL    HW138621   3.845   4.239   2.657  0.3497 -0.9430 -0.2632
 8995SOL    HW238622   3.805   4.329   2.769 -2.5580 -0.7930 -1.5919
 8996SOL     OW38623   2.390   2.327   6.525  0.0859  0.3297  0.1033
 8996SOL    HW138624   2.466   2.270   6.535 -1.7420 -1.9285  1.1589
 8996SOL    HW238625   2.370   2.329   6.431 -1.4418  0.7258  0.4460
 8997SOL     OW38626   4.404   2.303   7.611  0.0996  0.3528  0.2451
 8997SOL    HW138627   4.410   2.239   7.540 -0.0913  1.2029 -0.5413
 8997SOL    HW238628   4.482   2.357   7.598 -1.1999  1.9612 -0.9391
 8998SOL     OW38629   0.108   2.863   7.907  0.0473  0.1111  0.1173
 8998SOL    HW138630   0.190   2.873   7.955  0.9202 -1.7033 -0.9866
 8998SOL    HW238631   0.044   2.836   7.973  0.3624 -1.5684 -0.2698
 8999SOL     OW38632   1.484   3.772  10.328  0.3924  0.4419  0.1700
 8999SOL    HW138633   1.565   3.775  10.379  1.5652 -2.2155 -1.5334
 8999SOL    HW238634   1.414   3.822  10.369  1.2502  1.6549  0.1596
 9000SOL     OW38635   2.133   1.581  11.002 -0.1378  0.2975 -0.0257
 9000SOL    HW138636   2.172   1.494  10.994 -0.4643  0.3790 -2.7947
 9000SOL    HW238637   2.078   1.575  11.080 -0.3864  1.1431 -0.1335
 9001SOL     OW38638   3.540   1.711  11.979  0.5216  0.0235 -0.3626
 9001SOL    HW138639   3.519   1.696  11.887 -0.8752  1.6553 -0.3106
 9001SOL    HW238640   3.521   1.625  12.015  1.3232  0.7524  1.7998
 9002SOL     OW38641   2.178   2.713   7.787  0.0404  0.9505 -0.3353
 9002SOL    HW138642   2.235   2.744   7.716  0.3956  0.7149 -0.1507
 9002SOL    HW238643   2.190   2.619   7.782 -0.2687  1.0022 -1.9158
 9003SOL     OW38644   4.599   1.383  15.229 -0.1976 -0.0808  0.3166
 9003SOL    HW138645   4.689   1.386  15.197 -0.4844 -0.2440 -0.5221
 9003SOL    HW238646   4.579   1.473  15.253  0.0464  0.2012 -0.5132
 9004SOL     OW38647   2.867   2.131  16.144 -0.1523 -0.4060 -0.2341
 9004SOL    HW138648   2.839   2.106  16.232 -0.9325 -0.2501 -0.4333
 9004SOL    HW238649   2.814   2.211  16.143  1.3854  0.6035 -1.3905
 9005SOL     OW38650   1.506   0.184   9.174 -0.6860  0.0467  0.5997
 9005SOL    HW138651   1.476   0.148   9.090 -0.4905 -0.3101  0.6838
 9005SOL    HW238652   1.506   0.114   9.238  1.1350 -2.2805 -1.9410
 9006SOL     OW38653   0.108   2.651   1.958 -0.1469  0.1886  0.1439
 9006SOL    HW138654   0.090   2.594   2.033 -0.5090  2.0443  1.4559
 9006SOL    HW238655   0.156   2.719   2.004 -0.3570 -0.3151  1.1087
 9007SOL     OW38656   1.540   2.598   5.490 -0.2356 -0.0403  0.2633
 9007SOL    HW138657   1.449   2.570   5.492 -0.7095  1.8219  3.1670
 9007SOL    HW238658   1.590   2.516   5.491 -2.1453 -1.2176 -0.0352
 9008SOL     OW38659   3.542   1.400   6.002  0.6432  0.2871  1.2108
 9008SOL    HW138660   3.484   1.345   6.055 -0.4520  0.5351  0.2542
 9008SOL    HW238661   3.582   1.467   6.058 -0.0173  1.7074 -0.0005
 9009SOL     OW38662   2.477   1.946   2.756 -0.2031 -0.0430  0.2918
 9009SOL    HW138663   2.504   1.933   2.665  2.0895 -1.5226  1.1859
 9009SOL    HW238664   2.445   2.036   2.761  2.3596  0.9422 -1.2175
 9010SOL     OW38665   0.618   1.802  11.978 -0.0667 -0.0273 -0.2893
 9010SOL    HW138666   0.628   1.741  11.905 -1.5734 -1.8407  1.0421
 9010SOL    HW238667   0.709   1.831  11.991 -0.3209  0.2046  0.9452
 9011SOL     OW38668   3.241   2.756   5.398 -0.3501  0.4122  0.0234
 9011SOL    HW138669   3.183   2.732   5.326  0.8308  0.6185 -0.9809
 9011SOL    HW238670   3.196   2.836   5.425  0.3772  1.3575 -1.6381
 9012SOL     OW38671   2.238   0.992   3.172  0.0961 -0.0208 -0.7242
 9012SOL    HW138672   2.171   0.957   3.113 -0.0502  2.0611 -1.7971
 9012SOL    HW238673   2.198   0.974   3.257  0.5895 -2.4919 -1.0255
 9013SOL     OW38674   1.511   3.539   3.680  0.5058 -0.2036  0.8390
 9013SOL    HW138675   1.534   3.580   3.763  0.5872  1.6137 -0.0833
 9013SOL    HW238676   1.518   3.449   3.711 -1.2293 -0.6513 -0.0451
 9014SOL     OW38677   1.518   3.194   3.098 -0.5018  0.5857 -0.6121
 9014SOL    HW138678   1.482   3.126   3.041 -1.3493  0.3159  0.2323
 9014SOL    HW238679   1.457   3.186   3.172 -1.4960  0.8226 -1.4047
 9015SOL     OW38680   2.233   0.044   1.614  0.1676  0.7462  0.1712
 9015SOL    HW138681   2.164   0.018   1.553  0.7534 -0.3814 -0.0291
 9015SOL    HW238682   2.314   0.027   1.566  0.4475  1.9885  0.2083
 9016SOL     OW38683   2.463   2.030   8.196  0.2386 -0.2441  0.3170
 9016SOL    HW138684   2.432   2.095   8.258  0.5422 -0.6288  0.8691
 9016SOL    HW238685   2.515   1.973   8.253 -1.8993  0.0280  2.4888
 9017SOL     OW38686   0.206   1.431   7.162  0.5640 -0.2845  0.6481
 9017SOL    HW138687   0.115   1.430   7.133  0.5977  1.9599  0.4461
 9017SOL    HW238688   0.214   1.526   7.177  1.8030 -0.1670 -0.8140
 9018SOL     OW38689   3.714   4.184   6.403 -0.8110 -0.4109 -0.1520
 9018SOL    HW138690   3.623   4.209   6.392 -1.1634 -1.4043  0.4995
 9018SOL    HW238691   3.708   4.130   6.482  1.1020 -0.9629 -0.3873
 9019SOL     OW38692   0.237   2.964  13.267 -0.4198  0.0994  0.1146
 9019SOL    HW138693   0.287   3.039  13.236  1.0224 -1.0777 -0.4068
 9019SOL    HW238694   0.246   2.995  13.357 -2.3601  0.6911  0.0925
 9020SOL     OW38695   1.730   0.471   7.091  0.0941  0.0272 -0.1568
 9020SOL    HW138696   1.716   0.529   7.166 -1.1184 -0.2037 -0.2072
 9020SOL    HW238697   1.815   0.428   7.094 -0.0255 -0.4066 -3.0954
 9021SOL     OW38698   4.570   3.708  16.238  0.1113 -0.4044 -0.0731
 9021SOL    HW138699   4.650   3.663  16.210  0.2822 -0.4372  0.4661
 9021SOL    HW238700   4.509   3.701  16.165 -0.0266  1.3836 -0.1342
 9022SOL     OW38701   0.311   0.880   5.858 -0.0735  0.0922 -0.8738
 9022SOL    HW138702   0.296   0.858   5.766 -1.8061  4.0971 -1.5508
 9022SOL    HW238703   0.321   0.975   5.859 -1.9161  0.2839  0.0481
 9023SOL     OW38704   2.302   0.226  11.342  0.0008 -0.7437  0.5631
 9023SOL    HW138705   2.354   0.252  11.417 -0.2280 -2.6501  1.3807
 9023SOL    HW238706   2.230   0.179  11.384  0.6216 -2.5439 -0.3917
 9024SOL     OW38707   1.351   3.479  13.703 -0.2707 -0.4975 -0.2869
 9024SOL    HW138708   1.350   3.569  13.671 -1.0218 -0.2836  0.3230
 9024SOL    HW238709   1.431   3.492  13.753 -0.4640 -1.3086  0.2244
 9025SOL     OW38710   2.879   0.169   5.239  0.1567 -0.2411  0.5449
 9025SOL    HW138711   2.901   0.104   5.173 -0.1694 -0.0973  0.2948
 9025SOL    HW238712   2.964   0.209   5.259  0.4019 -0.4791 -0.0157
 9026SOL     OW38713   4.641   1.143   6.896 -0.4348 -0.6556 -0.3654
 9026SOL    HW138714   4.623   1.228   6.857  0.7570  0.4522  1.5046
 9026SOL    HW238715   4.642   1.167   6.989  0.7353  0.5791 -0.7044
 9027SOL     OW38716   2.363   0.751   2.395  0.8772 -0.4068  0.2080
 9027SOL    HW138717   2.290   0.785   2.446 -0.1453 -1.8316 -0.3287
 9027SOL    HW238718   2.360   0.656   2.408 -0.1857 -0.2456  1.0783
 9028SOL     OW38719   3.332   1.172   4.951  0.4803  0.2415 -0.0851
 9028SOL    HW138720   3.402   1.120   4.991  1.9219  0.9286 -1.6935
 9028SOL    HW238721   3.287   1.107   4.896  0.6145 -0.4003  0.5584
 9029SOL     OW38722   4.261   3.170   4.149  0.0562  0.3152  0.3411
 9029SOL    HW138723   4.235   3.251   4.106  2.3109  0.0042 -1.6072
 9029SOL    HW238724   4.304   3.123   4.077  0.6638  0.4563  0.6055
 9030SOL     OW38725   4.574   0.132  15.211  0.1791  0.5793 -0.1788
 9030SOL    HW138726   4.536   0.054  15.171 -0.4283  1.2672 -0.9405
 9030SOL    HW238727   4.495   0.177  15.239 -1.8868 -1.2325 -3.1433
 9031SOL     OW38728   2.212   1.830   1.793  0.3680 -0.0406  0.1837
 9031SOL    HW138729   2.240   1.843   1.703  0.9749  1.5310  0.5906
 9031SOL    HW238730   2.294   1.789   1.822 -0.7313 -1.8019  0.7849
 9032SOL     OW38731   4.483   1.696   7.246 -0.0600 -0.2926 -0.7375
 9032SOL    HW138732   4.403   1.677   7.197 -0.7391 -1.6763  0.9254
 9032SOL    HW238733   4.446   1.755   7.312  0.4366  0.9868 -1.5828
 9033SOL     OW38734   0.876   0.180   5.783  0.3394 -0.2862  0.0550
 9033SOL    HW138735   0.870   0.264   5.829  0.1205 -0.4279  0.2881
 9033SOL    HW238736   0.811   0.129   5.831  0.4325 -1.6552 -1.2720
 9034SOL     OW38737   0.428   0.178   3.755 -0.0521  0.2448  1.0081
 9034SOL    HW138738   0.400   0.254   3.806 -1.7694  0.0797  0.3006
 9034SOL    HW238739   0.473   0.224   3.684  1.7569 -2.7697  0.2290
 9035SOL     OW38740   0.894   3.594   3.105 -0.1693  0.0078  0.5824
 9035SOL    HW138741   0.867   3.683   3.129  0.7633  0.7427 -1.0993
 9035SOL    HW238742   0.891   3.550   3.190 -0.9937 -0.9255  0.0825
 9036SOL     OW38743   4.599   2.088   2.488 -0.5598  0.2683 -0.0953
 9036SOL    HW138744   4.596   2.028   2.414 -1.1124 -0.1659  0.2738
 9036SOL    HW238745   4.661   2.045   2.548  0.3747 -0.6883 -1.7551
 9037SOL     OW38746   1.240   3.465  12.781 -0.2030  0.4576  0.6801
 9037SOL    HW138747   1.296   3.502  12.714 -0.7230 -2.0549 -1.1270
 9037SOL    HW238748   1.274   3.507  12.860 -1.8112  1.4367  0.8638
 9038SOL     OW38749   2.598   4.252  12.659 -0.2235  0.0069 -0.4700
 9038SOL    HW138750   2.635   4.178  12.612  4.1256  2.7752 -1.3890
 9038SOL    HW238751   2.563   4.308  12.589 -2.4028  1.3469  1.6651
 9039SOL     OW38752   2.376   0.886  12.505  0.0331 -0.0171  0.2579
 9039SOL    HW138753   2.451   0.940  12.480 -0.5202  0.5087 -0.2693
 9039SOL    HW238754   2.394   0.863  12.596  2.0541 -0.3719 -0.2272
 9040SOL     OW38755   1.506   4.580   4.045 -0.4606 -0.3847 -0.3616
 9040SOL    HW138756   1.551   4.590   4.129 -0.5297 -0.3185 -0.3321
 9040SOL    HW238757   1.415   4.602   4.065 -0.0513  0.5119  0.5484
 9041SOL     OW38758   3.762   2.062  10.974  0.4877 -0.0207 -0.1137
 9041SOL    HW138759   3.846   2.061  10.929  0.8879  3.9991  0.4764
 9041SOL    HW238760   3.785   2.041  11.064 -2.2476  0.1847  0.6541
 9042SOL     OW38761   2.389   3.770  13.947 -0.1388  0.2191 -0.3349
 9042SOL    HW138762   2.322   3.751  14.013  0.1702 -0.5432 -0.2466
 9042SOL    HW238763   2.385   3.694  13.890 -0.2485  0.3833 -0.5468
 9043SOL     OW38764   2.490   0.101   8.857 -0.0267 -0.1011  0.6007
 9043SOL    HW138765   2.573   0.110   8.811 -0.9976 -1.0083 -1.2903
 9043SOL    HW238766   2.475   0.007   8.852 -0.3072 -0.0865  1.0869
 9044SOL     OW38767   3.533   0.474   6.706 -0.1807 -0.3742  0.0652
 9044SOL    HW138768   3.581   0.534   6.762 -0.4222  1.5647 -1.7967
 9044SOL    HW238769   3.590   0.483   6.629  0.1158 -1.0259  0.2095
 9045SOL     OW38770   2.609   2.876   7.102 -0.4086  0.3139  0.1229
 9045SOL    HW138771   2.617   2.781   7.092 -3.3096  0.2485 -1.7046
 9045SOL    HW238772   2.698   2.909   7.115 -0.3792  0.2518  0.0774
 9046SOL     OW38773   3.088   2.188  15.337 -1.0170 -0.2269  0.8037
 9046SOL    HW138774   3.124   2.119  15.393 -0.9328 -0.7944  0.0482
 9046SOL    HW238775   3.077   2.141  15.254 -0.4272 -1.0773  1.2078
 9047SOL     OW38776   3.545   0.121  15.951 -0.0180 -0.1278  0.1466
 9047SOL    HW138777   3.517   0.152  16.036  0.3786 -1.2712  0.7021
 9047SOL    HW238778   3.614   0.184  15.928 -1.8571  2.1705  1.0621
 9048SOL     OW38779   0.225   4.484   3.828  0.0302  0.3888  0.5085
 9048SOL    HW138780   0.300   4.534   3.796 -0.9031  1.6275  0.2531
 9048SOL    HW238781   0.205   4.430   3.752 -0.2119  0.7759  0.2951
 9049SOL     OW38782   2.533   3.783   8.761  0.1985 -0.1460 -0.0567
 9049SOL    HW138783   2.564   3.810   8.847  0.1713 -0.7762  0.1473
 9049SOL    HW238784   2.603   3.816   8.704  1.5258 -1.2678  0.9058
 9050SOL     OW38785   4.147   0.059  10.763  0.4065 -0.0318 -0.0794
 9050SOL    HW138786   4.146   0.064  10.668  0.3674 -0.2910 -0.0933
 9050SOL    HW238787   4.107   4.709  10.766  0.6746 -0.1628 -0.3533
 9051SOL     OW38788   3.030   4.091  13.731  0.1540 -0.1812  0.9195
 9051SOL    HW138789   2.945   4.080  13.774 -0.4795  0.9994 -0.0319
 9051SOL    HW238790   3.087   4.110  13.805  1.0035  1.2691 -0.1169
 9052SOL     OW38791   1.567   1.867   5.223  0.7259  0.0352  0.2046
 9052SOL    HW138792   1.593   1.959   5.217  2.1993 -0.4727 -1.2694
 9052SOL    HW238793   1.498   1.870   5.157 -1.0250  1.0783  2.0899
 9053SOL     OW38794   3.295   3.668   6.742 -0.6018 -0.0183 -0.0112
 9053SOL    HW138795   3.290   3.573   6.736 -1.1082 -0.0268  0.5180
 9053SOL    HW238796   3.253   3.678   6.827 -0.2067  0.2322  0.1598
 9054SOL     OW38797   0.281   3.747   5.817  0.3302  0.5514 -0.0405
 9054SOL    HW138798   0.253   3.831   5.779  1.7578  0.6566 -0.8548
 9054SOL    HW238799   0.330   3.775   5.894  0.8061  0.6413 -0.3771
 9055SOL     OW38800   1.131   0.821   3.798  0.0117  0.5399 -0.5634
 9055SOL    HW138801   1.218   0.784   3.810  0.5030  1.1075 -2.4486
 9055SOL    HW238802   1.150   0.915   3.801 -0.5626  0.6797 -1.2212
 9056SOL     OW38803   3.248   3.125  11.000 -0.3473  0.0820 -0.3200
 9056SOL    HW138804   3.232   3.177  10.921  0.8809 -1.0307 -1.2892
 9056SOL    HW238805   3.191   3.055  10.968 -0.4680 -0.4785  1.1318
 9057SOL     OW38806   2.030   3.735   2.136  0.2686 -0.2414 -0.3823
 9057SOL    HW138807   2.048   3.678   2.061  0.7575 -0.2264 -0.2713
 9057SOL    HW238808   2.022   3.820   2.093  1.5512 -0.9483 -2.0013
 9058SOL     OW38809   4.204   4.158   6.589 -0.6593 -0.7187 -0.7537
 9058SOL    HW138810   4.225   4.169   6.497  2.2028 -0.8225 -0.1239
 9058SOL    HW238811   4.134   4.220   6.607 -1.1352 -1.4136 -0.1983
 9059SOL     OW38812   3.500   1.159   0.560  0.1165  0.0510  0.0751
 9059SOL    HW138813   3.463   1.219   0.495 -1.6191 -1.6139 -0.5030
 9059SOL    HW238814   3.577   1.206   0.592 -0.6375  2.9782 -2.4075
 9060SOL     OW38815   2.546   0.065   1.511 -0.1092 -0.5386 -0.6904
 9060SOL    HW138816   2.625   0.071   1.458 -0.2389  1.9165 -0.6293
 9060SOL    HW238817   2.569   4.721   1.556 -2.6406 -0.2090  1.2001
 9061SOL     OW38818   3.021   1.586   2.381  0.2190  0.1318  0.3587
 9061SOL    HW138819   2.944   1.581   2.438 -0.3210 -1.9221 -0.5694
 9061SOL    HW238820   3.012   1.675   2.347 -1.1872 -0.3118 -0.3920
 9062SOL     OW38821   0.651   4.341   9.438 -0.1635 -0.4202 -0.0712
 9062SOL    HW138822   0.582   4.407   9.436  0.4731  0.2223 -0.8149
 9062SOL    HW238823   0.723   4.374   9.491 -1.2712  0.3324  0.9443
 9063SOL     OW38824   4.610   1.581   4.930  0.0757 -0.5088  0.0255
 9063SOL    HW138825   4.590   1.516   4.863 -3.5337 -0.4083  0.9634
 9063SOL    HW238826   4.524   1.591   4.972 -0.5548 -0.4380 -1.2675
 9064SOL     OW38827   3.961   2.542   7.615 -0.6382  0.2451 -0.2289
 9064SOL    HW138828   3.914   2.506   7.539 -1.0105  0.3987 -0.0728
 9064SOL    HW238829   4.024   2.470   7.621 -1.0465  0.0277  1.3261
 9065SOL     OW38830   4.328   1.524  14.985 -0.0153 -0.0363  0.2042
 9065SOL    HW138831   4.392   1.480  14.929  1.3707  1.9795  0.2014
 9065SOL    HW238832   4.383   1.586  15.033  0.4981  0.4168 -0.9601
 9066SOL     OW38833   3.629   2.222   5.774 -0.2045  0.0671  0.0330
 9066SOL    HW138834   3.573   2.299   5.770 -0.5001 -0.1397  0.1199
 9066SOL    HW238835   3.696   2.272   5.820 -2.2064  0.4656  2.5465
 9067SOL     OW38836   2.758   3.756  14.715 -0.3862 -0.1653  0.4021
 9067SOL    HW138837   2.758   3.756  14.811 -1.5521 -0.5342  0.4015
 9067SOL    HW238838   2.777   3.669  14.679  0.7929 -0.2520  1.2224
 9068SOL     OW38839   4.011   1.452   4.416  0.6020  0.2368 -0.2858
 9068SOL    HW138840   3.972   1.463   4.330 -0.9493  1.7853  0.6171
 9068SOL    HW238841   4.070   1.376   4.419  1.0160  0.5678 -0.0747
 9069SOL     OW38842   1.976   2.695   9.543  0.5451 -0.0403 -0.0275
 9069SOL    HW138843   2.012   2.781   9.524 -0.2407  0.0628 -1.0013
 9069SOL    HW238844   1.965   2.707   9.638 -2.9451  0.4177 -0.5182
 9070SOL     OW38845   2.301   0.310   9.570  0.0885 -0.5643  0.1213
 9070SOL    HW138846   2.346   0.251   9.630  0.2078 -1.2742 -0.6668
 9070SOL    HW238847   2.272   0.381   9.627 -1.8285 -0.9174 -0.4135
 9071SOL     OW38848   0.926   2.931   1.938  0.1349  0.2117 -0.0610
 9071SOL    HW138849   1.007   2.931   1.887  2.4343 -0.4187  3.6021
 9071SOL    HW238850   0.948   2.877   2.014 -3.2804 -0.1517  0.6859
 9072SOL     OW38851   3.983   0.122   9.840 -0.6091  0.7002  0.4225
 9072SOL    HW138852   4.065   0.167   9.857 -1.9295  2.4453  2.2255
 9072SOL    HW238853   4.019   0.048   9.792 -2.3451 -1.4034  2.3646
 9073SOL     OW38854   4.364   2.951   2.745  0.0561  0.2967 -0.1942
 9073SOL    HW138855   4.388   3.044   2.737  1.0786 -0.1235 -1.9927
 9073SOL    HW238856   4.272   2.956   2.719 -0.0009  0.4579  0.0436
 9074SOL     OW38857   1.949   2.545   5.585  0.5550 -0.0746 -0.6587
 9074SOL    HW138858   1.884   2.577   5.647 -1.1736 -2.5041 -1.1836
 9074SOL    HW238859   2.029   2.590   5.610 -0.2937 -0.0923  2.0099
 9075SOL     OW38860   3.723   2.531  12.930 -0.0550 -0.6936 -0.5219
 9075SOL    HW138861   3.728   2.624  12.952 -1.3920 -0.7878  0.2087
 9075SOL    HW238862   3.735   2.478  13.009 -1.3824 -0.3371 -0.0909
 9076SOL     OW38863   3.363   4.520   1.480 -0.0928 -0.5217  0.1387
 9076SOL    HW138864   3.415   4.600   1.469 -0.8304  0.0127  0.5552
 9076SOL    HW238865   3.281   4.562   1.506 -0.9708 -1.4725 -1.1200
 9077SOL     OW38866   2.251   3.615   9.362  0.3405 -0.1366  0.4814
 9077SOL    HW138867   2.198   3.646   9.289 -1.3176 -0.7805  1.4258
 9077SOL    HW238868   2.330   3.668   9.352  0.8759 -0.8129  1.1163
 9078SOL     OW38869   0.509   2.170  12.282  0.0012  0.2255 -0.3587
 9078SOL    HW138870   0.452   2.194  12.354  0.5153 -2.0909  0.8339
 9078SOL    HW238871   0.482   2.078  12.276  0.4784 -0.0322  1.3857
 9079SOL     OW38872   0.722   0.675   7.964 -0.7676  0.1440  0.3913
 9079SOL    HW138873   0.633   0.656   7.994 -1.5824  2.9139 -0.2294
 9079SOL    HW238874   0.704   0.667   7.870  2.9572  0.8635 -0.3727
 9080SOL     OW38875   4.000   4.346   6.692 -0.3205 -0.4325 -0.4523
 9080SOL    HW138876   3.934   4.362   6.760  0.4339  0.2769  0.1301
 9080SOL    HW238877   4.059   4.422   6.701 -0.0283 -0.8968  1.5302
 9081SOL     OW38878   4.438   3.873   2.461  0.3067  0.5103 -0.0510
 9081SOL    HW138879   4.431   3.810   2.532 -2.2640 -0.5403 -1.2421
 9081SOL    HW238880   4.366   3.932   2.481  0.0192  1.0153 -2.5923
 9082SOL     OW38881   4.582   3.039   6.914  0.5026 -0.4529 -0.0115
 9082SOL    HW138882   4.523   3.106   6.946 -0.1779 -0.4768 -1.2058
 9082SOL    HW238883   4.590   3.062   6.821 -2.3153  0.3821 -0.0664
 9083SOL     OW38884   3.145   1.297   7.598  0.2997 -0.0362  0.8621
 9083SOL    HW138885   3.239   1.278   7.601  0.4239  0.0435 -1.8673
 9083SOL    HW238886   3.107   1.210   7.593 -0.4984  0.3374  0.3773
 9084SOL     OW38887   2.203   3.551   2.456  0.0807  0.6712  0.2635
 9084SOL    HW138888   2.153   3.470   2.447  0.2376  0.6956 -0.7784
 9084SOL    HW238889   2.280   3.543   2.400  0.8642  2.1866  1.1177
 9085SOL     OW38890   0.662   0.167   8.090  0.0288 -0.8032  0.0055
 9085SOL    HW138891   0.679   0.159   7.996 -1.7970  1.9858 -0.5581
 9085SOL    HW238892   0.714   0.096   8.127  1.4007  0.3293  0.2489
 9086SOL     OW38893   2.672   2.814   0.724  0.2438 -0.7676  0.0104
 9086SOL    HW138894   2.674   2.721   0.746  3.3322 -1.3411 -2.5952
 9086SOL    HW238895   2.601   2.817   0.659  0.8758  0.2867 -0.6451
 9087SOL     OW38896   2.739   1.968   3.422  0.2532 -0.3418  0.1894
 9087SOL    HW138897   2.811   1.991   3.481  0.8698  1.9963 -1.4786
 9087SOL    HW238898   2.656   1.979   3.467  0.2497  2.6916 -0.5848
 9088SOL     OW38899   2.474   2.807   6.508  0.0614  0.1840 -0.2017
 9088SOL    HW138900   2.563   2.814   6.475 -0.3558 -1.3332 -1.6509
 9088SOL    HW238901   2.421   2.830   6.432 -0.6489  1.1673  0.5883
 9089SOL     OW38902   4.543   0.143   7.833 -0.3383  0.0362  0.0804
 9089SOL    HW138903   4.497   0.127   7.915 -0.8192  0.3441 -0.1263
 9089SOL    HW238904   4.477   0.103   7.776 -2.4185  1.0306  1.7995
 9090SOL     OW38905   1.253   0.790   7.512  0.2015  0.2316  0.1299
 9090SOL    HW138906   1.229   0.736   7.588  0.9780 -0.4858 -0.1261
 9090SOL    HW238907   1.203   0.867   7.540  2.8781  1.5254  1.3358
 9091SOL     OW38908   3.388   2.816   8.413  0.0382 -0.1510  0.4146
 9091SOL    HW138909   3.398   2.862   8.329 -1.6955 -0.0337  0.2811
 9091SOL    HW238910   3.295   2.801   8.430 -0.2307 -1.9102 -2.5946
 9092SOL     OW38911   3.697   1.473   3.484 -0.1180  0.1593  0.2903
 9092SOL    HW138912   3.683   1.380   3.503  0.5495  0.2245  1.1355
 9092SOL    HW238913   3.781   1.466   3.438 -0.7238  1.1630 -0.9658
 9093SOL     OW38914   4.651   1.168   0.075 -0.3445 -0.1761  0.0043
 9093SOL    HW138915   4.561   1.199   0.080  0.1225  1.0040  1.0898
 9093SOL    HW238916   4.667   1.149   0.168 -1.4096 -0.4663  0.1221
 9094SOL     OW38917   1.957   3.168   9.924 -0.3341  0.0185 -0.5025
 9094SOL    HW138918   1.945   3.126   9.840  3.4279 -1.4891 -0.2895
 9094SOL    HW238919   2.032   3.227   9.911 -0.6562  0.0382 -2.2366
 9095SOL     OW38920   0.647   3.200  13.003 -0.1047 -0.1783 -0.0030
 9095SOL    HW138921   0.610   3.134  13.062 -1.7955  0.1581 -0.6704
 9095SOL    HW238922   0.675   3.142  12.931 -2.3924 -0.8494 -0.3535
 9096SOL     OW38923   3.267   2.407   3.264  0.1582 -0.4490  0.0331
 9096SOL    HW138924   3.196   2.377   3.322  1.7739 -1.1330  1.6766
 9096SOL    HW238925   3.302   2.475   3.323  2.9942 -2.7986  1.0701
 9097SOL     OW38926   0.486   1.933  16.372 -0.5258  0.1986  0.0954
 9097SOL    HW138927   0.445   2.017  16.350 -0.2173  0.1320 -0.7134
 9097SOL    HW238928   0.421   1.897  16.432  0.3285  0.1890  1.0287
 9098SOL     OW38929   0.319   3.751   3.187 -0.2380 -0.1902  0.3848
 9098SOL    HW138930   0.368   3.680   3.144  1.2970 -1.0415  3.5336
 9098SOL    HW238931   0.368   3.760   3.269 -0.4629  1.8574  0.2796
 9099SOL     OW38932   4.629   2.861   0.449 -0.2869  0.4866  0.2939
 9099SOL    HW138933   4.621   2.790   0.512 -0.2706 -0.9843 -1.3787
 9099SOL    HW238934   4.651   2.818   0.367 -0.4983  0.1210  0.4294
 9100SOL     OW38935   3.700   1.223   8.434 -0.0569 -0.3141  0.4015
 9100SOL    HW138936   3.621   1.256   8.390  0.3616 -0.2239 -0.2870
 9100SOL    HW238937   3.765   1.230   8.364  0.2178 -1.1221  0.5816
 9101SOL     OW38938   3.200   4.650   5.213  0.3087 -0.0368  0.3049
 9101SOL    HW138939   3.175   0.005   5.218 -0.6201 -0.2970  0.3887
 9101SOL    HW238940   3.137   4.601   5.160 -1.2375  1.0200  1.1896
 9102SOL     OW38941   3.032   3.404   1.265  0.1964  0.7076  0.4498
 9102SOL    HW138942   2.969   3.424   1.335 -0.3003  1.0742 -0.1011
 9102SOL    HW238943   3.003   3.317   1.239  1.8865  1.5274 -4.2186
 9103SOL     OW38944   4.559   4.526   4.961 -0.3962  0.4245 -0.1328
 9103SOL    HW138945   4.537   4.476   5.039 -0.4074  1.4133  0.4889
 9103SOL    HW238946   4.497   4.598   4.970  0.3664  1.1924 -0.9366
 9104SOL     OW38947   3.966   0.599   4.938  0.4946  0.2341  0.1656
 9104SOL    HW138948   3.872   0.589   4.923  0.6621 -1.1950  0.0070
 9104SOL    HW238949   3.986   0.521   4.989  0.1906  1.6200  2.3738
 9105SOL     OW38950   2.821   4.505   2.287  0.3573 -0.0777 -0.4274
 9105SOL    HW138951   2.750   4.462   2.334 -0.8849  0.1327 -2.0907
 9105SOL    HW238952   2.780   4.549   2.212 -2.8774 -0.0241  1.3991
 9106SOL     OW38953   0.542   1.090   0.361 -0.1293  0.4529 -0.5844
 9106SOL    HW138954   0.504   1.178   0.368  1.0609  0.9359 -0.2112
 9106SOL    HW238955   0.635   1.109   0.350  0.4792 -1.5768  1.1093
 9107SOL     OW38956   1.600   3.923  13.031 -0.6610 -0.0596  0.2575
 9107SOL    HW138957   1.537   3.899  12.964  0.6809  0.7117 -1.2931
 9107SOL    HW238958   1.541   3.965  13.093  1.3656  0.2918  1.9714
 9108SOL     OW38959   3.359   4.145   5.906 -0.1069 -0.0881 -0.0615
 9108SOL    HW138960   3.431   4.166   5.847  0.6144 -0.6763  0.6107
 9108SOL    HW238961   3.301   4.107   5.840 -0.3077 -2.3222  1.3970
 9109SOL     OW38962   3.895   4.073   8.213  0.5941 -0.9259 -0.1716
 9109SOL    HW138963   3.899   3.981   8.238  1.1079 -0.7132  0.5523
 9109SOL    HW238964   3.887   4.105   8.303  1.6167  0.0995 -0.4480
 9110SOL     OW38965   3.548   3.862  12.067  0.7651  0.3797  0.4253
 9110SOL    HW138966   3.524   3.933  12.126 -0.3874 -0.2690  0.7441
 9110SOL    HW238967   3.639   3.848  12.094  1.3914 -0.7416 -2.2471
 9111SOL     OW38968   1.096   0.466   7.760 -0.2613  0.3578  0.1387
 9111SOL    HW138969   1.017   0.478   7.708  0.8554  1.3311 -1.3377
 9111SOL    HW238970   1.171   0.497   7.709  2.3171 -1.3027  2.8510
 9112SOL     OW38971   4.083   0.394   4.069  0.6188  0.1876  0.0411
 9112SOL    HW138972   4.156   0.388   4.130  1.0869  0.5844 -0.4791
 9112SOL    HW238973   4.033   0.317   4.097 -0.8979  1.2685  0.2809
 9113SOL     OW38974   3.694   3.111   5.139 -0.0155  0.0324 -0.6758
 9113SOL    HW138975   3.638   3.121   5.216  1.4558 -2.2325  0.6834
 9113SOL    HW238976   3.658   3.181   5.084 -1.1989  0.8622  1.1572
 9114SOL     OW38977   1.248   2.494   4.010 -0.5816  0.1122  0.1590
 9114SOL    HW138978   1.256   2.405   4.045 -1.3303  1.3071  3.3592
 9114SOL    HW238979   1.236   2.532   4.097  0.9959 -1.2470  0.9697
 9115SOL     OW38980   1.484   1.770  14.102  0.2152  0.6213 -0.7595
 9115SOL    HW138981   1.482   1.681  14.066 -1.9701 -0.5039  2.1933
 9115SOL    HW238982   1.453   1.818  14.025 -0.0088 -1.1471 -1.7853
 9116SOL     OW38983   2.696   4.204   4.077  0.5225  0.2223  0.0444
 9116SOL    HW138984   2.758   4.206   4.151  1.1975 -0.3102 -0.5051
 9116SOL    HW238985   2.626   4.161   4.126  0.6304  2.5113  2.2403
 9117SOL     OW38986   3.307   3.776   5.614 -0.0309 -0.7106 -0.0996
 9117SOL    HW138987   3.255   3.696   5.620 -0.7918  0.0422  3.0584
 9117SOL    HW238988   3.372   3.767   5.684 -0.4999 -1.1370  0.2737
 9118SOL     OW38989   3.389   3.880   2.615  0.6276 -0.1516 -0.0684
 9118SOL    HW138990   3.450   3.811   2.642  1.4634  0.4456 -0.4621
 9118SOL    HW238991   3.305   3.834   2.610  0.2339  0.3102  2.3563
 9119SOL     OW38992   2.772   2.848   6.072 -0.1631  0.4491  1.0677
 9119SOL    HW138993   2.714   2.864   5.998  0.2114  0.6926  0.8232
 9119SOL    HW238994   2.752   2.933   6.111 -2.7318  0.4455 -0.2877
 9120SOL     OW38995   0.716   2.081   4.646  0.0796 -0.0741 -0.3858
 9120SOL    HW138996   0.750   1.992   4.655 -1.8986 -1.0751 -2.6798
 9120SOL    HW238997   0.629   2.062   4.610 -0.1527  0.2475  0.0045
 9121SOL     OW38998   1.532   1.023   3.906  0.5435 -0.1239 -0.2850
 9121SOL    HW138999   1.451   0.991   3.947  0.3529 -1.0963 -1.4139
 9121SOL    HW239000   1.557   0.952   3.847 -0.4972 -0.6767 -0.0747
 9122SOL     OW39001   2.033   0.971   2.573 -0.1068  0.7798 -0.2969
 9122SOL    HW139002   2.071   1.026   2.505  3.5144  0.2672  1.2986
 9122SOL    HW239003   1.946   0.949   2.540  0.3855 -0.8583 -0.4774
 9123SOL     OW39004   0.209   2.691   3.990  0.5211  0.1751  0.1645
 9123SOL    HW139005   0.132   2.635   4.003 -0.5021  1.0957 -1.8849
 9123SOL    HW239006   0.244   2.693   4.079 -0.1154 -1.1967  0.4602
 9124SOL     OW39007   3.343   2.849   7.360 -0.5829  0.2286 -0.0679
 9124SOL    HW139008   3.348   2.800   7.278  0.7459 -1.0854  0.7876
 9124SOL    HW239009   3.270   2.910   7.353  1.4895  2.8026  0.5766
 9125SOL     OW39010   0.524   1.929  12.502  0.2325  0.5431  0.1892
 9125SOL    HW139011   0.492   1.847  12.539  0.3975  0.7391  0.7730
 9125SOL    HW239012   0.532   1.905  12.410 -2.1058  1.0355 -0.1617
 9126SOL     OW39013   0.104   1.312   6.417  0.0902 -0.1291 -0.2619
 9126SOL    HW139014   0.155   1.322   6.336  0.0879 -0.9808 -0.3747
 9126SOL    HW239015   0.159   1.348   6.486  1.4493 -0.3701 -1.2245
 9127SOL     OW39016   4.532   4.468   1.432 -0.0280 -0.0643  0.2214
 9127SOL    HW139017   4.552   4.419   1.512 -0.5085  2.3273  1.7953
 9127SOL    HW239018   4.458   4.515   1.470  0.2817  0.5122  0.1159
 9128SOL     OW39019   3.662   1.811   0.444 -0.6737  0.1548 -0.4819
 9128SOL    HW139020   3.747   1.811   0.401 -0.7178  0.7642 -0.5616
 9128SOL    HW239021   3.616   1.742   0.396 -1.4224  0.8023 -0.6920
 9129SOL     OW39022   1.715   4.505   5.099 -0.3224  0.0559  0.5093
 9129SOL    HW139023   1.628   4.470   5.121 -0.5436  0.4065  0.1807
 9129SOL    HW239024   1.737   4.531   5.189 -1.6404 -0.1735  0.8961
 9130SOL     OW39025   4.339   2.889   8.323 -0.1055 -0.4467 -0.0818
 9130SOL    HW139026   4.320   2.799   8.296  2.5645 -0.2031 -2.8943
 9130SOL    HW239027   4.273   2.911   8.388 -0.5391 -0.1275 -0.6394
 9131SOL     OW39028   4.292   2.605  16.040 -0.3818  0.0956  0.0217
 9131SOL    HW139029   4.237   2.614  15.962 -0.6385 -1.1835  0.0492
 9131SOL    HW239030   4.363   2.666  16.019 -1.0130  1.0543  0.6746
 9132SOL     OW39031   0.334   0.208   4.150  0.4385 -0.0688  0.2316
 9132SOL    HW139032   0.308   0.294   4.183  2.2747  0.7829 -0.4845
 9132SOL    HW239033   0.279   0.146   4.197  1.1531 -2.6324 -2.3655
 9133SOL     OW39034   2.287   4.163   1.982  0.4905  0.0009 -0.6570
 9133SOL    HW139035   2.207   4.171   2.034  0.9328 -1.7325  0.3137
 9133SOL    HW239036   2.347   4.154   2.056  1.1453  0.8654 -1.0905
 9134SOL     OW39037   0.550   3.430   0.388  0.0333  0.0702 -0.5072
 9134SOL    HW139038   0.616   3.377   0.343 -0.2797 -0.1019 -0.7667
 9134SOL    HW239039   0.541   3.383   0.471 -0.7755 -0.7323 -1.0428
 9135SOL     OW39040   0.178   3.070   2.507 -0.6776  0.5034 -0.1340
 9135SOL    HW139041   0.086   3.096   2.514 -0.9207 -0.4251  0.0668
 9135SOL    HW239042   0.170   2.976   2.492 -1.1536  0.6158 -0.5777
 9136SOL     OW39043   0.518   4.250  16.088 -0.2208  0.7074 -0.2090
 9136SOL    HW139044   0.517   4.267  15.994 -1.3843 -1.3400 -0.5720
 9136SOL    HW239045   0.425   4.256  16.108 -0.0646 -0.4271  0.8698
 9137SOL     OW39046   2.658   1.854   9.072 -0.5971 -0.0283  0.7515
 9137SOL    HW139047   2.567   1.879   9.083 -0.8739  1.1373 -4.2121
 9137SOL    HW239048   2.654   1.793   8.998 -0.7238  1.0291 -0.1217
 9138SOL     OW39049   1.445   0.870  12.001  0.3369  0.1029  0.6587
 9138SOL    HW139050   1.405   0.939  11.947 -1.5954 -1.4353  0.1215
 9138SOL    HW239051   1.371   0.831  12.047 -1.9446  0.3653 -2.7503
 9139SOL     OW39052   3.717   3.773   5.903 -0.4161 -0.4608  0.3086
 9139SOL    HW139053   3.639   3.824   5.925 -0.2636  0.3595 -1.0537
 9139SOL    HW239054   3.689   3.682   5.905  0.4356 -0.7402 -0.4748
 9140SOL     OW39055   1.199   2.201   7.893  0.1421  0.0949 -0.2385
 9140SOL    HW139056   1.116   2.156   7.874 -1.1301  1.8426  1.2075
 9140SOL    HW239057   1.193   2.292   7.865 -1.3845 -0.3990 -1.5269
 9141SOL     OW39058   3.563   1.459   3.907 -0.0742  0.3304  0.3787
 9141SOL    HW139059   3.621   1.511   3.851  1.4029 -0.4465  1.1829
 9141SOL    HW239060   3.591   1.368   3.893 -0.9946  0.2298 -0.8246
 9142SOL     OW39061   3.974   0.915   2.917 -0.0520  0.5724 -0.8098
 9142SOL    HW139062   4.051   0.924   2.861  0.3160  0.0320 -0.3817
 9142SOL    HW239063   3.991   0.845   2.979 -1.4334  0.6783 -0.3132
 9143SOL     OW39064   3.038   1.127   3.698 -1.0557 -0.2415  0.3348
 9143SOL    HW139065   3.090   1.190   3.648  0.3211 -2.7362 -1.3649
 9143SOL    HW239066   3.009   1.086   3.617 -1.1722  0.7315 -0.1272
 9144SOL     OW39067   0.595   2.886   7.743  0.4212  0.0590  0.5188
 9144SOL    HW139068   0.670   2.945   7.746 -1.2337  2.0124  2.6614
 9144SOL    HW239069   0.607   2.855   7.653 -0.9311  0.6604  0.1383
 9145SOL     OW39070   2.283   3.564   8.255  0.4343 -0.4444  0.5378
 9145SOL    HW139071   2.306   3.509   8.330  0.3344 -0.3925  0.6059
 9145SOL    HW239072   2.249   3.494   8.199 -0.4520  0.6926 -0.3255
 9146SOL     OW39073   3.285   3.806  10.221 -0.0618 -0.4044 -0.3061
 9146SOL    HW139074   3.264   3.831  10.310 -0.9103  0.5195 -0.7708
 9146SOL    HW239075   3.339   3.878  10.188  2.3175 -1.2238  1.7767
 9147SOL     OW39076   2.741   1.835   7.037  0.0512  0.0876 -0.6858
 9147SOL    HW139077   2.674   1.895   7.006  0.2609  0.5408 -0.2573
 9147SOL    HW239078   2.698   1.788   7.109  3.2791 -0.5790  0.8045
 9148SOL     OW39079   1.515   4.432   3.351  0.1379 -0.1082 -0.4042
 9148SOL    HW139080   1.610   4.448   3.350  0.1590 -0.2371 -0.4093
 9148SOL    HW239081   1.513   4.337   3.352 -0.7306 -0.0617  2.9730
 9149SOL     OW39082   2.066   1.180   1.630  0.6231 -0.2071  0.3466
 9149SOL    HW139083   2.158   1.152   1.637  0.8838  0.3796 -0.6658
 9149SOL    HW239084   2.065   1.270   1.662 -0.1332 -0.0332 -0.1801
 9150SOL     OW39085   4.116   2.451   7.888 -0.6316  0.4944 -0.1287
 9150SOL    HW139086   4.037   2.442   7.835  1.0003  1.1869 -2.6617
 9150SOL    HW239087   4.079   2.481   7.971  0.0537  0.8280  0.0545
 9151SOL     OW39088   0.917   1.047   4.077 -0.3231 -0.5166 -0.0190
 9151SOL    HW139089   0.915   0.957   4.046 -3.4641 -0.6096  0.4677
 9151SOL    HW239090   0.944   1.047   4.169  3.5971  2.1549 -1.1567
 9152SOL     OW39091   4.712   1.746   4.066 -0.4760 -0.0024 -0.1040
 9152SOL    HW139092   4.620   1.727   4.083  0.3190 -2.1912  1.8738
 9152SOL    HW239093   0.013   1.662   4.041 -0.1421 -0.0500  0.5447
 9153SOL     OW39094   0.800   4.525   6.432  0.4391  0.1640 -0.1859
 9153SOL    HW139095   0.826   4.617   6.429  0.3743  0.2032  0.4351
 9153SOL    HW239096   0.873   4.479   6.390  0.5538  1.8949 -1.8299
 9154SOL     OW39097   2.124   1.467   5.936  0.1311 -0.1264  0.2659
 9154SOL    HW139098   2.094   1.517   6.013 -0.9171  1.0838 -0.9302
 9154SOL    HW239099   2.079   1.384   5.955  0.8201 -0.6159 -0.2440
 9155SOL     OW39100   0.212   1.466  16.952 -0.4279  0.6849 -1.0051
 9155SOL    HW139101   0.228   1.372  16.947 -1.3271  0.4334  0.8319
 9155SOL    HW239102   0.218   1.480  17.046 -0.9587 -0.4986 -0.7964
 9156SOL     OW39103   2.435   3.137   8.550 -0.6931 -0.2810 -0.1282
 9156SOL    HW139104   2.361   3.084   8.578 -1.2234  1.1483  1.1469
 9156SOL    HW239105   2.495   3.076   8.507 -0.1547  2.1551 -2.8442
 9157SOL     OW39106   2.482   3.060   6.961 -0.2316  0.1076  0.5190
 9157SOL    HW139107   2.487   3.032   6.870  0.7991  1.1351  0.2660
 9157SOL    HW239108   2.528   2.985   7.000 -0.5444 -0.0892  0.5147
 9158SOL     OW39109   4.620   1.840  17.555 -0.4421 -0.2475 -0.2227
 9158SOL    HW139110   4.639   1.763  17.501  1.5468  0.6958 -0.8504
 9158SOL    HW239111   4.566   1.894  17.498 -1.5783 -0.0846  1.0114
 9159SOL     OW39112   0.737   1.098   6.872 -0.3120 -0.3418 -0.6046
 9159SOL    HW139113   0.833   1.095   6.868 -0.3160 -1.2709  0.0998
 9159SOL    HW239114   0.726   1.191   6.852 -1.0435  0.0490  1.6409
 9160SOL     OW39115   3.640   4.122   8.392  0.2661 -0.1413  0.3627
 9160SOL    HW139116   3.661   4.064   8.465  1.8311  0.3388  0.2992
 9160SOL    HW239117   3.560   4.160   8.428 -0.5735 -2.7542  1.2591
 9161SOL     OW39118   0.614   3.529   6.964  0.5973 -0.4438  0.5709
 9161SOL    HW139119   0.692   3.515   6.910  0.5590 -3.0643  1.2173
 9161SOL    HW239120   0.579   3.441   6.973  2.9568 -1.1553  3.0794
 9162SOL     OW39121   3.883   1.634   7.097 -0.2038 -0.3666  0.0983
 9162SOL    HW139122   3.802   1.647   7.147 -0.7524  3.2263 -1.7098
 9162SOL    HW239123   3.904   1.545   7.123 -1.1075 -0.0879  1.7770
 9163SOL     OW39124   1.692   1.028  16.551 -0.3583 -0.2018 -0.5306
 9163SOL    HW139125   1.742   0.947  16.557  2.4438  1.6919  1.4066
 9163SOL    HW239126   1.708   1.054  16.460 -0.9639 -0.2572 -0.6553
 9164SOL     OW39127   0.066   1.846   4.742 -0.0059 -0.3251 -0.3169
 9164SOL    HW139128   0.150   1.891   4.746 -0.1476 -0.0466 -0.4894
 9164SOL    HW239129   0.044   1.821   4.652  0.6406 -0.0291 -0.5612
 9165SOL     OW39130   4.215   1.530   4.806  0.2224  0.0671  0.1797
 9165SOL    HW139131   4.213   1.626   4.801  2.8879  0.1890  1.1355
 9165SOL    HW239132   4.246   1.516   4.896 -1.3280  2.4101  1.0711
 9166SOL     OW39133   4.008   1.959   1.861 -0.3373  0.1261  0.3633
 9166SOL    HW139134   3.913   1.970   1.855 -0.4690  0.3983  3.1184
 9166SOL    HW239135   4.019   1.879   1.913 -0.3332 -0.9653 -1.3069
 9167SOL     OW39136   2.773   0.070  14.251  0.0976 -0.4721  0.0099
 9167SOL    HW139137   2.861   0.050  14.219 -0.1335  2.4046 -2.4369
 9167SOL    HW239138   2.791   0.138  14.316 -1.0173  0.3077 -0.5041
 9168SOL     OW39139   1.376   3.816  12.877  0.4053  0.4153  0.0591
 9168SOL    HW139140   1.295   3.821  12.926 -0.6579  0.2059 -1.6727
 9168SOL    HW239141   1.395   3.723  12.873  1.3331  0.5777  0.8075
 9169SOL     OW39142   4.211   0.430   2.309  0.0938  0.2207 -0.1452
 9169SOL    HW139143   4.122   0.413   2.339  0.1719  2.2679  1.2969
 9169SOL    HW239144   4.274   0.420   2.380 -0.8239  0.1626  0.6610
 9170SOL     OW39145   4.298   1.376   1.926 -0.1284 -0.0714 -0.5859
 9170SOL    HW139146   4.367   1.430   1.965 -0.1876 -0.0214 -0.5505
 9170SOL    HW239147   4.257   1.442   1.870  0.1100 -0.7226 -1.5179
 9171SOL     OW39148   0.992   3.197   1.899  0.1494  0.0890 -0.8642
 9171SOL    HW139149   0.978   3.108   1.930  0.6583  0.8575  1.5306
 9171SOL    HW239150   0.906   3.216   1.861 -0.2883  0.2977  0.2517
 9172SOL     OW39151   3.828   1.540   5.724 -0.1251 -0.1769  0.6464
 9172SOL    HW139152   3.740   1.503   5.714 -0.6853  1.5459 -0.9549
 9172SOL    HW239153   3.808   1.616   5.778  2.0193  2.0709 -1.6972
 9173SOL     OW39154   1.750   2.628   0.686  0.5333 -0.7364 -0.0825
 9173SOL    HW139155   1.783   2.711   0.720 -1.9959  0.3878 -0.3458
 9173SOL    HW239156   1.729   2.652   0.596 -0.3267 -3.3453 -0.5982
 9174SOL     OW39157   3.605   4.387   5.783 -0.7236 -0.2017  0.4394
 9174SOL    HW139158   3.688   4.381   5.831 -0.0601  0.2980 -0.6542
 9174SOL    HW239159   3.627   4.348   5.699  0.4085  1.0552  0.1469
 9175SOL     OW39160   3.501   0.523   5.506  0.3443 -0.0895  0.2603
 9175SOL    HW139161   3.523   0.560   5.591  1.2147  1.2012 -0.5327
 9175SOL    HW239162   3.436   0.588   5.477  1.5535  0.7845 -0.4719
 9176SOL     OW39163   2.223   2.148   7.851  0.0185  0.6729 -0.5238
 9176SOL    HW139164   2.219   2.055   7.828  2.1333  0.5489 -0.3544
 9176SOL    HW239165   2.165   2.148   7.927 -0.5259  0.6778 -0.9327
 9177SOL     OW39166   1.838   1.718   4.256 -0.4794 -0.6216  0.0026
 9177SOL    HW139167   1.904   1.739   4.190 -1.5054  0.0118 -0.8213
 9177SOL    HW239168   1.889   1.738   4.335 -0.6953  1.8776 -0.4712
 9178SOL     OW39169   2.192   0.548   7.603 -0.0435 -0.5471 -0.6365
 9178SOL    HW139170   2.130   0.604   7.555  0.5944  0.1242 -0.6779
 9178SOL    HW239171   2.131   0.485   7.642 -1.4438  0.5495 -1.0155
 9179SOL     OW39172   2.487   4.461   1.839 -0.0735  0.4853 -0.1907
 9179SOL    HW139173   2.435   4.396   1.792  0.6727 -0.7449  0.6876
 9179SOL    HW239174   2.563   4.409   1.866  0.7293  1.3936 -0.7208
 9180SOL     OW39175   1.365   4.374   4.839  0.3218  0.7613  0.0120
 9180SOL    HW139176   1.354   4.279   4.847 -1.8148  0.9316 -0.8347
 9180SOL    HW239177   1.273   4.398   4.844 -0.2642 -1.2624 -0.9059
 9181SOL     OW39178   3.764   0.771  12.949  0.7710  0.3326  0.0631
 9181SOL    HW139179   3.815   0.766  12.868 -1.9394  0.0795 -1.5927
 9181SOL    HW239180   3.680   0.728  12.934  0.9531 -0.3560  1.0015
 9182SOL     OW39181   1.764   0.215   3.522 -0.4192 -0.0035 -0.0541
 9182SOL    HW139182   1.784   0.206   3.615 -0.4011 -2.3667 -0.3023
 9182SOL    HW239183   1.709   0.137   3.520  1.2225 -1.1508  0.3923
 9183SOL     OW39184   3.268   1.427  16.125 -0.1776 -0.2173 -0.1996
 9183SOL    HW139185   3.355   1.453  16.097 -0.4231 -1.3615 -2.0744
 9183SOL    HW239186   3.235   1.378  16.050  0.4742  0.9439 -1.2469
 9184SOL     OW39187   1.351   1.974   8.595 -0.4426  0.2743 -0.1836
 9184SOL    HW139188   1.397   1.893   8.574  1.2413  0.9385  0.9529
 9184SOL    HW239189   1.266   1.961   8.552 -0.7381 -0.8446  0.7241
 9185SOL     OW39190   1.901   1.418  12.438  0.1609 -0.1549 -0.1505
 9185SOL    HW139191   1.925   1.349  12.501 -0.9202  0.3539  0.8267
 9185SOL    HW239192   1.815   1.382  12.417  0.6528 -0.7486 -1.1446
 9186SOL     OW39193   0.112   1.222  14.915  0.4270  0.0001  0.0000
 9186SOL    HW139194   0.101   1.313  14.942 -2.7055 -0.0529 -1.0359
 9186SOL    HW239195   0.147   1.237  14.827  0.6537 -4.1082 -0.5778
 9187SOL     OW39196   0.550   3.950   5.487  0.2817  0.2688  0.1122
 9187SOL    HW139197   0.468   3.904   5.506  1.1170 -0.9256  0.8303
 9187SOL    HW239198   0.524   4.014   5.421 -1.0850 -1.5710 -1.1201
 9188SOL     OW39199   0.686   0.773  10.607 -0.3932 -0.2090 -0.2611
 9188SOL    HW139200   0.641   0.741  10.686 -0.5767  1.7964  0.4582
 9188SOL    HW239201   0.690   0.697  10.550  2.3249 -0.2954  0.0516
 9189SOL     OW39202   0.359   0.144  15.691  0.5026  0.0318 -0.0247
 9189SOL    HW139203   0.272   0.181  15.685  0.0347 -0.8245  1.3702
 9189SOL    HW239204   0.412   0.204  15.639 -0.0174  0.0762 -0.4986
 9190SOL     OW39205   1.937   0.907  11.330  0.1755 -0.9274 -0.4572
 9190SOL    HW139206   1.895   0.842  11.273 -1.1577 -1.5874  1.2502
 9190SOL    HW239207   2.020   0.921  11.285 -2.2188  0.7356 -4.3777
 9191SOL     OW39208   2.524   3.833   7.412  0.1158  0.1135 -0.1108
 9191SOL    HW139209   2.445   3.886   7.423  1.0145  1.2363  0.9659
 9191SOL    HW239210   2.569   3.835   7.497  0.8562 -1.2164 -0.4746
 9192SOL     OW39211   2.498   2.390   2.585  0.4999 -0.1651 -0.2578
 9192SOL    HW139212   2.574   2.400   2.528 -0.5527 -0.2522 -1.6725
 9192SOL    HW239213   2.539   2.354   2.664 -0.0097 -2.8010 -1.2234
 9193SOL     OW39214   0.103   2.715   4.801 -0.7049 -0.0805 -0.1303
 9193SOL    HW139215   0.136   2.745   4.716 -1.7133 -1.0499 -0.8555
 9193SOL    HW239216   0.018   2.684   4.771 -1.2033  0.9445  0.2410
 9194SOL     OW39217   0.347   0.511   4.331  0.1060 -0.1025 -0.1787
 9194SOL    HW139218   0.414   0.490   4.265  0.3344 -0.0870  0.0460
 9194SOL    HW239219   0.353   0.603   4.355 -2.9896 -0.2287  1.1158
 9195SOL     OW39220   3.138   1.399   4.924  0.2765 -0.0039  0.3763
 9195SOL    HW139221   3.212   1.406   4.984 -0.0672  0.7536  0.7050
 9195SOL    HW239222   3.136   1.305   4.904  0.3751  0.2789 -1.0014
 9196SOL     OW39223   2.876   2.089   4.254  0.6365 -0.0058 -0.1601
 9196SOL    HW139224   2.933   2.098   4.331  1.1483 -0.4482 -0.4899
 9196SOL    HW239225   2.835   2.176   4.249  0.0247 -0.1754  1.7270
 9197SOL     OW39226   2.246   1.396   5.192 -0.5625  0.5183  0.3077
 9197SOL    HW139227   2.245   1.395   5.096 -0.2990 -0.3105  0.3130
 9197SOL    HW239228   2.155   1.370   5.206 -1.0823  1.2042 -1.8081
 9198SOL     OW39229   1.136   1.460   0.958  0.2511  0.1297  0.0573
 9198SOL    HW139230   1.127   1.459   0.862 -1.6166  0.4622  0.2360
 9198SOL    HW239231   1.167   1.370   0.969  1.2208  0.1950 -2.0528
 9199SOL     OW39232   0.425   0.420   5.523  0.1858 -0.3919 -0.0728
 9199SOL    HW139233   0.350   0.432   5.465 -1.2688 -0.1953  1.8890
 9199SOL    HW239234   0.497   0.382   5.472  0.6121  0.1937  0.0808
 9200SOL     OW39235   1.096   1.679   4.571  0.0667 -1.0308 -0.3102
 9200SOL    HW139236   1.164   1.613   4.553  1.9596  1.1195 -1.0924
 9200SOL    HW239237   1.055   1.633   4.644  0.0822  1.2270  1.1210
 9201SOL     OW39238   2.443   1.179   3.246  0.6666  0.1563  0.4235
 9201SOL    HW139239   2.483   1.125   3.314  2.7867  0.7779 -0.3440
 9201SOL    HW239240   2.366   1.131   3.216  1.0471 -0.0543 -0.1887
 9202SOL     OW39241   4.099   0.763   9.995  0.0313  0.0714 -0.1269
 9202SOL    HW139242   4.181   0.808  10.017 -0.1096  0.4737 -0.4405
 9202SOL    HW239243   4.076   0.732  10.083 -1.5911 -2.4778 -1.4640
 9203SOL     OW39244   2.848   3.107   8.915 -0.6201 -0.5843  0.3275
 9203SOL    HW139245   2.822   3.043   8.850 -0.2307  1.4244 -1.7930
 9203SOL    HW239246   2.936   3.069   8.921 -1.1421 -1.6315  1.4655
 9204SOL     OW39247   3.010   2.122  10.916 -0.0878 -0.2000 -0.5037
 9204SOL    HW139248   2.955   2.075  10.854  0.9742 -0.8944 -0.9267
 9204SOL    HW239249   3.092   2.072  10.905  0.9864  1.4409  0.0192
 9205SOL     OW39250   0.831   3.017   2.798  0.1313 -0.6312  0.0206
 9205SOL    HW139251   0.760   3.021   2.734 -0.7101  1.0528  1.0624
 9205SOL    HW239252   0.902   3.045   2.741  1.3288  1.0546  2.3325
 9206SOL     OW39253   3.014   0.114  10.153 -0.2825  0.3677 -0.7429
 9206SOL    HW139254   3.083   0.119  10.219 -3.0344  0.6650  2.1163
 9206SOL    HW239255   3.054   0.159  10.079  0.5197 -1.4725 -1.4277
 9207SOL     OW39256   2.564   4.225   8.072 -0.0681 -0.4248 -0.2710
 9207SOL    HW139257   2.630   4.224   8.141 -2.5075  0.6585  2.0443
 9207SOL    HW239258   2.575   4.141   8.026  2.5801 -0.8925  1.2303
 9208SOL     OW39259   4.126   2.358   7.475 -0.7964 -0.3997 -0.0262
 9208SOL    HW139260   4.220   2.350   7.492 -0.5339  0.0517 -1.2926
 9208SOL    HW239261   4.096   2.299   7.544 -1.2974 -1.6020 -1.2711
 9209SOL     OW39262   3.558   0.934   3.591  0.1810  0.0183  0.1005
 9209SOL    HW139263   3.480   0.892   3.627 -0.7125  1.2971 -0.3544
 9209SOL    HW239264   3.541   0.935   3.497 -1.7606 -2.7866  0.4282
 9210SOL     OW39265   4.105   3.937   4.312 -0.1336  0.2725 -0.0932
 9210SOL    HW139266   4.065   4.024   4.301  1.6734  1.2524  0.9747
 9210SOL    HW239267   4.160   3.940   4.390  0.0302 -0.1277 -0.1922
 9211SOL     OW39268   4.093   4.464   0.409  0.4517 -0.0368  0.0838
 9211SOL    HW139269   4.089   4.369   0.422 -1.1885  0.2661  1.6716
 9211SOL    HW239270   4.128   4.502   0.489 -0.0981  1.0071 -0.1725
 9212SOL     OW39271   1.196   4.321   5.286 -0.3380  0.2067  0.1729
 9212SOL    HW139272   1.181   4.227   5.300  1.1401  0.3550  2.8145
 9212SOL    HW239273   1.127   4.357   5.231 -3.1856 -2.3118  2.0563
 9213SOL     OW39274   3.496   2.667  13.542  0.1689  0.4685  0.5836
 9213SOL    HW139275   3.426   2.605  13.564 -0.1714  0.4964 -0.4039
 9213SOL    HW239276   3.533   2.619  13.467  1.4075 -1.0619  2.1760
 9214SOL     OW39277   4.539   2.237  10.254 -0.3936  0.2104 -0.0132
 9214SOL    HW139278   4.523   2.279  10.169  1.1003 -1.9360 -1.3493
 9214SOL    HW239279   4.543   2.144  10.232 -0.0323  0.1172  0.4499
 9215SOL     OW39280   1.193   1.368   3.935  0.0808  1.1510  0.1717
 9215SOL    HW139281   1.281   1.338   3.956  0.1858  1.2201 -0.1835
 9215SOL    HW239282   1.204   1.454   3.977 -0.4935  1.6660 -0.7416
 9216SOL     OW39283   0.412   3.845   7.653 -0.1724 -0.0107  0.3112
 9216SOL    HW139284   0.485   3.791   7.625  0.3421  0.3644  0.9407
 9216SOL    HW239285   0.387   3.899   7.578  2.4886  0.2632 -0.3632
 9217SOL     OW39286   1.433   0.156   3.582 -0.3139  0.6894  0.8117
 9217SOL    HW139287   1.447   0.153   3.488  0.1092 -1.3327  0.9561
 9217SOL    HW239288   1.392   0.071   3.595  0.1140  0.3659  0.0070
 9218SOL     OW39289   1.753   0.031   3.218 -0.1348 -0.0135  0.1528
 9218SOL    HW139290   1.676   0.051   3.271  1.2225  3.5718  0.7682
 9218SOL    HW239291   1.770   4.674   3.227 -2.6644 -0.2954  2.0007
 9219SOL     OW39292   1.608   3.780   7.471 -0.0594 -0.3062 -0.3435
 9219SOL    HW139293   1.698   3.767   7.499  0.5806 -0.9363 -2.6723
 9219SOL    HW239294   1.616   3.859   7.418  0.7810  0.0226  0.2819
 9220SOL     OW39295   0.140   4.176  10.266 -0.1810 -0.7370 -0.6621
 9220SOL    HW139296   0.197   4.227  10.324  1.0049 -1.8547 -0.8502
 9220SOL    HW239297   0.174   4.088  10.278 -1.0124 -0.8944  0.5485
 9221SOL     OW39298   0.160   3.848   3.827 -0.0468 -0.0299  0.4185
 9221SOL    HW139299   0.082   3.816   3.871 -0.1753 -0.3107 -0.0174
 9221SOL    HW239300   0.160   3.781   3.758  2.1553 -1.5199  1.8515
 9222SOL     OW39301   0.344   0.608   5.842 -0.8836 -0.4004  0.0972
 9222SOL    HW139302   0.327   0.700   5.862  1.0898  0.0107 -0.0780
 9222SOL    HW239303   0.439   0.611   5.835 -0.8528 -1.4370 -0.0206
 9223SOL     OW39304   0.061   2.143  16.174 -0.3807  0.1874  0.2724
 9223SOL    HW139305   0.066   2.200  16.097 -0.8549  0.5607  0.5176
 9223SOL    HW239306   0.034   2.060  16.136  1.2130 -0.2466  0.0904
 9224SOL     OW39307   4.437   4.597   2.159 -0.1913  0.6925  0.2006
 9224SOL    HW139308   4.364   4.534   2.158 -1.5245  2.2320 -0.5990
 9224SOL    HW239309   4.447   4.603   2.254  1.2984  0.4604  0.0568
 9225SOL     OW39310   1.751   0.034   7.510  0.4173 -0.7656 -0.0924
 9225SOL    HW139311   1.762   0.128   7.520 -2.8514 -0.3269 -0.9198
 9225SOL    HW239312   1.657   0.026   7.494  0.6905 -1.4121 -1.3209
 9226SOL     OW39313   0.110   2.094   6.207 -0.1277 -0.2647  0.8188
 9226SOL    HW139314   0.192   2.108   6.254  0.4183  1.4841 -0.6714
 9226SOL    HW239315   0.102   2.172   6.152  2.3727 -0.5815 -0.0139
 9227SOL     OW39316   1.493   4.229  14.698 -0.3054 -0.4834 -0.1174
 9227SOL    HW139317   1.427   4.161  14.706 -2.1559  1.4635  1.2292
 9227SOL    HW239318   1.576   4.185  14.677 -0.9348 -0.8666 -1.7990
 9228SOL     OW39319   0.426   3.542  14.457  0.4275 -0.4956  0.3028
 9228SOL    HW139320   0.413   3.455  14.496  0.3401 -0.7395 -0.2651
 9228SOL    HW239321   0.467   3.572  14.539 -1.4826  0.6746  0.8367
 9229SOL     OW39322   4.447   0.056   5.958 -0.6556 -0.7153  0.2521
 9229SOL    HW139323   4.492   0.043   5.875  0.2232 -2.4891  1.0100
 9229SOL    HW239324   4.504   0.109   6.013  0.7548 -1.9659 -0.0109
 9230SOL     OW39325   1.160   0.100   8.976 -0.2294 -0.3480 -0.0090
 9230SOL    HW139326   1.129   0.027   9.029  0.6719 -1.0960 -0.5108
 9230SOL    HW239327   1.254   0.079   8.974 -0.1388  0.0249  0.1610
 9231SOL     OW39328   2.088   2.697   3.705  0.1839  0.4256 -0.3610
 9231SOL    HW139329   2.122   2.779   3.741 -1.0138  1.7887 -2.3743
 9231SOL    HW239330   2.002   2.724   3.673  0.2258 -0.2366 -1.0253
 9232SOL     OW39331   1.074   3.104   8.931  0.3263  0.5603 -0.0732
 9232SOL    HW139332   1.043   3.173   8.872  1.3460  1.5749  0.5952
 9232SOL    HW239333   1.093   3.029   8.874 -1.4595 -0.8724  1.1955
 9233SOL     OW39334   3.236   3.571   7.225  0.3167  0.0974  0.5209
 9233SOL    HW139335   3.239   3.514   7.302  2.0344  2.6251  2.3412
 9233SOL    HW239336   3.235   3.656   7.269  0.6674  0.6681 -0.5746
 9234SOL     OW39337   0.117   4.166   5.425 -0.2326  0.1517  0.5963
 9234SOL    HW139338   0.112   4.261   5.430 -2.2548 -0.0031  1.4136
 9234SOL    HW239339   0.039   4.141   5.475  0.1388 -0.0999  1.0530
 9235SOL     OW39340   2.094   1.582   7.555  0.4683  0.2926  0.1809
 9235SOL    HW139341   2.086   1.669   7.515  2.0204  0.5696  0.4512
 9235SOL    HW239342   2.097   1.531   7.474 -3.2728  1.6709 -0.8018
 9236SOL     OW39343   4.123   2.169   0.773 -0.4078  0.2224  0.8285
 9236SOL    HW139344   4.104   2.194   0.683  0.0986  0.7657  0.8770
 9236SOL    HW239345   4.160   2.251   0.804 -0.2665  0.0641  1.0825
 9237SOL     OW39346   1.685   2.784   8.536  0.6070 -0.0395  0.3950
 9237SOL    HW139347   1.660   2.790   8.628 -0.6215  0.5276  0.0143
 9237SOL    HW239348   1.616   2.831   8.489  0.9788 -1.3902 -1.5050
 9238SOL     OW39349   0.526   0.435   7.222  0.5099 -0.1679  0.0462
 9238SOL    HW139350   0.471   0.513   7.213  0.3734 -0.3122 -0.3616
 9238SOL    HW239351   0.545   0.443   7.315  2.1855 -1.5095 -0.2040
 9239SOL     OW39352   3.949   0.449   3.124 -0.2612  0.5727  0.0278
 9239SOL    HW139353   3.871   0.439   3.070  0.1127 -0.3079 -0.3462
 9239SOL    HW239354   3.972   0.537   3.091 -4.0768  1.0118 -1.4545
 9240SOL     OW39355   1.265   1.764   6.168 -0.2285  0.2733  0.3039
 9240SOL    HW139356   1.272   1.680   6.123  3.3940  1.4659 -1.3890
 9240SOL    HW239357   1.221   1.746   6.251  0.3117  1.5255  0.8631
 9241SOL     OW39358   1.391   2.322  16.209 -0.3230 -0.4535 -0.0980
 9241SOL    HW139359   1.394   2.399  16.264  0.2357  0.3851 -1.2989
 9241SOL    HW239360   1.463   2.273  16.248  0.4816 -0.4456 -1.5824
 9242SOL     OW39361   3.961   0.870   6.951  0.5085  0.1901  0.1855
 9242SOL    HW139362   3.908   0.828   7.019  2.7278 -2.2030  0.4180
 9242SOL    HW239363   3.931   0.961   6.954 -0.8396 -0.1917 -2.0144
 9243SOL     OW39364   1.633   4.595   7.747 -0.3479 -0.0065  0.3692
 9243SOL    HW139365   1.639   4.572   7.654 -0.0005  2.0333 -0.0940
 9243SOL    HW239366   1.724   4.617   7.770  0.2080 -1.5135 -0.3527
 9244SOL     OW39367   4.199   3.444  14.144  0.1377  0.1327  0.2841
 9244SOL    HW139368   4.222   3.399  14.063 -1.4014  1.6373 -0.9693
 9244SOL    HW239369   4.120   3.490  14.116  0.3700 -0.4088 -1.2430
 9245SOL     OW39370   0.462   1.791   8.383  0.6550 -0.3354 -0.6522
 9245SOL    HW139371   0.470   1.874   8.336  0.2289  0.0286 -0.0788
 9245SOL    HW239372   0.516   1.814   8.458  0.0510  0.9404 -0.6249
 9246SOL     OW39373   3.109   4.113   1.339  0.1087 -0.6891  0.3313
 9246SOL    HW139374   3.172   4.168   1.386  1.5826 -0.6638 -1.6855
 9246SOL    HW239375   3.154   4.065   1.269 -1.1434  0.0073 -0.9655
 9247SOL     OW39376   2.942   3.792   2.493 -0.3230  0.8184 -0.2258
 9247SOL    HW139377   2.907   3.703   2.500 -0.1074  0.7601  0.1324
 9247SOL    HW239378   2.917   3.815   2.583  1.6523  0.9680  0.2904
 9248SOL     OW39379   1.436   2.521   0.659 -0.2549 -0.5983 -0.4355
 9248SOL    HW139380   1.477   2.583   0.719 -1.1363 -1.5980  1.2067
 9248SOL    HW239381   1.489   2.444   0.679 -1.4394 -1.6988 -1.5293
 9249SOL     OW39382   2.073   0.395   6.919 -0.0828  0.4753  0.1246
 9249SOL    HW139383   2.103   0.400   6.829 -0.0346 -1.0201  0.0500
 9249SOL    HW239384   2.011   0.467   6.921 -1.2290 -0.5139  0.2833
 9250SOL     OW39385   0.470   0.970   6.601  0.1529 -0.6194 -0.2642
 9250SOL    HW139386   0.408   1.042   6.607  1.2191  0.1860  1.2158
 9250SOL    HW239387   0.463   0.936   6.512  1.4956  1.9113 -1.3351
 9251SOL     OW39388   1.354   4.212  12.363 -0.6259 -0.3273 -0.2524
 9251SOL    HW139389   1.395   4.137  12.319 -3.3897 -1.8238 -0.2714
 9251SOL    HW239390   1.351   4.266  12.285 -1.4419  1.3858  0.9788
 9252SOL     OW39391   2.955   1.926   2.455 -0.2857  0.1202  0.2709
 9252SOL    HW139392   3.030   1.931   2.396 -1.2219 -1.2800 -1.0631
 9252SOL    HW239393   2.941   2.020   2.465 -1.1574  0.0178  0.0861
 9253SOL     OW39394   2.779   3.540  13.910  0.3023  0.0320 -0.1128
 9253SOL    HW139395   2.813   3.555  13.822  0.8256 -2.4810 -0.3453
 9253SOL    HW239396   2.701   3.490  13.888 -0.9342  0.7625  2.6671
 9254SOL     OW39397   0.829   4.407   3.318 -0.1913  0.4349 -0.1202
 9254SOL    HW139398   0.754   4.463   3.298  0.6820  1.2804 -1.0266
 9254SOL    HW239399   0.882   4.423   3.240  1.1703 -0.0674  0.7036
 9255SOL     OW39400   1.583   1.117   7.652  0.1930 -0.2353  0.1932
 9255SOL    HW139401   1.534   1.102   7.733  0.4557  0.0904  0.4103
 9255SOL    HW239402   1.507   1.131   7.595  0.6544 -0.0170 -0.3758
 9256SOL     OW39403   0.354   1.347   8.476 -0.3893  0.5528 -0.0471
 9256SOL    HW139404   0.326   1.295   8.401  0.3814  1.6315 -1.0782
 9256SOL    HW239405   0.270   1.391   8.491 -1.2847 -1.2620  0.2165
 9257SOL     OW39406   1.548   4.195   9.622  0.0298  0.4811 -0.6521
 9257SOL    HW139407   1.592   4.172   9.704 -2.7750  0.2811  0.8215
 9257SOL    HW239408   1.599   4.269   9.591  0.4700 -0.9282 -3.2918
 9258SOL     OW39409   1.160   4.502   7.730 -0.3373 -0.6545  0.3269
 9258SOL    HW139410   1.216   4.447   7.674  0.4680  1.8013 -1.3037
 9258SOL    HW239411   1.177   4.482   7.822  0.9803 -2.0628 -0.2091
 9259SOL     OW39412   3.317   2.610  12.355  0.1562 -0.3702 -0.2658
 9259SOL    HW139413   3.405   2.643  12.336 -0.9867  2.0202 -1.4747
 9259SOL    HW239414   3.296   2.582  12.266 -1.2165 -0.7032  0.1733
 9260SOL     OW39415   3.848   3.007  11.414  0.5209  0.1176 -0.1773
 9260SOL    HW139416   3.866   3.101  11.421  0.3673  0.1337 -0.0074
 9260SOL    HW239417   3.755   3.004  11.396  0.6201  0.9314 -0.8049
 9261SOL     OW39418   2.723   2.355  16.144 -0.3641 -0.2729 -0.7642
 9261SOL    HW139419   2.670   2.358  16.065 -0.6358 -0.7000 -0.5958
 9261SOL    HW239420   2.692   2.431  16.194 -1.2002  1.5712 -4.1020
 9262SOL     OW39421   0.191   0.809   2.381 -0.7187  0.5747  0.5459
 9262SOL    HW139422   0.204   0.889   2.330 -1.2980 -0.3222 -1.0192
 9262SOL    HW239423   0.232   0.747   2.320 -1.3373  0.5449  0.1549
 9263SOL     OW39424   0.103   2.204   2.802  0.0894  0.4892 -0.5233
 9263SOL    HW139425   0.070   2.276   2.748  2.0072  1.1514 -0.8081
 9263SOL    HW239426   0.044   2.203   2.877  1.5166 -0.7712  0.5668
 9264SOL     OW39427   1.173   3.446   3.816  0.7167  0.5136 -0.0181
 9264SOL    HW139428   1.252   3.475   3.863  2.0652  0.3214 -2.1707
 9264SOL    HW239429   1.143   3.534   3.793  1.9823  0.3645 -2.2045
 9265SOL     OW39430   1.388   3.080   2.645 -0.7784 -0.1642 -0.1064
 9265SOL    HW139431   1.372   2.993   2.608  1.4885  0.0699 -1.6486
 9265SOL    HW239432   1.301   3.118   2.636 -0.1916  1.3511  0.5826
 9266SOL     OW39433   4.613   0.909  14.872  0.3558  0.8012  0.4468
 9266SOL    HW139434   4.528   0.909  14.917  0.8309  0.9019  1.3289
 9266SOL    HW239435   4.601   0.951  14.787  1.1982  0.6569  0.2596
 9267SOL     OW39436   2.276   1.351  11.629  0.0930  0.2241  0.3413
 9267SOL    HW139437   2.333   1.427  11.641  0.4391 -0.0062  0.1713
 9267SOL    HW239438   2.249   1.322  11.716  0.3757  0.1085  0.3911
 9268SOL     OW39439   4.417   0.498   3.744 -0.3969 -0.3278  0.4348
 9268SOL    HW139440   4.327   0.471   3.763 -0.4242 -0.1537  0.5498
 9268SOL    HW239441   4.439   0.527   3.832 -0.1414 -4.7177  1.8221
 9269SOL     OW39442   2.828   2.016  11.862 -0.3371  0.1090  0.5223
 9269SOL    HW139443   2.919   2.012  11.831 -0.7945 -0.3164 -0.7947
 9269SOL    HW239444   2.785   2.036  11.778  0.9949 -1.4525 -0.5483
 9270SOL     OW39445   1.803   1.799   3.421  0.2041  0.3373  0.0718
 9270SOL    HW139446   1.872   1.851   3.379  1.3276  0.4480  2.0366
 9270SOL    HW239447   1.786   1.731   3.355  0.1158  1.0785 -0.6607
 9271SOL     OW39448   2.374   2.110   4.585  0.2219  0.1052 -0.4876
 9271SOL    HW139449   2.319   2.187   4.597  0.3399  0.0973  0.0776
 9271SOL    HW239450   2.452   2.149   4.545  1.1933 -1.4129 -0.0677
 9272SOL     OW39451   0.089   0.296   2.785  0.1990  0.1987  0.3131
 9272SOL    HW139452   0.104   0.337   2.870  0.6306 -1.2580  0.9383
 9272SOL    HW239453   0.134   0.353   2.723  1.0053 -0.2525  0.4831
 9273SOL     OW39454   1.500   3.443   1.825 -0.0349  0.3306 -0.1945
 9273SOL    HW139455   1.416   3.414   1.860  0.0698  0.0526 -0.1710
 9273SOL    HW239456   1.546   3.361   1.804  1.3406  0.5954  1.9011
 9274SOL     OW39457   4.723   0.429   3.095 -0.5924  0.3361 -0.0901
 9274SOL    HW139458   0.037   0.351   3.118  0.0362  0.3426 -1.4534
 9274SOL    HW239459   4.641   0.400   3.056  0.4162 -1.2816 -1.0285
 9275SOL     OW39460   0.480   3.744   3.414  0.0604 -0.1230 -0.6783
 9275SOL    HW139461   0.485   3.662   3.463 -2.2138 -1.0247 -1.9974
 9275SOL    HW239462   0.570   3.770   3.435 -0.0322  1.0092 -1.6947
 9276SOL     OW39463   0.443   0.120   1.679  0.3646  0.0277 -0.0197
 9276SOL    HW139464   0.514   0.146   1.738 -0.5999 -2.5045  2.2790
 9276SOL    HW239465   0.441   0.025   1.694  0.7007 -0.0726 -0.6141
 9277SOL     OW39466   0.181   0.022   9.693  0.8308 -0.5990 -0.1266
 9277SOL    HW139467   0.157   0.030   9.600  0.1501 -1.5699 -0.0273
 9277SOL    HW239468   0.097   0.041   9.734  0.9831 -0.3305  0.0569
 9278SOL     OW39469   0.154   1.470   2.423 -0.5542  0.3456 -0.2387
 9278SOL    HW139470   0.208   1.391   2.415 -1.8728 -0.6961  1.0711
 9278SOL    HW239471   0.192   1.516   2.497  1.4055  0.4949 -1.3456
 9279SOL     OW39472   4.342   2.376   6.811 -0.4395  0.1291  0.3317
 9279SOL    HW139473   4.253   2.411   6.821 -0.7857 -1.1469  1.6595
 9279SOL    HW239474   4.381   2.448   6.761  1.0719  0.7033  2.3270
 9280SOL     OW39475   2.151   1.507   2.495  0.1359 -0.0138 -0.1065
 9280SOL    HW139476   2.061   1.481   2.474  0.7380 -1.7042 -0.5535
 9280SOL    HW239477   2.128   1.574   2.560  3.0618 -0.3714  1.2836
 9281SOL     OW39478   1.271   3.280   8.632  0.4819  0.4722  0.1492
 9281SOL    HW139479   1.350   3.326   8.604  1.6771 -1.9771 -0.5293
 9281SOL    HW239480   1.230   3.268   8.546  1.5858 -4.6516  0.3311
 9282SOL     OW39481   0.858   4.576   1.749 -0.2278  0.2266 -0.0313
 9282SOL    HW139482   0.782   4.616   1.789  1.7576  3.3497  0.5878
 9282SOL    HW239483   0.911   4.653   1.728  0.3201  0.2503  1.4256
 9283SOL     OW39484   1.190   3.280  13.096 -0.3658 -0.3418 -0.0506
 9283SOL    HW139485   1.248   3.356  13.097 -3.2840  1.8663  1.1098
 9283SOL    HW239486   1.218   3.235  13.176 -0.0295 -1.2836 -0.7013
 9284SOL     OW39487   2.284   3.954   7.421  0.4267  0.1553 -0.0439
 9284SOL    HW139488   2.230   4.001   7.484  0.2004 -0.9886  0.6115
 9284SOL    HW239489   2.214   3.919   7.366 -0.7420 -1.3712  2.4156
 9285SOL     OW39490   4.582   0.274   1.388  0.0219  0.0090 -0.7115
 9285SOL    HW139491   4.628   0.338   1.335  2.0109 -1.9576 -1.3600
 9285SOL    HW239492   4.499   0.261   1.341  0.3776  0.9708 -1.5984
 9286SOL     OW39493   0.598   1.475   3.740 -0.0898  0.2758  0.1160
 9286SOL    HW139494   0.588   1.558   3.787  0.7727 -1.2071  2.9325
 9286SOL    HW239495   0.672   1.432   3.784 -0.1587 -0.4824 -0.5035
 9287SOL     OW39496   2.265   2.587   9.641 -0.0821  0.2669  0.6593
 9287SOL    HW139497   2.205   2.640   9.589 -1.7547 -0.8901  1.4088
 9287SOL    HW239498   2.299   2.656   9.698  1.8981  0.1077 -0.3229
 9288SOL     OW39499   1.447   4.667  12.278  0.0168 -0.1762 -0.4940
 9288SOL    HW139500   1.416   4.592  12.227  0.5407 -0.0760 -0.9605
 9288SOL    HW239501   1.386   4.732  12.246 -0.5287  0.2795  1.4612
 9289SOL     OW39502   3.065   2.400   1.787 -0.7252  0.4839 -0.1983
 9289SOL    HW139503   3.095   2.458   1.857  0.4198  1.5082 -1.5394
 9289SOL    HW239504   3.054   2.317   1.833 -0.7046  1.2920  1.2655
 9290SOL     OW39505   1.961   0.576   6.509  0.8655 -0.0359  0.5613
 9290SOL    HW139506   2.038   0.591   6.454 -1.7872 -0.4624 -3.2667
 9290SOL    HW239507   1.886   0.614   6.463  2.9710  1.8862 -1.2247
 9291SOL     OW39508   0.208   3.174  11.975  0.6275  0.3457  0.1107
 9291SOL    HW139509   0.152   3.149  11.902 -0.7594  1.0018  0.9505
 9291SOL    HW239510   0.293   3.174  11.931  1.7440  3.7562  2.2151
 9292SOL     OW39511   2.772   3.029  12.397  0.0637  0.6635 -0.1749
 9292SOL    HW139512   2.815   3.085  12.332 -0.3166  0.1286 -0.8833
 9292SOL    HW239513   2.765   2.941  12.361  0.9169 -0.4088  2.2706
 9293SOL     OW39514   2.620   2.944   8.245  0.2527  0.1769  0.6187
 9293SOL    HW139515   2.565   3.022   8.236 -1.8890 -1.4091 -0.0925
 9293SOL    HW239516   2.573   2.894   8.178 -0.6875  3.2387 -0.9917
 9294SOL     OW39517   0.817   4.625   4.209  0.1164 -0.0455  0.0269
 9294SOL    HW139518   0.748   4.561   4.197 -2.1325  2.6340 -1.1575
 9294SOL    HW239519   0.765   4.705   4.199 -0.3969 -0.6869 -2.3422
 9295SOL     OW39520   4.056   3.020   5.435 -0.4385 -0.4528 -0.0123
 9295SOL    HW139521   4.121   2.975   5.381  0.1834 -1.7741  1.8358
 9295SOL    HW239522   3.978   2.966   5.423 -0.4790 -0.5567  0.7116
 9296SOL     OW39523   3.614   4.152   3.040 -0.3719 -0.1394 -0.3521
 9296SOL    HW139524   3.623   4.247   3.048 -1.7275 -0.2187  2.0401
 9296SOL    HW239525   3.547   4.145   2.972 -0.7602 -0.2304  0.0358
 9297SOL     OW39526   1.533   2.028   0.182 -0.0971 -0.9294 -0.0806
 9297SOL    HW139527   1.505   2.091   0.116  0.7377  0.1482  0.5989
 9297SOL    HW239528   1.598   1.978   0.133  0.5197  0.0195 -0.2217
 9298SOL     OW39529   4.324   0.674   3.996  0.0963 -0.0084 -0.0658
 9298SOL    HW139530   4.277   0.716   4.068  1.4415  2.2570 -0.4933
 9298SOL    HW239531   4.365   0.744   3.945 -0.4079  1.3126  1.3559
 9299SOL     OW39532   4.181   2.193  12.432 -0.4803 -0.2074 -0.1815
 9299SOL    HW139533   4.095   2.179  12.471 -1.7821  1.8179 -2.3514
 9299SOL    HW239534   4.193   2.109  12.388  1.0954 -0.4396  0.6761
 9300SOL     OW39535   1.211   0.999   3.412 -0.2899  0.0995 -0.7117
 9300SOL    HW139536   1.221   0.920   3.465 -2.1124  0.7335  0.5651
 9300SOL    HW239537   1.280   0.993   3.345  0.2123 -1.9012 -0.0184
 9301SOL     OW39538   1.483   4.590   8.563 -0.2436 -0.1947 -0.1463
 9301SOL    HW139539   1.535   4.555   8.636 -0.8549 -0.1988  0.2910
 9301SOL    HW239540   1.549   4.613   8.498 -1.1537  0.4953 -0.8249
 9302SOL     OW39541   2.096   3.763   8.270 -0.1620  0.2266 -0.3809
 9302SOL    HW139542   2.130   3.775   8.359  1.7122  1.6164 -1.2755
 9302SOL    HW239543   2.154   3.689   8.252 -0.1947  0.1181 -0.0537
 9303SOL     OW39544   1.444   2.362   9.733  0.1153 -0.2132 -0.2671
 9303SOL    HW139545   1.400   2.316   9.805  1.9727 -0.8436  0.4672
 9303SOL    HW239546   1.381   2.349   9.662 -1.0828  0.3274  0.6857
 9304SOL     OW39547   3.071   3.533   9.166 -0.2249  0.0549 -0.3083
 9304SOL    HW139548   3.015   3.519   9.089  2.3090 -3.1185 -1.5592
 9304SOL    HW239549   3.155   3.498   9.137 -0.5266 -1.8148  1.0584
 9305SOL     OW39550   3.274   0.023   8.322  0.5802  0.7214  0.4068
 9305SOL    HW139551   3.201   0.085   8.329  0.0844  0.2021 -0.2037
 9305SOL    HW239552   3.266   4.711   8.405 -1.2890  1.7075  0.8218
 9306SOL     OW39553   0.479   1.496  17.059  0.1465  0.4926 -0.1451
 9306SOL    HW139554   0.542   1.444  17.010  1.7823  0.8503  1.5594
 9306SOL    HW239555   0.408   1.486  16.996 -1.3710 -2.0368  1.9741
 9307SOL     OW39556   1.695   0.398  13.966 -0.0891 -0.0375  0.2789
 9307SOL    HW139557   1.777   0.353  13.985  0.4376  1.7673  2.1870
 9307SOL    HW239558   1.675   0.445  14.047 -0.7598 -1.2060  0.7835
 9308SOL     OW39559   3.961   3.153   0.635  0.4869 -0.1951  0.3881
 9308SOL    HW139560   3.908   3.191   0.565  0.2111 -0.8351  0.2498
 9308SOL    HW239561   3.964   3.221   0.702  0.8399 -0.3977  0.5785
 9309SOL     OW39562   4.036   1.702   2.194 -0.3009  0.0688 -0.4113
 9309SOL    HW139563   4.113   1.702   2.136 -1.3604 -1.5503 -1.8183
 9309SOL    HW239564   4.043   1.789   2.234  0.7270 -0.0404 -0.3340
 9310SOL     OW39565   4.693   2.954  10.935 -0.2395 -0.0385  0.4980
 9310SOL    HW139566   4.666   2.873  10.892 -1.1091  0.3840  0.2552
 9310SOL    HW239567   4.605   2.989  10.951 -0.2983 -0.4110  1.0017
 9311SOL     OW39568   0.988   4.498  16.860 -0.1366 -0.3976  0.3725
 9311SOL    HW139569   0.900   4.461  16.852  0.2291 -1.0188 -0.9505
 9311SOL    HW239570   0.974   4.566  16.926 -0.7157  0.2072 -0.3720
 9312SOL     OW39571   0.811   4.639   6.037 -0.5591 -0.9358 -0.3247
 9312SOL    HW139572   0.832   4.666   6.127 -0.5577 -0.6574 -0.4087
 9312SOL    HW239573   0.732   4.687   6.014  0.6924  1.5026  0.4351
 9313SOL     OW39574   0.968   3.613   9.561  0.1276 -0.1150 -0.2461
 9313SOL    HW139575   1.017   3.656   9.491  0.5506  0.0277  0.1365
 9313SOL    HW239576   0.937   3.535   9.516  3.1130 -0.0208 -2.4174
 9314SOL     OW39577   1.142   3.191   3.042 -0.7267  0.1423 -0.2983
 9314SOL    HW139578   1.184   3.240   2.971  1.5882 -0.9395  0.3218
 9314SOL    HW239579   1.061   3.240   3.028  0.0439  1.3124 -0.5801
 9315SOL     OW39580   4.358   3.981   5.084 -0.5662 -0.1836  0.0543
 9315SOL    HW139581   4.299   3.981   5.159  0.4779  1.5660  0.8717
 9315SOL    HW239582   4.390   3.891   5.094  4.5973  1.5334 -0.8553
 9316SOL     OW39583   0.589   0.780   4.197  0.6950 -0.0843 -0.1922
 9316SOL    HW139584   0.589   0.843   4.125 -0.4841  0.8777  0.6526
 9316SOL    HW239585   0.644   0.828   4.259 -3.4109  1.8904  1.9246
 9317SOL     OW39586   3.393   3.751   4.881 -0.2115 -0.4173  0.4716
 9317SOL    HW139587   3.445   3.768   4.802  0.5128  2.3696  1.5764
 9317SOL    HW239588   3.341   3.675   4.854  2.4328 -1.9677 -0.3388
 9318SOL     OW39589   1.845   1.227   5.541 -0.0588  0.1627 -0.4260
 9318SOL    HW139590   1.840   1.275   5.624 -1.0828  0.6853 -0.7812
 9318SOL    HW239591   1.788   1.284   5.488 -0.7269  0.4592  0.6042
 9319SOL     OW39592   4.028   1.073  13.915  0.2804  0.5986  0.2348
 9319SOL    HW139593   4.058   1.035  13.833 -1.4813  1.0774 -0.6240
 9319SOL    HW239594   4.007   0.997  13.969  0.6638 -0.1109 -0.6301
 9320SOL     OW39595   0.754   1.204   2.422 -0.3126 -0.6790  0.0548
 9320SOL    HW139596   0.673   1.166   2.456 -0.7416 -0.5263 -0.7772
 9320SOL    HW239597   0.759   1.162   2.336 -0.4335 -1.2684  0.3363
 9321SOL     OW39598   1.029   3.601  13.436  0.5143 -0.1746 -0.3412
 9321SOL    HW139599   0.951   3.546  13.428  0.2741  0.1230 -0.0184
 9321SOL    HW239600   1.089   3.526  13.441  1.5645  0.5672 -1.7560
 9322SOL     OW39601   3.013   1.344  10.710  0.2236  0.3916 -0.0245
 9322SOL    HW139602   3.041   1.293  10.786 -0.9925 -2.0422 -1.2200
 9322SOL    HW239603   3.099   1.373  10.679  1.0156  0.0993  1.8434
 9323SOL     OW39604   1.679   1.794   3.138 -0.2352 -0.1753  0.4152
 9323SOL    HW139605   1.670   1.889   3.148  1.6940 -0.1421  1.7732
 9323SOL    HW239606   1.670   1.796   3.042 -0.1287  2.2904  0.4515
 9324SOL     OW39607   3.575   0.679   7.232 -0.2518 -0.1711  0.1148
 9324SOL    HW139608   3.524   0.630   7.168 -3.7936  2.4883  0.8961
 9324SOL    HW239609   3.558   0.767   7.198  0.8896  0.0362  0.0611
 9325SOL     OW39610   1.390   2.823   6.337 -0.1516  0.3733  0.1849
 9325SOL    HW139611   1.320   2.807   6.274 -0.6103  0.3210  0.7030
 9325SOL    HW239612   1.466   2.786   6.293 -0.8636  1.0283 -1.5914
 9326SOL     OW39613   2.191   0.158  10.794  0.1120  0.4985  0.1354
 9326SOL    HW139614   2.161   0.157  10.885  3.2794  2.0917  1.1868
 9326SOL    HW239615   2.121   0.209  10.753 -0.9531  1.3440  2.9865
 9327SOL     OW39616   0.060   1.838   1.159  0.2371  0.1539  0.0019
 9327SOL    HW139617   4.706   1.855   1.181 -0.0831 -0.8724 -0.5076
 9327SOL    HW239618   0.045   1.752   1.120 -3.2997  0.5408  0.5738
 9328SOL     OW39619   3.596   4.717  13.987  0.0649 -0.2505 -0.0945
 9328SOL    HW139620   3.577   0.073  13.991  0.2752 -0.2707  1.3931
 9328SOL    HW239621   3.529   4.679  14.043  1.3293 -1.9544  0.2886
 9329SOL     OW39622   0.506   0.043   5.671 -0.6635 -0.1517 -0.0739
 9329SOL    HW139623   0.508   0.138   5.680 -0.8267  0.0625 -2.3545
 9329SOL    HW239624   0.596   0.010   5.679  0.6558  3.2289 -1.1909
 9330SOL     OW39625   3.884   3.392  12.139  0.0152  0.1117  0.2629
 9330SOL    HW139626   3.811   3.452  12.127 -1.8769 -1.7232  2.8036
 9330SOL    HW239627   3.906   3.411  12.230 -1.7389 -0.3288  0.7848
 9331SOL     OW39628   0.005   0.733  14.274 -0.2930 -0.1056 -0.5824
 9331SOL    HW139629   0.089   0.746  14.318  0.2849 -0.9534 -1.4190
 9331SOL    HW239630   4.694   0.811  14.300 -0.8898 -1.0261  1.1172
 9332SOL     OW39631   0.472   4.314  15.781  0.0464 -0.2248  0.1225
 9332SOL    HW139632   0.494   4.335  15.690  0.8565 -0.8580  0.1693
 9332SOL    HW239633   0.377   4.307  15.780 -0.1972  3.2501  0.6861
 9333SOL     OW39634   1.853   0.283   4.138 -0.3478 -0.0949  0.0637
 9333SOL    HW139635   1.792   0.333   4.193 -0.2487  0.1112 -0.0147
 9333SOL    HW239636   1.787   0.225   4.100 -1.1893  0.1914  1.0606
 9334SOL     OW39637   4.380   4.275   0.531  0.6087 -0.4496 -0.2107
 9334SOL    HW139638   4.439   4.350   0.524  2.1634 -1.5584  1.0532
 9334SOL    HW239639   4.379   4.231   0.445  0.1886 -2.4527  0.8220
 9335SOL     OW39640   0.548   0.180   8.485 -0.1306  0.0231  0.4760
 9335SOL    HW139641   0.544   0.194   8.579 -0.6845  1.0420  0.2982
 9335SOL    HW239642   0.621   0.237   8.460  1.5887 -2.0797  0.7327
 9336SOL     OW39643   3.246   2.097   0.776  0.2490  0.2359  0.0141
 9336SOL    HW139644   3.227   2.164   0.710 -2.3604 -0.8282 -0.3222
 9336SOL    HW239645   3.191   2.126   0.849 -0.5074  1.0898 -0.9036
 9337SOL     OW39646   0.939   1.611   1.920 -0.1389 -0.2500 -0.5969
 9337SOL    HW139647   1.025   1.640   1.888  0.5089 -0.7217  0.6987
 9337SOL    HW239648   0.877   1.683   1.909  0.2491  0.5757  2.6359
 9338SOL     OW39649   3.734   3.212  10.625  0.0223  0.9626 -0.4306
 9338SOL    HW139650   3.813   3.197  10.574 -0.2259 -2.4612  0.1636
 9338SOL    HW239651   3.699   3.123  10.625 -0.7233  1.2411  0.5956
 9339SOL     OW39652   0.729   3.850   6.427 -0.2704 -0.3590 -0.7376
 9339SOL    HW139653   0.752   3.847   6.334  2.3968 -0.7155 -0.0649
 9339SOL    HW239654   0.787   3.780   6.456  0.3523  2.1287  3.9391
 9340SOL     OW39655   0.212   2.015   6.784 -0.4787  0.3774 -0.3306
 9340SOL    HW139656   0.131   1.975   6.753  0.4461 -0.5909 -1.4973
 9340SOL    HW239657   0.225   1.981   6.872 -0.7424 -0.5259 -0.6430
 9341SOL     OW39658   2.794   2.272   1.852 -0.1629 -0.5425 -0.3460
 9341SOL    HW139659   2.746   2.219   1.915 -1.4122  0.7182 -0.2104
 9341SOL    HW239660   2.829   2.214   1.784 -0.2566 -0.3167 -0.5897
 9342SOL     OW39661   4.701   3.189   3.241  0.8532  0.2328  0.0283
 9342SOL    HW139662   4.707   3.283   3.228 -1.3036  0.4451  0.4424
 9342SOL    HW239663   4.685   3.165   3.149 -0.5739 -0.6197  0.4791
 9343SOL     OW39664   0.415   1.142   5.825  0.2722  0.5355  0.1013
 9343SOL    HW139665   0.471   1.208   5.867  1.6723 -0.8629  0.4417
 9343SOL    HW239666   0.477   1.108   5.761 -2.1406 -2.0739 -0.8345
 9344SOL     OW39667   4.441   1.568   3.753 -0.2722  0.1607 -0.3035
 9344SOL    HW139668   4.536   1.562   3.754 -0.2228  0.8259 -0.8052
 9344SOL    HW239669   4.425   1.488   3.802  1.1475  0.9099  1.3768
 9345SOL     OW39670   0.370   2.473   2.800  0.7285  0.4410  0.1250
 9345SOL    HW139671   0.464   2.491   2.797  0.6149  0.7287 -1.6689
 9345SOL    HW239672   0.371   2.378   2.809 -2.7731  0.6263  2.5436
 9346SOL     OW39673   2.199   1.750   5.865  0.4333  0.1426 -0.0627
 9346SOL    HW139674   2.200   1.719   5.955  0.5855 -3.0831 -1.1869
 9346SOL    HW239675   2.203   1.671   5.812 -0.5982 -0.3432  0.5859
 9347SOL     OW39676   3.581   2.383  10.421  0.8134 -0.2604 -0.0523
 9347SOL    HW139677   3.636   2.307  10.442  1.0001 -0.5114 -1.4471
 9347SOL    HW239678   3.589   2.433  10.502 -0.7678 -0.1433  0.0249
 9348SOL     OW39679   2.472   0.489   7.840 -0.1371 -0.1000 -0.0674
 9348SOL    HW139680   2.427   0.407   7.860  2.2546 -1.3187  0.2679
 9348SOL    HW239681   2.476   0.480   7.745  0.2724  0.5028 -0.1009
 9349SOL     OW39682   4.368   0.417   7.300  0.1254  0.2221 -0.3352
 9349SOL    HW139683   4.376   0.451   7.390  1.3280 -1.5602  0.2328
 9349SOL    HW239684   4.308   0.348   7.328 -0.0957  1.4568  2.2771
 9350SOL     OW39685   3.882   1.749   0.273 -0.5961  0.3686 -0.5159
 9350SOL    HW139686   3.969   1.710   0.265  0.4104  2.2317  1.1847
 9350SOL    HW239687   3.835   1.735   0.191  0.9511  0.0831 -1.3387
 9351SOL     OW39688   0.886   4.260   9.259  0.2910 -0.5702 -0.6001
 9351SOL    HW139689   0.822   4.256   9.331  0.0145  0.4957 -0.7840
 9351SOL    HW239690   0.962   4.224   9.304  0.7995  0.7875 -0.3749
 9352SOL     OW39691   0.305   4.067  14.646  0.3763  0.4206  0.1268
 9352SOL    HW139692   0.236   4.076  14.713  0.0316 -2.3785  0.1383
 9352SOL    HW239693   0.343   3.983  14.672 -1.2836 -0.9855 -1.9958
 9353SOL     OW39694   1.420   2.536   8.283 -0.4744 -0.5383  0.1485
 9353SOL    HW139695   1.484   2.467   8.302 -1.6079 -1.2232  1.4794
 9353SOL    HW239696   1.337   2.494   8.257 -0.2072 -1.2771  0.4822
 9354SOL     OW39697   1.432   1.291   3.995  0.2863 -0.2523  0.0802
 9354SOL    HW139698   1.476   1.210   3.969  0.1336  0.1935 -1.5461
 9354SOL    HW239699   1.502   1.339   4.039  0.4151 -0.1837 -0.2003
 9355SOL     OW39700   0.997   1.077   9.357  0.3115  0.1205 -0.2068
 9355SOL    HW139701   1.092   1.068   9.361  0.4226  1.7675  0.9260
 9355SOL    HW239702   0.986   1.021   9.280 -0.6468  0.1545 -0.0966
 9356SOL     OW39703   2.945   0.840   3.172 -0.3098 -0.5498 -1.0610
 9356SOL    HW139704   2.999   0.803   3.102  1.0349 -0.3888 -0.1100
 9356SOL    HW239705   2.860   0.845   3.128  0.5491  0.4351 -2.6118
 9357SOL     OW39706   3.690   3.023   2.871  0.2408  0.1283 -0.2775
 9357SOL    HW139707   3.693   3.106   2.918  2.1913 -1.6699  2.8595
 9357SOL    HW239708   3.603   3.001   2.903 -0.3812  0.7483 -1.5842
 9358SOL     OW39709   0.088   2.997   4.982  0.1549 -0.5334  0.1380
 9358SOL    HW139710   0.149   2.974   4.911 -0.1904 -2.3425  0.4337
 9358SOL    HW239711   0.106   2.933   5.050 -1.6434 -0.2630  0.8557
 9359SOL     OW39712   2.334   3.171  16.067 -0.0556  0.0136  0.5601
 9359SOL    HW139713   2.300   3.243  16.013  1.9293 -0.7595 -1.7126
 9359SOL    HW239714   2.288   3.186  16.149 -1.0014 -0.5854  0.1441
 9360SOL     OW39715   2.277   0.103  16.513 -0.1282  0.8401 -0.1585
 9360SOL    HW139716   2.299   0.115  16.605  0.4395 -2.4975  0.1616
 9360SOL    HW239717   2.206   0.040  16.523  1.5075 -1.5261 -3.5443
 9361SOL     OW39718   3.645   1.993  11.890  0.5428  0.0514  0.3068
 9361SOL    HW139719   3.581   1.925  11.910  1.5414 -1.2060 -0.7810
 9361SOL    HW239720   3.638   2.060  11.959  1.5977 -0.0033  0.4774
 9362SOL     OW39721   3.226   0.693   2.258  0.3526 -0.6533  0.8442
 9362SOL    HW139722   3.232   0.602   2.230  0.9442 -0.3635  0.0337
 9362SOL    HW239723   3.255   0.731   2.175 -0.2960  1.1496  1.4412
 9363SOL     OW39724   4.114   3.182  10.778 -0.3754 -0.0936  0.8250
 9363SOL    HW139725   4.104   3.126  10.701  2.2287  1.0530 -0.3590
 9363SOL    HW239726   4.109   3.119  10.850 -0.0487 -0.5182  0.4782
 9364SOL     OW39727   3.506   3.084  13.688  0.2099 -0.1399  0.1979
 9364SOL    HW139728   3.585   3.131  13.715  1.0341 -1.5610  0.2767
 9364SOL    HW239729   3.443   3.154  13.668 -1.5839 -1.7144  0.3364
 9365SOL     OW39730   3.103   2.573   8.251 -0.3587 -0.1294 -0.7663
 9365SOL    HW139731   3.027   2.556   8.196 -0.9060  0.4223 -0.1775
 9365SOL    HW239732   3.167   2.593   8.182  2.0537  0.6152  1.6776
 9366SOL     OW39733   2.109   2.189   1.199  0.1687  0.3051 -0.1929
 9366SOL    HW139734   2.112   2.269   1.147 -1.1362  0.5032  0.0375
 9366SOL    HW239735   2.040   2.208   1.262 -1.6929 -1.5448 -1.6494
 9367SOL     OW39736   0.800   2.506  16.258  0.0686 -0.3767  0.1173
 9367SOL    HW139737   0.722   2.463  16.222 -1.3255  3.3009 -1.2366
 9367SOL    HW239738   0.820   2.561  16.183  0.1335 -0.6581 -0.0696
 9368SOL     OW39739   0.247   0.687   6.239  0.2497 -0.1237  0.2632
 9368SOL    HW139740   0.189   0.670   6.313  0.7925  1.4737  1.0451
 9368SOL    HW239741   0.189   0.722   6.170 -0.1405 -2.0189 -0.3762
 9369SOL     OW39742   1.490   2.560   1.861 -0.3605 -0.4808 -0.2956
 9369SOL    HW139743   1.421   2.497   1.841  0.7846 -1.6297 -0.6396
 9369SOL    HW239744   1.558   2.513   1.909  3.0130  2.2721 -2.3434
 9370SOL     OW39745   2.605   1.199   8.627  0.1747  0.4380  0.0794
 9370SOL    HW139746   2.542   1.262   8.594 -1.3285  0.0415  2.1585
 9370SOL    HW239747   2.685   1.234   8.589  1.8941 -2.9233  0.6311
 9371SOL     OW39748   4.388   2.831   4.218 -0.1438  0.2611 -0.1771
 9371SOL    HW139749   4.414   2.901   4.278 -0.9722 -0.3426  0.9000
 9371SOL    HW239750   4.452   2.830   4.147  0.1685 -0.2331  0.1129
 9372SOL     OW39751   3.701   0.929   6.605  0.2138 -0.2739 -0.5986
 9372SOL    HW139752   3.745   0.997   6.555 -0.5092  0.7323  0.1428
 9372SOL    HW239753   3.773   0.868   6.589 -0.6431 -1.1312 -1.1625
 9373SOL     OW39754   2.670   2.552   3.703  0.3579 -0.0475 -0.3437
 9373SOL    HW139755   2.605   2.504   3.652 -0.0157  2.1381 -1.9352
 9373SOL    HW239756   2.639   2.534   3.792 -1.3281  1.8149 -0.5571
 9374SOL     OW39757   3.260   3.384   7.042 -0.0348 -0.0106 -0.0554
 9374SOL    HW139758   3.232   3.426   6.961  2.9329 -0.0710 -1.0791
 9374SOL    HW239759   3.269   3.467   7.090 -1.1782 -0.1702  0.4539
 9375SOL     OW39760   3.350   2.604  10.471  0.1672 -0.7671 -0.2545
 9375SOL    HW139761   3.421   2.625  10.532 -1.6612 -0.6766  1.8531
 9375SOL    HW239762   3.301   2.685  10.484 -0.6017 -1.1441 -0.8164
 9376SOL     OW39763   3.274   1.433   3.112 -0.2276  0.2429 -0.0492
 9376SOL    HW139764   3.185   1.429   3.076  0.2117  0.4732 -1.1463
 9376SOL    HW239765   3.304   1.523   3.097  1.7643  0.0636  2.9390
 9377SOL     OW39766   0.543   3.133   5.854 -0.1504  0.0369 -0.1591
 9377SOL    HW139767   0.576   3.078   5.925 -2.3719 -1.4821 -0.2996
 9377SOL    HW239768   0.471   3.173   5.903 -0.9507 -1.7771  0.1714
 9378SOL     OW39769   0.822   4.609   2.600  0.0327  0.2039 -0.5786
 9378SOL    HW139770   0.908   4.592   2.561  0.9170 -1.3369  2.0571
 9378SOL    HW239771   0.845   4.654   2.681  0.3606  1.9666 -1.6322
 9379SOL     OW39772   0.590   0.504   3.280  0.3124 -0.2905  0.2427
 9379SOL    HW139773   0.496   0.488   3.275  0.2363  0.1455  0.2722
 9379SOL    HW239774   0.593   0.595   3.311  0.5925  1.0738 -3.8889
 9380SOL     OW39775   3.247   0.733   7.313 -0.3965  0.1271 -0.1027
 9380SOL    HW139776   3.209   0.678   7.381 -0.2269 -0.1576 -0.2377
 9380SOL    HW239777   3.208   0.697   7.234 -2.8603  0.4098  0.9655
 9381SOL     OW39778   0.196   0.877  14.076 -0.3516  0.0678  0.0642
 9381SOL    HW139779   0.107   0.886  14.109 -0.5819  1.2480 -0.8684
 9381SOL    HW239780   0.178   0.808  14.013 -0.7204  1.0150 -0.8716
 9382SOL     OW39781   2.315   4.102   0.761  0.1708 -0.6064  0.2014
 9382SOL    HW139782   2.220   4.093   0.769  0.4644 -2.0900  1.9516
 9382SOL    HW239783   2.324   4.165   0.833 -1.2924  0.2273 -0.3254
 9383SOL     OW39784   4.691   4.090  13.755 -0.2680 -0.4096 -0.0858
 9383SOL    HW139785   4.678   4.126  13.667 -1.2450 -0.6036 -0.0304
 9383SOL    HW239786   4.731   4.171  13.785  1.7130 -1.5593  0.3602
 9384SOL     OW39787   0.271   2.733   5.854 -0.3533  0.1512  0.0318
 9384SOL    HW139788   0.262   2.824   5.884  0.6849  0.7966 -1.6039
 9384SOL    HW239789   0.349   2.737   5.798 -0.0221  1.7102  0.5889
 9385SOL     OW39790   1.115   4.038   1.711  0.6604  0.3091  0.6611
 9385SOL    HW139791   1.093   4.017   1.802  2.0327 -1.2893  0.6343
 9385SOL    HW239792   1.209   4.018   1.703  0.2619 -1.3152  0.1804
 9386SOL     OW39793   3.235   2.026   3.980  0.2984  0.0364  0.1138
 9386SOL    HW139794   3.159   1.989   4.025  0.7012  0.4846  1.1551
 9386SOL    HW239795   3.247   2.095   4.045 -0.8989 -1.4386  1.9356
 9387SOL     OW39796   0.853   0.228   7.310  0.8570 -0.4755 -0.0141
 9387SOL    HW139797   0.831   0.163   7.377 -4.8221  0.5164 -0.8507
 9387SOL    HW239798   0.775   0.244   7.257 -1.0389  0.4736  3.0028
 9388SOL     OW39799   2.992   2.609   3.403  0.4730 -0.1444  0.5392
 9388SOL    HW139800   3.053   2.655   3.460  1.7946 -1.1487 -0.0602
 9388SOL    HW239801   3.028   2.520   3.413 -1.1396 -1.0715 -2.0078
 9389SOL     OW39802   0.662   4.592  14.679 -0.1365  0.0264  0.2414
 9389SOL    HW139803   0.642   4.596  14.585  3.0075 -0.1675 -0.4387
 9389SOL    HW239804   0.699   4.504  14.687  0.5153  0.1840 -1.0138
 9390SOL     OW39805   1.246   1.634  15.088 -0.1936  0.3859 -0.5259
 9390SOL    HW139806   1.170   1.622  15.032  1.0259  1.6323 -2.4437
 9390SOL    HW239807   1.208   1.621  15.175  2.4664 -2.2276  0.2585
 9391SOL     OW39808   1.849   3.302   9.255  1.0721 -0.4194 -0.0093
 9391SOL    HW139809   1.857   3.208   9.265  0.4097 -0.4361  0.3421
 9391SOL    HW239810   1.875   3.331   9.343 -3.7088  0.5889  1.0743
 9392SOL     OW39811   0.170   3.533  14.338  0.3109  0.3256  0.2008
 9392SOL    HW139812   0.254   3.528  14.384  0.4744  2.7005  0.1415
 9392SOL    HW239813   0.181   3.621  14.302 -3.2743 -0.4032 -2.6574
 9393SOL     OW39814   4.557   4.120  14.419  0.0823 -0.3489  0.4783
 9393SOL    HW139815   4.528   4.083  14.336 -0.2011 -2.3503  1.4791
 9393SOL    HW239816   4.649   4.145  14.407  0.1047 -0.7612 -0.2081
 9394SOL     OW39817   2.948   4.629   4.566 -0.4935 -0.4250 -0.2520
 9394SOL    HW139818   2.968   4.663   4.653  1.7475 -0.6066 -0.6995
 9394SOL    HW239819   2.906   4.548   4.595 -2.9519  0.4594 -1.2908
 9395SOL     OW39820   1.016   3.505  15.598 -0.0302  0.0839 -0.2386
 9395SOL    HW139821   0.995   3.522  15.506 -0.9937 -2.1231 -0.4279
 9395SOL    HW239822   1.110   3.524  15.599  0.0641 -0.5330  3.3866
 9396SOL     OW39823   1.981   4.228  16.219 -0.3091  0.6185  0.2995
 9396SOL    HW139824   2.060   4.176  16.203  1.7849  3.3131  1.9211
 9396SOL    HW239825   2.027   4.301  16.261 -1.4061  2.4151 -1.6650
 9397SOL     OW39826   3.472   4.025  10.284 -0.0093  0.0616 -0.2606
 9397SOL    HW139827   3.557   4.003  10.322 -1.0632  0.3620  2.2625
 9397SOL    HW239828   3.430   4.068  10.358  0.8627  0.5045 -0.0246
 9398SOL     OW39829   4.089   1.172   5.587 -0.0529 -0.2493  0.4046
 9398SOL    HW139830   4.012   1.117   5.603 -0.6304  0.2437 -0.6828
 9398SOL    HW239831   4.100   1.199   5.678 -0.6073  2.6427 -0.3925
 9399SOL     OW39832   2.594   3.372   6.214  0.0577 -0.4750  0.0779
 9399SOL    HW139833   2.516   3.418   6.184  0.0962 -0.9301 -0.7386
 9399SOL    HW239834   2.637   3.326   6.141 -1.2657  1.0941 -1.6837
 9400SOL     OW39835   2.169   1.068  15.255  0.6843  0.1087  0.0231
 9400SOL    HW139836   2.202   0.984  15.287  1.2628  0.3625  0.0870
 9400SOL    HW239837   2.198   1.130  15.322 -0.0043 -0.2927  0.7010
 9401SOL     OW39838   1.306   4.700   1.916  0.2581 -0.0357  0.5546
 9401SOL    HW139839   1.334   4.679   1.827  3.0031  1.2695  1.1286
 9401SOL    HW239840   1.260   4.619   1.940  0.0958 -0.1897 -0.2763
 9402SOL     OW39841   2.618   1.925   1.731  0.5989  0.1931  0.7579
 9402SOL    HW139842   2.554   1.997   1.733  0.0035 -0.3583  1.7021
 9402SOL    HW239843   2.645   1.923   1.639 -1.1790 -1.3347  0.2772
 9403SOL     OW39844   3.788   1.141  14.809 -0.2693 -0.4238 -0.6527
 9403SOL    HW139845   3.847   1.128  14.735 -0.5631 -1.0755 -0.7682
 9403SOL    HW239846   3.856   1.164  14.873  1.7229 -1.9760 -2.2183
 9404SOL     OW39847   1.003   1.462  12.463 -0.1026  0.6722 -0.1804
 9404SOL    HW139848   0.908   1.474  12.456 -0.0189  1.6311  0.3511
 9404SOL    HW239849   1.017   1.465  12.558 -0.8638 -1.1553 -0.0121
 9405SOL     OW39850   0.910   0.148   6.729 -0.1539  0.1317 -0.5102
 9405SOL    HW139851   0.866   0.079   6.778 -0.0855 -1.0287 -2.0663
 9405SOL    HW239852   0.857   0.220   6.764  0.6069  0.3352  0.1997
 9406SOL     OW39853   3.505   2.368   7.185  0.1147  0.2208 -0.4106
 9406SOL    HW139854   3.523   2.275   7.176 -0.8522  0.1054 -1.2247
 9406SOL    HW239855   3.478   2.359   7.276  4.4497  0.2839  0.8712
 9407SOL     OW39856   1.835   3.938  13.270  0.0997  0.1293  0.0522
 9407SOL    HW139857   1.761   3.995  13.294  0.8321 -0.4024  3.5949
 9407SOL    HW239858   1.913   3.992  13.284 -1.2408  1.6123  1.8975
 9408SOL     OW39859   3.516   4.433   6.607 -0.5752 -0.1461 -0.0416
 9408SOL    HW139860   3.543   4.492   6.536  0.0044  2.1677  2.1068
 9408SOL    HW239861   3.527   4.348   6.564 -0.3785  0.4423 -1.1709
 9409SOL     OW39862   2.789   3.357   9.446 -0.1109 -0.0066 -0.0594
 9409SOL    HW139863   2.785   3.262   9.460 -0.8870  0.1826  1.0029
 9409SOL    HW239864   2.875   3.377   9.484 -0.2215 -1.3475  0.9224
 9410SOL     OW39865   2.083   2.741  15.561  0.4436  0.4633  0.0505
 9410SOL    HW139866   2.019   2.799  15.601 -0.1454 -1.2645  1.6151
 9410SOL    HW239867   2.135   2.724  15.640  2.5489  2.2810 -0.9414
 9411SOL     OW39868   4.597   0.522   8.078 -0.1175 -0.2604 -0.3557
 9411SOL    HW139869   4.632   0.446   8.124  1.1247  1.9314  2.3132
 9411SOL    HW239870   4.562   0.569   8.154 -1.4854 -1.1065 -0.4588
 9412SOL     OW39871   1.602   1.535   2.524 -0.2394 -0.1141  0.1382
 9412SOL    HW139872   1.585   1.537   2.619 -1.5323 -1.9784 -0.0550
 9412SOL    HW239873   1.518   1.500   2.496  1.2399 -1.8748 -2.0446
 9413SOL     OW39874   2.172   1.725   2.648 -0.2043 -0.5859  0.1986
 9413SOL    HW139875   2.118   1.793   2.688  0.9404  0.2132  0.3950
 9413SOL    HW239876   2.160   1.655   2.713  2.4437 -1.8460 -0.6708
 9414SOL     OW39877   0.360   0.123   2.323 -0.2338 -0.7671 -0.1293
 9414SOL    HW139878   0.299   0.058   2.287 -0.7148 -0.8246  0.7761
 9414SOL    HW239879   0.370   0.100   2.416  0.8652  0.0722 -0.0449
 9415SOL     OW39880   3.029   2.158   5.239 -0.9682  0.3929 -0.0917
 9415SOL    HW139881   2.998   2.107   5.164 -2.9385 -1.5902  2.0567
 9415SOL    HW239882   2.946   2.175   5.283 -2.0932  0.8136 -2.3958
 9416SOL     OW39883   2.787   0.601   4.245  0.3953 -0.1260 -0.0458
 9416SOL    HW139884   2.736   0.605   4.326  2.8400  1.3102  1.3964
 9416SOL    HW239885   2.878   0.605   4.274  0.2055 -0.4277  0.6061
 9417SOL     OW39886   1.904   0.628   7.897 -0.4362  0.2218  0.7595
 9417SOL    HW139887   1.895   0.717   7.862  0.5306  0.4314  1.0482
 9417SOL    HW239888   1.962   0.594   7.830 -1.1228 -0.2180  0.3888
 9418SOL     OW39889   4.214   1.569   3.386  0.1942  0.0234  0.1188
 9418SOL    HW139890   4.204   1.646   3.330 -1.5411  0.9093  1.6459
 9418SOL    HW239891   4.124   1.536   3.382  1.1990 -2.9956  2.5379
 9419SOL     OW39892   2.099   2.633   3.245  0.5825 -0.3175  0.3008
 9419SOL    HW139893   2.014   2.674   3.263  0.0034 -0.7250 -1.5042
 9419SOL    HW239894   2.077   2.542   3.265  0.1341 -0.2565  0.1047
 9420SOL     OW39895   1.293   2.371   2.314 -0.4752  0.5622 -0.2346
 9420SOL    HW139896   1.280   2.320   2.234  0.2939  4.3313 -2.7320
 9420SOL    HW239897   1.250   2.454   2.294  0.6237  0.5629 -2.6226
 9421SOL     OW39898   2.347   3.729   8.009 -0.2501  0.1699 -0.3592
 9421SOL    HW139899   2.321   3.821   8.016 -0.6360  0.1436 -1.4749
 9421SOL    HW239900   2.323   3.691   8.094  2.2767 -2.5710 -0.8681
 9422SOL     OW39901   0.624   0.474   2.105  0.4875 -0.4668  0.0055
 9422SOL    HW139902   0.597   0.503   2.192 -2.4892 -1.0187 -0.7342
 9422SOL    HW239903   0.600   0.381   2.107 -3.4021  0.5532  1.1273
 9423SOL     OW39904   3.519   1.900   3.622  0.0730  0.1294 -0.3933
 9423SOL    HW139905   3.508   1.972   3.685 -0.2040  1.3828 -1.8858
 9423SOL    HW239906   3.614   1.888   3.626 -0.2111 -1.9840  0.3965
 9424SOL     OW39907   1.586   1.746   6.774  0.5867  0.2188 -0.3755
 9424SOL    HW139908   1.519   1.757   6.841  1.7498  0.2051  0.7822
 9424SOL    HW239909   1.662   1.709   6.819 -1.1063 -2.5669  0.1721
 9425SOL     OW39910   0.002   0.516   9.182 -0.1197  0.3718  0.0282
 9425SOL    HW139911   4.651   0.523   9.146 -0.0869  2.6382  0.3535
 9425SOL    HW239912   0.044   0.522   9.096 -0.5287 -0.9802 -0.2607
 9426SOL     OW39913   4.619   0.605  11.722  0.4710 -0.5987 -0.2985
 9426SOL    HW139914   4.609   0.700  11.731 -3.6239 -1.1128  0.5208
 9426SOL    HW239915   4.683   0.581  11.790 -1.3133 -2.5636  0.6959
 9427SOL     OW39916   3.477   1.645  11.704  0.5568  0.4889  0.2795
 9427SOL    HW139917   3.502   1.588  11.631  0.5014 -0.9083  1.3615
 9427SOL    HW239918   3.389   1.675  11.684  0.5217  0.4129  0.3204
 9428SOL     OW39919   1.184   4.623   6.786  0.3332 -0.2455  0.2398
 9428SOL    HW139920   1.197   4.718   6.790 -2.3631  0.1027  1.0367
 9428SOL    HW239921   1.269   4.596   6.752 -1.1680  0.3670 -3.9430
 9429SOL     OW39922   2.204   1.081   2.335  0.1628 -0.2522 -0.4024
 9429SOL    HW139923   2.226   1.126   2.254 -0.2124 -1.1011 -0.9804
 9429SOL    HW239924   2.283   1.092   2.389 -0.1794 -3.3889  0.7378
 9430SOL     OW39925   2.689   0.780   4.061 -0.7519  0.2850 -0.8949
 9430SOL    HW139926   2.728   0.772   3.974 -2.1576 -1.3524 -1.3784
 9430SOL    HW239927   2.730   0.710   4.111 -1.7345 -0.7689 -1.5704
 9431SOL     OW39928   0.522   4.214   0.957 -0.0927 -0.2054  0.1894
 9431SOL    HW139929   0.440   4.177   0.990  0.0378  2.4479  3.5332
 9431SOL    HW239930   0.492   4.293   0.912 -0.6754  0.3022  1.4779
 9432SOL     OW39931   4.214   0.889   6.623 -0.1185 -0.2344  0.2105
 9432SOL    HW139932   4.179   0.874   6.711 -2.2526 -2.5587 -1.0157
 9432SOL    HW239933   4.290   0.943   6.644  0.2832 -0.4903 -0.5572
 9433SOL     OW39934   2.040   3.685   3.344 -0.1249  0.1821 -0.0753
 9433SOL    HW139935   2.120   3.665   3.296 -1.8226 -0.6163 -2.5690
 9433SOL    HW239936   2.026   3.779   3.333  0.1799  0.2189 -0.1542
 9434SOL     OW39937   2.644   0.206   8.016  0.4502  0.4891 -0.2044
 9434SOL    HW139938   2.651   0.212   7.920  1.4372  2.7947  0.0172
 9434SOL    HW239939   2.647   0.293   8.056  0.9481 -0.7577  2.4224
 9435SOL     OW39940   1.613   4.337   1.049  0.0209 -0.4717 -0.2123
 9435SOL    HW139941   1.699   4.379   1.046  0.1763 -0.7943 -0.3511
 9435SOL    HW239942   1.555   4.394   1.001 -0.5712 -0.2062  0.8207
 9436SOL     OW39943   2.243   2.456  12.431  0.2526 -0.2778  0.1639
 9436SOL    HW139944   2.183   2.499  12.370 -0.8813 -0.8523  0.8771
 9436SOL    HW239945   2.261   2.376  12.382 -2.8365 -0.2772 -0.9709
 9437SOL     OW39946   0.672   3.425  14.951 -0.5749 -0.2020  0.3163
 9437SOL    HW139947   0.685   3.396  14.861  3.3204  0.9451  0.4867
 9437SOL    HW239948   0.581   3.454  14.947 -1.0915 -1.4748  2.6822
 9438SOL     OW39949   4.215   0.225  14.622  0.4788 -0.3488  0.4951
 9438SOL    HW139950   4.226   0.177  14.540 -1.4812 -1.0710  0.6421
 9438SOL    HW239951   4.137   0.183  14.658  1.3162 -1.4481  1.0745
 9439SOL     OW39952   4.506   0.971  15.856  0.6777 -0.5410 -0.0233
 9439SOL    HW139953   4.540   0.922  15.931 -0.0951 -2.7616 -1.1382
 9439SOL    HW239954   4.559   0.937  15.783  4.3532  0.0763  2.3386
 9440SOL     OW39955   3.670   0.520   4.078  0.1636  0.3032 -0.0827
 9440SOL    HW139956   3.602   0.586   4.065  0.1234  0.1755 -0.5152
 9440SOL    HW239957   3.614   0.444   4.091  0.0052  0.3204 -0.6719
 9441SOL     OW39958   2.234   3.934  11.279  0.3548  0.5941 -0.1657
 9441SOL    HW139959   2.197   3.896  11.359 -1.4578 -1.2565 -1.8976
 9441SOL    HW239960   2.321   3.895  11.275 -1.2000 -2.7841 -0.5858
 9442SOL     OW39961   1.320   3.348   4.426  0.0986  0.2984 -0.2098
 9442SOL    HW139962   1.314   3.265   4.379 -1.0877 -0.2035  0.8216
 9442SOL    HW239963   1.314   3.414   4.358 -1.7208  0.8345  0.4660
 9443SOL     OW39964   2.927   3.143   9.712 -0.1429  0.2101 -0.5049
 9443SOL    HW139965   3.016   3.138   9.677 -0.1061 -1.1921 -0.2283
 9443SOL    HW239966   2.938   3.164   9.805 -0.6176  0.2970 -0.4670
 9444SOL     OW39967   0.327   3.994  10.345  0.8897 -0.0823  0.5114
 9444SOL    HW139968   0.355   4.032  10.428  0.5248 -1.4470  1.2612
 9444SOL    HW239969   0.390   3.923  10.330  1.8869  0.7427  0.8666
 9445SOL     OW39970   2.333   4.364   0.956 -0.2225 -0.1955 -0.6444
 9445SOL    HW139971   2.407   4.409   0.915  1.4877 -0.9766  1.6083
 9445SOL    HW239972   2.349   4.375   1.050  2.4537  0.5744 -1.1930
 9446SOL     OW39973   1.484   2.823   7.009  0.1198  0.1347  1.0631
 9446SOL    HW139974   1.553   2.858   7.065  1.1715 -1.3891  0.7134
 9446SOL    HW239975   1.456   2.743   7.055 -1.5547  0.0814 -0.0523
 9447SOL     OW39976   2.378   3.498   2.253 -0.2885 -0.1694 -0.1372
 9447SOL    HW139977   2.431   3.541   2.186 -2.8779  3.0184 -0.1192
 9447SOL    HW239978   2.304   3.472   2.198  0.4522 -2.6428  0.0291
 9448SOL     OW39979   0.806   3.497   5.846 -0.6234 -0.0154  0.0818
 9448SOL    HW139980   0.754   3.457   5.915  2.7945 -2.1876  1.3698
 9448SOL    HW239981   0.755   3.467   5.770  0.6770 -1.9227 -0.0331
 9449SOL     OW39982   2.499   0.499   4.585  0.0845 -0.4053 -0.4141
 9449SOL    HW139983   2.555   0.434   4.628 -0.6104  0.7459  2.1830
 9449SOL    HW239984   2.471   0.538   4.667  0.0230 -2.0803  0.3690
 9450SOL     OW39985   0.674   3.760   5.339  0.3958 -0.2432 -0.5198
 9450SOL    HW139986   0.755   3.801   5.307 -0.0646  0.3791 -0.8724
 9450SOL    HW239987   0.658   3.825   5.407  0.5088 -1.7908  1.0031
 9451SOL     OW39988   1.511   2.956  15.560 -0.0099  0.3758  0.0920
 9451SOL    HW139989   1.442   2.891  15.546 -0.1150  0.7088 -0.8871
 9451SOL    HW239990   1.510   2.975  15.654  0.9038 -1.2370  0.4292
 9452SOL     OW39991   1.548   2.331   6.545 -0.0815  0.1164  0.0936
 9452SOL    HW139992   1.588   2.250   6.513 -0.9243 -1.3398  2.6574
 9452SOL    HW239993   1.461   2.317   6.506  0.4754  1.7154 -1.7279
 9453SOL     OW39994   4.195   1.180   8.887  0.0029  0.4146  0.0081
 9453SOL    HW139995   4.150   1.095   8.890  1.7002 -0.5950 -2.9227
 9453SOL    HW239996   4.130   1.228   8.836 -1.9351 -0.7372  1.3863
 9454SOL     OW39997   1.016   1.432   3.738  0.0950  0.0350  0.0207
 9454SOL    HW139998   1.086   1.410   3.799 -0.6612  0.0694  0.8964
 9454SOL    HW239999   1.054   1.379   3.667 -0.9189  0.0517 -0.5399
 9455SOL     OW40000   1.654   2.945   9.542  0.4234  0.4294  0.0686
 9455SOL    HW140001   1.588   3.007   9.573 -0.8731  0.1097 -2.0681
 9455SOL    HW240002   1.608   2.861   9.545  0.7484  0.2048 -1.1384
 9456SOL     OW40003   4.643   0.025   3.334 -0.1889 -0.1061  0.8001
 9456SOL    HW140004   4.666   4.714   3.255 -1.7121 -1.7819  1.3743
 9456SOL    HW240005   4.675   0.111   3.308 -1.0769 -0.3178 -0.9545
 9457SOL     OW40006   0.703   4.216   7.317 -0.4763 -0.6330  1.3916
 9457SOL    HW140007   0.632   4.226   7.380 -0.0794 -1.1618  1.9176
 9457SOL    HW240008   0.682   4.136   7.268  2.7608 -0.6633  0.0729
 9458SOL     OW40009   4.541   4.169   2.504  0.0516  0.1251  0.4116
 9458SOL    HW140010   4.553   4.205   2.591  1.1429 -1.7179  1.0201
 9458SOL    HW240011   4.448   4.144   2.504  0.2890 -0.7746 -0.3376
 9459SOL     OW40012   1.110   0.965   4.529  0.3254 -0.1270  0.1434
 9459SOL    HW140013   1.093   0.876   4.497  0.0943 -0.1779  0.3982
 9459SOL    HW240014   1.205   0.969   4.539 -0.0512  3.7106  2.1974
 9460SOL     OW40015   2.196   1.777  17.280  0.3668  0.6396  0.2956
 9460SOL    HW140016   2.258   1.845  17.250  0.1909  0.3156 -0.8198
 9460SOL    HW240017   2.246   1.736  17.350  1.6545  0.5642 -0.6597
 9461SOL     OW40018   4.697   1.675   7.992 -0.0864 -0.5438  0.2114
 9461SOL    HW140019   0.049   1.666   8.026 -0.1031 -0.6687  0.2216
 9461SOL    HW240020   4.643   1.661   8.070  1.9301 -2.2496  1.2951
 9462SOL     OW40021   4.131   2.792   9.455 -0.0228  0.0916 -0.1026
 9462SOL    HW140022   4.190   2.744   9.397 -1.2833 -1.2052 -0.3123
 9462SOL    HW240023   4.131   2.876   9.408  0.2017  0.8579  1.2831
 9463SOL     OW40024   4.699   0.906   5.473  0.2252  0.5233 -0.7847
 9463SOL    HW140025   4.667   0.995   5.485 -1.4495  0.0548 -1.8248
 9463SOL    HW240026   4.644   0.850   5.528  1.5388  1.1554  1.1825
 9464SOL     OW40027   4.708   4.624  10.811 -0.9479 -0.0240  0.0633
 9464SOL    HW140028   0.058   4.601  10.844 -1.1818  0.4584  1.0177
 9464SOL    HW240029   4.730   4.685  10.740  0.6406 -2.3078 -1.3734
 9465SOL     OW40030   4.167   0.657   0.926 -0.5311 -0.0728  0.1735
 9465SOL    HW140031   4.144   0.690   1.013 -1.7728  2.8071 -1.2235
 9465SOL    HW240032   4.188   0.740   0.883  1.6102 -1.2688 -1.0655
 9466SOL     OW40033   3.513   2.931   4.898  0.8695 -0.0252 -0.3876
 9466SOL    HW140034   3.606   2.935   4.877  1.2764 -0.3689  1.3518
 9466SOL    HW240035   3.483   2.910   4.810 -0.4557  0.1449  0.0217
 9467SOL     OW40036   0.697   1.378   8.174  0.0054  0.2427  0.2763
 9467SOL    HW140037   0.674   1.288   8.199  0.8289  0.3023  1.2527
 9467SOL    HW240038   0.619   1.409   8.127 -1.0275  1.4750  2.8446
 9468SOL     OW40039   2.681   3.553   3.119 -0.2428  0.3374  0.2374
 9468SOL    HW140040   2.662   3.467   3.081  1.7630 -0.2098  0.4912
 9468SOL    HW240041   2.774   3.555   3.099  0.2829  0.6275  2.7354
 9469SOL     OW40042   2.832   1.550   1.982  0.0695 -0.4246 -0.4940
 9469SOL    HW140043   2.803   1.499   2.057 -1.9769  0.3966 -0.7279
 9469SOL    HW240044   2.927   1.537   1.990  0.5067  1.5230 -2.3268
 9470SOL     OW40045   0.517   1.974   2.761  0.1672 -0.5410  0.9700
 9470SOL    HW140046   0.480   1.936   2.681  0.4082 -0.7560  0.9616
 9470SOL    HW240047   0.524   1.895   2.814  2.3163 -0.6522  0.5041
 9471SOL     OW40048   0.671   1.858  16.218 -0.1754 -0.0716  0.6041
 9471SOL    HW140049   0.597   1.896  16.265 -0.4064  0.5746 -0.2840
 9471SOL    HW240050   0.749   1.894  16.261  0.6120  0.6676 -1.4263
 9472SOL     OW40051   2.731   2.172   1.139  0.7353  0.1396  0.0945
 9472SOL    HW140052   2.693   2.206   1.057  0.7784  1.6969  0.7145
 9472SOL    HW240053   2.770   2.252   1.174  0.6809  0.7381 -1.1923
 9473SOL     OW40054   3.028   0.480   0.230 -0.4143  0.2928  0.6666
 9473SOL    HW140055   2.940   0.483   0.193  1.1836 -1.4607 -3.2536
 9473SOL    HW240056   3.016   0.416   0.301 -0.8372  1.3236  1.5115
 9474SOL     OW40057   1.832   0.662  11.846 -0.2762  0.4569 -0.3647
 9474SOL    HW140058   1.739   0.671  11.825 -0.4781 -0.6448  0.0269
 9474SOL    HW240059   1.857   0.748  11.814  1.5079  0.5407  1.2602
 9475SOL     OW40060   2.854   2.065  11.403 -0.6459  0.0910  0.0927
 9475SOL    HW140061   2.916   2.018  11.347  0.0649  0.3741  0.6399
 9475SOL    HW240062   2.899   2.149  11.407  0.0106 -0.3594  1.9027
 9476SOL     OW40063   2.553   4.305   3.616  0.3645 -0.5131  0.2617
 9476SOL    HW140064   2.527   4.222   3.576 -1.3008 -0.1392  0.5990
 9476SOL    HW240065   2.493   4.358   3.564  1.2352 -0.4174 -0.6385
 9477SOL     OW40066   2.018   0.241  13.152 -0.2657 -0.2321  0.9234
 9477SOL    HW140067   2.078   0.314  13.162 -1.0443  0.8345 -2.0715
 9477SOL    HW240068   1.933   0.283  13.164 -0.0147  0.7195 -0.6164
 9478SOL     OW40069   2.800   2.082  16.404 -0.3048  0.5556  0.2864
 9478SOL    HW140070   2.714   2.115  16.431 -0.5683  1.3016 -1.4416
 9478SOL    HW240071   2.824   2.023  16.476 -1.7444 -0.7977 -0.3435
 9479SOL     OW40072   0.055   2.857   8.709  0.9056  0.1624  0.6445
 9479SOL    HW140073   0.089   2.928   8.764 -0.4748  2.4964 -1.5106
 9479SOL    HW240074   4.721   2.895   8.657 -0.0940 -2.3881  0.1830
 9480SOL     OW40075   0.075   4.655   4.911 -0.3079 -0.3077  0.0770
 9480SOL    HW140076   0.137   4.594   4.950 -0.4925 -0.6733 -0.2100
 9480SOL    HW240077   4.729   4.609   4.927 -0.4094 -0.1616 -0.0257
 9481SOL     OW40078   1.436   1.458   4.312  0.1115  0.0613 -0.1567
 9481SOL    HW140079   1.493   1.529   4.342  2.0420 -1.5337 -0.0632
 9481SOL    HW240080   1.500   1.388   4.295 -0.6815 -0.9905  1.2359
 9482SOL     OW40081   4.531   1.090   2.728 -0.0464  0.5190 -0.2957
 9482SOL    HW140082   4.525   1.178   2.765 -0.6048 -0.7364  2.5992
 9482SOL    HW240083   4.487   1.038   2.795  0.0581 -1.1066 -1.4695
 9483SOL     OW40084   4.358   2.336   4.358  1.2526  0.0227 -0.8889
 9483SOL    HW140085   4.320   2.378   4.435  1.5485 -1.2089 -0.0745
 9483SOL    HW240086   4.411   2.264   4.393  0.5903 -1.2257 -2.4993
 9484SOL     OW40087   1.750   0.507  12.881 -0.6602  0.0660  0.2924
 9484SOL    HW140088   1.792   0.468  12.805 -0.7219  0.9605 -0.1974
 9484SOL    HW240089   1.714   0.586  12.840  0.1983  1.1606  1.6787
 9485SOL     OW40090   4.100   1.473   8.591  0.4981  0.3879  0.3821
 9485SOL    HW140091   4.134   1.548   8.640 -0.1574  1.2861 -0.5330
 9485SOL    HW240092   4.056   1.527   8.525 -1.7709  1.0777  2.4605
 9486SOL     OW40093   0.653   2.570   5.885 -0.4530 -0.4196  0.7591
 9486SOL    HW140094   0.664   2.476   5.899  2.8631 -0.2404 -0.6085
 9486SOL    HW240095   0.704   2.594   5.808  0.5881  1.4854  2.0456
 9487SOL     OW40096   4.019   0.772  11.039  0.3787 -0.5928  0.5130
 9487SOL    HW140097   4.062   0.752  10.957 -1.8973 -1.0901 -0.5514
 9487SOL    HW240098   4.047   0.709  11.106 -0.5276 -0.6809  0.8095
 9488SOL     OW40099   2.454   2.081   7.223 -0.0617 -0.4847 -0.4530
 9488SOL    HW140100   2.534   2.109   7.269 -0.3908 -2.9591  1.5709
 9488SOL    HW240101   2.398   2.068   7.299  0.4810  1.2613  0.2417
 9489SOL     OW40102   0.074   2.885  15.972 -0.0597  0.2631 -0.2864
 9489SOL    HW140103   0.056   2.968  15.928  3.0089 -0.3612 -2.7544
 9489SOL    HW240104   4.722   2.870  16.004 -0.6746  0.6086 -1.8076
 9490SOL     OW40105   1.009   4.259   7.131 -0.0267 -0.4786 -0.0834
 9490SOL    HW140106   1.081   4.321   7.125  0.2026 -0.5954  1.3103
 9490SOL    HW240107   1.049   4.198   7.193 -0.7258 -1.4653 -0.6060
 9491SOL     OW40108   1.637   0.120   6.374  0.7863  0.2215 -1.0019
 9491SOL    HW140109   1.634   0.025   6.361  0.1286 -0.0341  0.9627
 9491SOL    HW240110   1.631   0.145   6.282  0.9334 -0.4509 -1.1927
 9492SOL     OW40111   3.026   3.206   7.979  0.1149 -0.3266 -0.4869
 9492SOL    HW140112   3.062   3.198   8.067  0.5630  2.5628 -0.3830
 9492SOL    HW240113   3.100   3.254   7.943  2.3120 -1.8631  1.9861
 9493SOL     OW40114   1.513   1.758   8.583  0.5599  0.4641 -0.3643
 9493SOL    HW140115   1.607   1.746   8.586  0.3169 -1.3337  0.2501
 9493SOL    HW240116   1.494   1.668   8.608  2.3863 -0.3383 -1.9171
 9494SOL     OW40117   2.053   1.110   6.140 -0.4392  0.2754 -0.0660
 9494SOL    HW140118   2.106   1.141   6.213 -0.7088  0.8090 -0.0963
 9494SOL    HW240119   2.123   1.070   6.087 -1.8143 -1.4164 -0.5985
 9495SOL     OW40120   3.958   3.526   5.522  0.3355 -0.0857 -0.2730
 9495SOL    HW140121   3.889   3.514   5.587 -2.1518  0.4979 -2.7619
 9495SOL    HW240122   3.968   3.435   5.496 -1.9781 -1.2245  2.8539
 9496SOL     OW40123   3.980   0.972   6.512 -0.1761  0.7193 -0.1631
 9496SOL    HW140124   3.985   1.067   6.510 -1.9292  0.8289  0.8946
 9496SOL    HW240125   4.069   0.952   6.540  0.6168  1.5715 -2.1147
 9497SOL     OW40126   3.623   4.571   9.386 -0.3674 -0.6668  0.1903
 9497SOL    HW140127   3.618   4.488   9.340  1.2851 -0.7448  0.1277
 9497SOL    HW240128   3.529   4.584   9.395 -0.6381 -1.1445 -1.9503
 9498SOL     OW40129   3.111   3.722   4.329  0.3872 -0.6667 -0.0796
 9498SOL    HW140130   3.052   3.647   4.332 -0.4921  0.1690  3.3074
 9498SOL    HW240131   3.175   3.710   4.399 -1.9711  0.6687  2.3463
 9499SOL     OW40132   1.283   2.010   8.861 -0.3502 -0.3306  0.2557
 9499SOL    HW140133   1.320   1.992   8.775  1.5537  0.5585  0.9004
 9499SOL    HW240134   1.199   2.043   8.826  0.5055  1.4050 -0.1888
 9500SOL     OW40135   3.430   1.634   7.976  0.0367  0.3462 -0.5381
 9500SOL    HW140136   3.384   1.709   8.014 -0.8397 -0.0863 -0.7340
 9500SOL    HW240137   3.352   1.580   7.961  1.0218 -0.7726 -1.6971
 9501SOL     OW40138   0.832   3.277   8.779 -0.2487  0.0852 -0.1856
 9501SOL    HW140139   0.908   3.332   8.761  0.0918  0.9760  3.9855
 9501SOL    HW240140   0.774   3.309   8.709  0.9998  1.6903 -0.4803
 9502SOL     OW40141   3.760   1.174   7.274 -0.2732 -0.5265  0.2746
 9502SOL    HW140142   3.809   1.160   7.355  2.0313 -0.1847 -1.0681
 9502SOL    HW240143   3.762   1.269   7.270  0.2411 -0.5257  0.6473
 9503SOL     OW40144   0.604   0.065   9.650  0.1075 -0.2143  0.0930
 9503SOL    HW140145   0.629   0.128   9.583  0.8185 -0.3157  0.2557
 9503SOL    HW240146   0.518   0.093   9.680  0.9391  1.4409  0.9919
 9504SOL     OW40147   1.063   0.717  17.629 -0.2945 -0.0860  0.0398
 9504SOL    HW140148   1.107   0.800  17.650  2.1888 -0.5129 -3.3395
 9504SOL    HW240149   0.974   0.733  17.660 -0.1227 -2.2182  1.5830
 9505SOL     OW40150   0.287   2.715   4.285 -0.0342 -0.1860 -0.1071
 9505SOL    HW140151   0.321   2.636   4.328  0.5955 -0.0835 -0.4210
 9505SOL    HW240152   0.339   2.776   4.338  1.7514  1.0290 -3.2724
 9506SOL     OW40153   0.436   4.545   9.439 -0.5517  0.0369  0.6460
 9506SOL    HW140154   0.430   4.522   9.532 -1.4965  0.3109  0.6555
 9506SOL    HW240155   0.367   4.490   9.401 -0.4273  0.0457  0.4128
 9507SOL     OW40156   0.873   4.569   8.142  0.2989  0.3037  0.2216
 9507SOL    HW140157   0.874   4.618   8.224  0.4952 -2.3438  1.8245
 9507SOL    HW240158   0.875   4.639   8.077 -0.8077 -0.7861 -0.9895
 9508SOL     OW40159   0.718   3.360   4.669  0.0166 -0.0619  0.1482
 9508SOL    HW140160   0.782   3.399   4.729  0.4854 -0.9086  0.1963
 9508SOL    HW240161   0.665   3.302   4.724  1.0714 -1.2340 -0.0771
 9509SOL     OW40162   3.180   0.978   2.816 -0.3749  0.4264  0.2056
 9509SOL    HW140163   3.246   1.048   2.812 -1.2616  1.2983  0.7054
 9509SOL    HW240164   3.099   1.025   2.834 -0.4802  0.8146 -1.2937
 9510SOL     OW40165   2.940   0.106   7.665  0.2763  0.3988 -0.0854
 9510SOL    HW140166   2.936   0.037   7.598 -0.2164  1.8045 -1.4911
 9510SOL    HW240167   2.956   0.057   7.745  3.8299 -2.4264 -2.5179
 9511SOL     OW40168   0.892   0.093   3.071 -0.2233  0.8891 -0.1847
 9511SOL    HW140169   0.964   0.104   3.134  0.2583 -0.0792 -0.5696
 9511SOL    HW240170   0.883   0.187   3.058  1.0113  0.9935 -0.3070
 9512SOL     OW40171   4.449   1.761   3.513  0.0461 -0.1549 -0.1387
 9512SOL    HW140172   4.358   1.733   3.509  0.2469 -1.0930  1.7148
 9512SOL    HW240173   4.459   1.762   3.608  0.4515  1.9648 -0.1976
 9513SOL     OW40174   0.773   3.309   9.046  0.2440  0.1421 -0.1107
 9513SOL    HW140175   0.818   3.233   9.082 -1.0100 -0.9363 -0.8285
 9513SOL    HW240176   0.802   3.295   8.956 -1.3085 -1.3598 -0.3658
 9514SOL     OW40177   2.097   2.067   0.549  0.0076  0.3136  0.0173
 9514SOL    HW140178   2.034   2.010   0.505 -2.3545  0.2840  3.3884
 9514SOL    HW240179   2.092   2.138   0.485 -1.5013  1.4057  1.3185
 9515SOL     OW40180   3.817   4.163  11.097 -0.2685  0.1070 -0.4922
 9515SOL    HW140181   3.745   4.173  11.160  2.3036  0.6470  2.3492
 9515SOL    HW240182   3.803   4.242  11.046 -1.7886  0.2565  0.1485
 9516SOL     OW40183   3.252   4.322   4.067  0.2042  0.6058 -0.2620
 9516SOL    HW140184   3.332   4.372   4.054  1.1399 -0.4310  1.4748
 9516SOL    HW240185   3.187   4.385   4.036 -2.3892 -2.6779 -1.5481
 9517SOL     OW40186   0.652   1.467   6.243  0.6248 -0.2824 -0.5711
 9517SOL    HW140187   0.620   1.412   6.315  0.2692  0.0820 -0.4535
 9517SOL    HW240188   0.705   1.531   6.291 -2.5296  1.8246  0.0917
 9518SOL     OW40189   0.863   1.887   0.609  0.3596 -0.4642  0.1242
 9518SOL    HW140190   0.819   1.905   0.526  1.3321  2.3035  0.2069
 9518SOL    HW240191   0.805   1.936   0.667 -1.9054  0.3078 -2.7887
 9519SOL     OW40192   1.027   1.147   6.842  0.0205  0.0737 -0.2639
 9519SOL    HW140193   1.039   1.076   6.779 -0.1833 -0.9162  0.8039
 9519SOL    HW240194   0.982   1.208   6.784  0.4019  1.6869  1.1502
 9520SOL     OW40195   0.748   3.174   3.052 -0.4330 -0.2528 -0.3579
 9520SOL    HW140196   0.671   3.181   2.995 -0.5792  0.8153 -0.0228
 9520SOL    HW240197   0.796   3.117   2.992 -0.7488  0.2857 -1.1274
 9521SOL     OW40198   4.662   1.016   0.337  0.0879  0.2435 -0.5455
 9521SOL    HW140199   4.732   1.064   0.381 -0.7815  1.5877 -0.5972
 9521SOL    HW240200   4.693   0.926   0.327 -2.7309 -0.5899 -1.8737
 9522SOL     OW40201   0.460   2.410  12.090 -0.2471  0.2668  0.1838
 9522SOL    HW140202   0.541   2.453  12.116  0.1794 -0.2326 -0.3224
 9522SOL    HW240203   0.470   2.322  12.127  0.5109  0.7699  1.1770
 9523SOL     OW40204   2.894   4.333   8.843  0.6409  0.2349  0.6276
 9523SOL    HW140205   2.974   4.324   8.791  1.4124  0.4295  1.7800
 9523SOL    HW240206   2.908   4.276   8.919  0.8331 -0.1398  0.3154
 9524SOL     OW40207   3.942   3.455   7.356  0.2729 -0.0723 -0.3682
 9524SOL    HW140208   3.923   3.466   7.449 -1.5897 -0.3744 -0.7239
 9524SOL    HW240209   3.934   3.360   7.354 -1.2624  0.1055 -2.2455
 9525SOL     OW40210   2.654   1.151   7.538 -0.3468 -0.0282 -0.0400
 9525SOL    HW140211   2.571   1.118   7.574 -1.1839  2.4731  0.2937
 9525SOL    HW240212   2.622   1.204   7.464  3.1864  1.0267 -0.7829
 9526SOL     OW40213   3.474   3.490   6.423 -0.0438  0.0010 -0.2542
 9526SOL    HW140214   3.470   3.423   6.491 -0.1844  0.3921  0.1270
 9526SOL    HW240215   3.490   3.443   6.341  1.3434 -1.0592  0.6329
 9527SOL     OW40216   2.151   1.307  10.953 -0.3184 -0.0992  0.5979
 9527SOL    HW140217   2.063   1.313  10.916 -0.2568 -3.5712 -0.1627
 9527SOL    HW240218   2.135   1.240  11.020 -0.3130 -1.7350 -1.0230
 9528SOL     OW40219   2.885   2.585   9.014 -0.1459 -0.3909  0.0303
 9528SOL    HW140220   2.970   2.550   8.988  0.5651  1.7052 -0.4897
 9528SOL    HW240221   2.833   2.505   9.012  0.2670 -0.6651  0.2658
 9529SOL     OW40222   1.836   1.103  11.563  0.3630  0.2706  0.1043
 9529SOL    HW140223   1.880   1.187  11.557  2.2158 -0.6322  0.9631
 9529SOL    HW240224   1.858   1.058  11.481  0.4219  0.5898 -0.0554
 9530SOL     OW40225   3.376   1.593   2.272  0.3663 -0.0998 -0.1577
 9530SOL    HW140226   3.444   1.537   2.310  0.2038 -0.1644  0.0354
 9530SOL    HW240227   3.350   1.633   2.355 -0.1057 -3.1164  1.1518
 9531SOL     OW40228   4.692   3.650   2.906  0.1220  0.0297  0.0432
 9531SOL    HW140229   4.630   3.673   2.837  0.5572  0.7442 -0.1035
 9531SOL    HW240230   4.674   3.724   2.963 -1.2060  1.7025 -2.5484
 9532SOL     OW40231   2.278   1.766  16.359  0.3751  0.1612  0.3382
 9532SOL    HW140232   2.368   1.750  16.387  0.8678  3.4182  0.6634
 9532SOL    HW240233   2.233   1.693  16.401 -0.4570  0.1645 -0.5580
 9533SOL     OW40234   3.937   0.576   0.781  0.2773 -0.4121 -0.5318
 9533SOL    HW140235   4.005   0.607   0.841 -1.4514  2.7898 -0.1964
 9533SOL    HW240236   3.869   0.642   0.788  1.3960  0.5014  1.7429
 9534SOL     OW40237   3.757   0.980   3.786  0.0493 -0.1154 -0.2350
 9534SOL    HW140238   3.820   0.919   3.748 -0.1698 -0.5866  0.1547
 9534SOL    HW240239   3.687   0.978   3.721  0.1857 -1.5477 -0.3300
 9535SOL     OW40240   3.438   0.092   3.280 -0.5154 -0.0725 -0.2977
 9535SOL    HW140241   3.374   0.026   3.305 -0.7685 -0.4251 -1.8681
 9535SOL    HW240242   3.515   0.069   3.332 -0.1253 -1.2857 -1.4253
 9536SOL     OW40243   0.041   3.703   4.321 -0.5997  0.8072 -0.4393
 9536SOL    HW140244   0.041   3.723   4.227  0.6291  0.9049 -0.4144
 9536SOL    HW240245   4.691   3.733   4.348 -0.3339 -0.2469  1.5607
 9537SOL     OW40246   3.416   3.533  17.165  0.5347  0.0911 -0.0274
 9537SOL    HW140247   3.494   3.586  17.183  0.8045 -0.2928 -0.0571
 9537SOL    HW240248   3.405   3.558  17.073  1.1693  2.6875  0.6046
 9538SOL     OW40249   1.079   2.976  10.760  0.5160 -0.5142 -0.5317
 9538SOL    HW140250   1.089   2.905  10.823  1.0025 -0.1196 -0.1575
 9538SOL    HW240251   0.997   3.014  10.789  0.6379 -1.0647  0.5330
 9539SOL     OW40252   3.301   4.027   4.741 -0.0677  0.3781  0.1588
 9539SOL    HW140253   3.337   4.062   4.659  1.1208  1.3661  1.1075
 9539SOL    HW240254   3.358   4.053   4.813  1.6160 -0.9495 -0.6857
 9540SOL     OW40255   1.088   4.329   6.463 -0.0957  0.1652 -0.2130
 9540SOL    HW140256   1.171   4.291   6.434 -0.4057  0.5609 -1.6556
 9540SOL    HW240257   1.032   4.252   6.450  0.8802 -0.3721 -1.3083
 9541SOL     OW40258   0.599   2.532   7.158 -0.0141 -0.1293 -0.1439
 9541SOL    HW140259   0.519   2.489   7.189  1.1184 -2.5540 -0.5934
 9541SOL    HW240260   0.615   2.472   7.086 -2.2526  3.1322 -3.3362
 9542SOL     OW40261   2.669   1.892   7.721  0.2486  0.7599 -0.6351
 9542SOL    HW140262   2.584   1.937   7.722  0.4068  1.0166  1.2740
 9542SOL    HW240263   2.644   1.802   7.705  0.9223  0.4147  0.2700
 9543SOL     OW40264   3.906   3.312  16.791 -0.1283  0.1234 -0.0792
 9543SOL    HW140265   3.851   3.235  16.776 -0.0180 -0.4433  2.5836
 9543SOL    HW240266   3.980   3.283  16.737 -0.7377  1.6232 -1.7026
 9544SOL     OW40267   4.288   3.389   8.113  0.6217  0.2315 -0.5601
 9544SOL    HW140268   4.210   3.444   8.115  0.2800 -0.3716  2.5118
 9544SOL    HW240269   4.268   3.340   8.034  1.6974 -0.2702 -0.5151
 9545SOL     OW40270   0.267   0.167   3.014 -0.1877 -0.3984 -0.6175
 9545SOL    HW140271   0.255   0.100   2.947  0.4934 -1.2217  0.0687
 9545SOL    HW240272   0.285   0.251   2.973 -2.5479  0.9532  1.1310
 9546SOL     OW40273   4.413   2.538   5.138  0.2902 -0.1288 -0.2845
 9546SOL    HW140274   4.320   2.519   5.140  0.4908 -0.9236  1.8040
 9546SOL    HW240275   4.457   2.453   5.145  0.1289 -0.2743 -1.0534
 9547SOL     OW40276   0.385   4.365   5.724  0.2547 -0.6030  0.2119
 9547SOL    HW140277   0.358   4.445   5.678 -0.2770  0.7731  2.9547
 9547SOL    HW240278   0.461   4.399   5.770 -1.3774  2.4104  0.6912
 9548SOL     OW40279   1.950   2.302   5.470  0.3834 -0.1837  0.3048
 9548SOL    HW140280   1.955   2.340   5.382 -4.2275  0.3789  0.3042
 9548SOL    HW240281   1.928   2.384   5.515 -1.1693 -1.0871  1.1907
 9549SOL     OW40282   1.614   1.498   9.042  0.4624  0.7988  0.5212
 9549SOL    HW140283   1.696   1.536   9.072  0.7541  1.2210 -0.8107
 9549SOL    HW240284   1.560   1.577   9.036 -1.5018 -0.6377 -0.8254
 9550SOL     OW40285   4.071   1.263  11.256  0.0998  0.2089  0.1384
 9550SOL    HW140286   4.054   1.173  11.229  0.6082  0.5434 -1.3351
 9550SOL    HW240287   3.983   1.293  11.280  0.5728  0.9611  0.9213
 9551SOL     OW40288   0.854   1.960   1.349 -0.3376  0.4799 -0.1372
 9551SOL    HW140289   0.826   1.901   1.419 -1.6496  0.6687 -0.5148
 9551SOL    HW240290   0.949   1.944   1.342  0.0407  1.1731  3.3599
 9552SOL     OW40291   1.701   2.874   7.189 -0.7834 -0.2095  0.3063
 9552SOL    HW140292   1.790   2.855   7.158 -0.2783  2.1034  0.3001
 9552SOL    HW240293   1.709   2.822   7.269  1.6788 -2.6413 -1.5694
 9553SOL     OW40294   0.686   0.539   9.358 -0.0934  0.3104  0.6471
 9553SOL    HW140295   0.614   0.565   9.301  1.3151  2.3751 -0.1612
 9553SOL    HW240296   0.756   0.599   9.335  0.4046 -0.8012 -0.7286
 9554SOL     OW40297   4.533   4.603   7.403 -0.0857 -0.0699 -0.0004
 9554SOL    HW140298   4.490   4.541   7.462 -0.5044 -1.8482 -2.1495
 9554SOL    HW240299   4.456   4.651   7.371  1.6544  2.1336 -0.8813
 9555SOL     OW40300   0.311   4.098   0.146 -0.4538  0.6877 -0.5226
 9555SOL    HW140301   0.330   4.026   0.206 -0.2066  1.7611  0.6854
 9555SOL    HW240302   0.392   4.097   0.094 -0.9406  0.9749 -1.2924
 9556SOL     OW40303   4.232   2.192  12.093 -0.2588  0.3574  0.4478
 9556SOL    HW140304   4.151   2.197  12.043 -1.4765  1.0016  2.4728
 9556SOL    HW240305   4.199   2.158  12.176  0.8533 -1.2425  0.2412
 9557SOL     OW40306   4.181   3.714   3.703 -0.0780 -0.1511  0.3347
 9557SOL    HW140307   4.129   3.709   3.783 -0.1888  1.3638  0.3494
 9557SOL    HW240308   4.180   3.808   3.685  0.8279 -0.2132 -0.0182
 9558SOL     OW40309   1.157   4.395   2.658 -0.3695 -0.7255  0.0491
 9558SOL    HW140310   1.066   4.395   2.628 -0.3166  1.1485 -0.1050
 9558SOL    HW240311   1.205   4.336   2.599 -0.6991 -0.1167 -0.8238
 9559SOL     OW40312   1.793   0.844   5.151 -0.9411  0.0933  0.1389
 9559SOL    HW140313   1.778   0.929   5.194 -1.4720  0.0605  0.0253
 9559SOL    HW240314   1.784   0.791   5.230  0.2791  0.4032  0.4757
 9560SOL     OW40315   3.392   4.123   6.639 -0.0676 -0.1176 -0.4810
 9560SOL    HW140316   3.305   4.156   6.661 -0.7606 -0.1505 -3.1358
 9560SOL    HW240317   3.383   4.095   6.548 -0.2156  1.2605 -0.8933
 9561SOL     OW40318   1.292   2.254   7.192 -0.1733 -0.0646  0.2065
 9561SOL    HW140319   1.242   2.287   7.266 -2.5074  1.4978 -2.0623
 9561SOL    HW240320   1.360   2.217   7.248 -0.5018 -0.2395  0.4958
 9562SOL     OW40321   0.471   4.613   5.050 -0.6980 -0.4288 -0.5726
 9562SOL    HW140322   0.563   4.638   5.036 -0.7971  0.9205  1.1462
 9562SOL    HW240323   0.455   4.582   4.961  1.6625  0.4743 -1.3150
 9563SOL     OW40324   0.254   3.632   8.441 -0.4495 -0.0882 -0.1268
 9563SOL    HW140325   0.197   3.586   8.503 -0.6650  0.1020 -0.1842
 9563SOL    HW240326   0.305   3.560   8.403 -0.6414 -1.8746  3.0174
 9564SOL     OW40327   0.581   3.266   6.226  0.1271 -0.3648  0.0267
 9564SOL    HW140328   0.593   3.237   6.317 -1.8223  0.0377  0.4102
 9564SOL    HW240329   0.488   3.284   6.237 -0.3586 -0.6990 -3.7167
 9565SOL     OW40330   4.248   4.670  14.692 -0.7725 -0.4412 -0.3411
 9565SOL    HW140331   4.175   4.663  14.629 -1.1133 -0.3307  0.0425
 9565SOL    HW240332   4.319   4.698  14.634  0.2253  0.0533  1.1399
 9566SOL     OW40333   0.697   1.521   7.637 -0.2329 -0.0919  0.0445
 9566SOL    HW140334   0.779   1.496   7.679 -0.5164  1.4229  1.5029
 9566SOL    HW240335   0.734   1.522   7.548 -0.4854  0.1748 -0.0585
 9567SOL     OW40336   0.768   2.395  10.669 -0.2858  0.0990  0.2063
 9567SOL    HW140337   0.680   2.357  10.673 -0.4428  0.2782 -1.4977
 9567SOL    HW240338   0.783   2.429  10.581  0.3233 -0.0711  0.2466
 9568SOL     OW40339   1.310   1.768   3.962  0.1797 -0.3027 -0.1086
 9568SOL    HW140340   1.298   1.687   4.012 -0.2800  0.1196  0.4612
 9568SOL    HW240341   1.379   1.806   4.018 -0.4088  1.4897 -0.6166
 9569SOL     OW40342   3.723   3.006   1.992  0.2759 -0.2064 -0.2877
 9569SOL    HW140343   3.769   3.065   2.052 -0.8128  0.9212 -0.5474
 9569SOL    HW240344   3.743   3.052   1.910 -0.4645  0.0967 -0.3021
   4.73698   4.73698  17.74628
